Title
81304
    1CHL1    C3    1   1.153   0.055  10.279 -0.1707 -0.1029 -0.6930
    1CHL1    H3    2   1.185  -0.049  10.300  2.6534  0.3418 -2.2838
    1CHL1    O3    3   1.140   0.116  10.409  0.0944 -0.9524  0.0526
    1CHL1   H3'    4   1.052   0.084  10.431  0.0497 -0.9805 -0.1706
    1CHL1    C4    5   1.268   0.132  10.203 -0.3276 -0.5440  1.0249
    1CHL1   H4A    6   1.237   0.239  10.206  2.3988  0.4364 -1.2003
    1CHL1   H4B    7   1.353   0.116  10.273 -0.0942  0.3246  0.9548
    1CHL1    C5    8   1.278   0.085  10.060  0.0540 -0.3472 -0.0501
    1CHL1    C6    9   1.400   0.049  10.014 -0.4026 -0.4671 -0.2885
    1CHL1    H6   10   1.488   0.071  10.075  0.3135 -0.4602 -1.2960
    1CHL1    C7   11   1.429  -0.010   9.885 -0.9685  0.2513  0.1122
    1CHL1   H7A   12   1.525   0.027   9.843 -1.1159 -0.3246 -0.7802
    1CHL1   H7B   13   1.436  -0.121   9.891 -1.2229  0.2364  0.1423
    1CHL1    C8   14   1.308   0.007   9.787 -0.4578 -0.2601  0.0168
    1CHL1    H8   15   1.318   0.114   9.759  0.7822 -1.0046 -2.6483
    1CHL1   C14   16   1.330  -0.076   9.659 -0.5912  0.1001 -1.3432
    1CHL1   H14   17   1.340  -0.181   9.693  0.0233  0.3103 -0.8522
    1CHL1   C15   18   1.454  -0.045   9.575  0.1204 -0.3123 -0.7770
    1CHL1  H15A   19   1.447   0.065   9.566 -1.6759 -0.3870 -0.7947
    1CHL1  H15B   20   1.544  -0.084   9.625  0.5062  0.5568 -0.7827
    1CHL1   C16   21   1.432  -0.119   9.440 -0.4842 -0.6862  0.4990
    1CHL1  H16A   22   1.465  -0.060   9.352 -0.4834 -1.9431 -0.3712
    1CHL1  H16B   23   1.471  -0.222   9.444  1.0061 -0.2617 -1.4839
    1CHL1   C17   24   1.276  -0.150   9.446  0.3990  0.5353 -0.1556
    1CHL1   H17   25   1.267  -0.258   9.471  0.6787  1.0294  2.4033
    1CHL1   C13   26   1.213  -0.075   9.568 -0.7776 -0.9775  0.2021
    1CHL1   C18   27   1.166   0.071   9.530 -0.1401 -0.3966 -0.4938
    1CHL1  H18A   28   1.147   0.136   9.618 -0.0530 -0.7579 -0.2034
    1CHL1  H18B   29   1.247   0.124   9.476 -1.6101  3.0922  0.4768
    1CHL1  H18C   30   1.080   0.072   9.460 -1.5105 -0.4216  1.1241
    1CHL1   C12   31   1.107  -0.147   9.643  0.2226  0.0814 -0.6828
    1CHL1  H12A   32   1.019  -0.162   9.577  0.6727  2.5130 -1.9516
    1CHL1  H12B   33   1.144  -0.247   9.675  0.5252  0.4927  0.3055
    1CHL1   C11   34   1.061  -0.065   9.766  0.3823  0.4888 -0.3145
    1CHL1  H11A   35   1.006   0.028   9.743 -2.0038 -0.6411  0.4526
    1CHL1  H11B   36   0.988  -0.132   9.817  0.1498  1.7445  1.0652
    1CHL1    C9   37   1.183  -0.035   9.861  0.1208  0.0892  0.7329
    1CHL1    H9   38   1.192  -0.138   9.901 -1.6124 -0.5119 -0.3075
    1CHL1   C10   39   1.150   0.063   9.982  0.2903 -0.3327  0.1309
    1CHL1   C19   40   1.091   0.194   9.924  0.1882 -0.2357 -0.4984
    1CHL1  H19A   41   1.072   0.263  10.009 -2.0414 -0.0037 -1.1140
    1CHL1  H19B   42   1.159   0.248   9.855  0.9802 -0.5565  0.0235
    1CHL1  H19C   43   0.990   0.176   9.880  0.9786 -1.8830 -1.7536
    1CHL1    C1   44   1.039  -0.008  10.072 -0.7261 -0.8940  0.0457
    1CHL1   H1A   45   0.943  -0.014  10.016 -0.9612 -0.8867  0.4401
    1CHL1   H1B   46   1.090  -0.105  10.087  0.7147 -0.1588  0.0636
    1CHL1    C2   47   1.014   0.051  10.210 -0.2379  0.0747 -0.2312
    1CHL1   H2A   48   0.951  -0.014  10.274 -0.4368  0.8938  0.4355
    1CHL1   H2B   49   0.969   0.152  10.200 -0.5471 -0.0425 -0.0296
    1CHL1   C20   50   1.211  -0.136   9.307 -0.0681 -0.4148  0.6337
    1CHL1   H20   51   1.193  -0.030   9.278 -0.6403 -1.0351 -1.4389
    1CHL1   C21   52   1.065  -0.199   9.310  0.2494 -0.0671 -0.4187
    1CHL1  H21A   53   1.003  -0.183   9.219  1.7095 -0.6343 -1.5458
    1CHL1  H21B   54   1.007  -0.141   9.385 -0.4689 -0.1357 -0.9056
    1CHL1  H21C   55   1.079  -0.303   9.345 -1.5693  0.0009  0.6293
    1CHL1   C22   56   1.286  -0.211   9.191 -0.4344  0.3396  0.3064
    1CHL1  H22A   57   1.386  -0.166   9.174  0.0397 -0.8034 -0.0146
    1CHL1  H22B   58   1.304  -0.316   9.223 -0.4401 -0.0473 -0.8874
    1CHL1   C23   59   1.225  -0.227   9.054  0.3605  0.6781  0.2581
    1CHL1  H23A   60   1.291  -0.288   8.989  1.4590  0.3070  1.6713
    1CHL1  H23B   61   1.126  -0.276   9.059 -0.0205  1.3958 -0.0421
    1CHL1   C24   62   1.190  -0.095   8.979 -0.2192 -0.3314  0.1895
    1CHL1  H24A   63   1.110  -0.034   9.026  1.0376  1.4062  0.1640
    1CHL1  H24B   64   1.288  -0.044   8.982  0.3238 -0.9306 -3.1334
    1CHL1   C25   65   1.148  -0.106   8.830 -0.5553 -0.0679  0.3880
    1CHL1   H25   66   1.040  -0.130   8.835 -0.5650 -0.4941 -1.2618
    1CHL1   C26   67   1.158   0.028   8.762  0.2720  0.0046  0.2146
    1CHL1  H26A   68   1.120   0.009   8.660  0.6794 -1.0039  0.2346
    1CHL1  H26B   69   1.102   0.106   8.817  1.3985  0.4660  0.7577
    1CHL1  H26C   70   1.262   0.062   8.742  0.8583 -2.6951 -2.0385
    1CHL1   C27   71   1.214  -0.211   8.742 -0.1466 -0.2272  0.6500
    1CHL1  H27A   72   1.148  -0.229   8.655 -0.8688  1.8647  0.6954
    1CHL1  H27B   73   1.315  -0.190   8.701  0.2728 -2.6080  0.3123
    1CHL1  H27C   74   1.214  -0.300   8.808  2.5911  0.1798  1.3031
    2CHL1    C3   75   1.091   4.943  10.017  0.3326 -0.8004 -0.5526
    2CHL1    H3   76   0.981   4.958  10.010  0.3312 -1.5520 -3.8973
    2CHL1    O3   77   1.129   4.895  10.141 -0.4147  0.0939  0.0948
    2CHL1   H3'   78   1.092   4.806  10.146  0.4366 -0.2482  0.5492
    2CHL1    C4   79   1.119   4.837   9.917  0.1709  0.1793  0.8535
    2CHL1   H4A   80   1.223   4.803   9.936  0.6144  1.3335  0.5829
    2CHL1   H4B   81   1.058   4.746   9.933 -3.2090  1.6898 -1.9116
    2CHL1    C5   82   1.106   4.883   9.772  0.2703  0.1492 -0.3656
    2CHL1    C6   83   1.036   4.815   9.678  0.1529 -0.1500  0.1004
    2CHL1    H6   84   0.989   4.720   9.706  0.1137  0.2132  1.3321
    2CHL1    C7   85   1.033   4.850   9.529  1.1523 -0.3318  0.0664
    2CHL1   H7A   86   1.051   4.760   9.467  2.6809 -0.6373  0.8907
    2CHL1   H7B   87   0.927   4.878   9.514  1.4590 -0.1348 -2.0293
    2CHL1    C8   88   1.125   4.969   9.488  0.0098 -0.3343 -0.7220
    2CHL1    H8   89   1.227   4.926   9.494 -0.3212 -0.9474  1.2540
    2CHL1   C14   90   1.088   5.036   9.351 -0.2422 -0.4791  0.1623
    2CHL1   H14   91   0.987   5.074   9.378 -0.3030 -1.3644  1.2412
    2CHL1   C15   92   1.068   4.944   9.227 -0.4661  0.3681  0.3085
    2CHL1  H15A   93   1.150   4.869   9.221  1.8369  2.8307 -2.2070
    2CHL1  H15B   94   0.968   4.896   9.231 -1.4520  2.3828  0.8238
    2CHL1   C16   95   1.075   5.041   9.110  0.4259  0.1451 -0.0399
    2CHL1  H16A   96   1.145   5.000   9.033  0.5940  0.1528  0.1099
    2CHL1  H16B   97   0.983   5.054   9.048  2.0182 -1.5779 -3.0030
    2CHL1   C17   98   1.123   5.174   9.161  0.4212 -0.0643 -0.4750
    2CHL1   H17   99   1.035   5.237   9.184 -0.1863 -1.0228 -0.1191
    2CHL1   C13  100   1.186   5.140   9.304 -0.2228  0.2673  0.3123
    2CHL1   C18  101   1.319   5.071   9.270 -0.1251 -0.0713 -0.1214
    2CHL1  H18A  102   1.306   5.002   9.184  3.4321 -1.1519  0.0137
    2CHL1  H18B  103   1.395   5.147   9.240  1.2996 -0.9968  0.9852
    2CHL1  H18C  104   1.367   5.016   9.354 -2.9757  1.2697  2.5911
    2CHL1   C12  105   1.199   5.245   9.412  0.0980 -0.3156  0.7234
    2CHL1  H12A  106   1.279   5.317   9.386 -1.9034  2.0833  0.9023
    2CHL1  H12B  107   1.108   5.306   9.428  0.3734  0.4612 -0.5837
    2CHL1   C11  108   1.232   5.187   9.549  0.2008 -0.3897 -0.7286
    2CHL1  H11A  109   1.333   5.147   9.529  0.9152  1.6282 -1.3507
    2CHL1  H11B  110   1.240   5.272   9.619 -2.7519  0.5421 -1.3740
    2CHL1    C9  111   1.138   5.075   9.594 -0.0374  0.5150  0.1811
    2CHL1    H9  112   1.039   5.117   9.621 -0.4353 -1.8609  2.7885
    2CHL1   C10  113   1.177   5.017   9.734  0.2295 -0.5292 -0.7083
    2CHL1   C19  114   1.331   4.987   9.732 -0.4038  0.2514  0.1589
    2CHL1  H19A  115   1.373   4.924   9.651  2.9798  1.2592  0.9880
    2CHL1  H19B  116   1.387   5.082   9.730 -1.4127  0.8541 -1.1716
    2CHL1  H19C  117   1.351   4.932   9.826 -0.6606 -1.2628 -0.6354
    2CHL1    C1  118   1.146   5.127   9.850  0.5463 -0.4281 -0.1679
    2CHL1   H1A  119   1.214   5.214   9.836 -1.0776  1.0914  0.8883
    2CHL1   H1B  120   1.042   5.163   9.840  0.3398 -1.3408 -1.4457
    2CHL1    C2  121   1.179   5.070   9.988 -0.1031  0.2108  0.2021
    2CHL1   H2A  122   1.166   5.141  10.072  0.4713  1.2932 -0.5994
    2CHL1   H2B  123   1.288   5.051   9.991 -0.0455  0.4556 -0.1726
    2CHL1   C20  124   1.209   5.259   9.067 -0.2440  0.5960  0.3991
    2CHL1   H20  125   1.318   5.236   9.064  0.1674  2.4591 -0.1999
    2CHL1   C21  126   1.185   5.409   9.105 -0.3322 -0.6797 -0.5103
    2CHL1  H21A  127   1.235   5.483   9.039 -2.7077  0.4777 -1.1365
    2CHL1  H21B  128   1.224   5.422   9.208  0.6460 -1.7366 -0.7292
    2CHL1  H21C  129   1.077   5.437   9.105 -0.5291 -1.2308 -2.6468
    2CHL1   C22  130   1.158   5.240   8.917 -0.1522 -0.0106 -0.0767
    2CHL1  H22A  131   1.165   5.133   8.888 -0.1211 -0.4283  1.4033
    2CHL1  H22B  132   1.050   5.263   8.908  0.5035  2.4313 -3.9434
    2CHL1   C23  133   1.243   5.318   8.811  0.1718  0.1796 -0.3776
    2CHL1  H23A  134   1.263   5.419   8.852 -1.2376  0.0702  0.6738
    2CHL1  H23B  135   1.343   5.274   8.793 -0.5851 -1.2710 -1.1982
    2CHL1   C24  136   1.164   5.337   8.682 -0.1873 -0.5268 -0.4754
    2CHL1  H24A  137   1.122   5.245   8.636  1.6270 -1.4956 -0.2809
    2CHL1  H24B  138   1.070   5.395   8.695 -0.1684 -0.6581  0.2903
    2CHL1   C25  139   1.248   5.406   8.573  0.0294  0.5435  0.4038
    2CHL1   H25  140   1.316   5.325   8.539  1.4585  0.6631  2.7603
    2CHL1   C26  141   1.159   5.456   8.452 -0.3170 -0.3124  0.2606
    2CHL1  H26A  142   1.236   5.487   8.378 -1.5991 -0.6562 -1.2512
    2CHL1  H26B  143   1.085   5.376   8.432  1.7807 -2.3215  0.0284
    2CHL1  H26C  144   1.114   5.552   8.483  0.8722  0.2001  0.4772
    2CHL1   C27  145   1.331   5.529   8.614 -0.4390  0.1568  0.0014
    2CHL1  H27A  146   1.413   5.509   8.687  1.0683  0.2653 -1.6082
    2CHL1  H27B  147   1.378   5.556   8.517 -0.1490 -0.1044  0.0672
    2CHL1  H27C  148   1.271   5.617   8.647 -0.8527  0.6320 -1.8801
    3CHL1    C3  149   6.390   5.823  10.233 -0.5863 -0.4051 -0.5488
    3CHL1    H3  150   6.300   5.758  10.221  0.0384 -0.9681 -2.7441
    3CHL1    O3  151   6.429   5.836  10.373  0.5010 -0.0650  0.2619
    3CHL1   H3'  152   6.524   5.848  10.371  0.3830  0.7996 -0.9836
    3CHL1    C4  153   6.501   5.757  10.157 -0.4791 -0.6283  0.5200
    3CHL1   H4A  154   6.594   5.811  10.183 -1.5226  2.0678 -0.9166
    3CHL1   H4B  155   6.519   5.659  10.206 -0.1323 -0.4661  0.7240
    3CHL1    C5  156   6.484   5.753  10.002 -0.4611  0.5203 -0.2209
    3CHL1    C6  157   6.487   5.647   9.921  0.1375 -0.0241  0.1558
    3CHL1    H6  158   6.505   5.552   9.974  0.6313  1.1199  2.1156
    3CHL1    C7  159   6.474   5.661   9.773 -0.5419  0.0842 -1.0310
    3CHL1   H7A  160   6.537   5.577   9.735  0.2311 -0.1668  0.6791
    3CHL1   H7B  161   6.369   5.638   9.746 -1.4718  0.8594  1.6169
    3CHL1    C8  162   6.514   5.802   9.716 -0.5328 -0.2891 -0.3588
    3CHL1    H8  163   6.623   5.821   9.722 -0.0391 -2.2035 -2.1098
    3CHL1   C14  164   6.480   5.803   9.562 -1.3533 -0.3594  1.0699
    3CHL1   H14  165   6.373   5.772   9.553 -1.7071  1.2744 -1.0319
    3CHL1   C15  166   6.553   5.702   9.469  0.0522  0.5171  0.2259
    3CHL1  H15A  167   6.663   5.702   9.487  0.3515 -0.5941 -1.4010
    3CHL1  H15B  168   6.507   5.600   9.471 -0.1784  0.6170 -0.0389
    3CHL1   C16  169   6.523   5.758   9.328  0.3098 -0.2614 -0.0168
    3CHL1  H16A  170   6.624   5.787   9.294  0.6482 -1.4776 -0.0667
    3CHL1  H16B  171   6.485   5.692   9.248  2.0954  1.4130 -2.3678
    3CHL1   C17  172   6.451   5.900   9.346  0.0357 -0.0922  0.0779
    3CHL1   H17  173   6.344   5.868   9.341  0.2888 -0.7771 -1.5213
    3CHL1   C13  174   6.492   5.937   9.491  0.3701  0.4567  0.6625
    3CHL1   C18  175   6.638   5.982   9.496 -0.2490  0.4271 -0.1399
    3CHL1  H18A  176   6.706   5.910   9.446  0.8788 -0.2071  2.1431
    3CHL1  H18B  177   6.661   6.065   9.426 -2.2344  0.6956 -0.5092
    3CHL1  H18C  178   6.682   5.993   9.598  0.3884 -0.9389 -0.2427
    3CHL1   C12  179   6.387   6.038   9.566  0.2888  0.5264 -0.5428
    3CHL1  H12A  180   6.394   6.143   9.532  0.5542  0.5568 -0.4002
    3CHL1  H12B  181   6.280   6.009   9.562 -0.0126  1.4432  0.4781
    3CHL1   C11  182   6.419   6.031   9.718  0.2976  0.0031 -1.2583
    3CHL1  H11A  183   6.520   6.077   9.722  0.3103  0.0203 -1.7284
    3CHL1  H11B  184   6.353   6.099   9.776  0.1203 -1.3865  0.2396
    3CHL1    C9  185   6.420   5.900   9.788 -0.4478  0.2910 -0.1562
    3CHL1    H9  186   6.321   5.851   9.788  0.3256 -1.4184 -2.2477
    3CHL1   C10  187   6.459   5.895   9.945  0.0993  0.3057  0.5013
    3CHL1   C19  188   6.594   5.971   9.966  0.1999  0.0880 -0.6754
    3CHL1  H19A  189   6.614   5.995  10.073  1.8277 -0.5267 -0.8223
    3CHL1  H19B  190   6.681   5.920   9.921  1.1493  0.3255  0.8072
    3CHL1  H19C  191   6.590   6.073   9.923 -1.0592  1.6625  2.7591
    3CHL1    C1  192   6.339   5.954  10.026 -0.6273 -0.2374  0.3420
    3CHL1   H1A  193   6.332   6.055   9.978  1.1255 -0.0549  0.3944
    3CHL1   H1B  194   6.252   5.891   9.998 -0.2521 -0.7777  0.3860
    3CHL1    C2  195   6.359   5.962  10.179  0.5440 -0.0122  0.6801
    3CHL1   H2A  196   6.262   5.993  10.221  0.6997 -0.5922  1.5004
    3CHL1   H2B  197   6.439   6.037  10.196  1.0219 -0.3727  0.0931
    3CHL1   C20  198   6.477   5.999   9.235 -0.6497  0.6056 -0.1124
    3CHL1   H20  199   6.579   6.041   9.231 -0.1201 -0.4792  1.1261
    3CHL1   C21  200   6.390   6.119   9.246  0.5646  0.2637 -0.0014
    3CHL1  H21A  201   6.283   6.088   9.247  0.9984 -1.6459 -2.4301
    3CHL1  H21B  202   6.390   6.187   9.157 -2.0553 -1.0590 -1.1200
    3CHL1  H21C  203   6.425   6.175   9.335  2.2502  0.8894 -1.0118
    3CHL1   C22  204   6.463   5.932   9.093 -0.2174  0.4306 -0.4831
    3CHL1  H22A  205   6.538   5.850   9.086 -2.5352 -1.9394  0.4795
    3CHL1  H22B  206   6.365   5.879   9.096  0.0831 -0.1054  1.5961
    3CHL1   C23  207   6.481   6.019   8.972 -0.3856 -0.3202 -0.4716
    3CHL1  H23A  208   6.391   6.085   8.966 -2.7597 -3.1698  1.0226
    3CHL1  H23B  209   6.570   6.084   8.983 -0.5024 -0.3328  0.8122
    3CHL1   C24  210   6.491   5.945   8.836 -1.1325  0.2090 -0.7413
    3CHL1  H24A  211   6.568   5.866   8.849 -0.3924  0.8550 -1.1660
    3CHL1  H24B  212   6.398   5.888   8.812  0.1038 -2.1660 -0.2373
    3CHL1   C25  213   6.536   6.028   8.720  0.5669 -0.1708 -0.0652
    3CHL1   H25  214   6.641   6.059   8.734  0.1857  0.9540  0.4393
    3CHL1   C26  215   6.538   5.943   8.591  0.0655  0.1195 -0.2947
    3CHL1  H26A  216   6.639   5.897   8.587  0.2664  0.4193  0.8742
    3CHL1  H26B  217   6.472   5.854   8.604  1.6999 -1.3965 -1.8487
    3CHL1  H26C  218   6.518   5.991   8.493 -2.2398  0.1812  0.1433
    3CHL1   C27  219   6.444   6.154   8.696  0.5989  0.7306  0.0898
    3CHL1  H27A  220   6.493   6.206   8.611  1.2126 -1.8217 -1.2347
    3CHL1  H27B  221   6.343   6.113   8.679  1.5821 -1.7657 -0.2295
    3CHL1  H27C  222   6.457   6.207   8.793  1.4877  1.4984 -0.4339
    4CHL1    C3  223   2.253   1.354  10.549  0.0067 -0.1141  0.1074
    4CHL1    H3  224   2.229   1.458  10.517  0.3040  0.4060  1.5269
    4CHL1    O3  225   2.272   1.365  10.687  0.0204 -0.0193 -0.5516
    4CHL1   H3'  226   2.313   1.285  10.721 -1.0796 -0.9193 -1.2471
    4CHL1    C4  227   2.145   1.257  10.518  0.7561 -0.5833  0.0317
    4CHL1   H4A  228   2.172   1.168  10.579  0.7836  1.0265  2.5529
    4CHL1   H4B  229   2.054   1.292  10.571  1.4050 -0.2305  0.9464
    4CHL1    C5  230   2.127   1.245  10.369  0.0014  0.1193  0.0640
    4CHL1    C6  231   2.008   1.280  10.310 -0.2797  1.4822 -0.5223
    4CHL1    H6  232   1.927   1.290  10.384  1.0635 -2.3104  1.7485
    4CHL1    C7  233   1.974   1.272  10.166 -1.1613  0.1342 -0.0729
    4CHL1   H7A  234   1.882   1.211  10.157 -1.1798 -0.0652  1.2582
    4CHL1   H7B  235   1.966   1.375  10.126  2.2828  0.8406  0.7206
    4CHL1    C8  236   2.090   1.209  10.086  0.6531 -0.5556  0.7200
    4CHL1    H8  237   2.085   1.099  10.100  0.9642 -0.5695  0.7267
    4CHL1   C14  238   2.073   1.238   9.937  0.0678  0.2793 -0.4184
    4CHL1   H14  239   2.086   1.346   9.914 -0.1690 -0.0938 -2.4241
    4CHL1   C15  240   1.947   1.193   9.871  0.3138 -0.4489  0.3215
    4CHL1  H15A  241   1.919   1.097   9.919 -0.4316 -0.5274 -0.2506
    4CHL1  H15B  242   1.866   1.264   9.901  1.1209 -0.8684  4.0101
    4CHL1   C16  243   1.976   1.174   9.723  0.5469  0.0168  0.3189
    4CHL1  H16A  244   1.965   1.070   9.685  1.2800  0.0409  0.0202
    4CHL1  H16B  245   1.910   1.240   9.663  0.2739  1.7253  2.3890
    4CHL1   C17  246   2.135   1.210   9.709  0.5335  0.0334 -0.1036
    4CHL1   H17  247   2.140   1.321   9.701 -0.2350  0.1380  0.6983
    4CHL1   C13  248   2.186   1.167   9.849 -0.1600  0.9085 -0.3314
    4CHL1   C18  249   2.188   1.012   9.868  0.0995  0.3257 -0.1289
    4CHL1  H18A  250   2.262   0.955   9.808  1.4241  0.9575  0.8570
    4CHL1  H18B  251   2.217   0.990   9.973  0.3913  1.7452  0.1063
    4CHL1  H18C  252   2.091   0.964   9.844 -0.5693 -0.3425  3.3597
    4CHL1   C12  253   2.314   1.234   9.896  0.8269  0.1306 -0.3732
    4CHL1  H12A  254   2.408   1.199   9.847  1.1370 -2.0990  1.6193
    4CHL1  H12B  255   2.299   1.341   9.870  3.0903  0.1978 -1.7843
    4CHL1   C11  256   2.352   1.222  10.044  0.3452  0.0453 -0.2791
    4CHL1  H11A  257   2.396   1.121  10.058 -1.3605 -0.4579  2.0625
    4CHL1  H11B  258   2.429   1.299  10.066 -0.1271  0.4011  0.1325
    4CHL1    C9  259   2.230   1.256  10.136 -0.0040 -0.3330 -0.1738
    4CHL1    H9  260   2.221   1.367  10.124  0.7867  0.2083  3.1543
    4CHL1   C10  261   2.258   1.225  10.288  0.0405  0.0524  0.1236
    4CHL1   C19  262   2.294   1.073  10.295 -0.1301 -0.8341 -0.6121
    4CHL1  H19A  263   2.333   1.059  10.398 -0.7934  1.7911  0.0651
    4CHL1  H19B  264   2.217   1.005  10.254  0.2953  0.0190 -2.9761
    4CHL1  H19C  265   2.385   1.050  10.235 -0.9205  0.1862 -2.2906
    4CHL1    C1  266   2.370   1.315  10.340 -0.2221 -0.0030  0.3310
    4CHL1   H1A  267   2.460   1.279  10.286 -1.3666  0.0459 -1.7556
    4CHL1   H1B  268   2.351   1.420  10.310 -0.7683  0.3503  1.8481
    4CHL1    C2  269   2.392   1.314  10.486 -0.2750  0.6806 -0.2761
    4CHL1   H2A  270   2.476   1.378  10.520 -0.3646  0.3132  0.6767
    4CHL1   H2B  271   2.405   1.210  10.525 -3.8455  0.7512  1.5046
    4CHL1   C20  272   2.194   1.163   9.581 -0.1892 -0.0985  0.5346
    4CHL1   H20  273   2.180   1.053   9.577  0.5908 -0.3082  2.3475
    4CHL1   C21  274   2.342   1.210   9.566  0.4110 -0.1435  0.5366
    4CHL1  H21A  275   2.391   1.170   9.475 -2.0052 -0.8540 -0.5276
    4CHL1  H21B  276   2.400   1.183   9.657  3.3186  1.7587 -0.6258
    4CHL1  H21C  277   2.347   1.321   9.570 -0.2646 -0.1099  0.5455
    4CHL1   C22  278   2.107   1.213   9.464 -0.2773  0.4241  0.7283
    4CHL1  H22A  279   2.001   1.182   9.477 -1.1253  2.4277 -0.8698
    4CHL1  H22B  280   2.108   1.324   9.458  1.8712  0.3898 -0.1635
    4CHL1   C23  281   2.142   1.161   9.323 -0.3081  0.7719 -0.4447
    4CHL1  H23A  282   2.240   1.206   9.296  0.0469  0.7449  0.7688
    4CHL1  H23B  283   2.157   1.051   9.326  0.8535  0.9261  0.0710
    4CHL1   C24  284   2.048   1.203   9.207 -0.6585  0.3146  0.0874
    4CHL1  H24A  285   1.950   1.151   9.208  0.5474 -2.4929 -3.3575
    4CHL1  H24B  286   2.035   1.313   9.215 -3.4986  0.0639 -0.0446
    4CHL1   C25  287   2.097   1.175   9.063 -0.5698 -0.0916  0.4977
    4CHL1   H25  288   2.204   1.204   9.053 -0.9803  1.1260 -0.8028
    4CHL1   C26  289   2.088   1.024   9.025 -0.1210 -0.3985 -0.0160
    4CHL1  H26A  290   2.170   0.964   9.071  0.4671  0.2036 -0.2629
    4CHL1  H26B  291   1.995   0.979   9.067 -0.7561  0.1234 -0.8351
    4CHL1  H26C  292   2.092   0.999   8.917 -2.8758  0.7001 -0.4548
    4CHL1   C27  293   2.012   1.263   8.971 -0.9796 -0.1699 -0.4625
    4CHL1  H27A  294   2.046   1.259   8.865  0.0616  2.8841 -0.3359
    4CHL1  H27B  295   1.906   1.230   8.958 -0.6922 -0.8506 -1.1431
    4CHL1  H27C  296   2.022   1.368   9.006  0.3640  0.0337 -1.3860
    5CHL1    C3  297   5.665   1.434  10.095  0.0357  0.5098 -1.4140
    5CHL1    H3  298   5.614   1.336  10.079 -2.6158  1.7435 -1.1640
    5CHL1    O3  299   5.626   1.483  10.222  0.0604  0.1859 -0.3665
    5CHL1   H3'  300   5.661   1.573  10.227 -1.5881  0.7955  1.2230
    5CHL1    C4  301   5.820   1.429  10.094 -0.1456  0.0261 -0.3169
    5CHL1   H4A  302   5.867   1.526  10.122  1.1524 -0.1191 -1.7949
    5CHL1   H4B  303   5.851   1.364  10.179  0.3081  0.6532  0.0034
    5CHL1    C5  304   5.868   1.371   9.965 -0.1778 -0.6066  0.0630
    5CHL1    C6  305   5.938   1.259   9.965 -0.4609 -0.4092  0.6407
    5CHL1    H6  306   5.966   1.214  10.061 -1.6496 -0.3049  1.0564
    5CHL1    C7  307   5.976   1.192   9.838 -0.1771  0.1640 -0.3943
    5CHL1   H7A  308   6.074   1.142   9.845 -0.4319 -0.3358 -0.3821
    5CHL1   H7B  309   5.901   1.112   9.820 -1.9049  1.7067 -0.3109
    5CHL1    C8  310   5.975   1.284   9.716  0.4976 -0.2818  0.4739
    5CHL1    H8  311   6.048   1.366   9.733  1.1994 -0.2030 -2.4390
    5CHL1   C14  312   5.992   1.204   9.583  0.2570 -0.2538 -0.7915
    5CHL1   H14  313   5.906   1.133   9.578  0.4207 -0.4616 -0.6881
    5CHL1   C15  314   6.119   1.118   9.563  0.2033 -0.1966  0.7575
    5CHL1  H15A  315   6.215   1.162   9.597 -1.5330  3.5389  1.3164
    5CHL1  H15B  316   6.100   1.027   9.625 -0.3193 -0.0858  0.7665
    5CHL1   C16  317   6.117   1.089   9.412 -0.1769  0.6636 -0.7926
    5CHL1  H16A  318   6.223   1.103   9.379 -0.1456  0.5904 -0.7205
    5CHL1  H16B  319   6.091   0.988   9.374  0.1533  0.6237 -0.9162
    5CHL1   C17  320   6.012   1.184   9.342 -0.0432 -0.3591 -0.4705
    5CHL1   H17  321   5.925   1.116   9.330 -1.5410  1.3880  0.0307
    5CHL1   C13  322   5.972   1.282   9.455  0.1691 -0.6096  0.5528
    5CHL1   C18  323   6.070   1.397   9.449 -0.5311 -0.3926  0.0075
    5CHL1  H18A  324   6.055   1.470   9.366 -0.2367 -0.3789 -0.0356
    5CHL1  H18B  325   6.065   1.454   9.544 -0.7318 -1.5054  0.6870
    5CHL1  H18C  326   6.176   1.364   9.438 -0.2597  0.9066 -1.6900
    5CHL1   C12  327   5.831   1.333   9.454  0.4264 -0.2292 -0.4156
    5CHL1  H12A  328   5.817   1.399   9.365 -1.0888  0.3797  0.2478
    5CHL1  H12B  329   5.759   1.248   9.455 -0.6502  0.5656 -2.6730
    5CHL1   C11  330   5.801   1.428   9.577  0.1058  0.8277  0.3102
    5CHL1  H11A  331   5.860   1.522   9.573  1.5592 -0.0279  0.9343
    5CHL1  H11B  332   5.695   1.462   9.570 -1.4288 -2.5148  3.7083
    5CHL1    C9  333   5.835   1.361   9.711  0.6044 -0.0809  0.4214
    5CHL1    H9  334   5.760   1.279   9.711  1.2088 -0.6426  0.5442
    5CHL1   C10  335   5.807   1.439   9.843  0.4166  0.8579  0.1661
    5CHL1   C19  336   5.888   1.573   9.844 -0.1976  0.4970  0.8026
    5CHL1  H19A  337   5.873   1.632   9.937 -0.5778  0.1342  0.9760
    5CHL1  H19B  338   5.998   1.559   9.835 -0.1495  1.6845 -0.7630
    5CHL1  H19C  339   5.865   1.630   9.752  2.4311  0.6629  0.1658
    5CHL1    C1  340   5.652   1.465   9.859  0.0832 -0.0617  0.5320
    5CHL1   H1A  341   5.619   1.530   9.775  0.3748  1.3149  1.4483
    5CHL1   H1B  342   5.606   1.365   9.846 -0.5735  0.3489 -0.4652
    5CHL1    C2  343   5.613   1.527   9.987 -0.0203 -0.0636 -0.0209
    5CHL1   H2A  344   5.505   1.548  10.001 -0.0253  1.6281 -2.1671
    5CHL1   H2B  345   5.658   1.628  10.003  2.1132 -0.5580 -2.3475
    5CHL1   C20  346   6.047   1.223   9.198 -0.1370 -0.1517  0.7330
    5CHL1   H20  347   6.114   1.310   9.211  1.3876 -0.7790 -2.1637
    5CHL1   C21  348   5.923   1.279   9.122 -0.3731  0.1725 -0.0366
    5CHL1  H21A  349   5.860   1.192   9.095  0.3812 -1.0187  1.8228
    5CHL1  H21B  350   5.952   1.333   9.030  0.7686  1.0533  0.8079
    5CHL1  H21C  351   5.864   1.345   9.188  0.5242  0.3930  0.5729
    5CHL1   C22  352   6.121   1.121   9.112 -0.2039  0.5630 -0.3165
    5CHL1  H22A  353   6.194   1.071   9.180 -0.4687  1.9584  1.0569
    5CHL1  H22B  354   6.047   1.041   9.090  0.7291 -0.4663  0.1556
    5CHL1   C23  355   6.187   1.198   8.992 -0.2591  0.0915 -0.2991
    5CHL1  H23A  356   6.129   1.285   8.955 -0.1861  0.1241 -0.3375
    5CHL1  H23B  357   6.280   1.234   9.043  0.3633 -2.5668  0.5989
    5CHL1   C24  358   6.231   1.112   8.874 -0.2804 -0.4670 -0.2989
    5CHL1  H24A  359   6.307   1.035   8.902  2.3096  1.3916 -1.7350
    5CHL1  H24B  360   6.143   1.061   8.830 -1.2031  1.9801 -1.4591
    5CHL1   C25  361   6.297   1.186   8.759  0.6360  0.2293  0.1666
    5CHL1   H25  362   6.248   1.286   8.761 -0.9795 -0.5086 -0.2447
    5CHL1   C26  363   6.448   1.187   8.775  0.0127 -0.2070  0.7338
    5CHL1  H26A  364   6.479   1.224   8.874 -0.9426  0.7074  0.7152
    5CHL1  H26B  365   6.489   1.086   8.753  0.4374  0.4106 -1.6534
    5CHL1  H26C  366   6.504   1.248   8.701 -0.7910  0.4543  0.6614
    5CHL1   C27  367   6.259   1.114   8.628 -0.3110 -0.7833 -0.3874
    5CHL1  H27A  368   6.277   1.004   8.632 -0.4598 -0.7755  2.7216
    5CHL1  H27B  369   6.152   1.130   8.605 -0.8852 -3.9106 -0.3741
    5CHL1  H27C  370   6.312   1.168   8.547 -0.7316  1.9953  1.0625
    6CHL1    C3  371   0.819   1.100  10.296 -0.7413  0.3441 -0.2905
    6CHL1    H3  372   0.905   1.029  10.297 -0.6749  0.4259  0.7490
    6CHL1    O3  373   0.753   1.109  10.421 -0.2701 -0.1297 -0.0298
    6CHL1   H3'  374   0.661   1.107  10.393  0.1119  1.7888 -1.6434
    6CHL1    C4  375   0.854   1.235  10.251 -0.3388 -0.4199  0.3412
    6CHL1   H4A  376   0.773   1.309  10.270  0.9429  0.8361  1.1059
    6CHL1   H4B  377   0.940   1.270  10.312 -1.1419  0.4470  1.0062
    6CHL1    C5  378   0.900   1.238  10.104  0.3005  0.2247  0.6762
    6CHL1    C6  379   1.024   1.292  10.073 -0.1265  0.0128  1.4188
    6CHL1    H6  380   1.090   1.331  10.151  0.9409  0.5765  0.2731
    6CHL1    C7  381   1.071   1.293   9.931  0.5206  0.4326 -0.4261
    6CHL1   H7A  382   1.146   1.374   9.917  0.7328  0.8826  2.6857
    6CHL1   H7B  383   1.137   1.203   9.931 -1.6405 -1.2795  2.0087
    6CHL1    C8  384   0.954   1.282   9.830  0.2322  0.4032  0.5465
    6CHL1    H8  385   0.894   1.375   9.822  2.0295  1.5351 -0.2267
    6CHL1   C14  386   1.000   1.270   9.686  0.0969 -0.9993 -0.2363
    6CHL1   H14  387   1.059   1.177   9.672 -0.5927 -1.4108 -0.4382
    6CHL1   C15  388   1.089   1.378   9.628  0.1706  0.2626  0.4729
    6CHL1  H15A  389   1.053   1.479   9.654 -3.0275 -0.4976 -0.4969
    6CHL1  H15B  390   1.193   1.362   9.663  0.7492  1.6636 -0.5016
    6CHL1   C16  391   1.081   1.353   9.471  0.1402  0.8648 -0.2155
    6CHL1  H16A  392   1.065   1.451   9.421  0.0658  0.6240 -0.6749
    6CHL1  H16B  393   1.172   1.303   9.432 -0.4182  0.5383 -1.1431
    6CHL1   C17  394   0.972   1.246   9.444  0.2553  0.2262 -0.3350
    6CHL1   H17  395   1.024   1.148   9.437  0.1030 -0.0089  1.4518
    6CHL1   C13  396   0.890   1.246   9.574 -0.3927 -0.0937  0.1638
    6CHL1   C18  397   0.805   1.375   9.558 -0.2530  0.9418 -0.0982
    6CHL1  H18A  398   0.770   1.399   9.660 -0.0749 -1.4338  0.5878
    6CHL1  H18B  399   0.857   1.461   9.510  1.5518  0.7837  1.4846
    6CHL1  H18C  400   0.720   1.354   9.488  0.8982  0.6508 -1.4699
    6CHL1   C12  401   0.812   1.121   9.609  0.6735  0.5376  0.1794
    6CHL1  H12A  402   0.733   1.107   9.532 -0.3820  2.9345  0.7226
    6CHL1  H12B  403   0.878   1.032   9.606  0.7068  0.5774 -0.5695
    6CHL1   C11  404   0.756   1.127   9.753  0.4846  0.0101 -0.0082
    6CHL1  H11A  405   0.692   1.217   9.745  0.1767 -0.3315 -1.8333
    6CHL1  H11B  406   0.679   1.047   9.767 -0.8260  1.1749 -0.3019
    6CHL1    C9  407   0.858   1.157   9.864 -0.2768 -0.4053  0.3217
    6CHL1    H9  408   0.939   1.082   9.867  1.4418  1.3202 -0.3867
    6CHL1   C10  409   0.797   1.178  10.002  0.1728 -1.0161 -0.1027
    6CHL1   C19  410   0.670   1.264   9.989  0.1250  0.4926 -0.6088
    6CHL1  H19A  411   0.630   1.295  10.088  0.3324 -1.3272  0.0930
    6CHL1  H19B  412   0.679   1.362   9.939 -1.1846  0.0209 -1.8503
    6CHL1  H19C  413   0.588   1.214   9.932  0.2044 -0.5936  0.1984
    6CHL1    C1  414   0.763   1.042  10.057 -0.0204  0.1181 -0.6428
    6CHL1   H1A  415   0.682   0.999   9.994 -0.6291  1.9892 -1.2129
    6CHL1   H1B  416   0.849   0.973  10.045  0.3847  0.4211  0.4059
    6CHL1    C2  417   0.712   1.034  10.204 -0.8031  0.4685 -0.3827
    6CHL1   H2A  418   0.700   0.930  10.239 -1.6863  0.7361  0.1517
    6CHL1   H2B  419   0.613   1.084  10.206 -0.7546  0.5910 -0.9086
    6CHL1   C20  420   0.917   1.242   9.301 -0.1532 -0.4977  0.0210
    6CHL1   H20  421   0.843   1.325   9.293 -0.5616 -0.8485  0.1172
    6CHL1   C21  422   0.833   1.117   9.265 -0.0290  0.0975  0.1787
    6CHL1  H21A  423   0.734   1.118   9.315  0.3122 -0.7578  0.8750
    6CHL1  H21B  424   0.878   1.018   9.284 -2.0145 -1.5647 -2.9847
    6CHL1  H21C  425   0.829   1.120   9.154  1.8850 -0.5435  0.0645
    6CHL1   C22  426   1.042   1.273   9.206 -0.2694 -0.0880 -0.8827
    6CHL1  H22A  427   1.077   1.374   9.236  1.0269 -1.0225  0.9758
    6CHL1  H22B  428   1.120   1.197   9.232 -0.5609 -0.8556 -2.1649
    6CHL1   C23  429   1.009   1.287   9.056 -0.4020 -0.4951 -0.1933
    6CHL1  H23A  430   0.981   1.187   9.017  1.5167 -0.6718 -1.2323
    6CHL1  H23B  431   0.938   1.370   9.034  0.3914 -0.1318 -1.4883
    6CHL1   C24  432   1.133   1.329   8.974 -0.5871  0.3035 -0.4550
    6CHL1  H24A  433   1.177   1.417   9.024 -0.1976  0.7304 -1.5049
    6CHL1  H24B  434   1.203   1.243   8.970 -0.5479  0.1812  1.9640
    6CHL1   C25  435   1.095   1.381   8.833 -0.0966 -0.0002 -0.0028
    6CHL1   H25  436   1.017   1.312   8.793  0.7089 -0.6524 -0.4644
    6CHL1   C26  437   1.032   1.517   8.837 -0.0767 -0.1290  0.4045
    6CHL1  H26A  438   1.005   1.542   8.732  1.7429 -0.9082 -0.2914
    6CHL1  H26B  439   0.939   1.519   8.897 -0.4450 -0.2631 -0.1580
    6CHL1  H26C  440   1.097   1.602   8.865 -0.1268  1.3838 -3.4480
    6CHL1   C27  441   1.212   1.382   8.725 -0.6286 -0.0006 -0.2569
    6CHL1  H27A  442   1.296   1.444   8.763  1.1160 -1.2997 -1.7863
    6CHL1  H27B  443   1.256   1.280   8.723 -0.6297 -0.1591  2.9216
    6CHL1  H27C  444   1.172   1.421   8.629  2.3002  1.4814 -0.9927
    7CHL1    C3  445   4.290   6.391  10.332  0.2666 -0.4332 -0.9181
    7CHL1    H3  446   4.285   6.290  10.378 -0.6979  0.8882  2.1347
    7CHL1    O3  447   4.240   6.479  10.432  0.7428 -0.4551 -0.4203
    7CHL1   H3'  448   4.280   6.564  10.413  0.4973  0.4319  2.4677
    7CHL1    C4  449   4.437   6.419  10.313 -0.0612  0.3578 -0.3454
    7CHL1   H4A  450   4.453   6.525  10.281  2.8010  0.3581  0.8327
    7CHL1   H4B  451   4.492   6.412  10.409  1.3310  0.7138 -1.0852
    7CHL1    C5  452   4.500   6.331  10.204  0.1262 -0.5398 -0.2549
    7CHL1    C6  453   4.611   6.253  10.216  0.0877  0.1831  0.8190
    7CHL1    H6  454   4.669   6.232  10.307  0.8524 -2.7828 -0.2665
    7CHL1    C7  455   4.676   6.175  10.102  0.2269  0.1683 -0.1170
    7CHL1   H7A  456   4.786   6.187  10.100  0.1278  1.4518  0.7764
    7CHL1   H7B  457   4.641   6.070  10.106 -2.2069  0.7550 -2.6178
    7CHL1    C8  458   4.618   6.214   9.959  0.5207  0.0523  0.2859
    7CHL1    H8  459   4.651   6.316   9.929 -1.1136 -0.0043 -2.0597
    7CHL1   C14  460   4.658   6.123   9.852 -0.0389 -0.4488  0.0929
    7CHL1   H14  461   4.616   6.022   9.870 -0.7637  0.0712  1.4466
    7CHL1   C15  462   4.809   6.086   9.837  0.3690 -0.1046 -0.0806
    7CHL1  H15A  463   4.860   6.181   9.861  2.7960 -1.9076  2.7257
    7CHL1  H15B  464   4.831   6.002   9.906 -0.6649  1.2342  1.9862
    7CHL1   C16  465   4.825   6.046   9.695 -0.0592 -0.4363  0.5122
    7CHL1  H16A  466   4.900   6.109   9.643 -0.7578 -0.0519 -0.0491
    7CHL1  H16B  467   4.857   5.940   9.704  0.6548 -0.0544  3.1393
    7CHL1   C17  468   4.691   6.067   9.625  0.3177 -0.3229  0.1888
    7CHL1   H17  469   4.642   5.968   9.639 -1.0981  0.2815 -0.2841
    7CHL1   C13  470   4.615   6.166   9.710  0.4996  0.5241 -0.4076
    7CHL1   C18  471   4.672   6.306   9.666  0.4197  0.0392 -0.0709
    7CHL1  H18A  472   4.781   6.317   9.682  0.4324 -0.9588  0.6902
    7CHL1  H18B  473   4.646   6.326   9.560 -2.5389  2.3376  0.9439
    7CHL1  H18C  474   4.621   6.386   9.724  1.5868 -0.2068  1.3486
    7CHL1   C12  475   4.458   6.147   9.716  0.1590  0.0559 -0.4676
    7CHL1  H12A  476   4.410   6.181   9.622 -2.0988  1.6704  1.1695
    7CHL1  H12B  477   4.433   6.039   9.724  2.6792 -0.7106 -1.7768
    7CHL1   C11  478   4.399   6.240   9.824 -0.4436  0.1641  0.4312
    7CHL1  H11A  479   4.402   6.340   9.777  0.0398 -0.2999 -0.5704
    7CHL1  H11B  480   4.291   6.216   9.834 -0.5370 -0.2916 -1.3054
    7CHL1    C9  481   4.462   6.233   9.964 -0.9907  0.2867 -0.6391
    7CHL1    H9  482   4.427   6.135  10.006 -2.3346  0.9523 -0.1477
    7CHL1   C10  483   4.424   6.342  10.071 -0.5866 -0.1708 -0.3666
    7CHL1   C19  484   4.441   6.477  10.016  0.2845 -0.6381  1.3879
    7CHL1  H19A  485   4.379   6.495   9.925  1.0313 -0.6332  0.8741
    7CHL1  H19B  486   4.392   6.550  10.084  0.3551 -0.2565  1.0370
    7CHL1  H19C  487   4.541   6.515   9.987 -0.2873 -0.6964 -0.8882
    7CHL1    C1  488   4.274   6.315  10.099  0.5266  0.2260 -0.1516
    7CHL1   H1A  489   4.227   6.330   9.999  3.2714 -0.1045 -1.5708
    7CHL1   H1B  490   4.262   6.216  10.148  0.7287  1.1409  1.8462
    7CHL1    C2  491   4.210   6.399  10.210  0.0530 -0.0021 -0.3005
    7CHL1   H2A  492   4.104   6.369  10.222 -0.3768  1.7262  0.5141
    7CHL1   H2B  493   4.219   6.504  10.176  2.4160  0.1157  0.5410
    7CHL1   C20  494   4.710   6.085   9.474 -0.2225  0.3501 -0.1630
    7CHL1   H20  495   4.764   6.180   9.454  0.7351 -0.5230 -2.0338
    7CHL1   C21  496   4.575   6.082   9.402  0.4179 -0.2362 -0.3905
    7CHL1  H21A  497   4.514   6.174   9.409 -1.4215 -1.3283 -1.2151
    7CHL1  H21B  498   4.522   5.992   9.441  0.3265  0.5362  1.3027
    7CHL1  H21C  499   4.592   6.060   9.294 -0.8130 -1.4152 -0.3753
    7CHL1   C22  500   4.811   5.974   9.417 -0.1115 -0.1087  0.1898
    7CHL1  H22A  501   4.901   5.964   9.480 -2.0799  0.8837  3.4092
    7CHL1  H22B  502   4.761   5.875   9.421 -0.3865 -0.0696 -1.5306
    7CHL1   C23  503   4.852   6.003   9.271 -0.4997 -0.2327 -0.4023
    7CHL1  H23A  504   4.942   5.939   9.257  1.0567  1.8341 -0.4488
    7CHL1  H23B  505   4.774   5.969   9.199  0.0665  0.3635 -1.3241
    7CHL1   C24  506   4.881   6.156   9.236 -0.9196  0.3547 -0.5363
    7CHL1  H24A  507   4.784   6.211   9.243 -0.4182  1.0817  1.1699
    7CHL1  H24B  508   4.951   6.193   9.314 -2.0788  0.5881  0.4174
    7CHL1   C25  509   4.932   6.195   9.095 -0.2267 -0.4416 -0.0236
    7CHL1   H25  510   4.939   6.305   9.078  0.6927 -0.6393 -1.1466
    7CHL1   C26  511   5.081   6.142   9.077  0.4126 -0.2275  0.2037
    7CHL1  H26A  512   5.089   6.032   9.067 -0.1763 -0.4777  2.0169
    7CHL1  H26B  513   5.121   6.188   8.984  1.1909  0.7591  1.0007
    7CHL1  H26C  514   5.146   6.173   9.162  2.5006 -0.3769 -1.2772
    7CHL1   C27  515   4.831   6.127   8.995  0.0642 -0.2397  1.3867
    7CHL1  H27A  516   4.727   6.157   9.018 -0.2954  2.0639 -2.4032
    7CHL1  H27B  517   4.856   6.157   8.891  0.6126 -1.7349  1.0658
    7CHL1  H27C  518   4.850   6.018   9.004 -2.6999 -1.3995 -3.1884
    8CHL1    C3  519   2.729   5.311  10.454 -0.1574 -0.1251  0.1867
    8CHL1    H3  520   2.772   5.214  10.422 -0.6665 -0.0613 -0.7326
    8CHL1    O3  521   2.686   5.300  10.587 -0.3221  0.9176 -0.0575
    8CHL1   H3'  522   2.771   5.299  10.632  1.2338  3.1633 -2.6200
    8CHL1    C4  523   2.826   5.426  10.439 -0.5356  0.5037 -0.6283
    8CHL1   H4A  524   2.772   5.517  10.471 -0.0355  0.2046  1.1743
    8CHL1   H4B  525   2.908   5.401  10.510 -2.0665 -2.1426  0.3437
    8CHL1    C5  526   2.869   5.430  10.288 -0.4000 -0.0672  0.0834
    8CHL1    C6  527   2.999   5.422  10.244  0.2344  0.2976 -0.5767
    8CHL1    H6  528   3.070   5.410  10.327 -2.1643  2.8251  2.0587
    8CHL1    C7  529   3.056   5.431  10.105 -1.0277 -0.6746  0.6177
    8CHL1   H7A  530   3.124   5.519  10.100 -1.9125  0.1066  1.9044
    8CHL1   H7B  531   3.089   5.330  10.070  0.2974 -1.3210  3.4364
    8CHL1    C8  532   2.945   5.473  10.008 -0.4305  0.2295  0.1137
    8CHL1    H8  533   2.917   5.580  10.016  1.6199  0.7044  1.8218
    8CHL1   C14  534   2.989   5.448   9.866  0.3836  0.3022  0.5246
    8CHL1   H14  535   3.029   5.344   9.864  1.5376  0.7255 -1.9069
    8CHL1   C15  536   3.116   5.525   9.814  0.2244 -0.8477 -0.7301
    8CHL1  H15A  537   3.119   5.634   9.835  0.0133  0.0686 -4.5934
    8CHL1  H15B  538   3.210   5.482   9.854 -0.2467  0.3870  1.9122
    8CHL1   C16  539   3.115   5.512   9.664 -0.3005 -0.2101  0.0380
    8CHL1  H16A  540   3.130   5.612   9.618 -0.0308  1.2391  3.0397
    8CHL1  H16B  541   3.195   5.441   9.636 -0.5536 -0.5085  0.0722
    8CHL1   C17  542   2.973   5.449   9.641 -0.3150  0.0140  0.1832
    8CHL1   H17  543   2.997   5.340   9.645 -0.7532 -0.0613  0.9787
    8CHL1   C13  544   2.887   5.466   9.763 -0.0995 -0.0963  0.1214
    8CHL1   C18  545   2.838   5.617   9.763 -0.2847  0.2747 -0.1968
    8CHL1  H18A  546   2.801   5.659   9.859  0.4041  1.0842 -0.2808
    8CHL1  H18B  547   2.922   5.685   9.740  0.4691 -0.1396  1.2179
    8CHL1  H18C  548   2.764   5.633   9.682  1.5321 -0.9673 -2.2090
    8CHL1   C12  549   2.767   5.362   9.785 -0.1700 -0.0459  0.7132
    8CHL1  H12A  550   2.684   5.382   9.714 -3.0309 -1.9109  3.2868
    8CHL1  H12B  551   2.811   5.262   9.765 -1.9268 -0.4289 -1.6001
    8CHL1   C11  552   2.715   5.382   9.932 -0.2902  0.0009 -0.3653
    8CHL1  H11A  553   2.659   5.478   9.929  0.9465  0.7658  0.0852
    8CHL1  H11B  554   2.637   5.304   9.950  0.0908 -0.3491 -0.2048
    8CHL1    C9  555   2.824   5.395  10.046 -0.5126 -0.2947  0.2873
    8CHL1    H9  556   2.845   5.287  10.061 -2.1638 -0.4491  1.9913
    8CHL1   C10  557   2.757   5.436  10.183  0.1405 -0.2076 -0.5341
    8CHL1   C19  558   2.691   5.579  10.175 -0.3656 -0.6959 -0.4720
    8CHL1  H19A  559   2.755   5.647  10.115 -1.3726  2.0212  1.3175
    8CHL1  H19B  560   2.593   5.575  10.123 -0.1486  0.2950 -0.9709
    8CHL1  H19C  561   2.679   5.626  10.275 -1.9926  0.6951 -1.2653
    8CHL1    C1  562   2.649   5.328  10.219  0.5256 -0.6461 -0.5693
    8CHL1   H1A  563   2.560   5.361  10.162  1.2313 -1.0859 -1.9904
    8CHL1   H1B  564   2.677   5.227  10.182 -1.3007 -0.2013 -3.4323
    8CHL1    C2  565   2.611   5.332  10.370 -0.1920  0.1575 -1.0360
    8CHL1   H2A  566   2.533   5.261  10.406  0.2401  0.8965  1.5438
    8CHL1   H2B  567   2.573   5.434  10.394  0.6678  1.3787 -4.3191
    8CHL1   C20  568   2.914   5.493   9.507  0.5733  0.2587 -0.1159
    8CHL1   H20  569   2.893   5.602   9.501 -1.6914 -0.1974 -2.5885
    8CHL1   C21  570   2.784   5.418   9.474 -0.0063  0.6980  0.3687
    8CHL1  H21A  571   2.694   5.465   9.520 -0.8309 -2.0578  1.7639
    8CHL1  H21B  572   2.789   5.315   9.514 -0.6076 -0.5037 -2.4891
    8CHL1  H21C  573   2.762   5.423   9.366  0.8417  1.0740  0.2077
    8CHL1   C22  574   3.015   5.471   9.385 -0.0583 -1.0138 -0.4789
    8CHL1  H22A  575   3.117   5.513   9.396  0.3251 -2.1121  0.3783
    8CHL1  H22B  576   3.019   5.361   9.371 -2.0365 -1.1100 -0.5369
    8CHL1   C23  577   2.966   5.532   9.252  0.1150 -0.5538 -0.1132
    8CHL1  H23A  578   2.855   5.533   9.258  0.1622 -1.9635  3.7009
    8CHL1  H23B  579   3.014   5.631   9.237  0.9497 -1.0036 -0.4391
    8CHL1   C24  580   3.013   5.453   9.133  0.1757  0.5901 -0.2479
    8CHL1  H24A  581   3.123   5.453   9.146  0.1906 -1.8996  0.1493
    8CHL1  H24B  582   2.980   5.347   9.146 -1.3072  1.1634  0.8607
    8CHL1   C25  583   2.969   5.513   9.000  0.4914 -0.5070  0.6423
    8CHL1   H25  584   2.858   5.518   9.012  0.7214  1.6446  2.4182
    8CHL1   C26  585   3.015   5.652   8.968 -0.0098 -0.0292 -0.0979
    8CHL1  H26A  586   2.973   5.696   8.875 -2.3030 -1.3342  0.2434
    8CHL1  H26B  587   2.981   5.726   9.044 -2.7877 -1.4949  0.2093
    8CHL1  H26C  588   3.125   5.658   8.959 -0.0932 -0.2252 -1.4838
    8CHL1   C27  589   3.008   5.431   8.875 -0.4854  0.4042  0.3788
    8CHL1  H27A  590   3.114   5.457   8.858 -0.1791  0.2445  1.9720
    8CHL1  H27B  591   2.995   5.322   8.892 -2.1375  0.7715  1.8404
    8CHL1  H27C  592   2.945   5.477   8.795 -3.5832  1.7513  3.3525
    9CHL1    C3  593   1.383   1.741  10.144 -0.4350  0.4103  0.3000
    9CHL1    H3  594   1.456   1.664  10.111 -0.7529  0.9983 -1.9212
    9CHL1    O3  595   1.379   1.753  10.288 -0.2047  0.5019 -0.0428
    9CHL1   H3'  596   1.363   1.846  10.304 -2.1753  0.0713  0.8580
    9CHL1    C4  597   1.421   1.874  10.085  0.3611  0.6567 -0.5501
    9CHL1   H4A  598   1.357   1.955  10.127  1.7002  0.8030  1.3257
    9CHL1   H4B  599   1.524   1.894  10.120 -0.5076  3.0548  0.9146
    9CHL1    C5  600   1.423   1.876   9.934  0.4000 -0.5430 -0.1764
    9CHL1    C6  601   1.530   1.925   9.874  0.5518  0.3767  0.0781
    9CHL1    H6  602   1.612   1.973   9.928 -0.6054  1.3754  1.0168
    9CHL1    C7  603   1.540   1.911   9.725  0.5361 -0.3347  0.2969
    9CHL1   H7A  604   1.576   2.012   9.696 -0.6165  0.8673  2.7503
    9CHL1   H7B  605   1.615   1.834   9.696 -0.0960 -0.4905 -1.0214
    9CHL1    C8  606   1.408   1.884   9.655 -0.2316  0.3706  0.9808
    9CHL1    H8  607   1.352   1.980   9.652 -0.9476 -0.0645 -0.8800
    9CHL1   C14  608   1.442   1.827   9.516  0.0154 -1.0451 -0.0293
    9CHL1   H14  609   1.498   1.732   9.523  1.1501 -0.6037 -2.2138
    9CHL1   C15  610   1.542   1.917   9.437 -0.0079  0.1822  0.1427
    9CHL1  H15A  611   1.546   2.026   9.461 -0.7704 -0.3691  3.1011
    9CHL1  H15B  612   1.641   1.876   9.467  0.0651  0.0033 -0.3327
    9CHL1   C16  613   1.502   1.889   9.288 -0.5035  0.5061 -0.0493
    9CHL1  H16A  614   1.466   1.984   9.243  3.7445  1.4415 -2.0350
    9CHL1  H16B  615   1.589   1.866   9.223  0.0226  2.7719 -0.2460
    9CHL1   C17  616   1.393   1.779   9.296 -0.5459 -0.1086 -0.1682
    9CHL1   H17  617   1.451   1.685   9.309 -0.6334  0.0334  1.5326
    9CHL1   C13  618   1.320   1.807   9.425  0.0985  0.7466  0.1405
    9CHL1   C18  619   1.230   1.927   9.416 -0.6615 -0.0871 -0.5319
    9CHL1  H18A  620   1.140   1.910   9.353  0.6119 -0.1406 -2.4186
    9CHL1  H18B  621   1.190   1.958   9.516 -0.4619  1.9468 -1.0484
    9CHL1  H18C  622   1.278   2.014   9.367 -1.4898  0.2372 -0.7880
    9CHL1   C12  623   1.243   1.683   9.493  0.0447  0.1462 -0.3135
    9CHL1  H12A  624   1.145   1.670   9.442 -0.3121 -0.0791  0.4205
    9CHL1  H12B  625   1.295   1.586   9.478 -1.3124 -0.5079 -0.9523
    9CHL1   C11  626   1.213   1.716   9.641  0.1311  0.4555 -0.2534
    9CHL1  H11A  627   1.126   1.785   9.649 -0.3197 -0.3236  2.5176
    9CHL1  H11B  628   1.176   1.623   9.689  0.7874 -1.1341 -2.6854
    9CHL1    C9  629   1.335   1.775   9.720 -0.3205 -0.0105  0.1111
    9CHL1    H9  630   1.401   1.686   9.724 -0.7699 -0.3237  0.5564
    9CHL1   C10  631   1.306   1.811   9.864 -0.2576  0.5852  0.6592
    9CHL1   C19  632   1.192   1.917   9.871  0.5684  0.3064  0.4287
    9CHL1  H19A  633   1.212   1.992   9.791 -2.6842  0.4269 -0.4009
    9CHL1  H19B  634   1.094   1.880   9.835  1.1860 -0.2123 -0.8119
    9CHL1  H19C  635   1.178   1.972   9.966 -0.9843  2.2231 -0.8161
    9CHL1    C1  636   1.261   1.684   9.938 -0.1067  0.5086 -0.2006
    9CHL1   H1A  637   1.154   1.656   9.922  0.1888 -0.8732  0.0743
    9CHL1   H1B  638   1.324   1.597   9.910 -3.1209 -1.2661 -2.0456
    9CHL1    C2  639   1.250   1.702  10.094 -0.2522 -0.3076 -0.0610
    9CHL1   H2A  640   1.213   1.604  10.131 -1.5582 -0.3695 -1.4014
    9CHL1   H2B  641   1.166   1.766  10.127  0.2671 -0.6194  2.0018
    9CHL1   C20  642   1.318   1.760   9.163  0.3023 -0.8040  0.4384
    9CHL1   H20  643   1.230   1.828   9.163  1.8712  1.3812 -0.9799
    9CHL1   C21  644   1.265   1.611   9.157 -0.1881  0.3292  0.4842
    9CHL1  H21A  645   1.346   1.537   9.172 -0.6349 -0.3661 -0.4492
    9CHL1  H21B  646   1.211   1.594   9.061  1.2037  3.4907 -1.0396
    9CHL1  H21C  647   1.182   1.602   9.230 -1.0434  0.3879 -0.4617
    9CHL1   C22  648   1.406   1.785   9.035  0.3963 -0.8463 -0.5899
    9CHL1  H22A  649   1.407   1.895   9.014 -3.5164  0.1832  3.1046
    9CHL1  H22B  650   1.510   1.747   9.039  0.9569  0.6965  1.5248
    9CHL1   C23  651   1.346   1.738   8.901 -0.3285  0.4425  0.1049
    9CHL1  H23A  652   1.331   1.628   8.903  0.0765  0.3716  2.6373
    9CHL1  H23B  653   1.249   1.788   8.882 -0.7397 -0.5908 -0.6134
    9CHL1   C24  654   1.427   1.781   8.781  0.5251  0.0427  0.2617
    9CHL1  H24A  655   1.452   1.889   8.783 -1.3073  0.5372 -1.1163
    9CHL1  H24B  656   1.522   1.726   8.797  0.5477  0.3819  1.3716
    9CHL1   C25  657   1.370   1.745   8.642  0.3863 -0.2899 -0.2327
    9CHL1   H25  658   1.367   1.634   8.636  0.1383 -0.2636 -0.6298
    9CHL1   C26  659   1.224   1.798   8.632 -0.0231  0.5947 -0.5104
    9CHL1  H26A  660   1.174   1.798   8.533  0.9105 -0.1534 -0.9834
    9CHL1  H26B  661   1.159   1.733   8.695  2.6124 -0.8831  0.8394
    9CHL1  H26C  662   1.217   1.901   8.675  2.2430 -0.1532  1.9251
    9CHL1   C27  663   1.453   1.797   8.527 -0.0561 -0.3153  0.3628
    9CHL1  H27A  664   1.409   1.754   8.434  0.1908  0.3957 -0.0929
    9CHL1  H27B  665   1.472   1.906   8.538  3.8449 -0.5824 -1.8588
    9CHL1  H27C  666   1.553   1.750   8.514  0.2836  0.4871 -0.0171
   10CHL1    C3  667   6.182   4.613  10.275  0.2504 -0.2534  0.3883
   10CHL1    H3  668   6.150   4.508  10.256 -0.9343  0.2259 -0.3674
   10CHL1    O3  669   6.164   4.641  10.411 -0.1863  0.0503  0.5790
   10CHL1   H3'  670   6.069   4.647  10.417 -0.1746  0.2035  0.6264
   10CHL1    C4  671   6.327   4.636  10.244  0.0643  0.2059 -0.0464
   10CHL1   H4A  672   6.360   4.739  10.267  1.8843 -0.5224  0.7624
   10CHL1   H4B  673   6.390   4.568  10.305 -0.7179  0.3733  0.9605
   10CHL1    C5  674   6.348   4.616  10.093 -0.1745  0.4870 -0.4434
   10CHL1    C6  675   6.438   4.518  10.045  0.1706  0.1055 -0.0363
   10CHL1    H6  676   6.493   4.457  10.119  0.3588 -0.7647 -0.8663
   10CHL1    C7  677   6.462   4.497   9.904 -0.0401  1.3494 -0.1095
   10CHL1   H7A  678   6.572   4.488   9.888  0.0277  3.0632 -0.7748
   10CHL1   H7B  679   6.413   4.400   9.882  0.7661  0.8891  0.0725
   10CHL1    C8  680   6.415   4.614   9.812  0.5899 -0.6446  0.0186
   10CHL1    H8  681   6.480   4.704   9.823 -0.0110 -0.1320 -0.5727
   10CHL1   C14  682   6.410   4.580   9.662  0.0400 -0.1869 -0.1934
   10CHL1   H14  683   6.338   4.495   9.662  0.5235 -0.6134  0.7836
   10CHL1   C15  684   6.551   4.528   9.606  0.0159 -0.9080  0.7097
   10CHL1  H15A  685   6.630   4.599   9.637 -1.0685  0.9678 -0.6433
   10CHL1  H15B  686   6.574   4.424   9.638 -0.7513 -1.5403 -0.7001
   10CHL1   C16  687   6.532   4.536   9.449  0.6169 -0.2666  0.4120
   10CHL1  H16A  688   6.619   4.587   9.402 -0.1344  1.1763  0.5335
   10CHL1  H16B  689   6.521   4.437   9.401  0.1331  0.0527 -0.1417
   10CHL1   C17  690   6.401   4.623   9.431 -0.3415 -0.5223 -0.2263
   10CHL1   H17  691   6.315   4.555   9.415  0.2207 -1.6477  1.2603
   10CHL1   C13  692   6.369   4.687   9.574  1.0209 -0.1192 -0.0781
   10CHL1   C18  693   6.450   4.819   9.593 -0.0911 -0.0492 -0.7032
   10CHL1  H18A  694   6.556   4.811   9.561  0.1391 -2.4708  0.4497
   10CHL1  H18B  695   6.406   4.897   9.528 -2.9370 -1.9088 -1.2110
   10CHL1  H18C  696   6.454   4.847   9.701 -0.1776 -0.4982 -0.5797
   10CHL1   C12  697   6.220   4.705   9.602  0.1957 -0.5516  0.1159
   10CHL1  H12A  698   6.182   4.792   9.543  0.8506 -1.0219 -1.0270
   10CHL1  H12B  699   6.153   4.617   9.591 -1.6404  0.7866 -0.0742
   10CHL1   C11  700   6.206   4.748   9.750  0.1476 -0.5365 -0.1591
   10CHL1  H11A  701   6.246   4.851   9.756 -0.8729 -0.1083 -0.5816
   10CHL1  H11B  702   6.098   4.753   9.775 -0.0645 -1.0546 -0.9457
   10CHL1    C9  703   6.272   4.657   9.857  0.5706 -0.1128 -0.1941
   10CHL1    H9  704   6.209   4.566   9.859 -0.1222  0.3660  1.0556
   10CHL1   C10  705   6.262   4.711  10.006  1.3092  0.5465 -0.6197
   10CHL1   C19  706   6.313   4.855  10.012 -0.4659  0.2748  0.6932
   10CHL1  H19A  707   6.412   4.847   9.963  0.5210 -2.5032  2.8887
   10CHL1  H19B  708   6.239   4.926   9.967 -2.5136 -2.1712 -0.0822
   10CHL1  H19C  709   6.334   4.885  10.116 -1.0524 -1.5590  1.3862
   10CHL1    C1  710   6.108   4.697  10.050  0.8454 -0.5063  0.0812
   10CHL1   H1A  711   6.054   4.775   9.992 -0.8469 -0.9402  1.0373
   10CHL1   H1B  712   6.064   4.608  10.002 -0.4259  0.3429 -0.3699
   10CHL1    C2  713   6.089   4.710  10.198  0.8485 -0.5173  0.0794
   10CHL1   H2A  714   5.987   4.684  10.234  0.4468 -0.3582 -0.9325
   10CHL1   H2B  715   6.117   4.809  10.238  4.1344 -1.8150  1.3453
   10CHL1   C20  716   6.418   4.711   9.315  0.3854 -0.1390  0.3549
   10CHL1   H20  717   6.505   4.776   9.339  2.2498 -1.9431 -1.1847
   10CHL1   C21  718   6.290   4.793   9.295  0.2227  0.2028 -0.0828
   10CHL1  H21A  719   6.272   4.863   9.379  0.1513  1.3057 -1.0003
   10CHL1  H21B  720   6.202   4.726   9.291  0.5551 -0.3143  0.7966
   10CHL1  H21C  721   6.305   4.854   9.204  0.1641  0.2928 -0.0331
   10CHL1   C22  722   6.456   4.642   9.179  0.1518 -0.4282 -0.1192
   10CHL1  H22A  723   6.520   4.553   9.198 -0.3133 -0.6084  0.6324
   10CHL1  H22B  724   6.365   4.603   9.129 -1.9975 -0.2623  3.3228
   10CHL1   C23  725   6.522   4.735   9.079 -0.3580 -0.0014 -0.6817
   10CHL1  H23A  726   6.436   4.791   9.037 -2.5126 -2.5012  0.1349
   10CHL1  H23B  727   6.595   4.798   9.134 -2.0218  1.1450  0.2785
   10CHL1   C24  728   6.589   4.670   8.959  0.3724  0.4383  1.1168
   10CHL1  H24A  729   6.661   4.592   8.990 -1.0072 -1.1351  0.5579
   10CHL1  H24B  730   6.515   4.614   8.897  1.3315 -1.0476  1.2709
   10CHL1   C25  731   6.675   4.753   8.861 -0.5204 -0.2358  0.1329
   10CHL1   H25  732   6.766   4.778   8.918 -1.5266 -2.6870  3.0808
   10CHL1   C26  733   6.712   4.670   8.737  0.0960 -0.5868 -0.1912
   10CHL1  H26A  734   6.815   4.688   8.700 -0.0940  1.6182  0.2268
   10CHL1  H26B  735   6.710   4.564   8.770 -0.5053  0.2028  2.5408
   10CHL1  H26C  736   6.641   4.685   8.653  1.0776 -0.6429 -1.0469
   10CHL1   C27  737   6.612   4.886   8.813 -0.6556 -0.1615 -0.0054
   10CHL1  H27A  738   6.694   4.947   8.770  0.3201  0.1579  2.1950
   10CHL1  H27B  739   6.529   4.865   8.742 -0.3913 -0.2119 -0.3045
   10CHL1  H27C  740   6.578   4.946   8.899 -1.2102  1.5721 -1.3655
   11CHL1    C3  741   3.088   3.152  10.049  0.3334  0.1107 -0.0601
   11CHL1    H3  742   3.140   3.249  10.035  0.3612 -0.1302 -1.7599
   11CHL1    O3  743   3.072   3.126  10.186 -0.8628  0.2285 -0.1463
   11CHL1   H3'  744   3.023   3.045  10.198  0.4800 -0.7301 -0.7558
   11CHL1    C4  745   2.949   3.150   9.969 -0.6111  0.0057 -0.0797
   11CHL1   H4A  746   2.923   3.043   9.981  1.0124 -0.5720 -1.4025
   11CHL1   H4B  747   2.869   3.215  10.011 -1.1576 -0.7805  0.1148
   11CHL1    C5  748   2.987   3.173   9.823  0.2083 -0.4422 -0.0709
   11CHL1    C6  749   2.935   3.278   9.754  1.1000  0.0067  0.1307
   11CHL1    H6  750   2.869   3.350   9.805 -0.0473 -0.9292  0.0211
   11CHL1    C7  751   2.954   3.297   9.606 -0.3898 -0.3814 -0.1405
   11CHL1   H7A  752   2.867   3.348   9.562 -0.9088  2.5477  3.7557
   11CHL1   H7B  753   3.033   3.374   9.596 -0.5948 -0.0764  0.5704
   11CHL1    C8  754   3.007   3.171   9.533  0.7682 -0.3287  0.4535
   11CHL1    H8  755   2.926   3.097   9.516 -0.4869  1.7182 -4.5507
   11CHL1   C14  756   3.048   3.209   9.394  0.4322 -0.6234  0.1942
   11CHL1   H14  757   3.119   3.292   9.409  0.2588 -0.3715 -0.3598
   11CHL1   C15  758   2.944   3.278   9.302 -0.1714  0.9414  0.5871
   11CHL1  H15A  759   2.844   3.232   9.287  0.5113 -0.4573  0.0784
   11CHL1  H15B  760   2.941   3.388   9.315 -3.4251  0.7462  2.5128
   11CHL1   C16  761   3.016   3.268   9.160  0.4474  0.4536 -0.5688
   11CHL1  H16A  762   2.946   3.204   9.101  0.3207  0.1762 -0.1242
   11CHL1  H16B  763   3.028   3.369   9.116  0.3363  0.8654  0.3323
   11CHL1   C17  764   3.144   3.183   9.174 -0.3166  0.0334 -0.0476
   11CHL1   H17  765   3.227   3.257   9.183  0.8148 -1.0084 -1.4707
   11CHL1   C13  766   3.111   3.099   9.302 -0.3500  0.4843 -0.3826
   11CHL1   C18  767   3.010   2.988   9.271  0.8803  0.3321  0.3514
   11CHL1  H18A  768   2.919   3.031   9.225  0.1527 -2.8155 -1.4137
   11CHL1  H18B  769   3.053   2.918   9.197  1.1807  1.5252 -0.6379
   11CHL1  H18C  770   2.979   2.935   9.363  2.5075  0.4764  1.0183
   11CHL1   C12  771   3.230   3.043   9.375 -0.1834 -0.4105 -0.8742
   11CHL1  H12A  772   3.279   2.959   9.322  2.2536  0.8933 -0.8170
   11CHL1  H12B  773   3.308   3.121   9.384  1.8821 -2.2939 -1.6877
   11CHL1   C11  774   3.189   2.997   9.519 -0.2975  0.0300 -0.2939
   11CHL1  H11A  775   3.121   2.909   9.508  0.2760 -0.3814 -0.6043
   11CHL1  H11B  776   3.278   2.959   9.575 -1.6961 -0.9648  1.3743
   11CHL1    C9  777   3.124   3.107   9.602  0.8041 -0.6182 -0.4082
   11CHL1    H9  778   3.192   3.193   9.625 -1.2842  0.6469  1.3965
   11CHL1   C10  779   3.077   3.070   9.752 -0.5547 -0.2492 -0.2630
   11CHL1   C19  780   3.013   2.935   9.760  0.5252 -0.1567  0.2543
   11CHL1  H19A  781   2.980   2.901   9.860 -1.4974 -1.4159 -0.7706
   11CHL1  H19B  782   2.918   2.934   9.703  1.1460 -1.2245 -0.7956
   11CHL1  H19C  783   3.072   2.851   9.719 -0.0565  0.6826 -2.4950
   11CHL1    C1  784   3.213   3.084   9.832 -0.1224  0.2844  0.4017
   11CHL1   H1A  785   3.281   3.007   9.787 -0.8042 -1.1724  1.7750
   11CHL1   H1B  786   3.244   3.189   9.813 -2.1480  0.9103  0.3855
   11CHL1    C2  787   3.193   3.055   9.986  0.2330 -0.1009  0.7958
   11CHL1   H2A  788   3.289   3.065  10.042  0.5602 -1.8865  0.5915
   11CHL1   H2B  789   3.149   2.954   9.997 -0.2418 -0.2037 -1.6340
   11CHL1   C20  790   3.180   3.117   9.039  0.5993 -0.3669  0.4798
   11CHL1   H20  791   3.098   3.045   9.020 -0.1792  0.4476  0.6689
   11CHL1   C21  792   3.313   3.039   9.050  0.4728 -0.1722  0.0350
   11CHL1  H21A  793   3.332   2.995   8.949 -2.9961  2.4918 -1.9952
   11CHL1  H21B  794   3.288   2.960   9.124 -0.8814  1.3816  1.3135
   11CHL1  H21C  795   3.386   3.111   9.092 -0.8040 -0.2305  2.5510
   11CHL1   C22  796   3.170   3.208   8.911 -0.5549 -0.5228 -0.2113
   11CHL1  H22A  797   3.082   3.275   8.906 -0.1712 -0.0277 -0.4410
   11CHL1  H22B  798   3.260   3.272   8.903 -1.0660  0.5880  2.1720
   11CHL1   C23  799   3.155   3.128   8.778 -0.7732  0.5588  0.8411
   11CHL1  H23A  800   3.244   3.061   8.766  0.0842  1.8379 -0.2973
   11CHL1  H23B  801   3.064   3.065   8.784  0.3762 -1.1327  1.6300
   11CHL1   C24  802   3.150   3.213   8.652  0.9487 -0.3263  1.1094
   11CHL1  H24A  803   3.059   3.276   8.651  1.1113 -0.0495 -0.7000
   11CHL1  H24B  804   3.239   3.280   8.659  0.4234  0.2936  1.9347
   11CHL1   C25  805   3.141   3.133   8.520  0.1188 -0.6556  0.2322
   11CHL1   H25  806   3.234   3.076   8.498 -0.1514 -0.7373 -0.7331
   11CHL1   C26  807   3.018   3.038   8.521  0.2056 -0.4078  0.9068
   11CHL1  H26A  808   3.004   2.976   8.429 -0.7872 -0.5716  1.1577
   11CHL1  H26B  809   3.028   2.969   8.608  0.4271  0.4648  1.5851
   11CHL1  H26C  810   2.923   3.094   8.525  0.1287 -0.5415  0.9508
   11CHL1   C27  811   3.128   3.229   8.403 -0.4448  0.1654  0.0818
   11CHL1  H27A  812   3.211   3.300   8.417 -1.0572  0.7279  0.9888
   11CHL1  H27B  813   3.130   3.161   8.315  0.0539  0.1656  0.0907
   11CHL1  H27C  814   3.033   3.286   8.403 -0.4503  0.1790 -1.0275
   12CHL1    C3  815   5.422   6.522  10.173 -0.2696  0.1658 -0.5988
   12CHL1    H3  816   5.384   6.419  10.155 -2.5594  0.0886  3.3282
   12CHL1    O3  817   5.395   6.529  10.311  0.0774 -0.4884  0.3939
   12CHL1   H3'  818   5.434   6.610  10.345  2.5138 -1.2543 -0.3395
   12CHL1    C4  819   5.572   6.535  10.139  0.7869  0.3829 -0.0397
   12CHL1   H4A  820   5.590   6.634  10.186 -2.9236  0.7488  0.9667
   12CHL1   H4B  821   5.640   6.465  10.194 -1.0116 -2.6453 -1.3916
   12CHL1    C5  822   5.590   6.539   9.989 -0.1957 -0.1909 -0.3675
   12CHL1    C6  823   5.664   6.444   9.933 -0.0408  0.1676  0.3340
   12CHL1    H6  824   5.717   6.380  10.005  1.9546 -0.3332 -1.4668
   12CHL1    C7  825   5.694   6.432   9.788 -0.4283 -1.0032 -0.1086
   12CHL1   H7A  826   5.803   6.411   9.787 -0.0676  0.5620 -2.4346
   12CHL1   H7B  827   5.641   6.347   9.738 -0.6260 -1.0896  0.2426
   12CHL1    C8  828   5.662   6.569   9.725 -0.2350  0.7888 -0.0774
   12CHL1    H8  829   5.740   6.644   9.750  0.9406 -0.4195 -0.0684
   12CHL1   C14  830   5.659   6.552   9.569 -0.4427 -0.1899  0.3739
   12CHL1   H14  831   5.579   6.477   9.549  1.2531 -2.0234  0.1165
   12CHL1   C15  832   5.779   6.473   9.491  0.2965 -0.9235 -0.8195
   12CHL1  H15A  833   5.874   6.519   9.526 -1.8966  2.8047  0.7889
   12CHL1  H15B  834   5.772   6.362   9.498 -1.6505 -0.7614  0.4736
   12CHL1   C16  835   5.761   6.517   9.344 -0.0788 -0.0902  0.0050
   12CHL1  H16A  836   5.847   6.579   9.312 -0.4527 -0.5797 -2.1469
   12CHL1  H16B  837   5.761   6.428   9.277 -0.9723  0.3724 -0.6326
   12CHL1   C17  838   5.632   6.598   9.335  0.1680 -0.2164  0.5704
   12CHL1   H17  839   5.553   6.520   9.335 -0.5051  0.4592  0.4222
   12CHL1   C13  840   5.625   6.673   9.479  0.2348  0.0660 -0.0155
   12CHL1   C18  841   5.737   6.782   9.489 -0.4582  0.3160 -0.1222
   12CHL1  H18A  842   5.751   6.806   9.597 -0.1836 -0.6116  0.0570
   12CHL1  H18B  843   5.836   6.744   9.454 -1.6946 -1.0846 -2.3235
   12CHL1  H18C  844   5.712   6.874   9.432  1.9157  0.2133 -1.4639
   12CHL1   C12  845   5.485   6.725   9.523 -0.6845 -0.3634  0.8294
   12CHL1  H12A  846   5.471   6.820   9.466  1.9391  0.2168  1.0026
   12CHL1  H12B  847   5.411   6.649   9.493  0.2379  0.1175 -3.3313
   12CHL1   C11  848   5.477   6.750   9.670  0.2157  0.6275 -0.3561
   12CHL1  H11A  849   5.545   6.835   9.693 -0.2268  0.1109  3.3549
   12CHL1  H11B  850   5.371   6.774   9.691  0.3296  1.4945 -0.7110
   12CHL1    C9  851   5.521   6.623   9.759  0.1985 -0.4230  0.7318
   12CHL1    H9  852   5.453   6.542   9.726 -0.8949  1.4962 -2.0883
   12CHL1   C10  853   5.515   6.643   9.915  0.0566  0.5968  0.2580
   12CHL1   C19  854   5.580   6.785   9.949  0.6162 -0.1858 -0.1307
   12CHL1  H19A  855   5.676   6.798   9.895  0.9533 -1.9029 -0.0242
   12CHL1  H19B  856   5.527   6.868   9.898  2.7374  0.9916 -0.5401
   12CHL1  H19C  857   5.592   6.811  10.056  1.0909  1.1966 -0.5029
   12CHL1    C1  858   5.370   6.622   9.947  1.2453  0.4542 -0.2897
   12CHL1   H1A  859   5.315   6.710   9.907  1.0913  1.5796  2.2005
   12CHL1   H1B  860   5.331   6.530   9.900  1.3272  1.0718 -1.6135
   12CHL1    C2  861   5.339   6.627  10.099 -0.8220  0.3276  0.1029
   12CHL1   H2A  862   5.231   6.623  10.125 -1.1371  1.0286 -1.0309
   12CHL1   H2B  863   5.370   6.728  10.133 -0.0216 -0.1664  0.8724
   12CHL1   C20  864   5.620   6.683   9.206  0.0621 -0.1569 -0.4850
   12CHL1   H20  865   5.704   6.755   9.211 -2.7606  3.4816 -0.8337
   12CHL1   C21  866   5.493   6.772   9.197  0.0341 -0.9244  0.4020
   12CHL1  H21A  867   5.512   6.855   9.268 -0.1942  0.5051 -1.1561
   12CHL1  H21B  868   5.392   6.732   9.221 -0.3652 -0.7498 -0.8822
   12CHL1  H21C  869   5.481   6.824   9.099 -1.0849 -0.8227  0.5787
   12CHL1   C22  870   5.648   6.598   9.079 -0.0839  0.2173  0.1762
   12CHL1  H22A  871   5.673   6.665   8.994  3.0366 -2.5799 -1.3493
   12CHL1  H22B  872   5.741   6.542   9.103 -0.1371  0.9774  2.4387
   12CHL1   C23  873   5.537   6.505   9.027 -0.2022  0.3894  0.5052
   12CHL1  H23A  874   5.520   6.421   9.098 -1.8858 -0.5250 -0.9052
   12CHL1  H23B  875   5.442   6.560   9.010  1.6662  3.8604  0.2148
   12CHL1   C24  876   5.578   6.429   8.896 -0.3063  0.5893  0.0646
   12CHL1  H24A  877   5.587   6.501   8.812 -0.2819  2.7672  1.8512
   12CHL1  H24B  878   5.675   6.385   8.926 -0.3037 -1.4473 -2.6086
   12CHL1   C25  879   5.487   6.314   8.855 -0.2659 -0.6462 -0.2049
   12CHL1   H25  880   5.468   6.252   8.945 -1.1965  0.9434  0.7426
   12CHL1   C26  881   5.344   6.348   8.824  0.2103 -0.7274  1.0313
   12CHL1  H26A  882   5.293   6.381   8.917 -0.8723  0.4471  0.0639
   12CHL1  H26B  883   5.336   6.427   8.747 -2.1188 -1.1872  0.7268
   12CHL1  H26C  884   5.292   6.257   8.787  1.1269 -0.0331 -2.2311
   12CHL1   C27  885   5.557   6.234   8.744 -0.2530 -0.1751 -0.2324
   12CHL1  H27A  886   5.655   6.194   8.779 -1.4758 -2.9427  0.2708
   12CHL1  H27B  887   5.502   6.145   8.707  0.6960 -0.8210 -0.1295
   12CHL1  H27C  888   5.574   6.294   8.652 -0.3241  2.0529  1.1320
   13CHL1    C3  889   2.790   0.442  10.065  0.2551 -0.5566 -0.1620
   13CHL1    H3  890   2.772   0.551  10.076 -0.3876 -0.7943  1.4388
   13CHL1    O3  891   2.778   0.405  10.202 -0.0794  0.0488  0.7142
   13CHL1   H3'  892   2.810   0.315  10.205 -1.5415 -0.8762 -3.5328
   13CHL1    C4  893   2.693   0.365   9.978 -0.2368 -0.5581  0.4199
   13CHL1   H4A  894   2.720   0.261  10.007 -0.0498 -0.6138  0.0501
   13CHL1   H4B  895   2.590   0.395  10.005  0.4130  1.4215  0.8626
   13CHL1    C5  896   2.707   0.380   9.823 -1.2505 -0.8306  0.2639
   13CHL1    C6  897   2.604   0.410   9.750 -0.2469  0.4360  0.6777
   13CHL1    H6  898   2.506   0.416   9.798 -0.9403  1.2131 -0.7509
   13CHL1    C7  899   2.614   0.406   9.598  0.3764  0.6627  0.2845
   13CHL1   H7A  900   2.529   0.351   9.552  1.3239 -0.4662 -0.1981
   13CHL1   H7B  901   2.611   0.510   9.560  0.9868  0.8954  0.8464
   13CHL1    C8  902   2.738   0.336   9.543 -0.5891 -0.5284 -0.1216
   13CHL1    H8  903   2.723   0.227   9.557  0.5377 -0.4475  2.3382
   13CHL1   C14  904   2.766   0.368   9.396 -0.1029  0.3971  0.2665
   13CHL1   H14  905   2.778   0.478   9.391  3.5793  0.2415  2.3599
   13CHL1   C15  906   2.655   0.326   9.303  0.4198  0.1165 -0.3121
   13CHL1  H15A  907   2.642   0.216   9.314  0.3021  0.0233 -1.3349
   13CHL1  H15B  908   2.555   0.375   9.303  0.2261 -0.2492  0.5968
   13CHL1   C16  909   2.725   0.331   9.169  0.1232 -0.1107 -0.5315
   13CHL1  H16A  910   2.703   0.237   9.113  0.0890 -2.1794  2.7035
   13CHL1  H16B  911   2.682   0.418   9.114  0.1043  0.2402  0.0296
   13CHL1   C17  912   2.879   0.338   9.199 -0.9035 -0.4894  1.2694
   13CHL1   H17  913   2.903   0.446   9.200 -1.4909 -0.2033 -2.5929
   13CHL1   C13  914   2.893   0.292   9.343 -0.0879 -1.0142 -1.0271
   13CHL1   C18  915   2.882   0.139   9.339  0.4432  0.3229  0.7012
   13CHL1  H18A  916   2.960   0.104   9.269 -1.6885 -1.5493 -0.8662
   13CHL1  H18B  917   2.889   0.092   9.439 -2.2838  0.0218  0.8354
   13CHL1  H18C  918   2.786   0.100   9.299  0.6349  1.2798 -0.8038
   13CHL1   C12  919   3.017   0.348   9.421 -0.4929 -0.3649  0.1340
   13CHL1  H12A  920   3.106   0.286   9.397  0.3761  0.5311  0.9502
   13CHL1  H12B  921   3.051   0.448   9.388  2.9859 -1.0732  1.1382
   13CHL1   C11  922   3.004   0.331   9.576  0.3113 -0.0927 -0.2127
   13CHL1  H11A  923   3.008   0.221   9.588 -0.0212 -0.0493  0.3366
   13CHL1  H11B  924   3.085   0.383   9.630  0.1220  0.5248 -0.5160
   13CHL1    C9  925   2.866   0.377   9.629 -0.0467 -0.1628 -0.1279
   13CHL1    H9  926   2.873   0.487   9.619  0.6864  0.0915  2.4588
   13CHL1   C10  927   2.849   0.350   9.777 -0.2836  0.2041 -0.3623
   13CHL1   C19  928   2.881   0.200   9.800  0.3193  0.2780  1.0150
   13CHL1  H19A  929   2.980   0.168   9.762  0.0012 -0.7826  1.0595
   13CHL1  H19B  930   2.877   0.177   9.908 -1.0192  1.5692  1.2698
   13CHL1  H19C  931   2.806   0.132   9.755  0.9977  1.1014 -1.5648
   13CHL1    C1  932   2.951   0.437   9.861 -0.0777  0.5233 -0.4198
   13CHL1   H1A  933   3.055   0.407   9.833  0.0453  1.4367 -0.9898
   13CHL1   H1B  934   2.954   0.543   9.828  1.3930  0.7212  0.2750
   13CHL1    C2  935   2.937   0.429  10.013  0.1792 -0.3673  0.0635
   13CHL1   H2A  936   3.002   0.505  10.061 -1.2305  1.4556 -0.7912
   13CHL1   H2B  937   2.975   0.329  10.043  0.1365 -0.6812 -0.8895
   13CHL1   C20  938   2.959   0.283   9.083  0.5663  0.0719 -0.4644
   13CHL1   H20  939   2.939   0.175   9.064  0.9588 -1.0307  4.2168
   13CHL1   C21  940   3.113   0.297   9.103 -0.4490 -0.5270  0.1106
   13CHL1  H21A  941   3.124   0.395   9.154 -0.0427  0.1717 -1.2674
   13CHL1  H21B  942   3.171   0.315   9.010 -1.6584 -1.2166 -0.8019
   13CHL1  H21C  943   3.158   0.219   9.168  2.5670 -1.0794 -2.4151
   13CHL1   C22  944   2.923   0.345   8.956 -0.5353  0.1551  0.2479
   13CHL1  H22A  945   2.982   0.295   8.876 -0.3878 -2.5487  1.9192
   13CHL1  H22B  946   2.815   0.336   8.931 -0.4111  0.5815 -0.4727
   13CHL1   C23  947   2.953   0.497   8.935  0.2528 -0.3362  0.1642
   13CHL1  H23A  948   2.912   0.557   9.018  0.8515  0.3884 -0.0553
   13CHL1  H23B  949   3.062   0.515   8.946  0.1523 -0.1208  0.8357
   13CHL1   C24  950   2.910   0.548   8.805 -0.0017 -0.3952 -0.2300
   13CHL1  H24A  951   2.962   0.493   8.724 -0.6727 -1.9368  0.3381
   13CHL1  H24B  952   2.799   0.539   8.800  0.0556 -0.9288 -0.5412
   13CHL1   C25  953   2.933   0.699   8.798 -0.4504  0.8320  0.2353
   13CHL1   H25  954   3.042   0.724   8.805  0.0388 -0.0917 -2.7024
   13CHL1   C26  955   2.893   0.758   8.658 -0.3738 -0.4410  0.0148
   13CHL1  H26A  956   2.785   0.778   8.646 -0.9980 -2.3965  1.8105
   13CHL1  H26B  957   2.941   0.858   8.650  0.3616 -0.8569 -0.9708
   13CHL1  H26C  958   2.932   0.693   8.577 -2.8897 -1.9677 -0.0528
   13CHL1   C27  959   2.854   0.770   8.903 -0.2525  0.4649  0.2178
   13CHL1  H27A  960   2.844   0.878   8.880 -0.8960  0.1515 -1.0995
   13CHL1  H27B  961   2.751   0.728   8.913 -0.3154  0.8108  1.1014
   13CHL1  H27C  962   2.903   0.764   9.002  1.8183 -0.9285 -0.8292
   14CHL1    C3  963   2.544   4.827  10.193 -0.1460 -0.1053 -0.3734
   14CHL1    H3  964   2.592   4.735  10.153  1.7278 -0.4097  2.3032
   14CHL1    O3  965   2.558   4.836  10.331 -0.3029  0.2039 -0.2613
   14CHL1   H3'  966   2.488   4.886  10.372  1.0842  0.5271  1.8568
   14CHL1    C4  967   2.602   4.952  10.122  0.2629 -0.1172 -0.6159
   14CHL1   H4A  968   2.550   5.039  10.168 -1.5123 -1.7928  0.7239
   14CHL1   H4B  969   2.709   4.968  10.149 -0.0570 -0.0362  0.6996
   14CHL1    C5  970   2.568   4.955   9.971 -0.1016  0.3678  0.2167
   14CHL1    C6  971   2.654   4.953   9.871  0.0701 -0.2974  0.3493
   14CHL1    H6  972   2.761   4.961   9.898  0.1136  0.6337 -0.0578
   14CHL1    C7  973   2.626   4.972   9.726 -0.0057 -0.1175 -0.6870
   14CHL1   H7A  974   2.700   5.029   9.665  0.6635 -0.3185 -0.0769
   14CHL1   H7B  975   2.636   4.873   9.676  0.4378 -0.6962  0.5121
   14CHL1    C8  976   2.477   5.011   9.711 -0.3261 -0.1766 -0.2116
   14CHL1    H8  977   2.465   5.118   9.740  1.4084 -0.0586  0.1522
   14CHL1   C14  978   2.445   4.992   9.561  0.9796  0.0920 -0.3711
   14CHL1   H14  979   2.466   4.883   9.550  1.2415  0.1333 -0.2856
   14CHL1   C15  980   2.524   5.071   9.465 -0.4036  0.1571  0.6750
   14CHL1  H15A  981   2.514   5.181   9.480  0.6962  0.7985 -2.6036
   14CHL1  H15B  982   2.631   5.048   9.444 -1.0069  0.4402 -3.3610
   14CHL1   C16  983   2.452   5.040   9.327 -0.3676  0.0900  0.1093
   14CHL1  H16A  984   2.453   5.141   9.281  0.0605 -0.0597 -0.2180
   14CHL1  H16B  985   2.512   4.967   9.268 -1.2105  2.4537 -4.0824
   14CHL1   C17  986   2.311   4.992   9.362  0.4073  0.4005 -0.2188
   14CHL1   H17  987   2.303   4.884   9.337 -1.7571  0.5811 -0.4987
   14CHL1   C13  988   2.301   5.004   9.516 -0.1687 -0.4555 -0.1780
   14CHL1   C18  989   2.259   5.153   9.548 -0.1250  0.6326 -0.6359
   14CHL1  H18A  990   2.293   5.183   9.650  0.3300 -1.9164  0.0362
   14CHL1  H18B  991   2.293   5.225   9.472 -3.7833  3.2398 -0.0239
   14CHL1  H18C  992   2.149   5.169   9.553 -0.1293  1.4394 -2.6733
   14CHL1   C12  993   2.216   4.904   9.598 -0.0685 -0.4656 -0.4235
   14CHL1  H12A  994   2.109   4.926   9.574  0.2952  1.1665 -0.6651
   14CHL1  H12B  995   2.240   4.801   9.565  1.8938  0.1950 -1.2043
   14CHL1   C11  996   2.229   4.920   9.753 -0.4700  0.8449 -1.1796
   14CHL1  H11A  997   2.192   5.020   9.785  1.4957  0.3393  3.2559
   14CHL1  H11B  998   2.165   4.841   9.797  2.3676 -0.8414  0.1600
   14CHL1    C9  999   2.385   4.920   9.789  1.5762  0.2975 -0.2982
   14CHL1    H9 1000   2.408   4.813   9.768  0.1695 -0.4020  1.3848
   14CHL1   C10 1001   2.418   4.939   9.942  0.2955 -0.5364 -0.4818
   14CHL1   C19 1002   2.347   5.073   9.989 -0.1819 -0.1447 -0.6665
   14CHL1  H19A 1003   2.376   5.166   9.935  0.5973  0.8598  1.3747
   14CHL1  H19B 1004   2.237   5.062   9.988 -0.3570  0.7030  1.7133
   14CHL1  H19C 1005   2.356   5.090  10.099  1.1194 -2.9138 -0.2416
   14CHL1    C1 1006   2.351   4.815  10.017 -0.1890 -0.1286  0.2179
   14CHL1   H1A 1007   2.241   4.825  10.002 -0.1855 -1.0782 -0.4845
   14CHL1   H1B 1008   2.386   4.730   9.955 -1.0339  0.7388 -1.5266
   14CHL1    C2 1009   2.391   4.809  10.164 -0.0552 -0.2274  0.1934
   14CHL1   H2A 1010   2.369   4.706  10.201 -0.2290  0.3102  1.6527
   14CHL1   H2B 1011   2.329   4.879  10.224  1.9932  1.7374  0.1592
   14CHL1   C20 1012   2.200   5.060   9.282 -0.3161 -0.0405  0.3570
   14CHL1   H20 1013   2.188   5.166   9.313  1.7038  0.6892 -1.1803
   14CHL1   C21 1014   2.067   4.988   9.309  0.4553  0.6447 -0.0950
   14CHL1  H21A 1015   2.081   4.878   9.313 -1.2055  0.4597  2.9483
   14CHL1  H21B 1016   1.993   5.013   9.230  0.2640  0.0694 -0.0994
   14CHL1  H21C 1017   2.019   5.012   9.406  1.1043 -0.8166  0.6243
   14CHL1   C22 1018   2.225   5.057   9.130  0.4333  0.6704 -0.0135
   14CHL1  H22A 1019   2.151   5.128   9.087 -0.6640 -0.4522 -0.0303
   14CHL1  H22B 1020   2.324   5.103   9.108  0.7717  0.7783  1.6132
   14CHL1   C23 1021   2.219   4.922   9.054 -0.0222  0.3836 -0.5660
   14CHL1  H23A 1022   2.286   4.860   9.117 -0.6305  0.9941  0.7040
   14CHL1  H23B 1023   2.113   4.889   9.058 -0.1920  0.9091 -0.7431
   14CHL1   C24 1024   2.258   4.941   8.907 -0.7030  0.4761  0.4285
   14CHL1  H24A 1025   2.185   5.012   8.863 -1.1757  0.5202  1.2702
   14CHL1  H24B 1026   2.358   4.990   8.901 -0.6416  0.6206  2.1276
   14CHL1   C25 1027   2.269   4.805   8.825  0.6095  0.9270 -0.4929
   14CHL1   H25 1028   2.352   4.749   8.874 -0.4080  0.2853  0.5563
   14CHL1   C26 1029   2.137   4.719   8.827 -0.2704 -1.0899  0.0908
   14CHL1  H26A 1030   2.100   4.689   8.928 -3.0219 -0.1206 -0.5565
   14CHL1  H26B 1031   2.054   4.755   8.763  0.3402  2.6790  1.1972
   14CHL1  H26C 1032   2.175   4.625   8.781  0.0945 -0.3156 -1.2460
   14CHL1   C27 1033   2.305   4.816   8.675  0.1673 -0.2412 -0.4584
   14CHL1  H27A 1034   2.230   4.871   8.614  1.7234  0.9211 -1.4017
   14CHL1  H27B 1035   2.399   4.875   8.681 -0.8828  1.6939 -1.7046
   14CHL1  H27C 1036   2.319   4.715   8.632  0.0118 -0.2352 -0.5251
   15CHL1    C3 1037   5.331   4.162  10.231  0.1927 -0.1694 -0.1499
   15CHL1    H3 1038   5.413   4.137  10.161  0.0383  2.4500 -1.3763
   15CHL1    O3 1039   5.384   4.156  10.362 -0.0561 -0.1802  0.7178
   15CHL1   H3' 1040   5.340   4.221  10.417 -1.4092 -0.8350  0.4352
   15CHL1    C4 1041   5.284   4.303  10.192 -0.0254  0.7116  0.2150
   15CHL1   H4A 1042   5.189   4.331  10.242 -0.5167  3.4252 -2.0107
   15CHL1   H4B 1043   5.362   4.375  10.224  2.1384 -0.9429 -1.0479
   15CHL1    C5 1044   5.256   4.299  10.045 -0.3624 -0.0451 -0.0304
   15CHL1    C6 1045   5.342   4.358   9.955  0.4005 -0.2265 -0.0893
   15CHL1    H6 1046   5.418   4.424   9.998 -0.1967  1.4129 -1.4273
   15CHL1    C7 1047   5.317   4.350   9.805 -0.2044 -0.0716  0.5179
   15CHL1   H7A 1048   5.326   4.454   9.768 -1.9321 -1.0713 -3.1407
   15CHL1   H7B 1049   5.387   4.284   9.749 -1.0132  0.4357 -1.1473
   15CHL1    C8 1050   5.179   4.297   9.764  0.0678 -0.2785 -0.2968
   15CHL1    H8 1051   5.103   4.377   9.781  1.9545  1.7657 -0.9040
   15CHL1   C14 1052   5.197   4.253   9.615 -0.0583  0.1564 -0.0098
   15CHL1   H14 1053   5.269   4.169   9.623 -2.0943 -1.9610 -2.0716
   15CHL1   C15 1054   5.242   4.352   9.514 -0.0273 -0.6271  0.3589
   15CHL1  H15A 1055   5.194   4.451   9.527  3.3744  1.1414  0.4647
   15CHL1  H15B 1056   5.353   4.363   9.516 -0.1888  1.0764  1.3562
   15CHL1   C16 1057   5.210   4.286   9.376  0.2968  0.5223 -0.8505
   15CHL1  H16A 1058   5.157   4.357   9.309 -1.5393 -0.8760 -0.9550
   15CHL1  H16B 1059   5.298   4.254   9.316  1.4439  1.5380  0.2273
   15CHL1   C17 1060   5.124   4.158   9.417 -0.0321 -0.0119  0.3530
   15CHL1   H17 1061   5.195   4.076   9.441  0.6634  0.4300 -0.1395
   15CHL1   C13 1062   5.072   4.189   9.557 -0.5417  0.2397  0.2451
   15CHL1   C18 1063   4.949   4.283   9.549 -0.1327 -0.5126 -0.4999
   15CHL1  H18A 1064   4.855   4.226   9.534 -0.9598  0.6273  0.2586
   15CHL1  H18B 1065   4.937   4.343   9.642 -2.2434 -0.4315 -0.7751
   15CHL1  H18C 1066   4.966   4.366   9.477 -1.1089  0.4892  0.3962
   15CHL1   C12 1067   5.034   4.064   9.635  0.4862  0.7726  0.0274
   15CHL1  H12A 1068   4.931   4.026   9.614 -0.7139  2.1320  2.9110
   15CHL1  H12B 1069   5.101   3.976   9.625 -0.0840  0.3207  0.0648
   15CHL1   C11 1070   5.025   4.097   9.792  0.2757  0.1095  0.0580
   15CHL1  H11A 1071   4.924   4.137   9.814 -0.3202 -0.6805 -1.1175
   15CHL1  H11B 1072   5.023   3.994   9.835  0.9590 -0.8236 -1.9986
   15CHL1    C9 1073   5.144   4.176   9.849  0.0829 -0.6428  0.9444
   15CHL1    H9 1074   5.235   4.114   9.832  0.1971 -0.6488  1.5258
   15CHL1   C10 1075   5.143   4.199  10.001 -0.4118 -0.2924  0.4854
   15CHL1   C19 1076   5.003   4.257  10.035 -0.2694 -0.0204 -0.3952
   15CHL1  H19A 1077   4.972   4.334   9.961  1.8021  0.4570 -0.8317
   15CHL1  H19B 1078   4.924   4.179  10.030 -0.3251 -0.2925  2.5751
   15CHL1  H19C 1079   4.989   4.299  10.137 -0.3385 -3.2384  1.0401
   15CHL1    C1 1080   5.165   4.063  10.073 -0.5711 -0.2841 -0.6857
   15CHL1   H1A 1081   5.072   4.002  10.071  0.5627 -2.2774  1.8076
   15CHL1   H1B 1082   5.236   3.998  10.017  0.2619  0.0016  0.0214
   15CHL1    C2 1083   5.215   4.075  10.221 -0.5343 -0.5232 -0.5212
   15CHL1   H2A 1084   5.244   3.975  10.261 -0.3343 -0.1733  0.2289
   15CHL1   H2B 1085   5.139   4.110  10.294  0.6251  0.7607  0.1054
   15CHL1   C20 1086   5.019   4.113   9.308  0.5224  0.6386  0.5152
   15CHL1   H20 1087   4.948   4.198   9.301  1.4083  1.3312 -0.3668
   15CHL1   C21 1088   4.938   3.986   9.343  0.6867  0.2724 -0.4780
   15CHL1  H21A 1089   5.004   3.897   9.346  1.0973  0.5578 -0.8918
   15CHL1  H21B 1090   4.852   3.974   9.273 -0.3053  1.3899  0.5080
   15CHL1  H21C 1091   4.884   4.003   9.439  0.1126 -0.5637 -0.6447
   15CHL1   C22 1092   5.083   4.098   9.164 -0.1884 -0.6477  0.5236
   15CHL1  H22A 1093   5.164   4.174   9.163 -1.6843  1.0295  1.6088
   15CHL1  H22B 1094   5.133   3.999   9.158 -1.0555 -1.1560  1.3035
   15CHL1   C23 1095   4.990   4.133   9.051 -0.3902  1.0263  0.1232
   15CHL1  H23A 1096   4.923   4.045   9.041 -1.0965  1.6746 -0.9877
   15CHL1  H23B 1097   4.932   4.225   9.074 -0.3297  1.8848 -2.7733
   15CHL1   C24 1098   5.056   4.149   8.911 -0.0347  0.4678  0.4159
   15CHL1  H24A 1099   5.146   4.213   8.918 -0.8162  1.5133  1.2650
   15CHL1  H24B 1100   5.092   4.049   8.880 -0.8982  0.5904 -1.0779
   15CHL1   C25 1101   4.954   4.194   8.801  0.5271  0.0293  0.2403
   15CHL1   H25 1102   4.901   4.283   8.842 -1.1160 -0.8994  0.2172
   15CHL1   C26 1103   5.032   4.237   8.679 -0.2352  0.1880 -0.3586
   15CHL1  H26A 1104   5.010   4.167   8.595 -0.2459  0.0208 -0.2175
   15CHL1  H26B 1105   5.003   4.335   8.636  1.8513  0.2588 -1.7579
   15CHL1  H26C 1106   5.140   4.235   8.702 -0.7584 -0.2871  2.3527
   15CHL1   C27 1107   4.841   4.094   8.772  0.7132  0.2633  0.3126
   15CHL1  H27A 1108   4.882   4.008   8.716 -3.1593 -1.2333 -0.5396
   15CHL1  H27B 1109   4.790   4.070   8.868  2.9102  0.3655  1.5570
   15CHL1  H27C 1110   4.761   4.146   8.716  1.1558 -0.1028 -0.6757
   16CHL1    C3 1111   6.081   3.715  10.194  1.0531 -0.2831  0.4555
   16CHL1    H3 1112   5.996   3.784  10.214  2.2910  0.9341  1.8043
   16CHL1    O3 1113   6.132   3.679  10.323  0.1198 -1.1502  0.9428
   16CHL1   H3' 1114   6.221   3.647  10.308  0.6846  0.6665  0.1706
   16CHL1    C4 1115   6.038   3.587  10.130  0.1108  0.0086  0.5002
   16CHL1   H4A 1116   6.122   3.515  10.118 -0.8757 -0.9667 -0.9098
   16CHL1   H4B 1117   5.966   3.532  10.193 -0.3027 -0.4174 -0.3225
   16CHL1    C5 1118   5.980   3.603   9.988 -0.7022 -0.4196 -0.2766
   16CHL1    C6 1119   5.854   3.566   9.952  0.2364 -0.7819 -0.5562
   16CHL1    H6 1120   5.789   3.517  10.027  2.4199 -1.4076  1.0563
   16CHL1    C7 1121   5.788   3.584   9.818 -0.1832  0.2286  0.1067
   16CHL1   H7A 1122   5.737   3.488   9.792  1.8003 -0.8055 -0.1224
   16CHL1   H7B 1123   5.712   3.665   9.821 -0.9038 -0.3592 -1.1639
   16CHL1    C8 1124   5.891   3.623   9.716  0.0520  0.2556  0.1104
   16CHL1    H8 1125   5.954   3.533   9.700 -1.4403 -1.3730  2.5837
   16CHL1   C14 1126   5.819   3.679   9.591 -0.2648  0.1859 -0.2274
   16CHL1   H14 1127   5.770   3.768   9.637 -1.5180 -0.2309 -0.7041
   16CHL1   C15 1128   5.715   3.597   9.517  0.4732 -0.2253  0.2650
   16CHL1  H15A 1129   5.749   3.491   9.512  2.7335  0.2026  3.3267
   16CHL1  H15B 1130   5.615   3.588   9.563 -0.0847 -3.6874 -1.3407
   16CHL1   C16 1131   5.698   3.648   9.372 -0.7436 -0.0924  0.1657
   16CHL1  H16A 1132   5.704   3.568   9.295 -0.3101 -0.8452  0.9650
   16CHL1  H16B 1133   5.599   3.694   9.349 -0.9954 -1.5847 -2.0392
   16CHL1   C17 1134   5.815   3.751   9.356 -0.2787 -0.7283 -0.6188
   16CHL1   H17 1135   5.771   3.850   9.378  1.6257  0.4578 -1.8391
   16CHL1   C13 1136   5.912   3.730   9.477 -0.3468 -0.2319 -0.3683
   16CHL1   C18 1137   6.011   3.625   9.427  0.0499 -0.2661 -0.0729
   16CHL1  H18A 1138   6.083   3.600   9.508 -0.6580  0.4453  0.7842
   16CHL1  H18B 1139   5.946   3.546   9.384 -1.0688  1.0680 -0.8841
   16CHL1  H18C 1140   6.063   3.659   9.335 -1.5980  0.0721 -0.9149
   16CHL1   C12 1141   5.988   3.849   9.539  0.0415 -0.4278 -1.0076
   16CHL1  H12A 1142   6.066   3.875   9.464  0.9155 -1.2260 -0.3948
   16CHL1  H12B 1143   5.925   3.939   9.559  1.0715  0.0459  0.2486
   16CHL1   C11 1144   6.061   3.807   9.669  0.1658  0.0947  0.0359
   16CHL1  H11A 1145   6.145   3.737   9.647  0.8456  1.8255 -3.6640
   16CHL1  H11B 1146   6.106   3.900   9.708 -4.1968  2.5589 -0.1255
   16CHL1    C9 1147   5.976   3.735   9.776 -0.0319  0.3462  0.9036
   16CHL1    H9 1148   5.903   3.811   9.812 -0.8142 -0.6256  1.4009
   16CHL1   C10 1149   6.064   3.685   9.894  0.3075 -0.0598 -0.3091
   16CHL1   C19 1150   6.175   3.587   9.847 -0.6374 -0.2296  0.7380
   16CHL1  H19A 1151   6.232   3.544   9.932  1.4256 -0.2941 -0.5919
   16CHL1  H19B 1152   6.140   3.515   9.770  2.0017  1.1952 -2.0474
   16CHL1  H19C 1153   6.248   3.649   9.791 -1.0731 -2.2622 -2.3386
   16CHL1    C1 1154   6.116   3.810   9.964 -0.2422 -0.1046 -0.1935
   16CHL1   H1A 1155   6.187   3.855   9.891  0.6790 -1.1866  0.0072
   16CHL1   H1B 1156   6.037   3.887   9.979  0.2689  0.2804  0.6296
   16CHL1    C2 1157   6.179   3.786  10.107 -0.4781 -0.0207 -0.9764
   16CHL1   H2A 1158   6.201   3.880  10.162  2.4697 -0.5660 -1.0713
   16CHL1   H2B 1159   6.273   3.729  10.095 -0.7231 -0.5499 -0.4442
   16CHL1   C20 1160   5.875   3.767   9.209  0.1134  0.7374 -0.2933
   16CHL1   H20 1161   5.919   3.668   9.182  0.1065  0.9773 -1.2382
   16CHL1   C21 1162   5.994   3.868   9.186  1.2837  1.0094  0.0770
   16CHL1  H21A 1163   6.085   3.819   9.227  0.3309 -1.6620 -0.7290
   16CHL1  H21B 1164   5.972   3.962   9.242  4.3680  1.0729  1.3765
   16CHL1  H21C 1165   6.007   3.907   9.084 -2.1940  0.3295 -0.7800
   16CHL1   C22 1166   5.759   3.811   9.115  0.2491  0.1059  0.1933
   16CHL1  H22A 1167   5.656   3.769   9.128 -0.1552 -0.1153 -3.0154
   16CHL1  H22B 1168   5.733   3.919   9.116  0.0080  0.0638 -0.8672
   16CHL1   C23 1169   5.795   3.763   8.973 -0.4735 -0.4765  0.0421
   16CHL1  H23A 1170   5.889   3.816   8.946  0.0567  0.0401  2.6741
   16CHL1  H23B 1171   5.795   3.652   8.972 -1.6337 -0.5200 -1.9609
   16CHL1   C24 1172   5.692   3.805   8.862 -0.1617 -0.5361 -0.7948
   16CHL1  H24A 1173   5.587   3.777   8.889 -0.1125 -1.1740 -1.2173
   16CHL1  H24B 1174   5.688   3.915   8.849 -2.9719 -0.2801  1.3703
   16CHL1   C25 1175   5.726   3.734   8.727  0.1686  0.5624 -1.2507
   16CHL1   H25 1176   5.726   3.628   8.759  1.0913  1.2110  1.1022
   16CHL1   C26 1177   5.603   3.751   8.638  0.6553 -0.2498 -0.2506
   16CHL1  H26A 1178   5.593   3.858   8.607 -0.2421 -0.2255  0.0845
   16CHL1  H26B 1179   5.598   3.683   8.550  1.5605  0.5985 -0.9813
   16CHL1  H26C 1180   5.515   3.719   8.697 -0.0399  1.7891 -0.0966
   16CHL1   C27 1181   5.856   3.781   8.651  0.2940 -0.6656  1.4971
   16CHL1  H27A 1182   5.863   3.725   8.555  0.4913  0.2596  0.9569
   16CHL1  H27B 1183   5.846   3.891   8.635  0.7527 -0.8457 -0.1778
   16CHL1  H27C 1184   5.952   3.762   8.704  1.1234 -1.9291 -0.3225
   17CHL1    C3 1185   0.211   0.901  10.113  0.7315 -0.2617 -0.6208
   17CHL1    H3 1186   0.189   0.794  10.095  0.3864 -1.1416  3.7848
   17CHL1    O3 1187   0.207   0.904  10.256 -0.0938  0.6626  0.0089
   17CHL1   H3' 1188   0.131   0.956  10.283 -0.1517  1.5360 -1.6431
   17CHL1    C4 1189   0.355   0.927  10.064  0.1782  0.6519 -0.2212
   17CHL1   H4A 1190   0.384   1.025  10.108 -0.6335  0.4508  0.8076
   17CHL1   H4B 1191   0.406   0.837  10.104 -0.3452  1.0704  1.4844
   17CHL1    C5 1192   0.360   0.932   9.914  0.1753 -0.2787 -0.2551
   17CHL1    C6 1193   0.428   0.842   9.851 -0.6904 -0.2340 -0.2093
   17CHL1    H6 1194   0.480   0.767   9.913  2.9680  2.9820  1.0308
   17CHL1    C7 1195   0.455   0.836   9.706 -0.9067  0.3448 -0.1402
   17CHL1   H7A 1196   0.562   0.820   9.683 -0.3668  2.9427  0.2227
   17CHL1   H7B 1197   0.404   0.747   9.662 -0.4123 -0.8158  1.5300
   17CHL1    C8 1198   0.390   0.959   9.633 -0.6817  0.5199 -0.2293
   17CHL1    H8 1199   0.461   1.037   9.670  0.2206 -0.9694  1.3140
   17CHL1   C14 1200   0.386   0.924   9.485 -0.3626  0.1127  0.5287
   17CHL1   H14 1201   0.332   0.827   9.478 -2.1911  1.1638 -0.9468
   17CHL1   C15 1202   0.522   0.884   9.409  0.4093 -0.6393 -0.4442
   17CHL1  H15A 1203   0.596   0.965   9.428  0.3647 -0.5310 -0.7145
   17CHL1  H15B 1204   0.565   0.785   9.432  2.6269  0.3520 -0.1112
   17CHL1   C16 1205   0.479   0.896   9.262  1.0203 -0.6128 -0.2985
   17CHL1  H16A 1206   0.564   0.943   9.208 -0.7316  1.7391 -1.1743
   17CHL1  H16B 1207   0.452   0.798   9.218  0.6752 -0.0470 -1.3960
   17CHL1   C17 1208   0.351   0.981   9.259  0.2117 -0.3281  0.0927
   17CHL1   H17 1209   0.270   0.905   9.256 -0.1325  0.0392  0.1469
   17CHL1   C13 1210   0.325   1.034   9.404  0.3923  0.2619  0.0475
   17CHL1   C18 1211   0.399   1.163   9.441  0.3067 -0.5757  0.5545
   17CHL1  H18A 1212   0.509   1.149   9.448  0.2004 -1.1512  1.1446
   17CHL1  H18B 1213   0.358   1.242   9.374 -0.6861 -1.6330 -0.1256
   17CHL1  H18C 1214   0.381   1.198   9.545 -0.1365  0.7274  0.0722
   17CHL1   C12 1215   0.181   1.054   9.453  0.4395  0.1234  0.3595
   17CHL1  H12A 1216   0.142   1.137   9.391  0.1358 -0.2503  0.0440
   17CHL1  H12B 1217   0.124   0.963   9.425 -1.0022  0.7696  1.0815
   17CHL1   C11 1218   0.162   1.086   9.602  0.8351 -0.3612  0.1051
   17CHL1  H11A 1219   0.183   1.194   9.616 -2.4549  0.8664 -2.7132
   17CHL1  H11B 1220   0.055   1.063   9.620  1.3947 -4.0824 -0.5284
   17CHL1    C9 1221   0.251   0.989   9.687 -0.5057  0.6252  0.1900
   17CHL1    H9 1222   0.203   0.890   9.673  1.4669 -0.2176 -0.9229
   17CHL1   C10 1223   0.259   1.026   9.841 -0.8183  0.3059  0.8197
   17CHL1   C19 1224   0.294   1.179   9.864  0.4656 -0.1923  0.0005
   17CHL1  H19A 1225   0.375   1.202   9.791  0.0653  0.9171 -0.1152
   17CHL1  H19B 1226   0.208   1.248   9.844  0.5602  0.2997  1.2366
   17CHL1  H19C 1227   0.340   1.209   9.960  2.1623 -2.3576 -0.0579
   17CHL1    C1 1228   0.115   1.003   9.907 -0.0712  0.0569  0.7286
   17CHL1   H1A 1229   0.038   1.078   9.878 -0.7466  0.0908  2.4715
   17CHL1   H1B 1230   0.079   0.907   9.865  2.4800 -1.2034  1.1949
   17CHL1    C2 1231   0.115   1.010  10.063  0.2913 -0.3690  0.2127
   17CHL1   H2A 1232   0.012   0.984  10.099  0.1214  1.1490  0.9038
   17CHL1   H2B 1233   0.141   1.116  10.085 -3.5646  1.2148 -1.9233
   17CHL1   C20 1234   0.328   1.075   9.135 -0.2003  1.0109 -0.1171
   17CHL1   H20 1235   0.249   1.147   9.165  0.6318  1.7648  0.2912
   17CHL1   C21 1236   0.286   0.998   9.004  0.8562 -0.2268 -0.5430
   17CHL1  H21A 1237   0.379   0.946   8.973  1.0957 -0.9251  1.2615
   17CHL1  H21B 1238   0.262   1.068   8.921 -0.4563  1.1901  0.9538
   17CHL1  H21C 1239   0.202   0.926   9.016 -0.2188  1.0170 -0.3741
   17CHL1   C22 1240   0.445   1.169   9.112 -0.7552 -0.3341  0.1681
   17CHL1  H22A 1241   0.482   1.222   9.202  1.8145  0.3453 -1.1972
   17CHL1  H22B 1242   0.528   1.107   9.070 -0.8030 -1.0021  1.0267
   17CHL1   C23 1243   0.409   1.285   9.020 -1.0853 -1.0051 -0.2718
   17CHL1  H23A 1244   0.377   1.238   8.925 -0.4000 -3.4240  0.6358
   17CHL1  H23B 1245   0.327   1.350   9.060  0.0413  1.4340 -1.6931
   17CHL1   C24 1246   0.541   1.381   9.004  0.7170  0.3339  0.6673
   17CHL1  H24A 1247   0.556   1.434   9.101 -0.5037  5.3373 -1.5147
   17CHL1  H24B 1248   0.627   1.316   8.979  0.5037  0.0500  0.6746
   17CHL1   C25 1249   0.523   1.487   8.897  0.1458 -0.4474 -0.2463
   17CHL1   H25 1250   0.420   1.527   8.900  1.1394  2.1895  1.2356
   17CHL1   C26 1251   0.605   1.616   8.917 -0.4235 -0.2948 -0.0443
   17CHL1  H26A 1252   0.711   1.584   8.929 -0.6072 -0.6973  0.5588
   17CHL1  H26B 1253   0.597   1.691   8.836  0.0274 -0.8951 -0.6619
   17CHL1  H26C 1254   0.559   1.648   9.013 -2.3066 -3.3319  0.2132
   17CHL1   C27 1255   0.550   1.442   8.747  0.2454 -0.0472 -0.4157
   17CHL1  H27A 1256   0.657   1.468   8.731  0.3890 -1.0917 -1.2083
   17CHL1  H27B 1257   0.534   1.333   8.740  0.8389 -0.3676  2.0488
   17CHL1  H27C 1258   0.497   1.509   8.676 -0.9730 -1.2881 -0.7003
   18CHL1    C3 1259   1.592   5.364  10.282  0.5366  0.4703 -0.5261
   18CHL1    H3 1260   1.651   5.289  10.224 -1.9557 -1.4876 -0.7376
   18CHL1    O3 1261   1.581   5.331  10.419 -0.5481 -0.2140 -0.1453
   18CHL1   H3' 1262   1.492   5.300  10.434 -0.0985 -1.9621 -0.7774
   18CHL1    C4 1263   1.649   5.499  10.268  0.4812 -0.9997 -0.1707
   18CHL1   H4A 1264   1.602   5.573  10.335  4.1387  1.1911  0.2235
   18CHL1   H4B 1265   1.750   5.499  10.313 -0.1714 -2.4699  1.4139
   18CHL1    C5 1266   1.643   5.549  10.123  0.1850 -0.7186 -0.2268
   18CHL1    C6 1267   1.762   5.590  10.063  0.3207 -0.3291 -0.2434
   18CHL1    H6 1268   1.849   5.590  10.129 -0.9116  2.0696  1.5571
   18CHL1    C7 1269   1.775   5.638   9.923 -0.1051  0.3922 -0.2309
   18CHL1   H7A 1270   1.817   5.740   9.919 -0.0887  0.4888  1.6125
   18CHL1   H7B 1271   1.830   5.562   9.863 -1.0356 -1.0585  0.6699
   18CHL1    C8 1272   1.634   5.649   9.848 -1.3892  0.6965 -0.3071
   18CHL1    H8 1273   1.586   5.741   9.886 -0.4568  0.9480  0.2878
   18CHL1   C14 1274   1.660   5.649   9.700  0.0797 -0.1706  0.5193
   18CHL1   H14 1275   1.690   5.546   9.673 -0.8238 -0.3954  0.3234
   18CHL1   C15 1276   1.763   5.740   9.630  0.1176 -0.3185 -0.5319
   18CHL1  H15A 1277   1.760   5.845   9.667  1.1548 -1.0880  1.9163
   18CHL1  H15B 1278   1.865   5.702   9.654  0.5552  1.4063  0.5786
   18CHL1   C16 1279   1.730   5.731   9.477  0.0322 -0.2384 -0.0404
   18CHL1  H16A 1280   1.723   5.833   9.435 -1.5738  0.9346  2.7743
   18CHL1  H16B 1281   1.800   5.680   9.407 -1.0669 -1.5529 -0.2288
   18CHL1   C17 1282   1.586   5.661   9.465 -0.3687 -0.1198  0.7315
   18CHL1   H17 1283   1.606   5.556   9.436 -0.1231 -0.3290  1.6234
   18CHL1   C13 1284   1.535   5.653   9.611  0.0734  0.3540 -0.5140
   18CHL1   C18 1285   1.468   5.786   9.638  0.4393  0.6609  0.0576
   18CHL1  H18A 1286   1.425   5.783   9.740  0.4320  2.3441  0.1376
   18CHL1  H18B 1287   1.540   5.871   9.634 -0.3306  1.2970 -0.6042
   18CHL1  H18C 1288   1.387   5.814   9.567 -0.2047  0.7776  0.8356
   18CHL1   C12 1289   1.432   5.541   9.647 -0.7496  1.0661  0.1300
   18CHL1  H12A 1290   1.333   5.557   9.599 -1.1753 -1.3271  0.0464
   18CHL1  H12B 1291   1.477   5.446   9.612  0.2460  0.9084  1.7546
   18CHL1   C11 1292   1.408   5.521   9.801 -0.6423 -0.2795 -0.8205
   18CHL1  H11A 1293   1.333   5.597   9.830  0.0065 -0.2559  0.9234
   18CHL1  H11B 1294   1.358   5.422   9.812  0.4205 -0.7617 -0.1909
   18CHL1    C9 1295   1.541   5.526   9.884  0.5022 -0.2741  0.1178
   18CHL1    H9 1296   1.611   5.447   9.850  1.2900  1.0709 -1.5704
   18CHL1   C10 1297   1.515   5.522  10.038  0.0120 -0.4581 -0.2735
   18CHL1   C19 1298   1.414   5.630  10.078  0.6871  0.2387 -0.2857
   18CHL1  H19A 1299   1.317   5.615  10.026  0.5760 -0.4708  0.1227
   18CHL1  H19B 1300   1.384   5.631  10.185 -1.7258 -0.9307 -0.8709
   18CHL1  H19C 1301   1.444   5.728  10.034 -2.4345  0.5753 -1.9515
   18CHL1    C1 1302   1.457   5.384  10.074 -0.8486 -0.5105  0.7188
   18CHL1   H1A 1303   1.354   5.386  10.034 -1.2887 -1.9824  1.6912
   18CHL1   H1B 1304   1.509   5.306  10.014  0.9243  0.7562  0.5324
   18CHL1    C2 1305   1.447   5.359  10.226 -0.0598 -0.6723  0.5173
   18CHL1   H2A 1306   1.409   5.256  10.240 -1.9652 -0.6898 -3.2838
   18CHL1   H2B 1307   1.377   5.426  10.280  0.0799 -0.5862  0.5916
   18CHL1   C20 1308   1.502   5.724   9.349  0.3604  1.2040  0.2455
   18CHL1   H20 1309   1.486   5.834   9.359 -1.4069  0.9251  0.9514
   18CHL1   C21 1310   1.366   5.644   9.341 -0.4274 -0.6085  0.2916
   18CHL1  H21A 1311   1.301   5.670   9.255  1.0921  1.4822 -0.3179
   18CHL1  H21B 1312   1.300   5.674   9.425  1.2580  0.3181  1.3417
   18CHL1  H21C 1313   1.396   5.537   9.330  4.5166  0.6793 -1.8347
   18CHL1   C22 1314   1.575   5.718   9.216 -0.6915 -0.5351 -0.0398
   18CHL1  H22A 1315   1.679   5.752   9.229  0.1805 -3.3534  0.9940
   18CHL1  H22B 1316   1.585   5.616   9.173 -0.4138 -1.5250  2.2666
   18CHL1   C23 1317   1.512   5.812   9.110  0.2892  0.3425  0.2447
   18CHL1  H23A 1318   1.405   5.789   9.096  0.8483 -0.8154 -2.8490
   18CHL1  H23B 1319   1.528   5.916   9.146  2.8536 -0.2188  1.0052
   18CHL1   C24 1320   1.593   5.792   8.976 -0.1767 -0.2770 -0.4532
   18CHL1  H24A 1321   1.694   5.837   8.976 -0.4753  0.4222  0.2114
   18CHL1  H24B 1322   1.606   5.684   8.955  1.8218 -0.7549  2.6710
   18CHL1   C25 1323   1.528   5.867   8.859  0.2073 -0.7489  0.2027
   18CHL1   H25 1324   1.520   5.971   8.897  1.7789 -0.5541  0.0662
   18CHL1   C26 1325   1.612   5.860   8.733 -0.9805  0.3649  0.0508
   18CHL1  H26A 1326   1.577   5.928   8.653  4.9132  1.3653 -2.1615
   18CHL1  H26B 1327   1.716   5.891   8.754 -1.3899 -0.0199  3.2230
   18CHL1  H26C 1328   1.623   5.752   8.711  0.4697  0.7217 -1.1083
   18CHL1   C27 1329   1.386   5.817   8.827 -0.2726  0.6507  0.0884
   18CHL1  H27A 1330   1.391   5.762   8.731 -3.3832  1.5112 -0.6807
   18CHL1  H27B 1331   1.345   5.745   8.901  1.2181 -0.3354 -0.0190
   18CHL1  H27C 1332   1.314   5.902   8.818 -1.8696 -0.3833  2.2875
   19CHL1    C3 1333   6.403   1.467  10.139 -0.0950  0.2486 -0.7246
   19CHL1    H3 1334   6.414   1.356  10.139 -0.7695  0.1495 -2.6340
   19CHL1    O3 1335   6.354   1.526  10.258  0.4257 -0.8933 -0.0017
   19CHL1   H3' 1336   6.360   1.621  10.248 -0.5049 -0.7137  0.9760
   19CHL1    C4 1337   6.534   1.529  10.113  0.1250 -0.2474  0.8315
   19CHL1   H4A 1338   6.520   1.639  10.124 -2.2879  0.0262 -3.1048
   19CHL1   H4B 1339   6.602   1.493  10.194 -0.1801 -0.0514  1.1801
   19CHL1    C5 1340   6.579   1.505   9.964 -0.4640  0.4803 -0.0339
   19CHL1    C6 1341   6.702   1.450   9.930  0.3461 -0.3610  0.0351
   19CHL1    H6 1342   6.764   1.422  10.016  2.1608 -1.8684 -1.6553
   19CHL1    C7 1343   6.749   1.415   9.799 -0.0571 -0.3388  0.3925
   19CHL1   H7A 1344   6.853   1.452   9.788 -0.2311 -0.2401 -1.1928
   19CHL1   H7B 1345   6.760   1.306   9.781  0.3876 -0.1197 -0.7290
   19CHL1    C8 1346   6.665   1.478   9.685  0.3261  0.3370 -0.3642
   19CHL1    H8 1347   6.681   1.588   9.679  0.3856  0.3066 -0.7925
   19CHL1   C14 1348   6.703   1.424   9.547  0.0753  0.1188  0.2456
   19CHL1   H14 1349   6.680   1.315   9.540 -0.8590  0.3123  0.1285
   19CHL1   C15 1350   6.849   1.443   9.505 -0.1138 -0.3450  0.2987
   19CHL1  H15A 1351   6.878   1.547   9.532  0.0304  0.6680 -3.2558
   19CHL1  H15B 1352   6.921   1.370   9.547 -0.4322  0.0380  1.5566
   19CHL1   C16 1353   6.842   1.420   9.354 -0.5805  0.2873  0.6240
   19CHL1  H16A 1354   6.895   1.502   9.301 -1.3079 -0.1203 -0.7936
   19CHL1  H16B 1355   6.871   1.315   9.333 -0.9339  0.9542 -4.4847
   19CHL1   C17 1356   6.692   1.430   9.313  0.0741 -0.5404  0.2311
   19CHL1   H17 1357   6.653   1.326   9.311 -1.2107 -0.1073  1.5295
   19CHL1   C13 1358   6.618   1.485   9.436  0.6821 -0.4191  0.7274
   19CHL1   C18 1359   6.642   1.635   9.432  1.0444 -0.0853  0.1455
   19CHL1  H18A 1360   6.575   1.678   9.355  0.7721 -2.0054 -0.7382
   19CHL1  H18B 1361   6.611   1.684   9.527 -2.2463 -2.0845  0.2639
   19CHL1  H18C 1362   6.739   1.676   9.397 -0.5800  1.6764 -2.6824
   19CHL1   C12 1363   6.477   1.438   9.454  0.4948  0.1961  0.3852
   19CHL1  H12A 1364   6.405   1.473   9.377 -1.7211 -1.7807  1.4097
   19CHL1  H12B 1365   6.476   1.327   9.454 -2.0018  0.1431 -0.8812
   19CHL1   C11 1366   6.415   1.484   9.589 -0.4343  0.2104  0.9158
   19CHL1  H11A 1367   6.401   1.594   9.585 -0.5806  0.1973  1.0551
   19CHL1  H11B 1368   6.316   1.436   9.606 -0.3950 -0.3364 -0.3276
   19CHL1    C9 1369   6.516   1.462   9.717  0.5362  0.1023  0.9252
   19CHL1    H9 1370   6.504   1.353   9.734  0.7735  0.0022  0.4593
   19CHL1   C10 1371   6.478   1.528   9.853  0.3457  0.1408 -0.5628
   19CHL1   C19 1372   6.465   1.683   9.835 -0.0690  0.3359  0.3924
   19CHL1  H19A 1373   6.392   1.706   9.755 -0.9101 -1.4223  0.6073
   19CHL1  H19B 1374   6.436   1.733   9.930  0.0835  1.2772 -0.0369
   19CHL1  H19C 1375   6.564   1.725   9.807 -0.6863 -0.4437 -3.5362
   19CHL1    C1 1376   6.341   1.457   9.892 -0.6374 -0.0691 -0.2480
   19CHL1   H1A 1377   6.257   1.482   9.823 -1.7502  0.9563  1.4283
   19CHL1   H1B 1378   6.351   1.346   9.888 -2.7962 -0.3808  1.2243
   19CHL1    C2 1379   6.295   1.486  10.033  0.1494 -0.0006  0.2431
   19CHL1   H2A 1380   6.208   1.423  10.060  0.5299 -0.0162  1.5160
   19CHL1   H2B 1381   6.256   1.590  10.030 -0.2478 -0.1368  0.7092
   19CHL1   C20 1382   6.665   1.485   9.164 -0.0587  0.6075  0.2134
   19CHL1   H20 1383   6.715   1.584   9.154  1.5386 -0.1683  0.1676
   19CHL1   C21 1384   6.512   1.491   9.130  0.1465 -0.2470  0.3421
   19CHL1  H21A 1385   6.505   1.518   9.022 -1.6308 -0.3358  0.4180
   19CHL1  H21B 1386   6.451   1.559   9.194  0.1068  2.4949 -2.3460
   19CHL1  H21C 1387   6.473   1.388   9.138 -1.5544  0.4978  2.8022
   19CHL1   C22 1388   6.730   1.385   9.066  0.0727 -0.1063 -0.2559
   19CHL1  H22A 1389   6.830   1.349   9.099 -0.7484 -0.7399  1.6827
   19CHL1  H22B 1390   6.677   1.288   9.058  0.9792 -0.7074  0.7389
   19CHL1   C23 1391   6.742   1.440   8.914  0.2651  0.7122  0.1194
   19CHL1  H23A 1392   6.648   1.479   8.871 -1.0698 -2.0002  0.3744
   19CHL1  H23B 1393   6.814   1.523   8.927 -0.9547  2.0217 -1.1527
   19CHL1   C24 1394   6.798   1.332   8.820  0.1670 -0.3286  0.0902
   19CHL1  H24A 1395   6.884   1.282   8.871 -0.9212 -0.6869  1.6358
   19CHL1  H24B 1396   6.724   1.251   8.807  1.0400 -1.2922  0.9289
   19CHL1   C25 1397   6.841   1.386   8.679  0.5099 -0.5086  0.2979
   19CHL1   H25 1398   6.888   1.304   8.620 -2.1129 -2.1851  0.4186
   19CHL1   C26 1399   6.717   1.441   8.604  0.3316  0.3986  0.0497
   19CHL1  H26A 1400   6.661   1.521   8.656 -2.2218 -1.0535 -0.2920
   19CHL1  H26B 1401   6.747   1.490   8.509  0.6618 -0.4786 -0.3102
   19CHL1  H26C 1402   6.641   1.361   8.587 -0.0084  0.2501  2.0789
   19CHL1   C27 1403   6.943   1.500   8.689  0.2986 -0.1150  0.0085
   19CHL1  H27A 1404   6.995   1.512   8.591 -1.6235  2.1266 -0.8515
   19CHL1  H27B 1405   6.897   1.590   8.735 -2.3510 -0.5875 -1.4939
   19CHL1  H27C 1406   7.026   1.463   8.752  1.0544  0.9242 -0.3552
   20CHL1    C3 1407   1.588   3.298  10.230  0.4975 -0.4157  0.6624
   20CHL1    H3 1408   1.615   3.400  10.194 -2.3561  1.0556  2.3620
   20CHL1    O3 1409   1.654   3.261  10.352 -0.1714  0.3083 -0.2910
   20CHL1   H3' 1410   1.613   3.178  10.376  1.1836  0.2212  2.0256
   20CHL1    C4 1411   1.433   3.299  10.251 -0.3448  0.5815  0.3815
   20CHL1   H4A 1412   1.396   3.204  10.297 -0.1383 -0.2279 -1.0653
   20CHL1   H4B 1413   1.416   3.376  10.329 -2.3455 -0.1286  0.7339
   20CHL1    C5 1414   1.371   3.330  10.117 -0.0590 -0.1655  0.4112
   20CHL1    C6 1415   1.285   3.435  10.104  0.4114 -0.5832 -0.4004
   20CHL1    H6 1416   1.275   3.502  10.191  2.2096 -0.7545 -0.0251
   20CHL1    C7 1417   1.218   3.482   9.976  0.1531 -0.1822  0.2352
   20CHL1   H7A 1418   1.113   3.509  10.003 -0.2377 -2.9849  1.9183
   20CHL1   H7B 1419   1.272   3.567   9.930 -0.4597 -0.7798 -1.6991
   20CHL1    C8 1420   1.217   3.366   9.871 -0.0427  0.0741  0.2441
   20CHL1    H8 1421   1.139   3.291   9.896 -0.2003  0.1039 -0.1583
   20CHL1   C14 1422   1.171   3.417   9.739  0.0519 -0.6578 -0.3871
   20CHL1   H14 1423   1.246   3.492   9.707 -0.8965  0.1538 -0.7747
   20CHL1   C15 1424   1.029   3.481   9.745 -0.0588  0.2886  0.5367
   20CHL1  H15A 1425   0.965   3.414   9.806  2.3928 -1.1413  1.6674
   20CHL1  H15B 1426   1.017   3.581   9.791  2.6556  0.8854  0.0778
   20CHL1   C16 1427   0.996   3.482   9.593  0.2466  0.5527 -0.5308
   20CHL1  H16A 1428   0.889   3.450   9.590  0.1117  0.5788  1.7588
   20CHL1  H16B 1429   0.996   3.585   9.553 -2.9916  0.6303 -0.6237
   20CHL1   C17 1430   1.099   3.398   9.517  0.0866  0.2518 -0.4689
   20CHL1   H17 1431   1.180   3.459   9.472 -0.6506  0.0135 -2.2055
   20CHL1   C13 1432   1.168   3.319   9.625  0.4818 -0.7711 -0.2466
   20CHL1   C18 1433   1.079   3.196   9.669 -0.5077 -1.0507  0.5095
   20CHL1  H18A 1434   0.971   3.222   9.680  0.2884  2.1355  2.3146
   20CHL1  H18B 1435   1.090   3.115   9.594 -1.5956 -1.4654  0.7746
   20CHL1  H18C 1436   1.122   3.157   9.763  1.2344  1.5767  0.9134
   20CHL1   C12 1437   1.312   3.276   9.594  0.4017  0.3372  0.1641
   20CHL1  H12A 1438   1.306   3.196   9.517  1.4209 -1.4597  1.8762
   20CHL1  H12B 1439   1.371   3.368   9.576 -1.3224  1.2379 -1.1239
   20CHL1   C11 1440   1.366   3.212   9.727  0.1311 -0.2661 -0.0158
   20CHL1  H11A 1441   1.306   3.122   9.753 -2.5505  0.5856 -2.7378
   20CHL1  H11B 1442   1.472   3.179   9.719 -0.2242 -3.6957  4.7772
   20CHL1    C9 1443   1.357   3.310   9.856 -0.0061 -0.0706 -0.5546
   20CHL1    H9 1444   1.416   3.401   9.833  1.1913  0.9767  5.1864
   20CHL1   C10 1445   1.415   3.252   9.992 -0.5069  0.0295  0.4267
   20CHL1   C19 1446   1.353   3.117  10.011 -0.1869 -0.6024  0.4252
   20CHL1  H19A 1447   1.243   3.126  10.020 -0.3319 -2.6494  1.2514
   20CHL1  H19B 1448   1.381   3.042   9.935  0.4841  3.1417 -3.3633
   20CHL1  H19C 1449   1.378   3.067  10.107 -2.0933 -3.9285 -0.6357
   20CHL1    C1 1450   1.567   3.237   9.981 -0.5045 -0.5611  0.2372
   20CHL1   H1A 1451   1.597   3.168   9.899 -0.3058  0.0646 -0.2264
   20CHL1   H1B 1452   1.602   3.340   9.962  1.2275 -0.7828  1.9131
   20CHL1    C2 1453   1.630   3.194  10.118  0.3150 -0.1617 -0.4480
   20CHL1   H2A 1454   1.741   3.185  10.117  0.6424  2.8476 -2.4577
   20CHL1   H2B 1455   1.593   3.091  10.141  0.9147 -0.6858 -1.7594
   20CHL1   C20 1456   1.037   3.331   9.394  0.5436  0.8300  0.1434
   20CHL1   H20 1457   0.961   3.263   9.439  0.7506 -1.2483 -2.4400
   20CHL1   C21 1458   1.130   3.235   9.310 -0.3335 -0.2069  0.1912
   20CHL1  H21A 1459   1.231   3.281   9.316 -0.0349 -0.9050  0.7219
   20CHL1  H21B 1460   1.107   3.224   9.202 -0.5876  0.5646  0.1592
   20CHL1  H21C 1461   1.124   3.135   9.358 -0.4212  0.1509  0.9292
   20CHL1   C22 1462   0.964   3.424   9.297 -0.8750  0.0614  0.7567
   20CHL1  H22A 1463   0.899   3.360   9.234 -1.6641  1.3062  0.2734
   20CHL1  H22B 1464   0.903   3.494   9.357 -1.0420  1.0260 -0.5112
   20CHL1   C23 1465   1.056   3.516   9.212  0.6554  0.1881 -0.6375
   20CHL1  H23A 1466   1.113   3.584   9.279 -0.7586  1.4674 -0.6838
   20CHL1  H23B 1467   1.124   3.449   9.155  1.6544  1.5907 -1.1436
   20CHL1   C24 1468   0.991   3.600   9.102  0.0620 -0.0997 -1.1020
   20CHL1  H24A 1469   0.951   3.532   9.024 -0.2043  0.1512 -1.1849
   20CHL1  H24B 1470   0.909   3.646   9.161  0.3000 -1.2322  0.1789
   20CHL1   C25 1471   1.082   3.716   9.048 -0.4301 -0.1808  0.5215
   20CHL1   H25 1472   1.112   3.777   9.136 -0.4287 -0.3107  0.6111
   20CHL1   C26 1473   1.214   3.660   8.988 -0.3457  0.5533 -0.6116
   20CHL1  H26A 1474   1.270   3.600   9.063  0.4405 -0.0095 -1.6231
   20CHL1  H26B 1475   1.183   3.599   8.900 -1.6653 -1.1333  0.9438
   20CHL1  H26C 1476   1.292   3.729   8.950  0.6947 -0.0645  0.3493
   20CHL1   C27 1477   1.015   3.810   8.951 -0.8599 -0.2839 -0.1199
   20CHL1  H27A 1478   0.945   3.746   8.893 -1.0692  0.9620 -1.2728
   20CHL1  H27B 1479   0.953   3.888   9.000  1.1311  0.8988  0.6380
   20CHL1  H27C 1480   1.089   3.861   8.887 -0.9491  0.4271  0.3317
   21CHL1    C3 1481   5.065   6.116  10.306  0.6275 -1.0501 -0.7838
   21CHL1    H3 1482   4.965   6.097  10.264  0.4394 -1.4518 -0.1695
   21CHL1    O3 1483   5.054   6.136  10.447 -0.6010  0.4099 -0.0774
   21CHL1   H3' 1484   4.976   6.190  10.460  0.0273  1.7092 -1.4411
   21CHL1    C4 1485   5.151   6.001  10.269 -0.0047 -0.2533  0.2256
   21CHL1   H4A 1486   5.250   6.012  10.316 -0.4179  0.2160  1.0007
   21CHL1   H4B 1487   5.107   5.912  10.318  0.8130 -0.7431  0.0908
   21CHL1    C5 1488   5.176   5.979  10.120 -0.5607 -0.0185  1.4792
   21CHL1    C6 1489   5.142   5.865  10.062  0.0419  0.1979 -0.3710
   21CHL1    H6 1490   5.108   5.784  10.127  5.2726 -1.8062  0.3703
   21CHL1    C7 1491   5.179   5.832   9.921  0.4675  0.1365 -0.6500
   21CHL1   H7A 1492   5.208   5.725   9.915 -0.5831 -0.2173  0.2219
   21CHL1   H7B 1493   5.080   5.854   9.876  0.4400  0.2523 -0.5340
   21CHL1    C8 1494   5.270   5.931   9.855 -0.7212 -0.1496  0.4440
   21CHL1    H8 1495   5.371   5.900   9.887 -0.9212  0.7568  2.0281
   21CHL1   C14 1496   5.261   5.921   9.704 -0.0173  0.1564 -0.3857
   21CHL1   H14 1497   5.158   5.955   9.683  0.4089  2.2327  0.6078
   21CHL1   C15 1498   5.264   5.778   9.638  0.6028  0.0999  0.2512
   21CHL1  H15A 1499   5.360   5.738   9.676  0.9717  2.6629  2.2791
   21CHL1  H15B 1500   5.170   5.719   9.648 -1.5088  3.0483 -0.5109
   21CHL1   C16 1501   5.284   5.809   9.492  0.3411  0.2988 -0.5528
   21CHL1  H16A 1502   5.375   5.756   9.457 -1.2114 -2.4802 -0.7193
   21CHL1  H16B 1503   5.197   5.771   9.435 -0.7957  1.5996  0.2416
   21CHL1   C17 1504   5.311   5.968   9.479 -0.2131 -0.3963 -0.2895
   21CHL1   H17 1505   5.212   6.011   9.454  0.3320  1.0702  0.0063
   21CHL1   C13 1506   5.355   6.008   9.625 -0.1650  0.8818  0.6461
   21CHL1   C18 1507   5.505   5.965   9.647  0.0747  0.0307  0.2718
   21CHL1  H18A 1508   5.569   6.033   9.587 -0.1812  1.2548  1.3425
   21CHL1  H18B 1509   5.527   5.964   9.756  0.0215  0.9396  0.2953
   21CHL1  H18C 1510   5.515   5.857   9.623 -1.8600 -0.3215  0.8620
   21CHL1   C12 1511   5.332   6.156   9.664  0.0456  0.3546 -0.2098
   21CHL1  H12A 1512   5.404   6.231   9.627 -0.2338  0.5592 -0.3388
   21CHL1  H12B 1513   5.228   6.177   9.630 -0.3356  0.4941  0.9980
   21CHL1   C11 1514   5.343   6.172   9.820  0.5932 -0.6627  1.0393
   21CHL1  H11A 1515   5.445   6.140   9.851  0.1095 -1.4498  1.8350
   21CHL1  H11B 1516   5.328   6.277   9.854 -1.6342 -0.7486  0.4384
   21CHL1    C9 1517   5.242   6.077   9.897  0.1362 -0.3793  0.1873
   21CHL1    H9 1518   5.135   6.094   9.872 -0.9917 -0.0112  4.4709
   21CHL1   C10 1519   5.234   6.100  10.046 -0.0853 -0.0944 -0.0311
   21CHL1   C19 1520   5.384   6.124  10.092  0.1999  0.3479 -0.0266
   21CHL1  H19A 1521   5.411   6.229  10.069  1.3060  0.4182  1.4603
   21CHL1  H19B 1522   5.382   6.125  10.203 -0.6391 -0.3722 -0.0194
   21CHL1  H19C 1523   5.465   6.055  10.060  0.8742  0.9989  0.2532
   21CHL1    C1 1524   5.146   6.221  10.089 -0.3367 -0.4241  0.7813
   21CHL1   H1A 1525   5.188   6.315  10.046 -0.1157 -1.5598 -1.6679
   21CHL1   H1B 1526   5.049   6.200  10.038  0.4175 -2.5988  0.1250
   21CHL1    C2 1527   5.124   6.239  10.242 -0.3420 -0.3910  0.4343
   21CHL1   H2A 1528   5.058   6.324  10.271 -0.6032 -0.9688  1.6383
   21CHL1   H2B 1529   5.221   6.267  10.288 -0.8839 -0.1776  1.5080
   21CHL1   C20 1530   5.408   6.006   9.365 -0.3162 -0.0616  0.6593
   21CHL1   H20 1531   5.505   5.955   9.383  1.4922  1.8714 -2.7651
   21CHL1   C21 1532   5.433   6.161   9.360  0.0800  0.2314  0.4310
   21CHL1  H21A 1533   5.511   6.188   9.433  0.9684  1.2472 -0.8453
   21CHL1  H21B 1534   5.336   6.209   9.385 -0.5028  0.1953 -1.5595
   21CHL1  H21C 1535   5.467   6.200   9.261  2.2279 -2.1790  0.1268
   21CHL1   C22 1536   5.358   5.960   9.227  0.1273 -0.2637  1.3556
   21CHL1  H22A 1537   5.337   5.853   9.248 -1.3958  0.1134  1.9211
   21CHL1  H22B 1538   5.265   6.006   9.187  0.1177 -1.8727 -0.6391
   21CHL1   C23 1539   5.445   5.964   9.102 -0.4329  0.1475  0.3820
   21CHL1  H23A 1540   5.477   6.070   9.091 -1.9305  0.6389  0.5584
   21CHL1  H23B 1541   5.533   5.898   9.116 -1.6916 -1.1165  3.3448
   21CHL1   C24 1542   5.380   5.913   8.971 -0.1679  0.2940  0.1089
   21CHL1  H24A 1543   5.292   5.972   8.938 -1.6546 -2.5893 -1.5421
   21CHL1  H24B 1544   5.456   5.921   8.890  1.7616 -0.6336  1.7311
   21CHL1   C25 1545   5.318   5.773   8.986 -0.2250 -0.0070  0.4747
   21CHL1   H25 1546   5.290   5.755   9.092 -1.0827 -0.5304  0.1723
   21CHL1   C26 1547   5.189   5.749   8.903  0.1905 -0.7073  0.3844
   21CHL1  H26A 1548   5.175   5.639   8.891  1.8691 -0.7104 -2.6850
   21CHL1  H26B 1549   5.104   5.806   8.946  0.8260 -1.1428  2.2991
   21CHL1  H26C 1550   5.211   5.777   8.798 -0.1342 -2.8247 -0.3115
   21CHL1   C27 1551   5.415   5.660   8.949 -0.7594 -0.0120  0.6581
   21CHL1  H27A 1552   5.376   5.566   8.994 -0.6249 -0.6715 -0.5661
   21CHL1  H27B 1553   5.434   5.648   8.840  0.7827  1.3951  0.7414
   21CHL1  H27C 1554   5.516   5.679   8.989  0.7038  1.8193 -3.3917
   22CHL1    C3 1555   3.402   0.087  10.157 -0.0755  0.7325  0.6951
   22CHL1    H3 1556   3.462  -0.005  10.144 -1.8275 -0.4287  0.6243
   22CHL1    O3 1557   3.376   0.108  10.296  0.2851  0.9231  0.1780
   22CHL1   H3' 1558   3.448   0.157  10.335 -0.5305  1.6503  0.8207
   22CHL1    C4 1559   3.489   0.202  10.097 -0.1638 -0.0874  0.4921
   22CHL1   H4A 1560   3.434   0.298  10.103 -1.0167 -0.4211 -1.2338
   22CHL1   H4B 1561   3.586   0.211  10.150  0.6007  1.6524 -1.0817
   22CHL1    C5 1562   3.514   0.164   9.949 -0.3501  0.3164  0.0667
   22CHL1    C6 1563   3.636   0.142   9.897 -0.0062 -0.7356 -0.1207
   22CHL1    H6 1564   3.718   0.152   9.969 -1.7115  0.2988  1.7787
   22CHL1    C7 1565   3.673   0.128   9.755 -0.3235 -0.4731 -0.3664
   22CHL1   H7A 1566   3.751   0.201   9.725 -0.5082 -0.9233 -2.0394
   22CHL1   H7B 1567   3.711   0.024   9.745 -2.7155 -1.3781 -0.6007
   22CHL1    C8 1568   3.554   0.145   9.662  0.3928 -0.0878  0.2335
   22CHL1    H8 1569   3.531   0.254   9.659  0.4115 -0.0455  1.3478
   22CHL1   C14 1570   3.604   0.097   9.529  0.5047  1.1032 -1.2102
   22CHL1   H14 1571   3.626  -0.010   9.548  0.9765  1.3790 -0.1608
   22CHL1   C15 1572   3.728   0.152   9.461  0.5112  0.0885 -0.4747
   22CHL1  H15A 1573   3.727   0.263   9.456 -2.1513  0.2537  1.5816
   22CHL1  H15B 1574   3.819   0.111   9.511 -0.2734 -1.0170  0.0655
   22CHL1   C16 1575   3.723   0.102   9.319 -0.8161 -0.3059  0.2076
   22CHL1  H16A 1576   3.732   0.187   9.248  1.9584 -2.3607 -2.1742
   22CHL1  H16B 1577   3.793   0.022   9.288  0.5687  1.4409 -1.4212
   22CHL1   C17 1578   3.578   0.039   9.300 -0.1278  0.3846 -0.7380
   22CHL1   H17 1579   3.596  -0.069   9.320 -0.2936  0.2658 -1.2149
   22CHL1   C13 1580   3.499   0.089   9.423  0.1097 -0.6983  0.5948
   22CHL1   C18 1581   3.441   0.225   9.387  1.1074 -0.0976 -0.4188
   22CHL1  H18A 1582   3.380   0.244   9.296 -0.2795  1.2894  0.7368
   22CHL1  H18B 1583   3.382   0.276   9.466 -0.4308  1.2370 -2.3336
   22CHL1  H18C 1584   3.525   0.295   9.367  1.6781 -1.2343 -2.2545
   22CHL1   C12 1585   3.394  -0.012   9.482  0.1268 -0.5068 -0.0831
   22CHL1  H12A 1586   3.317  -0.019   9.403 -2.3634 -0.2820  2.1774
   22CHL1  H12B 1587   3.438  -0.110   9.512  0.3847  0.0113  1.3171
   22CHL1   C11 1588   3.331   0.046   9.608 -0.0992  0.8204 -0.5819
   22CHL1  H11A 1589   3.273   0.138   9.583 -0.7596 -0.0976 -2.6266
   22CHL1  H11B 1590   3.265  -0.035   9.646 -1.0835  1.4171 -0.9691
   22CHL1    C9 1591   3.433   0.077   9.716  0.0499  0.4644  0.3229
   22CHL1    H9 1592   3.476  -0.021   9.747 -1.0049 -0.1867 -0.1938
   22CHL1   C10 1593   3.390   0.132   9.858 -0.2787 -0.2934 -0.5181
   22CHL1   C19 1594   3.320   0.262   9.831  0.0923  0.3483 -0.0807
   22CHL1  H19A 1595   3.232   0.246   9.765  0.6258 -2.3126 -0.2538
   22CHL1  H19B 1596   3.291   0.309   9.928  1.4379  1.0966 -0.0223
   22CHL1  H19C 1597   3.379   0.345   9.787  0.2199  1.5012  2.0818
   22CHL1    C1 1598   3.301   0.032   9.934 -0.1521 -0.2676  0.9196
   22CHL1   H1A 1599   3.204   0.018   9.882  0.1887  1.4148 -0.2696
   22CHL1   H1B 1600   3.366  -0.059   9.934 -0.3959 -0.4935 -0.9997
   22CHL1    C2 1601   3.275   0.076  10.077 -0.1857  0.0916 -0.2815
   22CHL1   H2A 1602   3.210  -0.000  10.124 -1.8118 -0.3006 -2.9640
   22CHL1   H2B 1603   3.215   0.169  10.081 -1.9752 -1.0440  0.3486
   22CHL1   C20 1604   3.527   0.058   9.152 -0.4645 -0.3045  0.4699
   22CHL1   H20 1605   3.518   0.166   9.126 -0.9869 -0.8757 -2.0221
   22CHL1   C21 1606   3.395  -0.014   9.132 -0.3085 -0.2112  0.2452
   22CHL1  H21A 1607   3.321   0.025   9.205 -0.4630  0.6465 -0.3408
   22CHL1  H21B 1608   3.421  -0.119   9.154  0.8404  0.2238  1.0893
   22CHL1  H21C 1609   3.351  -0.009   9.030  1.9301  2.1661 -0.7312
   22CHL1   C22 1610   3.637   0.011   9.054  0.5811  0.3653  0.6267
   22CHL1  H22A 1611   3.716   0.088   9.066 -0.1006  1.0216  0.9533
   22CHL1  H22B 1612   3.670  -0.093   9.077  0.9534  0.1832 -0.6642
   22CHL1   C23 1613   3.610   0.015   8.904  0.3321 -0.5327  0.8419
   22CHL1  H23A 1614   3.541  -0.068   8.877  0.6878 -0.5688  0.0275
   22CHL1  H23B 1615   3.573   0.114   8.869 -2.0899 -0.7240  2.6479
   22CHL1   C24 1616   3.744  -0.018   8.830  1.3399 -0.6712 -0.5094
   22CHL1  H24A 1617   3.811   0.070   8.831  0.2873  0.1856  1.2699
   22CHL1  H24B 1618   3.804  -0.088   8.892  0.3437 -0.3823  0.8446
   22CHL1   C25 1619   3.715  -0.076   8.694  0.2866 -0.2150  0.4297
   22CHL1   H25 1620   3.642  -0.156   8.718 -0.4731  0.6038  0.8751
   22CHL1   C26 1621   3.655   0.025   8.599 -0.7028 -0.4391 -0.5243
   22CHL1  H26A 1622   3.583   0.090   8.652  2.4513  2.7449  0.2259
   22CHL1  H26B 1623   3.736   0.084   8.549  1.8898 -0.2530  3.4351
   22CHL1  H26C 1624   3.595  -0.032   8.525 -1.9974 -0.7531  0.7434
   22CHL1   C27 1625   3.834  -0.145   8.633  0.4063 -0.4434 -0.3953
   22CHL1  H27A 1626   3.894  -0.211   8.699 -0.8168 -0.2200  0.9929
   22CHL1  H27B 1627   3.809  -0.209   8.546  4.1085 -2.7907  0.0706
   22CHL1  H27C 1628   3.907  -0.070   8.595 -0.6149  0.4883 -0.5730
   23CHL1    C3 1629   2.146   4.359   9.971 -0.1031  0.1491 -0.1508
   23CHL1    H3 1630   2.213   4.274   9.997 -1.6605 -1.8873 -2.3999
   23CHL1    O3 1631   2.068   4.376  10.088 -0.4265 -0.4236  0.3887
   23CHL1   H3' 1632   2.124   4.347  10.160 -0.5576 -0.4728  0.4703
   23CHL1    C4 1633   2.219   4.489   9.934  0.2397 -0.5495  0.3492
   23CHL1   H4A 1634   2.145   4.571   9.940 -1.6382 -2.0328 -1.1887
   23CHL1   H4B 1635   2.295   4.511  10.012 -0.0020 -1.5312  0.8772
   23CHL1    C5 1636   2.274   4.499   9.789 -0.6684 -0.2752 -0.0498
   23CHL1    C6 1637   2.405   4.516   9.756  0.2623  0.1745  0.8126
   23CHL1    H6 1638   2.468   4.533   9.844 -0.1909  0.7153  1.0412
   23CHL1    C7 1639   2.462   4.528   9.610  0.2531 -0.4796 -0.1717
   23CHL1   H7A 1640   2.518   4.623   9.596  1.7421 -1.0261  1.6426
   23CHL1   H7B 1641   2.538   4.448   9.597 -0.6523 -1.4048  0.0918
   23CHL1    C8 1642   2.342   4.522   9.500 -0.4817  0.5802  0.3081
   23CHL1    H8 1643   2.296   4.623   9.502  2.4259  2.1533 -2.7356
   23CHL1   C14 1644   2.402   4.487   9.363 -0.1699 -0.0956 -0.4966
   23CHL1   H14 1645   2.452   4.388   9.368 -1.4196 -0.6806  1.8468
   23CHL1   C15 1646   2.512   4.580   9.326  0.1454  0.8480 -0.5474
   23CHL1  H15A 1647   2.507   4.686   9.361 -1.7648 -0.2422  2.9406
   23CHL1  H15B 1648   2.601   4.533   9.373 -1.6179  1.3376  3.7050
   23CHL1   C16 1649   2.519   4.558   9.170  0.5059  0.2572 -0.8899
   23CHL1  H16A 1650   2.487   4.653   9.123 -1.3959  0.4420  0.6751
   23CHL1  H16B 1651   2.617   4.521   9.132  0.9135 -0.8084  1.0382
   23CHL1   C17 1652   2.408   4.447   9.131 -0.2988 -0.1077  0.1833
   23CHL1   H17 1653   2.455   4.346   9.129 -3.2820 -1.5919 -1.5603
   23CHL1   C13 1654   2.305   4.464   9.249 -0.6544 -0.5110 -0.5431
   23CHL1   C18 1655   2.211   4.592   9.224 -0.1600  0.2232  0.6357
   23CHL1  H18A 1656   2.174   4.642   9.316  0.0125  1.2298  0.1676
   23CHL1  H18B 1657   2.258   4.667   9.157 -1.2023  1.5467  1.3356
   23CHL1  H18C 1658   2.123   4.553   9.167  1.1584 -1.1297 -0.5712
   23CHL1   C12 1659   2.210   4.353   9.297  1.0096 -0.4178  0.5306
   23CHL1  H12A 1660   2.140   4.329   9.214 -0.4396 -0.0303  1.6016
   23CHL1  H12B 1661   2.267   4.261   9.324  1.0036  0.0969  2.3803
   23CHL1   C11 1662   2.134   4.389   9.428 -0.0731  0.2105  0.0586
   23CHL1  H11A 1663   2.077   4.484   9.414 -2.4757 -1.3315 -1.2408
   23CHL1  H11B 1664   2.067   4.304   9.450 -1.1410  0.6084 -1.5200
   23CHL1    C9 1665   2.235   4.424   9.542  0.3925  0.4051 -0.2051
   23CHL1    H9 1666   2.296   4.335   9.564 -1.3388 -0.9308 -0.5909
   23CHL1   C10 1667   2.174   4.460   9.680 -0.1381 -0.3162  0.1137
   23CHL1   C19 1668   2.064   4.569   9.669 -0.4066  0.0945  0.2670
   23CHL1  H19A 1669   2.101   4.639   9.591  0.5398 -0.4141  0.2415
   23CHL1  H19B 1670   1.962   4.528   9.651 -1.4134  1.3679  2.5530
   23CHL1  H19C 1671   2.061   4.637   9.757  0.2273  2.4793 -1.4428
   23CHL1    C1 1672   2.118   4.319   9.722 -0.5571  0.6812 -0.7715
   23CHL1   H1A 1673   2.043   4.289   9.646 -0.2908 -2.0212 -0.0722
   23CHL1   H1B 1674   2.191   4.235   9.722 -0.3172  0.7824  2.1696
   23CHL1    C2 1675   2.053   4.321   9.864  0.5580  0.0986  0.1834
   23CHL1   H2A 1676   2.009   4.226   9.899  0.8417  0.3083  1.1110
   23CHL1   H2B 1677   1.973   4.398   9.864  2.0169  1.6910 -0.6460
   23CHL1   C20 1678   2.363   4.452   8.986  0.1722  0.2237  0.3838
   23CHL1   H20 1679   2.320   4.552   8.966  0.4118  0.6293  1.7903
   23CHL1   C21 1680   2.253   4.354   8.956 -0.1885  0.2099 -0.2985
   23CHL1  H21A 1681   2.269   4.251   8.995  1.3953 -0.1220 -1.7236
   23CHL1  H21B 1682   2.219   4.346   8.851  0.7226  1.8081 -0.7543
   23CHL1  H21C 1683   2.159   4.392   9.002 -0.1859 -1.1419  0.9041
   23CHL1   C22 1684   2.488   4.420   8.895  0.2970 -0.0329 -0.7446
   23CHL1  H22A 1685   2.548   4.512   8.910 -0.9703  0.6126  0.6749
   23CHL1  H22B 1686   2.539   4.329   8.933  1.1671  1.1980  1.1857
   23CHL1   C23 1687   2.459   4.405   8.744  0.4365  0.2263  0.1332
   23CHL1  H23A 1688   2.383   4.330   8.715  0.8783 -0.6201  1.0899
   23CHL1  H23B 1689   2.417   4.504   8.717  0.8159  0.6217  0.9352
   23CHL1   C24 1690   2.590   4.374   8.671  0.1284  0.6615 -1.2013
   23CHL1  H24A 1691   2.670   4.446   8.695  2.8780 -2.9896  1.9180
   23CHL1  H24B 1692   2.626   4.278   8.714 -1.2519 -0.3176 -2.1060
   23CHL1   C25 1693   2.574   4.346   8.515 -0.7115  1.1344 -0.1479
   23CHL1   H25 1694   2.532   4.435   8.462  0.7897  0.4647 -2.6186
   23CHL1   C26 1695   2.706   4.313   8.436 -0.1967  0.0206 -0.2033
   23CHL1  H26A 1696   2.723   4.204   8.449 -0.6440 -0.4943 -3.3066
   23CHL1  H26B 1697   2.687   4.339   8.330 -2.1754  2.5012  0.6621
   23CHL1  H26C 1698   2.786   4.380   8.472  1.0835 -0.6330 -1.7468
   23CHL1   C27 1699   2.474   4.239   8.486  0.0886  0.4556 -0.1758
   23CHL1  H27A 1700   2.372   4.253   8.527  0.1963  1.0012 -0.0840
   23CHL1  H27B 1701   2.465   4.244   8.376 -0.8628  2.4211 -0.0592
   23CHL1  H27C 1702   2.496   4.135   8.518 -0.4234  0.5599  0.5568
   24CHL1    C3 1703   4.388   1.321   9.944 -0.0514 -0.2791 -0.7140
   24CHL1    H3 1704   4.490   1.319   9.899  1.0873 -0.7468  1.7516
   24CHL1    O3 1705   4.420   1.377  10.071  0.0667 -0.6498  0.0830
   24CHL1   H3' 1706   4.369   1.338  10.142  0.1113 -1.2923 -0.2231
   24CHL1    C4 1707   4.286   1.407   9.870  0.4012 -0.3170 -0.1049
   24CHL1   H4A 1708   4.189   1.417   9.922  0.7367 -0.1317  0.4893
   24CHL1   H4B 1709   4.324   1.509   9.845  1.5061 -0.8297 -0.5854
   24CHL1    C5 1710   4.268   1.346   9.729 -0.2647  0.0680 -0.1973
   24CHL1    C6 1711   4.306   1.409   9.620 -0.1409  0.1510  0.6798
   24CHL1    H6 1712   4.350   1.509   9.628 -1.6694  0.8973  0.1973
   24CHL1    C7 1713   4.276   1.352   9.488 -0.5658  0.3502 -0.1861
   24CHL1   H7A 1714   4.244   1.438   9.426 -1.1325  0.3005  0.0341
   24CHL1   H7B 1715   4.371   1.320   9.439 -0.5242  0.2177 -0.0214
   24CHL1    C8 1716   4.177   1.232   9.480 -0.2974 -0.5365  0.4569
   24CHL1    H8 1717   4.074   1.272   9.492  0.3509  1.4703 -0.3059
   24CHL1   C14 1718   4.187   1.170   9.340  0.5339  0.3822 -0.9752
   24CHL1   H14 1719   4.290   1.130   9.341  0.6308  0.6199  0.1126
   24CHL1   C15 1720   4.186   1.259   9.212  0.3066 -0.6077 -0.2440
   24CHL1  H15A 1721   4.104   1.334   9.221  1.7173  0.9943 -0.2208
   24CHL1  H15B 1722   4.283   1.313   9.201  0.5298 -0.5388  1.7016
   24CHL1   C16 1723   4.145   1.161   9.109 -0.2195  0.3158  0.3049
   24CHL1  H16A 1724   4.046   1.196   9.073 -1.5882  1.4125  4.4971
   24CHL1  H16B 1725   4.215   1.151   9.024 -1.6175  0.0760 -0.8614
   24CHL1   C17 1726   4.116   1.023   9.182  0.2565 -0.3015  0.2290
   24CHL1   H17 1727   4.219   0.981   9.180  0.5075  0.3274 -1.8935
   24CHL1   C13 1728   4.084   1.056   9.328  0.0219  0.7049 -0.4260
   24CHL1   C18 1729   3.937   1.096   9.349  0.3319 -0.1221 -0.0943
   24CHL1  H18A 1730   3.868   1.010   9.331  1.2251 -1.4959  2.4852
   24CHL1  H18B 1731   3.924   1.121   9.456  0.1485 -0.1448 -0.1115
   24CHL1  H18C 1732   3.912   1.175   9.276  0.3159  0.6754  0.7639
   24CHL1   C12 1733   4.120   0.954   9.434  0.4655  0.4009  0.1326
   24CHL1  H12A 1734   4.046   0.871   9.430  1.0463 -0.2482  1.8199
   24CHL1  H12B 1735   4.220   0.911   9.407 -0.3912 -1.5655 -0.1129
   24CHL1   C11 1736   4.122   1.007   9.581  0.3492  0.6781 -0.4389
   24CHL1  H11A 1737   4.014   1.016   9.603  0.6012  0.8400  0.8322
   24CHL1  H11B 1738   4.150   0.917   9.640 -1.4411 -0.8252 -1.7600
   24CHL1    C9 1739   4.209   1.138   9.592  0.4413 -0.0445 -0.3354
   24CHL1    H9 1740   4.312   1.105   9.566  0.7316  0.8150 -0.2855
   24CHL1   C10 1741   4.212   1.204   9.734 -0.1992  0.1310  0.5660
   24CHL1   C19 1742   4.064   1.207   9.783 -0.6098  0.6656  0.2619
   24CHL1  H19A 1743   4.057   1.275   9.871 -2.8516  0.7499  0.0796
   24CHL1  H19B 1744   4.004   1.259   9.705  1.0405  3.5875  0.7757
   24CHL1  H19C 1745   4.035   1.104   9.811 -0.0127  0.1698 -0.8637
   24CHL1    C1 1746   4.309   1.126   9.829  0.1449  0.2566  0.3901
   24CHL1   H1A 1747   4.265   1.024   9.830 -0.5756  0.4323 -2.6490
   24CHL1   H1B 1748   4.410   1.130   9.783  0.2423 -0.8145  0.4866
   24CHL1    C2 1749   4.330   1.184   9.962  0.4104 -0.0328 -0.4630
   24CHL1   H2A 1750   4.406   1.126  10.018 -0.0500  0.5763  0.8322
   24CHL1   H2B 1751   4.235   1.179  10.021  0.0949 -2.8943 -1.0764
   24CHL1   C20 1752   4.027   0.928   9.104  0.3025  0.1033 -0.4764
   24CHL1   H20 1753   3.920   0.955   9.113  0.1317 -0.6270 -0.2511
   24CHL1   C21 1754   4.036   0.788   9.167 -0.0256 -0.1802 -0.4451
   24CHL1  H21A 1755   3.984   0.782   9.266 -1.2428  0.9701 -0.9775
   24CHL1  H21B 1756   4.142   0.757   9.175  0.1906  0.9312  2.2127
   24CHL1  H21C 1757   3.982   0.720   9.099 -1.2571 -0.6209  0.9087
   24CHL1   C22 1758   4.057   0.927   8.955  0.1096  0.7208 -0.7547
   24CHL1  H22A 1759   4.085   1.021   8.903  2.2535 -0.2424 -1.4809
   24CHL1  H22B 1760   4.144   0.858   8.946 -1.2659 -1.4331  1.2666
   24CHL1   C23 1761   3.943   0.869   8.876 -0.7217  0.0997  0.1254
   24CHL1  H23A 1762   3.926   0.761   8.895  0.7585 -0.0624  0.6761
   24CHL1  H23B 1763   3.851   0.924   8.905 -1.0886 -1.0341  1.1487
   24CHL1   C24 1764   3.968   0.870   8.720 -0.2811  0.1833 -0.0556
   24CHL1  H24A 1765   3.937   0.968   8.677 -3.0812 -1.1162 -1.2552
   24CHL1  H24B 1766   4.068   0.834   8.689  0.0812  0.1926  1.0691
   24CHL1   C25 1767   3.867   0.775   8.650  0.5301 -0.2116 -0.1738
   24CHL1   H25 1768   3.888   0.672   8.685  1.2320 -0.2544 -0.6852
   24CHL1   C26 1769   3.718   0.812   8.677  0.0308  0.4670  0.0584
   24CHL1  H26A 1770   3.689   0.798   8.784  1.6128  0.6743  0.5328
   24CHL1  H26B 1771   3.720   0.921   8.660  1.8345  0.5004  0.3681
   24CHL1  H26C 1772   3.654   0.765   8.599 -0.1545 -0.5113  0.7732
   24CHL1   C27 1773   3.901   0.772   8.496 -0.3815  0.5829 -0.1282
   24CHL1  H27A 1774   3.925   0.876   8.464  0.8363  0.5582  0.6355
   24CHL1  H27B 1775   3.989   0.707   8.476  0.3651  1.7152 -0.6155
   24CHL1  H27C 1776   3.822   0.725   8.434 -1.4273  0.2714  1.3874
   25CHL1    C3 1777   5.866   5.040  10.215 -0.7734  0.2139 -0.0079
   25CHL1    H3 1778   5.948   4.969  10.239  1.2736  2.5933  0.5307
   25CHL1    O3 1779   5.827   5.097  10.347 -0.1651  0.4162  0.4170
   25CHL1   H3' 1780   5.749   5.150  10.332 -0.1133  0.6800  1.0511
   25CHL1    C4 1781   5.918   5.148  10.124 -0.1003 -0.6998 -0.6895
   25CHL1   H4A 1782   5.857   5.239  10.139  1.5549  0.1726  1.2312
   25CHL1   H4B 1783   6.016   5.174  10.170  0.1789 -3.5482  0.5678
   25CHL1    C5 1784   5.924   5.111   9.978  0.1375 -0.2171  0.2805
   25CHL1    C6 1785   6.044   5.145   9.913  0.7969 -0.2816  0.3110
   25CHL1    H6 1786   6.119   5.211   9.960  0.7644 -0.3828  0.5043
   25CHL1    C7 1787   6.064   5.116   9.765 -0.1679  0.5261  0.2506
   25CHL1   H7A 1788   6.120   5.194   9.709 -2.5225  1.3267 -1.1558
   25CHL1   H7B 1789   6.115   5.018   9.763  1.4618  1.3471 -0.7043
   25CHL1    C8 1790   5.923   5.096   9.690 -0.4900  0.5959 -0.5419
   25CHL1    H8 1791   5.869   5.193   9.693  2.6704  2.4643  0.1582
   25CHL1   C14 1792   5.927   5.040   9.545 -0.8664 -0.2618 -0.1671
   25CHL1   H14 1793   5.962   4.935   9.556 -0.9376 -0.3824 -0.9909
   25CHL1   C15 1794   6.028   5.104   9.455  0.1579 -0.6440  0.0357
   25CHL1  H15A 1795   6.028   5.214   9.471  1.8134 -0.6980  0.6183
   25CHL1  H15B 1796   6.131   5.067   9.476 -0.1305 -1.2126  0.4482
   25CHL1   C16 1797   5.980   5.067   9.313  0.3148  0.0308 -0.5833
   25CHL1  H16A 1798   5.961   5.154   9.246  0.0830 -1.1753 -2.1479
   25CHL1  H16B 1799   6.051   4.994   9.269  2.6257  1.1516  1.0990
   25CHL1   C17 1800   5.843   4.991   9.329  0.7066 -0.1177 -0.3404
   25CHL1   H17 1801   5.881   4.888   9.348  0.5455 -0.0063  0.6214
   25CHL1   C13 1802   5.792   5.029   9.471 -0.6835 -0.1772 -1.2180
   25CHL1   C18 1803   5.716   5.161   9.461  0.7709 -0.6111  0.2147
   25CHL1  H18A 1804   5.718   5.207   9.562 -3.6949  2.0799 -0.6588
   25CHL1  H18B 1805   5.759   5.230   9.385  0.8294 -1.9596 -1.0327
   25CHL1  H18C 1806   5.611   5.139   9.431  1.0889 -2.8686  0.5754
   25CHL1   C12 1807   5.719   4.918   9.549 -0.2801  0.0051  0.1373
   25CHL1  H12A 1808   5.619   4.908   9.501  0.1459  0.7376 -0.9480
   25CHL1  H12B 1809   5.780   4.825   9.546  0.6242  0.5658  0.8276
   25CHL1   C11 1810   5.700   4.957   9.696  0.2640 -0.3014  0.1595
   25CHL1  H11A 1811   5.639   5.050   9.687 -0.0158 -0.5773 -1.0336
   25CHL1  H11B 1812   5.633   4.884   9.745 -0.8753  1.1824  0.9248
   25CHL1    C9 1813   5.829   4.995   9.776 -0.4931  0.1878  0.5287
   25CHL1    H9 1814   5.885   4.899   9.776 -1.8643 -0.6700 -0.8666
   25CHL1   C10 1815   5.807   5.043   9.918  0.0245 -0.0196  0.1264
   25CHL1   C19 1816   5.694   5.149   9.920 -0.1655 -0.2668  0.8141
   25CHL1  H19A 1817   5.679   5.196  10.020  1.3070  1.2615  0.3461
   25CHL1  H19B 1818   5.720   5.233   9.853  1.4577 -0.7301  0.8004
   25CHL1  H19C 1819   5.596   5.107   9.889  0.2808  0.3486 -1.6213
   25CHL1    C1 1820   5.770   4.930  10.008  0.9450 -0.0693  0.2021
   25CHL1   H1A 1821   5.682   4.879   9.963 -0.1498  0.3573  1.7588
   25CHL1   H1B 1822   5.865   4.872  10.003  1.8453  1.4637 -2.0754
   25CHL1    C2 1823   5.746   4.964  10.153 -0.1946 -0.6398 -0.0089
   25CHL1   H2A 1824   5.710   4.872  10.202  0.5576 -1.9239 -1.7774
   25CHL1   H2B 1825   5.662   5.036  10.165  1.7438  1.5522  1.4499
   25CHL1   C20 1826   5.738   5.005   9.211 -0.5471 -0.4101 -0.1783
   25CHL1   H20 1827   5.708   5.112   9.205  1.8395  0.3012 -0.4690
   25CHL1   C21 1828   5.610   4.921   9.231 -0.0499 -0.4882  0.2590
   25CHL1  H21A 1829   5.534   4.978   9.290 -0.2105  1.0461 -1.3334
   25CHL1  H21B 1830   5.645   4.824   9.271  1.0255  0.3194  1.3512
   25CHL1  H21C 1831   5.561   4.911   9.132 -0.3793 -0.0275  0.3688
   25CHL1   C22 1832   5.798   4.982   9.074 -0.7138 -0.1034 -0.0924
   25CHL1  H22A 1833   5.725   4.992   8.990 -0.1614 -0.2598 -0.5923
   25CHL1  H22B 1834   5.868   5.067   9.057 -1.9377  0.7659 -1.0073
   25CHL1   C23 1835   5.880   4.854   9.054 -0.5866  0.2503  0.0233
   25CHL1  H23A 1836   5.966   4.840   9.123 -1.3760  0.5042  1.0869
   25CHL1  H23B 1837   5.820   4.764   9.079  2.1452 -1.2440  1.6982
   25CHL1   C24 1838   5.936   4.839   8.913 -1.1347  0.3788 -0.3018
   25CHL1  H24A 1839   5.847   4.828   8.846 -0.4274  0.8828 -1.3424
   25CHL1  H24B 1840   5.972   4.938   8.879 -0.7329  0.1824 -0.4618
   25CHL1   C25 1841   6.032   4.720   8.888  0.0428  0.1752 -0.0206
   25CHL1   H25 1842   5.980   4.635   8.937  0.9196 -0.4476 -0.1534
   25CHL1   C26 1843   6.061   4.692   8.739  0.2905 -0.4986  0.7811
   25CHL1  H26A 1844   6.152   4.629   8.730  1.2947  0.3840  3.7015
   25CHL1  H26B 1845   5.974   4.649   8.686 -0.4021  0.4637  1.0984
   25CHL1  H26C 1846   6.081   4.791   8.691  0.0985 -0.7603  0.1444
   25CHL1   C27 1847   6.166   4.738   8.965 -0.1917 -0.3776 -0.5448
   25CHL1  H27A 1848   6.216   4.829   8.925 -2.3826  0.5006 -1.4386
   25CHL1  H27B 1849   6.159   4.743   9.076  1.2955  0.2285 -0.4586
   25CHL1  H27C 1850   6.231   4.650   8.942  1.8953  1.0245 -0.3347
   26CHL1    C3 1851   0.302   0.529  10.184 -0.6706  0.2673  0.3498
   26CHL1    H3 1852   0.326   0.634  10.156 -1.6948  0.5232  0.3936
   26CHL1    O3 1853   0.317   0.517  10.327  0.0519  0.4155  0.0718
   26CHL1   H3' 1854   0.285   0.431  10.356 -0.1098  0.9304  1.4889
   26CHL1    C4 1855   0.165   0.499  10.134 -0.5612  0.2989 -0.6530
   26CHL1   H4A 1856   0.140   0.400  10.177 -0.2276  0.4573 -0.0772
   26CHL1   H4B 1857   0.091   0.562  10.188  0.2518  0.3362  0.4678
   26CHL1    C5 1858   0.152   0.493   9.986  0.6636  0.2252 -0.0908
   26CHL1    C6 1859   0.058   0.577   9.932 -0.5269  0.1387 -0.0011
   26CHL1    H6 1860  -0.008   0.631  10.001  1.0628 -0.0258  1.7052
   26CHL1    C7 1861   0.031   0.590   9.787  0.2415 -0.0034  0.3679
   26CHL1   H7A 1862  -0.077   0.570   9.773  0.3126 -0.2580  0.1902
   26CHL1   H7B 1863   0.043   0.696   9.754  1.1472 -0.0611  0.4756
   26CHL1    C8 1864   0.111   0.494   9.696  0.1712 -0.4961 -0.2956
   26CHL1    H8 1865   0.055   0.399   9.685  2.3296 -1.7613 -0.7491
   26CHL1   C14 1866   0.137   0.550   9.555  0.2652 -0.1212 -0.2134
   26CHL1   H14 1867   0.206   0.636   9.566  0.3849 -0.2024 -0.3224
   26CHL1   C15 1868   0.023   0.608   9.466 -0.6133  0.1270 -0.0798
   26CHL1  H15A 1869  -0.068   0.544   9.468 -0.9036  0.5429  0.0386
   26CHL1  H15B 1870   0.011   0.714   9.496 -0.4410  0.6757 -1.8498
   26CHL1   C16 1871   0.084   0.612   9.321 -0.5966 -0.3121 -0.1109
   26CHL1  H16A 1872   0.005   0.564   9.260 -2.0560  1.7048  0.0822
   26CHL1  H16B 1873   0.104   0.713   9.278  2.2769 -1.2169 -1.1252
   26CHL1   C17 1874   0.213   0.531   9.327  0.2713  0.1929  0.5695
   26CHL1   H17 1875   0.290   0.611   9.338 -0.3428  1.0393 -0.9712
   26CHL1   C13 1876   0.207   0.450   9.463 -0.0079  0.9294  0.0301
   26CHL1   C18 1877   0.117   0.327   9.450  0.1895 -0.2233 -0.1589
   26CHL1  H18A 1878   0.009   0.351   9.441 -0.0471 -1.1453  0.0753
   26CHL1  H18B 1879   0.140   0.269   9.358  0.6816  1.1822 -0.9473
   26CHL1  H18C 1880   0.126   0.253   9.533 -1.4872 -0.1093  0.1714
   26CHL1   C12 1881   0.352   0.423   9.520  0.1942  0.1001  0.2212
   26CHL1  H12A 1882   0.398   0.340   9.462  0.7688  0.2492  0.4547
   26CHL1  H12B 1883   0.414   0.514   9.506  0.6262 -0.4889 -2.3548
   26CHL1   C11 1884   0.338   0.377   9.666 -1.0357 -0.0477  0.1475
   26CHL1  H11A 1885   0.294   0.275   9.666  0.2748 -0.8321 -3.9948
   26CHL1  H11B 1886   0.440   0.379   9.710 -0.7157 -1.0715 -0.5111
   26CHL1    C9 1887   0.251   0.466   9.760 -0.2896  0.3764 -0.4881
   26CHL1    H9 1888   0.298   0.566   9.753  1.4347 -0.4058 -0.4809
   26CHL1   C10 1889   0.250   0.419   9.911 -0.3050  0.2487 -0.1460
   26CHL1   C19 1890   0.218   0.270   9.922 -0.0871  0.0237 -0.0520
   26CHL1  H19A 1891   0.221   0.229  10.025  1.0464  0.4340  0.1041
   26CHL1  H19B 1892   0.121   0.247   9.874  0.9470 -2.2842 -1.1914
   26CHL1  H19C 1893   0.304   0.218   9.873  1.0625  2.1392 -0.4171
   26CHL1    C1 1894   0.395   0.459   9.971  0.0873  0.8922  0.0580
   26CHL1   H1A 1895   0.478   0.403   9.922  0.5339 -0.5495  2.3434
   26CHL1   H1B 1896   0.408   0.568   9.948  0.5063  0.5937 -1.2324
   26CHL1    C2 1897   0.400   0.431  10.122 -0.2613  0.3451  0.4068
   26CHL1   H2A 1898   0.503   0.449  10.160 -0.0230 -0.7762  0.3411
   26CHL1   H2B 1899   0.382   0.326  10.155  1.2653  0.7938  2.9442
   26CHL1   C20 1900   0.246   0.462   9.195 -0.1348 -0.3860 -0.5242
   26CHL1   H20 1901   0.175   0.379   9.178 -1.8370  0.8666  0.1591
   26CHL1   C21 1902   0.387   0.390   9.206 -0.2812 -0.4078 -0.2661
   26CHL1  H21A 1903   0.429   0.357   9.108 -1.1301 -0.7611 -0.5270
   26CHL1  H21B 1904   0.374   0.297   9.265 -2.1344  0.4194  0.7212
   26CHL1  H21C 1905   0.452   0.465   9.255 -0.2548 -0.5966 -0.0129
   26CHL1   C22 1906   0.241   0.555   9.070  0.6469  0.1402 -1.1191
   26CHL1  H22A 1907   0.146   0.612   9.073  0.7110  0.2040  0.5489
   26CHL1  H22B 1908   0.311   0.641   9.082 -0.4881  0.7541  2.0554
   26CHL1   C23 1909   0.264   0.494   8.931 -0.9033 -0.7898 -0.4728
   26CHL1  H23A 1910   0.367   0.452   8.923 -0.3393  0.0774  1.6997
   26CHL1  H23B 1911   0.189   0.414   8.913  0.6517 -2.1210 -1.4331
   26CHL1   C24 1912   0.246   0.604   8.819 -0.4387  0.3686  0.2687
   26CHL1  H24A 1913   0.151   0.659   8.838 -0.2587  1.1914 -1.0713
   26CHL1  H24B 1914   0.315   0.691   8.825 -0.0464  0.4348 -3.0287
   26CHL1   C25 1915   0.262   0.562   8.674 -0.3663  0.0599 -0.1171
   26CHL1   H25 1916   0.342   0.486   8.668  0.1474  0.1060  3.5697
   26CHL1   C26 1917   0.133   0.497   8.626  0.1462 -0.1705 -0.6023
   26CHL1  H26A 1918   0.153   0.458   8.524  0.6426 -0.5880 -0.3451
   26CHL1  H26B 1919   0.103   0.403   8.676 -0.4524  0.5010  0.3500
   26CHL1  H26C 1920   0.045   0.564   8.633 -0.6280 -1.1477 -0.7787
   26CHL1   C27 1921   0.304   0.675   8.584 -0.1278 -0.2429  0.0120
   26CHL1  H27A 1922   0.310   0.636   8.480 -0.6232  0.7978 -0.4164
   26CHL1  H27B 1923   0.227   0.754   8.574  0.3694 -0.0494 -3.6019
   26CHL1  H27C 1924   0.402   0.714   8.617  0.2866 -1.8856  0.8798
   27CHL1    C3 1925   3.530   4.296  10.359 -0.1367  0.3003 -0.0900
   27CHL1    H3 1926   3.639   4.302  10.337  0.0791  0.1664  0.8900
   27CHL1    O3 1927   3.500   4.238  10.483 -0.3951 -0.6660 -0.3294
   27CHL1   H3' 1928   3.524   4.145  10.483 -0.1095 -0.6015  0.8777
   27CHL1    C4 1929   3.468   4.432  10.348  0.1575  0.0382 -0.2642
   27CHL1   H4A 1930   3.361   4.429  10.375 -0.3153 -0.6585 -2.0717
   27CHL1   H4B 1931   3.511   4.495  10.429 -0.9898  1.1226 -0.4759
   27CHL1    C5 1932   3.490   4.496  10.212 -0.6648  0.6112  0.3722
   27CHL1    C6 1933   3.567   4.604  10.185  0.3317 -0.1185 -0.7921
   27CHL1    H6 1934   3.619   4.656  10.267 -0.9196  0.2904 -0.2458
   27CHL1    C7 1935   3.578   4.656  10.048 -0.2602 -0.8115  0.7467
   27CHL1   H7A 1936   3.569   4.766  10.045 -1.5689 -0.9232 -1.0248
   27CHL1   H7B 1937   3.679   4.628  10.011 -0.3097 -0.4002  0.2935
   27CHL1    C8 1938   3.468   4.610   9.947  1.1589 -0.0718  0.8225
   27CHL1    H8 1939   3.370   4.663   9.959  1.3175  0.2542  0.7083
   27CHL1   C14 1940   3.502   4.661   9.799  0.7751  0.4136  0.0878
   27CHL1   H14 1941   3.595   4.603   9.778 -1.4243 -2.8929 -1.4502
   27CHL1   C15 1942   3.536   4.807   9.773 -0.0051 -0.3318  0.0992
   27CHL1  H15A 1943   3.454   4.870   9.813  0.3490 -0.7066  1.4593
   27CHL1  H15B 1944   3.637   4.837   9.807  1.3531  1.8034 -4.9085
   27CHL1   C16 1945   3.517   4.822   9.621  0.6662  0.9103  0.2247
   27CHL1  H16A 1946   3.435   4.892   9.596  0.4707  0.3946 -0.6045
   27CHL1  H16B 1947   3.613   4.860   9.579 -0.2805  2.6895 -0.4121
   27CHL1   C17 1948   3.475   4.677   9.574  0.4979  0.5135 -0.3908
   27CHL1   H17 1949   3.568   4.618   9.560  0.3123 -0.5932  2.3706
   27CHL1   C13 1950   3.405   4.606   9.692 -0.1638  0.6657  0.1861
   27CHL1   C18 1951   3.262   4.662   9.709  0.8665 -0.7736  0.6937
   27CHL1  H18A 1952   3.271   4.771   9.690 -2.1062 -0.9665 -2.7366
   27CHL1  H18B 1953   3.191   4.625   9.633  0.5523  0.9514  0.1171
   27CHL1  H18C 1954   3.206   4.642   9.803  0.2769  1.9882  0.9924
   27CHL1   C12 1955   3.404   4.450   9.706 -0.3078  0.1938  0.4111
   27CHL1  H12A 1956   3.323   4.419   9.637 -0.2254 -0.7750  0.7435
   27CHL1  H12B 1957   3.501   4.412   9.666 -0.5957 -2.6416  2.1676
   27CHL1   C11 1958   3.366   4.398   9.847  0.5119 -0.1084  0.2743
   27CHL1  H11A 1959   3.261   4.434   9.856 -0.1658 -2.1283  1.0449
   27CHL1  H11B 1960   3.358   4.287   9.849  1.7130 -0.2217 -0.3252
   27CHL1    C9 1961   3.458   4.460   9.953  0.6746  1.5473 -0.2104
   27CHL1    H9 1962   3.558   4.416   9.932  0.4123  1.3568 -1.1317
   27CHL1   C10 1963   3.425   4.410  10.102  0.5827  0.4792 -0.0634
   27CHL1   C19 1964   3.273   4.422  10.110 -0.0081 -0.2087  0.9524
   27CHL1  H19A 1965   3.240   4.342  10.040 -0.5820  0.3874  0.5325
   27CHL1  H19B 1966   3.235   4.390  10.209 -2.7518  0.3973  0.1906
   27CHL1  H19C 1967   3.241   4.523  10.078  0.0461 -0.8668 -1.3693
   27CHL1    C1 1968   3.475   4.259  10.115 -0.2287 -0.3995  0.4414
   27CHL1   H1A 1969   3.430   4.188  10.042  0.8477  0.5042 -1.1556
   27CHL1   H1B 1970   3.580   4.266  10.080 -0.7905 -0.0777 -1.2596
   27CHL1    C2 1971   3.460   4.207  10.255 -0.1977  0.3542  0.0600
   27CHL1   H2A 1972   3.507   4.106  10.246 -0.8218  0.1104 -0.5331
   27CHL1   H2B 1973   3.352   4.184  10.268 -0.5247  0.5328 -1.9903
   27CHL1   C20 1974   3.395   4.690   9.439 -0.2520 -0.2246 -0.5856
   27CHL1   H20 1975   3.290   4.718   9.459 -0.2195  0.8011 -1.7503
   27CHL1   C21 1976   3.385   4.554   9.370  0.2383 -0.0042 -0.5802
   27CHL1  H21A 1977   3.372   4.474   9.445  0.1342 -1.7349 -2.3539
   27CHL1  H21B 1978   3.478   4.528   9.315  0.0196  0.1048 -1.0144
   27CHL1  H21C 1979   3.301   4.549   9.296 -0.6450  1.3204  0.2894
   27CHL1   C22 1980   3.453   4.798   9.340  0.2364  0.2899  0.5528
   27CHL1  H22A 1981   3.436   4.901   9.378  1.2182  1.2985 -1.6031
   27CHL1  H22B 1982   3.560   4.774   9.318 -0.0047  0.3064 -0.7049
   27CHL1   C23 1983   3.391   4.795   9.203  0.1580  0.0820  0.2831
   27CHL1  H23A 1984   3.421   4.695   9.164 -0.0044 -0.2473  0.9830
   27CHL1  H23B 1985   3.281   4.802   9.214  0.0718  0.2299 -0.6085
   27CHL1   C24 1986   3.456   4.895   9.110  0.3553 -0.1321  0.2111
   27CHL1  H24A 1987   3.452   4.994   9.158 -0.3985  0.0310 -0.1580
   27CHL1  H24B 1988   3.562   4.865   9.095  0.4645  1.0097 -1.7016
   27CHL1   C25 1989   3.406   4.912   8.962 -0.6040 -0.2164 -0.1708
   27CHL1   H25 1990   3.426   4.813   8.918 -0.1207  0.2749 -1.0903
   27CHL1   C26 1991   3.255   4.947   8.956 -0.3563 -0.1192 -0.2181
   27CHL1  H26A 1992   3.245   5.049   9.000  2.6510  0.2775 -0.2634
   27CHL1  H26B 1993   3.226   4.944   8.849  1.0851 -3.3821 -0.6328
   27CHL1  H26C 1994   3.192   4.878   9.015  0.5720 -0.2528  0.6410
   27CHL1   C27 1995   3.475   5.017   8.878  0.6404  0.0445 -0.1208
   27CHL1  H27A 1996   3.457   5.113   8.930 -0.8620 -1.1658  1.7012
   27CHL1  H27B 1997   3.580   4.989   8.856  0.2253 -0.9686 -0.8973
   27CHL1  H27C 1998   3.427   5.018   8.778 -0.0848 -0.1011  0.2188
   28CHL1    C3 1999   5.456   2.109  10.042  0.4448 -1.1481  0.1442
   28CHL1    H3 2000   5.518   2.199  10.026 -0.7653 -0.1515  0.8813
   28CHL1    O3 2001   5.403   2.122  10.177  0.3412 -0.1586 -0.3585
   28CHL1   H3' 2002   5.359   2.039  10.194 -2.1322  1.0733 -0.3664
   28CHL1    C4 2003   5.340   2.089   9.945  0.7231 -0.2540 -0.2357
   28CHL1   H4A 2004   5.280   2.001   9.978  1.9779 -1.3387 -0.7776
   28CHL1   H4B 2005   5.269   2.174   9.958  0.4606 -0.7841  2.2805
   28CHL1    C5 2006   5.379   2.057   9.799  0.2356  0.3913 -0.3018
   28CHL1    C6 2007   5.334   2.134   9.700 -0.1257 -0.2045  0.1081
   28CHL1    H6 2008   5.274   2.224   9.722  0.5371 -0.1056  1.6311
   28CHL1    C7 2009   5.358   2.106   9.560 -0.2973  0.2196  0.5649
   28CHL1   H7A 2010   5.258   2.102   9.512 -0.1950 -0.5123  0.3876
   28CHL1   H7B 2011   5.416   2.191   9.519 -0.6898  0.9843  1.5558
   28CHL1    C8 2012   5.425   1.970   9.540  0.2137  0.2908 -0.5183
   28CHL1    H8 2013   5.341   1.899   9.550  0.5192 -0.1457 -1.0442
   28CHL1   C14 2014   5.480   1.960   9.392  0.3007 -1.4398 -0.0726
   28CHL1   H14 2015   5.560   2.037   9.393 -0.4444 -0.6023  2.5135
   28CHL1   C15 2016   5.388   2.008   9.279 -0.0641 -0.4854 -0.0671
   28CHL1  H15A 2017   5.290   1.959   9.295 -0.1559 -0.4330 -0.4598
   28CHL1  H15B 2018   5.373   2.118   9.279 -0.3555 -0.5213 -0.6749
   28CHL1   C16 2019   5.468   1.956   9.152  0.2007 -0.1180 -0.3134
   28CHL1  H16A 2020   5.395   1.906   9.084  0.9618 -2.1591  0.2868
   28CHL1  H16B 2021   5.527   2.028   9.092 -0.2780 -2.5064 -4.0213
   28CHL1   C17 2022   5.568   1.854   9.215 -0.3962  0.4762  0.7462
   28CHL1   H17 2023   5.667   1.903   9.217  0.4920 -1.2081  0.0889
   28CHL1   C13 2024   5.539   1.822   9.355 -0.0914 -0.1865 -0.0394
   28CHL1   C18 2025   5.427   1.716   9.363  0.4196  0.5210  0.5814
   28CHL1  H18A 2026   5.365   1.724   9.455  1.2892  3.3970  1.0419
   28CHL1  H18B 2027   5.352   1.735   9.283  1.4837  0.4902 -0.4581
   28CHL1  H18C 2028   5.482   1.620   9.357  2.0769  1.2686  2.6564
   28CHL1   C12 2029   5.655   1.800   9.456  0.5839  0.5680  0.0698
   28CHL1  H12A 2030   5.698   1.698   9.444 -0.7298  0.0695 -0.6013
   28CHL1  H12B 2031   5.733   1.877   9.437 -0.4240  1.2469 -1.5608
   28CHL1   C11 2032   5.610   1.808   9.600  0.1681  0.2035 -0.8454
   28CHL1  H11A 2033   5.544   1.723   9.628  0.9832  0.2626  1.4210
   28CHL1  H11B 2034   5.703   1.804   9.660  0.7149  1.3002 -1.5819
   28CHL1    C9 2035   5.531   1.935   9.644 -0.4698 -0.0161 -0.0003
   28CHL1    H9 2036   5.606   2.015   9.628  0.1181 -0.1596  1.7954
   28CHL1   C10 2037   5.480   1.938   9.792 -0.0779  0.4433 -0.2535
   28CHL1   C19 2038   5.404   1.811   9.832 -0.6220 -0.1406 -0.0290
   28CHL1  H19A 2039   5.474   1.725   9.842 -1.6213 -0.8471  1.3830
   28CHL1  H19B 2040   5.356   1.811   9.933  0.7415  0.4364  0.6480
   28CHL1  H19C 2041   5.327   1.774   9.762  0.7038  1.2108 -2.3053
   28CHL1    C1 2042   5.601   1.966   9.889  0.1817 -0.3029  0.3057
   28CHL1   H1A 2043   5.678   1.888   9.873  1.7780  1.7929 -3.2693
   28CHL1   H1B 2044   5.657   2.055   9.853  1.2843 -0.4090  1.6687
   28CHL1    C2 2045   5.557   1.990  10.034  0.0212  0.7539  0.3287
   28CHL1   H2A 2046   5.649   2.013  10.091 -0.1662  2.4014  0.0311
   28CHL1   H2B 2047   5.515   1.894  10.070 -0.8508  1.4891  1.3420
   28CHL1   C20 2048   5.598   1.745   9.108 -0.5772  0.4396 -0.4184
   28CHL1   H20 2049   5.502   1.695   9.087 -0.0381 -1.4203  1.2181
   28CHL1   C21 2050   5.687   1.635   9.178  0.0463  0.2094  0.5535
   28CHL1  H21A 2051   5.715   1.553   9.108 -2.0265 -1.3460  1.4571
   28CHL1  H21B 2052   5.643   1.578   9.263 -1.1477 -1.6098 -1.1997
   28CHL1  H21C 2053   5.780   1.681   9.218  0.0560  1.3860 -0.7396
   28CHL1   C22 2054   5.669   1.801   8.980  1.0969 -0.3947  0.4451
   28CHL1  H22A 2055   5.602   1.882   8.945  0.7649 -0.2330  1.4171
   28CHL1  H22B 2056   5.773   1.838   8.999  1.3022 -0.6072 -0.2548
   28CHL1   C23 2057   5.657   1.708   8.862 -0.4926  0.2192  0.5091
   28CHL1  H23A 2058   5.691   1.604   8.880  1.6628  0.4661 -1.6741
   28CHL1  H23B 2059   5.548   1.710   8.839 -0.8592  1.1960  2.1112
   28CHL1   C24 2060   5.731   1.750   8.730  0.0083  0.5275 -0.9574
   28CHL1  H24A 2061   5.690   1.848   8.700  0.9363  0.9044 -1.0461
   28CHL1  H24B 2062   5.839   1.760   8.755 -0.3003  1.4424  0.0590
   28CHL1   C25 2063   5.718   1.657   8.603 -0.4095  0.4045  0.0223
   28CHL1   H25 2064   5.760   1.557   8.625 -1.1070  0.5953  2.4875
   28CHL1   C26 2065   5.566   1.639   8.560 -0.2537 -0.6298 -0.1111
   28CHL1  H26A 2066   5.516   1.562   8.623  1.0289 -0.3487  1.2861
   28CHL1  H26B 2067   5.520   1.739   8.578  0.7057 -0.8094  4.4980
   28CHL1  H26C 2068   5.561   1.611   8.452 -1.6141  0.2954 -0.3177
   28CHL1   C27 2069   5.793   1.722   8.485  0.6932 -0.0181  0.0302
   28CHL1  H27A 2070   5.765   1.676   8.388  1.5838 -1.4101  0.4174
   28CHL1  H27B 2071   5.770   1.831   8.478 -1.3095 -0.5045 -2.4269
   28CHL1  H27C 2072   5.902   1.713   8.503  1.1866  0.9125 -2.1816
   29CHL1    C3 2073   1.359   0.363   6.764  0.3003 -0.1191 -0.2548
   29CHL1    H3 2074   1.418   0.456   6.767  0.5327 -0.2754  0.0874
   29CHL1    O3 2075   1.374   0.304   6.635 -0.5495 -0.0742 -0.0537
   29CHL1   H3' 2076   1.313   0.342   6.572  1.1014  0.7833 -1.2178
   29CHL1    C4 2077   1.421   0.271   6.872 -0.1356  0.8557  0.2516
   29CHL1   H4A 2078   1.389   0.166   6.854  0.0253  0.3364  2.6750
   29CHL1   H4B 2079   1.531   0.269   6.853 -0.1002 -1.1820  0.4883
   29CHL1    C5 2080   1.405   0.306   7.018 -0.4416 -0.0049 -0.3888
   29CHL1    C6 2081   1.506   0.313   7.106  0.3920 -0.5867 -0.3869
   29CHL1    H6 2082   1.607   0.294   7.066  1.3170  1.3295  0.8641
   29CHL1    C7 2083   1.493   0.327   7.257 -0.4488 -0.1340  0.6350
   29CHL1   H7A 2084   1.559   0.255   7.310 -1.6883 -1.7718  0.0732
   29CHL1   H7B 2085   1.529   0.422   7.301 -1.4982  0.1672  0.8639
   29CHL1    C8 2086   1.340   0.321   7.295 -0.1098 -0.1680 -0.3280
   29CHL1    H8 2087   1.317   0.212   7.297  0.1311 -0.2400  2.1456
   29CHL1   C14 2088   1.324   0.375   7.435  0.9736  0.2627 -1.0826
   29CHL1   H14 2089   1.355   0.482   7.437 -0.3853  0.6802  0.8171
   29CHL1   C15 2090   1.409   0.310   7.547 -0.6972  0.4420 -0.2783
   29CHL1  H15A 2091   1.413   0.199   7.540  1.3380  0.4727 -0.0242
   29CHL1  H15B 2092   1.513   0.346   7.531  0.0697 -0.9391  1.2998
   29CHL1   C16 2093   1.339   0.353   7.672  0.4038 -0.2629 -1.1429
   29CHL1  H16A 2094   1.301   0.261   7.721  1.1123 -0.1981 -0.4560
   29CHL1  H16B 2095   1.403   0.409   7.743  0.5035 -0.4916 -1.0533
   29CHL1   C17 2096   1.209   0.430   7.635  0.6973 -0.0409 -0.1702
   29CHL1   H17 2097   1.229   0.539   7.629 -4.6495  1.2907  1.1628
   29CHL1   C13 2098   1.179   0.379   7.491  0.2213  0.0616  0.2437
   29CHL1   C18 2099   1.118   0.237   7.490 -0.5104  0.2148  0.2587
   29CHL1  H18A 2100   1.191   0.173   7.544  1.5809  1.3221 -1.1362
   29CHL1  H18B 2101   1.016   0.226   7.533 -0.4580  2.2663  1.0021
   29CHL1  H18C 2102   1.122   0.199   7.386 -1.0302 -2.1204  1.0231
   29CHL1   C12 2103   1.099   0.474   7.393 -0.2610 -0.1104 -0.4575
   29CHL1  H12A 2104   0.991   0.464   7.420 -0.9616 -0.0516 -2.9804
   29CHL1  H12B 2105   1.140   0.576   7.404  0.4261 -0.3704 -0.5374
   29CHL1   C11 2106   1.108   0.429   7.252  0.3500 -0.0806  0.7943
   29CHL1  H11A 2107   1.046   0.337   7.255  1.3201 -0.7314  1.7173
   29CHL1  H11B 2108   1.071   0.514   7.192 -0.8451  1.1145  3.1028
   29CHL1    C9 2109   1.252   0.400   7.195  0.7937 -0.3502 -0.2270
   29CHL1    H9 2110   1.302   0.499   7.183  1.6464 -0.6393  0.7471
   29CHL1   C10 2111   1.255   0.329   7.056  0.0314 -0.3860  0.1266
   29CHL1   C19 2112   1.183   0.189   7.064  0.3398  0.0700 -0.3438
   29CHL1  H19A 2113   1.174   0.157   6.957 -0.5658  2.0705 -0.9272
   29CHL1  H19B 2114   1.237   0.106   7.114  2.9500  0.9774 -1.4599
   29CHL1  H19C 2115   1.081   0.204   7.106  1.1365 -0.1241  1.7574
   29CHL1    C1 2116   1.181   0.424   6.951 -0.9506  0.0581 -0.4604
   29CHL1   H1A 2117   1.073   0.421   6.976 -0.8522  1.7928  0.3165
   29CHL1   H1B 2118   1.216   0.528   6.970 -1.5165  0.0327  0.8249
   29CHL1    C2 2119   1.209   0.400   6.799 -0.4119  0.1386  0.2912
   29CHL1   H2A 2120   1.185   0.491   6.739 -4.2646 -0.5294  0.5716
   29CHL1   H2B 2121   1.145   0.314   6.769 -0.7104 -0.2104  1.8416
   29CHL1   C20 2122   1.099   0.416   7.743  0.3172  0.6638 -0.2737
   29CHL1   H20 2123   1.069   0.309   7.742 -0.4000  0.8636  0.0955
   29CHL1   C21 2124   0.988   0.516   7.707  0.8103 -0.3275  0.3664
   29CHL1  H21A 2125   0.910   0.552   7.777 -0.1425  0.1287 -0.8894
   29CHL1  H21B 2126   0.930   0.475   7.621  0.8041 -0.8257  0.6052
   29CHL1  H21C 2127   1.034   0.606   7.660  1.1144 -0.8933 -0.4522
   29CHL1   C22 2128   1.151   0.435   7.890 -0.2766 -0.5967  0.7069
   29CHL1  H22A 2129   1.234   0.369   7.921  0.3406  0.3960  1.2247
   29CHL1  H22B 2130   1.189   0.539   7.887 -1.7132 -0.0348 -2.1976
   29CHL1   C23 2131   1.041   0.426   7.992 -0.2993  0.0372  0.3409
   29CHL1  H23A 2132   0.967   0.506   7.977  0.6855  0.5615 -2.1699
   29CHL1  H23B 2133   0.991   0.328   7.975  0.5033 -0.4497  0.6885
   29CHL1   C24 2134   1.110   0.423   8.133  0.4060  0.4104  0.0189
   29CHL1  H24A 2135   1.197   0.354   8.134 -0.1087 -0.2576  1.7489
   29CHL1  H24B 2136   1.157   0.521   8.156 -0.2897  1.6390 -3.2250
   29CHL1   C25 2137   1.021   0.367   8.243  0.7296  0.2134  0.6461
   29CHL1   H25 2138   0.926   0.423   8.232  0.9562  0.1344 -3.1876
   29CHL1   C26 2139   1.004   0.211   8.229  0.4939 -0.2079  0.5009
   29CHL1  H26A 2140   0.936   0.180   8.146 -0.0581 -0.2909  0.9812
   29CHL1  H26B 2141   1.103   0.162   8.215  1.2917  1.0021  1.7108
   29CHL1  H26C 2142   0.955   0.180   8.324  0.4370  0.2839  0.6354
   29CHL1   C27 2143   1.071   0.404   8.382 -0.4077  0.1167 -0.5816
   29CHL1  H27A 2144   1.179   0.382   8.390 -0.2499  0.9066 -0.5563
   29CHL1  H27B 2145   1.062   0.514   8.384 -2.0655  0.1600 -3.5341
   29CHL1  H27C 2146   1.007   0.372   8.468  0.7959  2.0298  1.1051
   30CHL1    C3 2147   3.647   5.267   7.111 -0.0555 -0.1939  0.0019
   30CHL1    H3 2148   3.666   5.356   7.174  0.4516 -1.5555  1.8619
   30CHL1    O3 2149   3.677   5.293   6.974 -0.3436  0.1937 -0.1590
   30CHL1   H3' 2150   3.674   5.205   6.937  1.6322 -0.3097  0.7450
   30CHL1    C4 2151   3.728   5.152   7.171 -0.5602 -0.4805  0.5350
   30CHL1   H4A 2152   3.737   5.073   7.093 -0.1273  0.4981 -0.4202
   30CHL1   H4B 2153   3.831   5.189   7.187  0.2358 -1.7492 -1.3361
   30CHL1    C5 2154   3.675   5.089   7.303 -0.6917 -0.2068  0.2993
   30CHL1    C6 2155   3.763   5.074   7.398 -0.0276  0.1687 -0.2195
   30CHL1    H6 2156   3.871   5.095   7.395  0.2814 -1.0185  1.3024
   30CHL1    C7 2157   3.725   5.014   7.527  0.2760  0.1075  0.2226
   30CHL1   H7A 2158   3.799   4.936   7.555 -0.1953 -0.1153  0.8573
   30CHL1   H7B 2159   3.725   5.097   7.601  0.7395 -0.5508  0.9648
   30CHL1    C8 2160   3.591   4.943   7.525  0.1909  0.4852  0.5113
   30CHL1    H8 2161   3.606   4.837   7.496 -2.2516 -0.5493  2.5747
   30CHL1   C14 2162   3.553   4.928   7.676  0.3874  0.5332  1.5318
   30CHL1   H14 2163   3.538   5.030   7.717  0.7536  1.3708 -0.2683
   30CHL1   C15 2164   3.650   4.860   7.771  0.5234  0.0509 -0.4121
   30CHL1  H15A 2165   3.701   4.769   7.732  0.6024  0.1561 -0.5572
   30CHL1  H15B 2166   3.728   4.935   7.795  1.9345 -1.4203 -0.2190
   30CHL1   C16 2167   3.556   4.811   7.882  0.3372 -0.2638  0.5702
   30CHL1  H16A 2168   3.556   4.701   7.892 -2.3299 -0.4814 -0.9116
   30CHL1  H16B 2169   3.591   4.847   7.982  2.8986  1.3177 -0.7703
   30CHL1   C17 2170   3.408   4.845   7.843 -0.4368 -0.0126  0.0647
   30CHL1   H17 2171   3.389   4.944   7.890 -0.9433  0.1242 -0.4154
   30CHL1   C13 2172   3.416   4.861   7.693 -0.6048  0.0681 -0.1823
   30CHL1   C18 2173   3.419   4.720   7.625  0.2432  0.0061 -0.1262
   30CHL1  H18A 2174   3.441   4.713   7.517 -1.6471 -0.0454 -0.5381
   30CHL1  H18B 2175   3.490   4.651   7.676 -0.7102  0.0719  1.3607
   30CHL1  H18C 2176   3.315   4.682   7.624  0.2340 -0.0466  1.0534
   30CHL1   C12 2177   3.307   4.947   7.627  0.3876  0.2300 -0.4504
   30CHL1  H12A 2178   3.205   4.905   7.643  0.5297 -0.0998 -0.4118
   30CHL1  H12B 2179   3.311   5.049   7.673 -0.2542  0.8043 -1.6239
   30CHL1   C11 2180   3.336   4.967   7.479 -0.1077  0.0593 -0.3877
   30CHL1  H11A 2181   3.330   4.865   7.434  0.2009 -1.3563  2.5287
   30CHL1  H11B 2182   3.263   5.032   7.426  1.1373  1.2766 -0.6653
   30CHL1    C9 2183   3.484   5.019   7.455  0.9523 -0.8352 -0.0595
   30CHL1    H9 2184   3.478   5.117   7.508  1.4010 -0.1079 -1.3061
   30CHL1   C10 2185   3.524   5.052   7.312 -0.0710 -0.9022  0.3812
   30CHL1   C19 2186   3.504   4.930   7.214  0.8942 -0.8557 -0.3849
   30CHL1  H19A 2187   3.396   4.904   7.207  0.5059  0.2571  0.9409
   30CHL1  H19B 2188   3.542   4.953   7.112 -1.7782 -0.8251 -1.4451
   30CHL1  H19C 2189   3.553   4.844   7.263  0.2472 -1.9154 -1.5335
   30CHL1    C1 2190   3.452   5.180   7.261  0.7027 -0.2005  0.1408
   30CHL1   H1A 2191   3.342   5.166   7.258  0.4552  0.7837 -5.2415
   30CHL1   H1B 2192   3.466   5.255   7.341  0.5770 -0.2371  0.1976
   30CHL1    C2 2193   3.494   5.234   7.118 -0.9712  0.3797 -0.3850
   30CHL1   H2A 2194   3.443   5.327   7.084 -0.6979  0.5401 -0.3585
   30CHL1   H2B 2195   3.489   5.146   7.051  1.3810 -1.2182  1.3773
   30CHL1   C20 2196   3.306   4.743   7.914  0.1613 -0.2740  0.4759
   30CHL1   H20 2197   3.319   4.641   7.874 -0.3186  0.6048 -2.1457
   30CHL1   C21 2198   3.159   4.793   7.889 -0.7912 -0.1354  0.4034
   30CHL1  H21A 2199   3.139   4.776   7.782  1.3268  0.0846 -0.0595
   30CHL1  H21B 2200   3.154   4.904   7.893  0.7059  0.0146 -0.9116
   30CHL1  H21C 2201   3.086   4.737   7.952 -0.7200 -1.6708 -0.8334
   30CHL1   C22 2202   3.316   4.739   8.075 -0.2966 -0.1625  0.2751
   30CHL1  H22A 2203   3.307   4.845   8.110 -1.3623 -0.5172  1.1513
   30CHL1  H22B 2204   3.228   4.683   8.113 -0.9415  1.5289  1.4295
   30CHL1   C23 2205   3.444   4.670   8.136 -0.2903  0.2349 -0.1804
   30CHL1  H23A 2206   3.474   4.580   8.077  2.4427  1.5495 -0.9998
   30CHL1  H23B 2207   3.518   4.753   8.132 -2.7937  2.6422  0.3236
   30CHL1   C24 2208   3.431   4.628   8.285  0.1191  0.1234  0.8813
   30CHL1  H24A 2209   3.385   4.698   8.357 -0.0779  0.8674  0.0415
   30CHL1  H24B 2210   3.353   4.548   8.283  0.9427 -0.7019  1.0185
   30CHL1   C25 2211   3.560   4.565   8.338 -0.1157  0.3309  0.5928
   30CHL1   H25 2212   3.637   4.544   8.260 -1.7495 -1.6610 -0.5744
   30CHL1   C26 2213   3.624   4.669   8.436  0.8400 -0.1782 -0.4778
   30CHL1  H26A 2214   3.717   4.633   8.484  0.6135  1.1424  1.0051
   30CHL1  H26B 2215   3.641   4.763   8.378  2.0810  2.0780  3.2246
   30CHL1  H26C 2216   3.555   4.703   8.516  2.7772  0.2208  1.0972
   30CHL1   C27 2217   3.537   4.431   8.414 -0.7865 -0.9436  0.2445
   30CHL1  H27A 2218   3.477   4.373   8.341 -0.4941  0.2438 -0.9923
   30CHL1  H27B 2219   3.634   4.387   8.444 -0.0308 -0.5644 -1.5320
   30CHL1  H27C 2220   3.475   4.453   8.504  0.1853  0.7174  0.5530
   31CHL1    C3 2221   5.606   0.915   6.647 -0.1975  0.3224 -0.6739
   31CHL1    H3 2222   5.649   0.821   6.689 -0.1057  0.0448 -1.3564
   31CHL1    O3 2223   5.637   0.890   6.512 -0.0082 -0.6628  0.6333
   31CHL1   H3' 2224   5.684   0.971   6.493 -0.8900 -0.7260 -2.1944
   31CHL1    C4 2225   5.459   0.940   6.679 -0.1297 -0.6526  0.1438
   31CHL1   H4A 2226   5.432   1.028   6.616  0.5720 -0.9810 -0.6429
   31CHL1   H4B 2227   5.392   0.863   6.635  0.2541 -0.6741 -0.4251
   31CHL1    C5 2228   5.440   0.956   6.829  0.2750 -0.7605 -0.2093
   31CHL1    C6 2229   5.331   0.900   6.888 -0.8411 -0.5447  0.3588
   31CHL1    H6 2230   5.254   0.857   6.822  1.8361 -1.5526 -2.3012
   31CHL1    C7 2231   5.300   0.910   7.032  0.8336  0.6386 -0.8884
   31CHL1   H7A 2232   5.194   0.942   7.043  0.7773  0.3145 -0.4714
   31CHL1   H7B 2233   5.312   0.804   7.062  0.3548  0.7570 -0.2425
   31CHL1    C8 2234   5.396   1.004   7.115 -0.0678  0.5932 -0.4739
   31CHL1    H8 2235   5.350   1.105   7.120  1.7872  1.5036 -0.9013
   31CHL1   C14 2236   5.410   0.960   7.262 -0.4956 -0.3120  0.4288
   31CHL1   H14 2237   5.474   0.870   7.251 -0.0406  0.1750 -1.1927
   31CHL1   C15 2238   5.279   0.926   7.329  0.2810  0.6220  0.3935
   31CHL1  H15A 2239   5.209   1.012   7.324 -2.6259 -1.6361 -0.2380
   31CHL1  H15B 2240   5.226   0.835   7.293  1.5261 -0.1642  0.4991
   31CHL1   C16 2241   5.335   0.893   7.468 -0.1567  1.1117  0.2927
   31CHL1  H16A 2242   5.251   0.922   7.534 -0.7524 -0.8219  0.4568
   31CHL1  H16B 2243   5.341   0.784   7.489 -0.8391  1.3868  2.0646
   31CHL1   C17 2244   5.475   0.966   7.483 -0.2269  0.7413 -0.6261
   31CHL1   H17 2245   5.551   0.886   7.469 -1.2534 -0.2382 -0.7438
   31CHL1   C13 2246   5.489   1.050   7.352 -1.0593 -0.7335  0.2672
   31CHL1   C18 2247   5.427   1.189   7.374 -0.0451  0.7757 -0.6814
   31CHL1  H18A 2248   5.403   1.238   7.278 -0.4566  1.1296 -0.4046
   31CHL1  H18B 2249   5.339   1.168   7.439  2.3276 -1.6736  2.0556
   31CHL1  H18C 2250   5.491   1.257   7.435 -1.6073  0.5979  1.2771
   31CHL1   C12 2251   5.636   1.056   7.298 -0.2310  0.0550 -0.5007
   31CHL1  H12A 2252   5.692   1.126   7.362 -1.0897  0.0561  0.2646
   31CHL1  H12B 2253   5.687   0.958   7.307 -1.6687 -0.6288  0.4912
   31CHL1   C11 2254   5.629   1.106   7.149  0.5397 -0.3790  0.6570
   31CHL1  H11A 2255   5.592   1.210   7.146  0.9135 -0.2603 -0.1422
   31CHL1  H11B 2256   5.734   1.115   7.113  0.6739  3.4274  1.5415
   31CHL1    C9 2257   5.539   1.012   7.059 -0.9576 -0.4727 -0.1555
   31CHL1    H9 2258   5.585   0.913   7.080 -1.2813 -0.4736  0.5810
   31CHL1   C10 2259   5.544   1.042   6.906  0.1481  0.8913  0.0898
   31CHL1   C19 2260   5.519   1.191   6.889 -0.8570  0.5663  0.3038
   31CHL1  H19A 2261   5.431   1.227   6.947  0.3413 -0.0421  2.6502
   31CHL1  H19B 2262   5.609   1.252   6.914  0.0280 -1.0124  1.1729
   31CHL1  H19C 2263   5.494   1.216   6.784  1.5042 -0.3919 -0.5697
   31CHL1    C1 2264   5.689   1.012   6.863  0.1930 -0.2658 -0.1952
   31CHL1   H1A 2265   5.750   1.096   6.900 -0.2539  0.0565 -0.1804
   31CHL1   H1B 2266   5.732   0.919   6.906  3.4277  0.4827 -1.5565
   31CHL1    C2 2267   5.703   1.009   6.711 -0.2320  0.8139  0.4946
   31CHL1   H2A 2268   5.806   0.975   6.684 -0.8792 -0.6678 -0.2226
   31CHL1   H2B 2269   5.682   1.108   6.664  2.5630  1.8914  1.3062
   31CHL1   C20 2270   5.486   1.035   7.621  0.5306 -0.0968  0.6891
   31CHL1   H20 2271   5.430   1.131   7.618  2.5497  1.1703 -2.2189
   31CHL1   C21 2272   5.633   1.074   7.646 -0.5068 -0.3216  0.3479
   31CHL1  H21A 2273   5.642   1.160   7.716  1.2382 -0.2659  0.1043
   31CHL1  H21B 2274   5.684   1.101   7.551  0.0028 -1.4291  0.2902
   31CHL1  H21C 2275   5.688   0.984   7.681  0.7978  1.0984  2.1721
   31CHL1   C22 2276   5.433   0.942   7.735  0.0649 -0.4805  0.0456
   31CHL1  H22A 2277   5.322   0.932   7.726 -0.0177  0.1803  0.2518
   31CHL1  H22B 2278   5.486   0.845   7.730  0.5624 -0.1793 -2.9903
   31CHL1   C23 2279   5.469   1.002   7.874  0.5386 -0.3168  0.1172
   31CHL1  H23A 2280   5.579   1.007   7.892  0.5187 -0.2158  0.2153
   31CHL1  H23B 2281   5.423   1.103   7.870 -2.1745 -1.5137 -1.4273
   31CHL1   C24 2282   5.399   0.921   7.987  0.8215  0.4833 -0.2635
   31CHL1  H24A 2283   5.290   0.909   7.967  0.4575  1.5371  0.9209
   31CHL1  H24B 2284   5.444   0.820   7.995  1.2132  0.5586 -1.4579
   31CHL1   C25 2285   5.418   0.987   8.120 -0.6559  0.4268  0.2149
   31CHL1   H25 2286   5.363   1.083   8.125  0.2648  0.9510  0.4229
   31CHL1   C26 2287   5.349   0.891   8.221 -0.1689 -0.2341 -0.4024
   31CHL1  H26A 2288   5.245   0.883   8.183  0.0349  0.5698 -1.1457
   31CHL1  H26B 2289   5.387   0.786   8.218 -1.3163 -0.6441 -1.5875
   31CHL1  H26C 2290   5.363   0.925   8.326 -0.4541  0.6207 -0.6376
   31CHL1   C27 2291   5.564   1.024   8.157 -0.4842 -0.6291 -0.8971
   31CHL1  H27A 2292   5.605   1.104   8.091 -4.3061  2.9388  0.6142
   31CHL1  H27B 2293   5.619   0.928   8.164 -1.7674 -1.5032 -2.1224
   31CHL1  H27C 2294   5.560   1.064   8.260  1.3319 -0.5761 -0.8215
   32CHL1    C3 2295   5.154   6.112   6.851 -0.3925 -0.0416  0.2290
   32CHL1    H3 2296   5.254   6.078   6.884 -1.2988 -3.6843 -0.2802
   32CHL1    O3 2297   5.134   6.076   6.712 -0.1387 -0.5057 -0.6197
   32CHL1   H3' 2298   5.041   6.091   6.694 -0.2988 -0.2751  0.3216
   32CHL1    C4 2299   5.042   6.039   6.930 -0.4279  0.2178 -0.2454
   32CHL1   H4A 2300   4.938   6.070   6.904  0.4272  2.1587 -1.5451
   32CHL1   H4B 2301   5.046   5.932   6.900 -1.8389 -0.2279  1.0129
   32CHL1    C5 2302   5.066   6.065   7.074 -0.4289  0.3657 -0.8079
   32CHL1    C6 2303   5.094   5.968   7.167  0.1476 -0.4891  0.0561
   32CHL1    H6 2304   5.096   5.863   7.137 -1.9017 -1.0337  1.5772
   32CHL1    C7 2305   5.111   5.997   7.312  0.0787  0.2706  0.3321
   32CHL1   H7A 2306   5.058   5.924   7.377 -2.0405  0.1401 -1.4392
   32CHL1   H7B 2307   5.220   5.989   7.333  0.9546 -2.0975 -4.0259
   32CHL1    C8 2308   5.059   6.141   7.360  0.3884  0.6467  0.5896
   32CHL1    H8 2309   4.948   6.141   7.363  0.3938  1.5332  1.5255
   32CHL1   C14 2310   5.121   6.178   7.490 -0.6431 -0.1329 -0.0028
   32CHL1   H14 2311   5.229   6.190   7.467 -0.8567  0.1931 -0.8627
   32CHL1   C15 2312   5.127   6.076   7.605 -0.9169  0.2469  0.2686
   32CHL1  H15A 2313   5.043   6.003   7.604  0.0405 -0.9672  2.0397
   32CHL1  H15B 2314   5.226   6.025   7.600  0.2180  2.1193  2.1424
   32CHL1   C16 2315   5.130   6.156   7.735 -0.0286 -0.1296  0.1515
   32CHL1  H16A 2316   5.031   6.149   7.785  0.4044  1.4028  1.3384
   32CHL1  H16B 2317   5.202   6.112   7.806 -2.2379 -1.7868  1.5006
   32CHL1   C17 2318   5.157   6.303   7.689  0.2032 -0.2571  0.0857
   32CHL1   H17 2319   5.266   6.312   7.673  0.8984 -4.1208  1.6527
   32CHL1   C13 2320   5.080   6.315   7.554  0.5447  0.8232  0.6178
   32CHL1   C18 2321   4.923   6.312   7.576  0.6319 -0.3341  1.0525
   32CHL1  H18A 2322   4.893   6.410   7.618  0.9388  1.3754 -2.3340
   32CHL1  H18B 2323   4.867   6.300   7.481  1.6036 -1.9376  0.6473
   32CHL1  H18C 2324   4.891   6.228   7.641 -2.4732 -0.2364 -0.1805
   32CHL1   C12 2325   5.126   6.421   7.450  0.1620 -0.5144 -0.6604
   32CHL1  H12A 2326   5.081   6.517   7.482  0.0310 -0.1635 -1.8408
   32CHL1  H12B 2327   5.236   6.436   7.447 -0.1171  3.3821  1.9017
   32CHL1   C11 2328   5.071   6.391   7.309 -0.0831  0.1927  0.0127
   32CHL1  H11A 2329   4.962   6.407   7.320 -0.6642 -2.8786 -0.3823
   32CHL1  H11B 2330   5.112   6.467   7.239 -2.2339  1.2772 -0.1395
   32CHL1    C9 2331   5.107   6.243   7.256 -0.2436 -0.6131 -0.5804
   32CHL1    H9 2332   5.216   6.225   7.262 -0.2837 -0.5277  3.4069
   32CHL1   C10 2333   5.053   6.213   7.111 -0.1635 -0.0947 -0.6232
   32CHL1   C19 2334   4.899   6.249   7.108 -0.2822 -0.0404 -0.3728
   32CHL1  H19A 2335   4.883   6.359   7.114  1.6964  0.4357 -2.5578
   32CHL1  H19B 2336   4.858   6.227   7.007  3.5226  2.3741 -2.6919
   32CHL1  H19C 2337   4.840   6.193   7.184 -0.1906 -1.7202 -1.4824
   32CHL1    C1 2338   5.139   6.294   7.017 -0.3078  0.7975  0.6090
   32CHL1   H1A 2339   5.133   6.403   7.038  0.0550  0.6166  1.7200
   32CHL1   H1B 2340   5.244   6.272   7.046  0.4666  0.7143 -1.9603
   32CHL1    C2 2341   5.137   6.258   6.870 -0.4404  0.2024  0.3319
   32CHL1   H2A 2342   5.222   6.301   6.812  0.3792  0.4607  1.6915
   32CHL1   H2B 2343   5.042   6.302   6.833  0.0384  2.4083  1.6017
   32CHL1   C20 2344   5.126   6.409   7.800 -0.0685  0.2055  0.2766
   32CHL1   H20 2345   5.018   6.396   7.823  0.1831 -0.2213  1.2378
   32CHL1   C21 2346   5.155   6.553   7.754 -0.3344 -0.1241  0.2580
   32CHL1  H21A 2347   5.122   6.626   7.831  1.9223  2.3946 -1.0121
   32CHL1  H21B 2348   5.091   6.585   7.669  0.8709 -1.4692 -1.2259
   32CHL1  H21C 2349   5.263   6.563   7.729  0.0433 -0.1130  1.7953
   32CHL1   C22 2350   5.209   6.373   7.925  0.5511  0.1074  0.4212
   32CHL1  H22A 2351   5.180   6.275   7.970  1.0245  0.7198  2.1384
   32CHL1  H22B 2352   5.318   6.367   7.909  0.2829 -1.5429 -1.0830
   32CHL1   C23 2353   5.188   6.467   8.038  0.3248 -0.9581 -0.1729
   32CHL1  H23A 2354   5.225   6.565   7.999  0.7693 -1.0853 -0.0737
   32CHL1  H23B 2355   5.081   6.481   8.065  1.1839  0.3534  2.9968
   32CHL1   C24 2356   5.284   6.415   8.152 -0.6933 -0.0313  0.2989
   32CHL1  H24A 2357   5.262   6.312   8.186  0.5348 -0.6105 -0.5656
   32CHL1  H24B 2358   5.388   6.412   8.114 -0.2733 -0.1634  1.4411
   32CHL1   C25 2359   5.275   6.515   8.269  1.0492 -0.4283  0.5572
   32CHL1   H25 2360   5.171   6.520   8.309  0.8877  3.8893  0.0742
   32CHL1   C26 2361   5.351   6.459   8.396 -0.2240  0.7179  0.4156
   32CHL1  H26A 2362   5.302   6.370   8.440  0.4150  0.1165 -0.0666
   32CHL1  H26B 2363   5.458   6.439   8.374 -0.5991 -1.5229  0.4036
   32CHL1  H26C 2364   5.348   6.544   8.468 -1.7461  2.4660 -1.5700
   32CHL1   C27 2365   5.318   6.656   8.240  0.1893 -0.4562 -0.1660
   32CHL1  H27A 2366   5.294   6.710   8.334  0.1398 -2.0123  0.7378
   32CHL1  H27B 2367   5.425   6.663   8.211  0.3999 -1.2220  0.4099
   32CHL1  H27C 2368   5.256   6.713   8.166  0.0280  1.7150  1.5532
   33CHL1    C3 2369   6.380   3.794   6.792 -0.3112 -0.0327 -0.4127
   33CHL1    H3 2370   6.488   3.821   6.794 -0.4400  0.4523  0.7486
   33CHL1    O3 2371   6.321   3.804   6.668 -0.4260 -0.3052 -0.9025
   33CHL1   H3' 2372   6.230   3.777   6.685  0.3702 -2.0818  1.0764
   33CHL1    C4 2373   6.337   3.659   6.848  0.1930 -0.6112  1.1279
   33CHL1   H4A 2374   6.227   3.651   6.845  0.0138  1.6056 -1.1517
   33CHL1   H4B 2375   6.376   3.583   6.777  0.6117 -0.1388  0.8456
   33CHL1    C5 2376   6.387   3.639   6.988 -0.8203 -0.5677 -0.0951
   33CHL1    C6 2377   6.472   3.538   7.010  0.1292 -0.4980 -0.2396
   33CHL1    H6 2378   6.509   3.467   6.935  1.9259  0.6758 -0.5269
   33CHL1    C7 2379   6.527   3.519   7.151  0.7020 -0.8027  0.0296
   33CHL1   H7A 2380   6.539   3.409   7.165  1.3419 -0.6374  0.8788
   33CHL1   H7B 2381   6.628   3.566   7.147  0.7703 -1.0171 -1.9152
   33CHL1    C8 2382   6.444   3.591   7.258 -0.2403 -0.0616 -0.2600
   33CHL1    H8 2383   6.344   3.543   7.260 -0.5284  0.3061 -2.4352
   33CHL1   C14 2384   6.503   3.575   7.397  0.3883 -0.0114 -0.0856
   33CHL1   H14 2385   6.610   3.603   7.381  0.2725  0.4346 -0.0855
   33CHL1   C15 2386   6.507   3.437   7.449 -1.2635 -0.1869 -0.4795
   33CHL1  H15A 2387   6.407   3.393   7.428 -1.0710 -0.3370 -1.1003
   33CHL1  H15B 2388   6.591   3.388   7.395 -0.4341  0.5691  0.0931
   33CHL1   C16 2389   6.542   3.468   7.598  0.5406  0.6473 -0.2135
   33CHL1  H16A 2390   6.462   3.429   7.665 -0.5915  3.3998  0.1505
   33CHL1  H16B 2391   6.643   3.432   7.625  0.3188  0.3194  0.2073
   33CHL1   C17 2392   6.532   3.621   7.625  0.0768 -0.0523 -0.1368
   33CHL1   H17 2393   6.634   3.657   7.600 -0.8202  0.5068 -3.5629
   33CHL1   C13 2394   6.450   3.673   7.509 -0.0732  0.1017  0.3576
   33CHL1   C18 2395   6.302   3.650   7.535  0.0465  0.1889  0.8771
   33CHL1  H18A 2396   6.289   3.544   7.565  2.1655 -0.3608  0.0691
   33CHL1  H18B 2397   6.261   3.727   7.604 -1.3406 -0.7552  1.1414
   33CHL1  H18C 2398   6.245   3.650   7.440  2.3987 -2.5466 -0.6722
   33CHL1   C12 2399   6.476   3.824   7.459  0.4733 -0.2751  0.2088
   33CHL1  H12A 2400   6.434   3.905   7.523 -1.9658 -1.9664  0.8842
   33CHL1  H12B 2401   6.587   3.824   7.453  0.5090  2.4899 -0.5274
   33CHL1   C11 2402   6.408   3.844   7.319  0.2954 -0.5541 -0.1218
   33CHL1  H11A 2403   6.298   3.848   7.330  0.2308  2.9023 -0.7411
   33CHL1  H11B 2404   6.428   3.947   7.281 -0.4109 -0.2980  0.1902
   33CHL1    C9 2405   6.443   3.740   7.220 -0.2255 -0.1269 -0.2544
   33CHL1    H9 2406   6.544   3.764   7.181  0.4609 -0.9718  0.9625
   33CHL1   C10 2407   6.354   3.753   7.084 -0.9227  0.4359 -0.4885
   33CHL1   C19 2408   6.208   3.722   7.108  0.5003  1.0031 -0.3472
   33CHL1  H19A 2409   6.148   3.705   7.016  0.8199  0.6286 -0.4867
   33CHL1  H19B 2410   6.190   3.632   7.171 -0.2068  1.4229  0.0626
   33CHL1  H19C 2411   6.162   3.809   7.160 -1.7005  0.8061 -1.8173
   33CHL1    C1 2412   6.372   3.895   7.021 -0.9877 -0.2169 -0.4595
   33CHL1   H1A 2413   6.315   3.968   7.082  0.2922  1.7038 -1.4370
   33CHL1   H1B 2414   6.479   3.921   7.034 -1.3852  0.6053  1.4553
   33CHL1    C2 2415   6.314   3.904   6.881  0.1694  0.3654  0.3219
   33CHL1   H2A 2416   6.323   4.008   6.843 -0.7417  0.5442  0.5786
   33CHL1   H2B 2417   6.206   3.880   6.877  0.0316  0.7284  1.4709
   33CHL1   C20 2418   6.489   3.663   7.770  0.1075 -0.6660 -0.3811
   33CHL1   H20 2419   6.391   3.617   7.797 -0.5636  0.6846 -0.4443
   33CHL1   C21 2420   6.483   3.811   7.783  0.1269 -0.0482  0.3956
   33CHL1  H21A 2421   6.468   3.849   7.887 -0.7921  2.1074 -0.4665
   33CHL1  H21B 2422   6.399   3.860   7.729 -0.2137  1.3925  2.1252
   33CHL1  H21C 2423   6.577   3.856   7.745  1.7073 -0.0734  3.8366
   33CHL1   C22 2424   6.579   3.601   7.878  0.1587 -0.3828  0.4168
   33CHL1  H22A 2425   6.613   3.504   7.836 -0.5478 -0.6741  0.5165
   33CHL1  H22B 2426   6.666   3.670   7.889  0.1528 -0.2989 -0.0415
   33CHL1   C23 2427   6.521   3.571   8.014 -0.6825  0.2616 -0.1231
   33CHL1  H23A 2428   6.489   3.662   8.068 -0.5946 -0.0303  0.4303
   33CHL1  H23B 2429   6.428   3.511   8.000 -1.1695  1.2758 -1.4208
   33CHL1   C24 2430   6.626   3.503   8.101 -0.5579 -0.0920  0.2885
   33CHL1  H24A 2431   6.683   3.430   8.040 -0.3390  0.8372 -0.6541
   33CHL1  H24B 2432   6.691   3.586   8.137  0.7409 -1.1624  0.5076
   33CHL1   C25 2433   6.576   3.426   8.230 -0.1462 -0.0637  0.3313
   33CHL1   H25 2434   6.666   3.370   8.264  0.1073  0.0944 -0.0795
   33CHL1   C26 2435   6.516   3.521   8.337  0.3650  0.1958 -0.5915
   33CHL1  H26A 2436   6.442   3.591   8.294 -1.3147 -0.0163  1.7220
   33CHL1  H26B 2437   6.470   3.463   8.421  1.3937  0.7758  0.3957
   33CHL1  H26C 2438   6.597   3.571   8.393 -0.4114  0.9270 -0.0973
   33CHL1   C27 2439   6.481   3.310   8.189 -0.4512 -0.5159  0.1340
   33CHL1  H27A 2440   6.534   3.239   8.123  0.2661  0.4890 -0.3973
   33CHL1  H27B 2441   6.437   3.258   8.277 -0.6109  0.9329  0.9449
   33CHL1  H27C 2442   6.394   3.351   8.133  0.0749  0.0948 -0.2472
   34CHL1    C3 2443   4.006   3.445   7.183 -0.5263 -0.2608  0.8115
   34CHL1    H3 2444   3.957   3.347   7.202  1.1895 -1.5260 -0.8283
   34CHL1    O3 2445   3.983   3.491   7.048  0.6380  0.0135 -0.3788
   34CHL1   H3' 2446   4.064   3.530   7.015  0.3033  0.3816 -0.7745
   34CHL1    C4 2447   3.945   3.544   7.277  0.7181 -0.3153  0.2019
   34CHL1   H4A 2448   3.993   3.643   7.263 -3.1008  1.4717 -1.6725
   34CHL1   H4B 2449   3.840   3.543   7.244  1.0162 -1.5927 -0.7692
   34CHL1    C5 2450   3.956   3.500   7.428 -0.0048 -0.0426  0.6173
   34CHL1    C6 2451   3.855   3.477   7.504  0.2500 -0.6042  0.1548
   34CHL1    H6 2452   3.759   3.509   7.461  1.8051  0.5737 -2.6789
   34CHL1    C7 2453   3.866   3.422   7.635 -0.0668  0.2800 -0.3941
   34CHL1   H7A 2454   3.796   3.467   7.709 -0.6579 -2.0475  0.5437
   34CHL1   H7B 2455   3.830   3.317   7.635  0.0084  0.1953  1.7952
   34CHL1    C8 2456   4.008   3.419   7.699  0.3647 -0.6074  1.1139
   34CHL1    H8 2457   4.014   3.525   7.732  0.1067 -0.3863  0.4590
   34CHL1   C14 2458   4.013   3.331   7.825 -0.2412  0.3934  0.0373
   34CHL1   H14 2459   4.004   3.229   7.781 -0.4517 -0.1203  1.2340
   34CHL1   C15 2460   3.907   3.335   7.933  0.2587  0.1260 -0.2155
   34CHL1  H15A 2461   3.907   3.441   7.965 -0.1665  0.0615 -0.0065
   34CHL1  H15B 2462   3.805   3.296   7.914 -1.1075  2.8036  1.1842
   34CHL1   C16 2463   3.975   3.252   8.038 -0.8615  0.2845  0.3854
   34CHL1  H16A 2464   3.968   3.307   8.135 -0.1736  0.0285  0.5873
   34CHL1  H16B 2465   3.933   3.150   8.050 -0.6197  0.3380  1.9216
   34CHL1   C17 2466   4.126   3.234   8.005 -0.2169 -0.4077 -0.5464
   34CHL1   H17 2467   4.138   3.143   7.942 -2.1840  0.5341 -2.4443
   34CHL1   C13 2468   4.152   3.338   7.896 -0.0057  0.1012  0.1746
   34CHL1   C18 2469   4.165   3.485   7.961  0.0120  1.6010  0.3275
   34CHL1  H18A 2470   4.160   3.568   7.887  2.8800  0.1458 -1.7141
   34CHL1  H18B 2471   4.092   3.510   8.040  0.0461  1.3393  0.4406
   34CHL1  H18C 2472   4.270   3.487   7.997  0.5352 -0.0410 -0.9770
   34CHL1   C12 2473   4.262   3.299   7.790 -1.0832  0.5862 -0.0543
   34CHL1  H12A 2474   4.361   3.315   7.838 -1.9357  2.2894  1.2286
   34CHL1  H12B 2475   4.250   3.195   7.753 -0.4715  0.7594 -0.7819
   34CHL1   C11 2476   4.252   3.389   7.670  0.3888  0.5930 -0.4180
   34CHL1  H11A 2477   4.268   3.493   7.706 -2.5936  1.0944 -0.2691
   34CHL1  H11B 2478   4.340   3.367   7.605  0.9818  1.0800  0.1999
   34CHL1    C9 2479   4.114   3.385   7.598 -0.6904  0.0214 -0.5073
   34CHL1    H9 2480   4.097   3.278   7.575 -1.5593 -0.2758  1.3099
   34CHL1   C10 2481   4.105   3.470   7.472 -0.5613 -0.2441  0.4725
   34CHL1   C19 2482   4.176   3.610   7.496 -0.9075  0.7146 -0.0398
   34CHL1  H19A 2483   4.281   3.589   7.526 -0.6442  0.4214 -1.1092
   34CHL1  H19B 2484   4.182   3.670   7.403 -2.0748 -0.1070 -0.6821
   34CHL1  H19C 2485   4.117   3.664   7.572  1.3892 -0.6540  2.9094
   34CHL1    C1 2486   4.180   3.390   7.361  0.5810 -0.7097 -0.1838
   34CHL1   H1A 2487   4.289   3.385   7.383  0.1698 -1.3634  1.8494
   34CHL1   H1B 2488   4.143   3.286   7.372 -0.6817 -0.1222  1.4695
   34CHL1    C2 2489   4.156   3.445   7.214  0.6441  0.1409  0.4874
   34CHL1   H2A 2490   4.211   3.382   7.140  0.2311  1.0672 -0.6380
   34CHL1   H2B 2491   4.187   3.551   7.202 -1.1720  0.5007 -1.7679
   34CHL1   C20 2492   4.218   3.220   8.128  0.4714 -0.3422 -0.6503
   34CHL1   H20 2493   4.201   3.311   8.189  1.1614  1.4301 -3.0067
   34CHL1   C21 2494   4.370   3.224   8.091 -0.3025 -0.1484 -0.6773
   34CHL1  H21A 2495   4.389   3.146   8.014 -2.1043 -0.2790 -1.0267
   34CHL1  H21B 2496   4.435   3.196   8.176 -0.4045  0.3469 -0.4312
   34CHL1  H21C 2497   4.416   3.314   8.043  1.5399 -0.0443  1.1431
   34CHL1   C22 2498   4.186   3.094   8.208 -0.1990  0.1231 -0.3563
   34CHL1  H22A 2499   4.076   3.081   8.209 -0.3187 -0.2544 -4.0019
   34CHL1  H22B 2500   4.224   3.009   8.147 -1.0655 -1.2991  0.9933
   34CHL1   C23 2501   4.243   3.093   8.351  0.2892 -0.2688 -0.2119
   34CHL1  H23A 2502   4.345   3.135   8.356 -0.7588  2.3911  1.4211
   34CHL1  H23B 2503   4.186   3.164   8.416  0.7421 -1.0102  1.0366
   34CHL1   C24 2504   4.250   2.956   8.424  0.4720 -0.1639  0.4205
   34CHL1  H24A 2505   4.145   2.920   8.427  0.2157  0.6074  2.0409
   34CHL1  H24B 2506   4.315   2.885   8.368  0.0671  0.7334 -1.2297
   34CHL1   C25 2507   4.293   2.965   8.563 -0.8852  0.0444 -0.6381
   34CHL1   H25 2508   4.372   3.043   8.563 -1.6301  0.8395  0.8983
   34CHL1   C26 2509   4.187   3.022   8.655  0.2474 -0.8280 -0.4657
   34CHL1  H26A 2510   4.085   2.984   8.634 -0.9159  2.5563 -1.6982
   34CHL1  H26B 2511   4.215   2.992   8.758  0.0959 -1.4546 -0.6031
   34CHL1  H26C 2512   4.185   3.133   8.642  1.5553 -0.6033  0.9572
   34CHL1   C27 2513   4.339   2.834   8.628  0.1949  0.5064 -0.1890
   34CHL1  H27A 2514   4.415   2.781   8.566 -0.5658 -2.1854  1.0019
   34CHL1  H27B 2515   4.398   2.864   8.718  0.9039 -0.3056 -0.3696
   34CHL1  H27C 2516   4.251   2.770   8.649 -0.6446  2.3166  2.3153
   35CHL1    C3 2517   3.642   2.073   7.183 -0.1929 -0.2928 -0.0790
   35CHL1    H3 2518   3.596   2.169   7.217  1.1505 -0.1456  1.4616
   35CHL1    O3 2519   3.665   2.073   7.041  0.4323  0.3928 -0.5721
   35CHL1   H3' 2520   3.626   1.991   7.010 -2.0402  0.6894  1.4754
   35CHL1    C4 2521   3.776   2.044   7.254  0.2340  0.6037 -0.1819
   35CHL1   H4A 2522   3.820   1.954   7.207 -0.5855  0.4598 -0.6984
   35CHL1   H4B 2523   3.848   2.124   7.227  2.8381 -1.2814  0.7293
   35CHL1    C5 2524   3.760   2.029   7.406  0.2619  0.1085 -0.4060
   35CHL1    C6 2525   3.821   2.111   7.496 -0.0794  0.2520 -0.5987
   35CHL1    H6 2526   3.901   2.174   7.453  1.6210 -2.8881 -2.4158
   35CHL1    C7 2527   3.819   2.097   7.647 -0.0727 -0.1800 -0.4707
   35CHL1   H7A 2528   3.922   2.086   7.687 -1.2199 -0.8917  2.5735
   35CHL1   H7B 2529   3.795   2.194   7.695  0.5831 -0.8193  1.2156
   35CHL1    C8 2530   3.748   1.971   7.691 -0.8447  0.7503  1.1794
   35CHL1    H8 2531   3.804   1.877   7.676 -2.0568  0.2476 -0.5641
   35CHL1   C14 2532   3.702   1.973   7.831  0.1020 -0.0825  0.3480
   35CHL1   H14 2533   3.620   2.048   7.827 -1.5912 -1.8960 -1.0387
   35CHL1   C15 2534   3.811   2.019   7.929 -0.3883  0.0797  0.4477
   35CHL1  H15A 2535   3.906   1.971   7.901 -0.5437  0.3024 -0.4932
   35CHL1  H15B 2536   3.820   2.130   7.929 -0.9084  0.1265  0.4910
   35CHL1   C16 2537   3.757   1.963   8.054 -0.7992 -0.0059 -0.3653
   35CHL1  H16A 2538   3.825   1.880   8.085  1.1166  1.8807  0.7928
   35CHL1  H16B 2539   3.762   2.042   8.132 -1.0828  0.0349 -0.3916
   35CHL1   C17 2540   3.619   1.897   8.026  0.3179  0.6934 -0.1191
   35CHL1   H17 2541   3.541   1.976   8.023 -0.7174  0.1825  4.7520
   35CHL1   C13 2542   3.630   1.847   7.882 -0.9760  0.4242  1.1982
   35CHL1   C18 2543   3.730   1.728   7.872 -0.0940 -0.5245 -0.2194
   35CHL1  H18A 2544   3.832   1.752   7.910 -0.4614 -0.1535  0.5498
   35CHL1  H18B 2545   3.692   1.647   7.937 -0.8940 -0.4149 -0.5409
   35CHL1  H18C 2546   3.729   1.684   7.770  0.0789 -1.5788  0.2246
   35CHL1   C12 2547   3.500   1.831   7.803  0.1608  0.6127  1.3832
   35CHL1  H12A 2548   3.454   1.732   7.823 -2.0415  1.0421 -1.0779
   35CHL1  H12B 2549   3.444   1.923   7.830 -0.9683  1.0438 -1.9786
   35CHL1   C11 2550   3.521   1.835   7.652  0.2021 -0.3921  0.0668
   35CHL1  H11A 2551   3.572   1.738   7.633  1.1900 -0.1712  1.3998
   35CHL1  H11B 2552   3.425   1.850   7.598  0.9865 -0.4939 -1.4119
   35CHL1    C9 2553   3.620   1.948   7.602  0.5721 -1.7255  0.9502
   35CHL1    H9 2554   3.569   2.047   7.600 -0.1574 -2.0973  0.5709
   35CHL1   C10 2555   3.659   1.926   7.450 -0.0872 -1.0229  0.0631
   35CHL1   C19 2556   3.715   1.786   7.419  0.1924 -0.3769 -0.9423
   35CHL1  H19A 2557   3.634   1.710   7.429 -0.5236  0.4818 -0.0862
   35CHL1  H19B 2558   3.766   1.771   7.321 -0.5497  1.6952 -1.6875
   35CHL1  H19C 2559   3.794   1.760   7.493  0.0365 -1.4665 -1.1320
   35CHL1    C1 2560   3.525   1.961   7.372 -0.6221 -0.3699  0.1327
   35CHL1   H1A 2561   3.461   1.871   7.385  0.2480 -1.3503 -1.9042
   35CHL1   H1B 2562   3.466   2.051   7.399 -1.0303 -0.0040 -1.7895
   35CHL1    C2 2563   3.548   1.959   7.217 -0.4367  0.1266 -0.0515
   35CHL1   H2A 2564   3.447   1.956   7.172 -1.4027 -3.0991  1.9848
   35CHL1   H2B 2565   3.605   1.866   7.198 -0.3596  0.1091  0.2598
   35CHL1   C20 2566   3.575   1.800   8.141 -0.5822 -0.0816  0.0586
   35CHL1   H20 2567   3.666   1.738   8.151 -1.5674 -1.6778 -0.3312
   35CHL1   C21 2568   3.460   1.699   8.098 -0.2785 -0.5454  0.3651
   35CHL1  H21A 2569   3.361   1.742   8.070  0.0907  0.8739  1.1550
   35CHL1  H21B 2570   3.444   1.632   8.185 -2.3128 -1.4528 -0.6169
   35CHL1  H21C 2571   3.500   1.640   8.012 -0.4190  0.9858 -0.7996
   35CHL1   C22 2572   3.536   1.857   8.273  0.4979 -0.0530 -0.0964
   35CHL1  H22A 2573   3.517   1.965   8.257  2.8416  0.4375  0.0653
   35CHL1  H22B 2574   3.447   1.817   8.327  0.5425  1.4713  1.1602
   35CHL1   C23 2575   3.636   1.832   8.384  0.3020  0.1626 -0.7937
   35CHL1  H23A 2576   3.640   1.725   8.412 -2.9545 -0.2724 -1.5199
   35CHL1  H23B 2577   3.738   1.871   8.363  0.6950 -0.9515 -1.0019
   35CHL1   C24 2578   3.608   1.898   8.525 -0.6167  0.1145  1.2270
   35CHL1  H24A 2579   3.619   2.009   8.531  0.8990  0.2704 -2.0496
   35CHL1  H24B 2580   3.503   1.873   8.550 -2.3712  1.4420 -3.6111
   35CHL1   C25 2581   3.690   1.829   8.639 -0.2534 -0.1446  0.4827
   35CHL1   H25 2582   3.795   1.839   8.604 -0.7105  3.4184 -0.2168
   35CHL1   C26 2583   3.678   1.893   8.779  0.6169  0.9095 -0.5861
   35CHL1  H26A 2584   3.573   1.914   8.807  0.7736  1.7206 -0.5858
   35CHL1  H26B 2585   3.711   1.823   8.859 -1.3244  1.0031  0.3564
   35CHL1  H26C 2586   3.746   1.980   8.785 -1.5133  2.7278 -1.4796
   35CHL1   C27 2587   3.672   1.678   8.654  0.3719 -0.2593  0.0602
   35CHL1  H27A 2588   3.572   1.644   8.690  1.4336 -1.5807  1.9616
   35CHL1  H27B 2589   3.749   1.643   8.725  2.9301  1.4544 -1.7158
   35CHL1  H27C 2590   3.687   1.614   8.565 -1.2575  0.3880 -0.7362
   36CHL1    C3 2591   2.974   5.257   6.944 -1.0930  0.0504  0.3599
   36CHL1    H3 2592   3.055   5.183   6.957  0.0062  0.9700 -1.0108
   36CHL1    O3 2593   2.935   5.251   6.805  0.4053 -0.5250  0.0823
   36CHL1   H3' 2594   2.858   5.307   6.803 -1.5315 -2.6437  3.8670
   36CHL1    C4 2595   2.867   5.219   7.041 -0.2484  0.0643 -0.2486
   36CHL1   H4A 2596   2.777   5.285   7.033  0.2978  1.2481  2.4696
   36CHL1   H4B 2597   2.828   5.118   7.016 -2.5439  1.0244 -0.8883
   36CHL1    C5 2598   2.916   5.225   7.185 -0.2221 -0.1558  1.7429
   36CHL1    C6 2599   2.896   5.125   7.267  0.3477 -0.3485  0.3182
   36CHL1    H6 2600   2.859   5.030   7.226  0.1538  0.0582 -0.4641
   36CHL1    C7 2601   2.918   5.139   7.415  0.9130  0.0544  0.1712
   36CHL1   H7A 2602   2.830   5.118   7.479  2.3782  0.1108  2.3425
   36CHL1   H7B 2603   2.992   5.065   7.453 -0.1994 -0.2775  1.8025
   36CHL1    C8 2604   2.971   5.271   7.462  0.2304  0.4276 -0.0216
   36CHL1    H8 2605   2.876   5.322   7.490 -0.5721 -1.0649  0.0554
   36CHL1   C14 2606   3.049   5.254   7.593  0.3884  0.0121  0.5445
   36CHL1   H14 2607   3.143   5.199   7.576  3.4187  4.1568  2.1837
   36CHL1   C15 2608   2.984   5.168   7.709 -0.3585 -0.0961  0.0237
   36CHL1  H15A 2609   2.881   5.200   7.733 -0.5823 -2.0560  1.8602
   36CHL1  H15B 2610   2.979   5.059   7.692 -4.0919 -0.0104 -0.0667
   36CHL1   C16 2611   3.064   5.215   7.832 -0.5347 -0.4865 -0.1284
   36CHL1  H16A 2612   2.994   5.249   7.911 -1.5376 -0.3274 -1.0514
   36CHL1  H16B 2613   3.124   5.132   7.874  0.8576 -0.1016 -1.2520
   36CHL1   C17 2614   3.161   5.327   7.780  0.5614 -0.5236  0.4418
   36CHL1   H17 2615   3.249   5.264   7.755  1.5256  0.1478  2.0174
   36CHL1   C13 2616   3.098   5.383   7.657  0.1226 -0.5315  0.4848
   36CHL1   C18 2617   2.974   5.462   7.710 -0.3943  0.9386  0.2662
   36CHL1  H18A 2618   3.017   5.549   7.764  1.7156 -0.5973  1.1649
   36CHL1  H18B 2619   2.912   5.503   7.627 -0.8862 -0.7295 -0.2228
   36CHL1  H18C 2620   2.919   5.400   7.784  2.0605  0.5469  1.8589
   36CHL1   C12 2621   3.181   5.464   7.555 -0.8153 -0.0183  1.1330
   36CHL1  H12A 2622   3.206   5.565   7.594 -3.0121  0.9192  0.3145
   36CHL1  H12B 2623   3.263   5.394   7.532 -1.8362 -0.9777  0.2917
   36CHL1   C11 2624   3.104   5.485   7.423 -0.0068 -0.0860  0.3872
   36CHL1  H11A 2625   3.020   5.555   7.445 -0.3252 -0.1652 -0.5327
   36CHL1  H11B 2626   3.175   5.538   7.356 -1.1028 -0.5112 -1.1846
   36CHL1    C9 2627   3.053   5.351   7.361  0.1617  0.2870  0.1151
   36CHL1    H9 2628   3.137   5.280   7.347  0.3407  0.3766  0.7362
   36CHL1   C10 2629   2.980   5.359   7.226  0.2355  0.4141  0.0332
   36CHL1   C19 2630   2.862   5.467   7.240 -0.3598  0.4464 -0.3878
   36CHL1  H19A 2631   2.809   5.463   7.142  0.7233 -2.3178 -0.9441
   36CHL1  H19B 2632   2.798   5.429   7.322  0.7907  1.3305  0.9473
   36CHL1  H19C 2633   2.895   5.570   7.266  0.7369  0.1488 -0.5596
   36CHL1    C1 2634   3.085   5.410   7.122 -0.1677  0.5319 -0.5964
   36CHL1   H1A 2635   3.114   5.513   7.151  0.3946 -0.4844  3.0626
   36CHL1   H1B 2636   3.176   5.349   7.143 -0.5170  0.3423  0.4368
   36CHL1    C2 2637   3.030   5.400   6.977 -0.1998 -0.6360  0.4755
   36CHL1   H2A 2638   3.099   5.419   6.893 -1.5925  1.4486 -0.2729
   36CHL1   H2B 2639   2.942   5.467   6.969  0.0284 -0.3761  0.0941
   36CHL1   C20 2640   3.198   5.426   7.892 -0.1166 -0.3508  0.6741
   36CHL1   H20 2641   3.097   5.467   7.912 -1.0292 -1.7747 -0.7959
   36CHL1   C21 2642   3.306   5.530   7.864  0.0412 -0.7423 -0.0258
   36CHL1  H21A 2643   3.407   5.485   7.871 -0.9205 -2.8723  1.5190
   36CHL1  H21B 2644   3.312   5.606   7.945 -0.2357  0.6441 -1.2819
   36CHL1  H21C 2645   3.288   5.585   7.769  1.0810 -1.8346 -0.8780
   36CHL1   C22 2646   3.239   5.354   8.020 -0.4557  0.0198 -0.1437
   36CHL1  H22A 2647   3.175   5.266   8.042 -2.1953  1.1162 -0.6427
   36CHL1  H22B 2648   3.337   5.304   8.008 -0.7509 -0.3868 -0.9336
   36CHL1   C23 2649   3.237   5.441   8.153 -0.2270 -0.3534 -0.0936
   36CHL1  H23A 2650   3.303   5.529   8.145 -1.0180  0.1476 -1.5280
   36CHL1  H23B 2651   3.137   5.489   8.156 -0.3933 -0.6944  3.0932
   36CHL1   C24 2652   3.258   5.354   8.272  0.0458  0.5298  0.0975
   36CHL1  H24A 2653   3.175   5.280   8.273  0.6644 -0.1671  0.6638
   36CHL1  H24B 2654   3.348   5.289   8.270 -0.6289 -0.5016  1.4656
   36CHL1   C25 2655   3.259   5.433   8.408  0.2026  1.2632  0.3567
   36CHL1   H25 2656   3.341   5.508   8.395 -0.9302  2.1600 -2.3571
   36CHL1   C26 2657   3.134   5.521   8.424 -0.3132  0.0351  0.1250
   36CHL1  H26A 2658   3.045   5.454   8.427 -0.2913  0.0043  2.6677
   36CHL1  H26B 2659   3.138   5.581   8.518  0.2590 -0.0087  0.1352
   36CHL1  H26C 2660   3.133   5.586   8.335 -3.2989  0.2660  0.2340
   36CHL1   C27 2661   3.282   5.340   8.525  0.1558 -0.4062 -0.8482
   36CHL1  H27A 2662   3.189   5.290   8.557  0.6836 -0.6863  0.2999
   36CHL1  H27B 2663   3.360   5.262   8.510  3.2846  1.8690  2.0868
   36CHL1  H27C 2664   3.326   5.394   8.612  0.2055 -0.1634 -1.0207
   37CHL1    C3 2665   4.443   3.061   6.884  0.2547 -0.0678  0.3490
   37CHL1    H3 2666   4.339   3.080   6.916  0.5887 -2.1387  3.0360
   37CHL1    O3 2667   4.465   3.108   6.748  0.2890  0.1191  0.4103
   37CHL1   H3' 2668   4.551   3.069   6.728 -1.1502 -3.3253  0.3600
   37CHL1    C4 2669   4.560   3.109   6.973 -0.1454 -0.0901 -0.4014
   37CHL1   H4A 2670   4.653   3.072   6.924  1.2920  3.6105 -0.8445
   37CHL1   H4B 2671   4.562   3.218   6.952  0.5979  0.0395  0.2483
   37CHL1    C5 2672   4.550   3.066   7.116  0.4444  0.5425 -0.6452
   37CHL1    C6 2673   4.542   3.149   7.225  0.0880  0.0570  0.6398
   37CHL1    H6 2674   4.544   3.258   7.213 -1.6469  0.2481  1.7362
   37CHL1    C7 2675   4.513   3.104   7.363  0.4810  0.4916  0.7084
   37CHL1   H7A 2676   4.558   3.177   7.434 -1.7503  0.1764  2.5720
   37CHL1   H7B 2677   4.404   3.102   7.384  0.2602 -2.6633 -0.1807
   37CHL1    C8 2678   4.551   2.953   7.379 -0.2916  0.6554  0.2555
   37CHL1    H8 2679   4.662   2.947   7.385 -0.3922 -0.3518  1.9575
   37CHL1   C14 2680   4.499   2.904   7.517 -0.0336  0.1251  0.6896
   37CHL1   H14 2681   4.388   2.904   7.512 -0.0622  2.5878 -0.0012
   37CHL1   C15 2682   4.529   2.988   7.649 -0.2187 -0.2624  0.8176
   37CHL1  H15A 2683   4.638   3.009   7.656  0.3141 -2.0772 -1.1086
   37CHL1  H15B 2684   4.458   3.073   7.640  0.2723 -0.0660 -1.9082
   37CHL1   C16 2685   4.496   2.892   7.757  0.3620 -0.2984 -0.0950
   37CHL1  H16A 2686   4.580   2.885   7.830  0.2761  1.0589  0.1496
   37CHL1  H16B 2687   4.407   2.929   7.814 -0.9802 -0.4969 -1.9611
   37CHL1   C17 2688   4.476   2.748   7.695  0.1438 -0.3480  0.5639
   37CHL1   H17 2689   4.371   2.729   7.664  0.4402 -1.3614  0.1481
   37CHL1   C13 2690   4.535   2.758   7.552 -1.2347 -0.0887  0.9117
   37CHL1   C18 2691   4.692   2.736   7.571 -0.0013  0.1708 -0.4237
   37CHL1  H18A 2692   4.709   2.641   7.628  1.3754  0.1584 -0.8171
   37CHL1  H18B 2693   4.740   2.724   7.472 -1.7018  2.4249 -1.6195
   37CHL1  H18C 2694   4.737   2.804   7.646 -2.2739 -0.0664  1.2701
   37CHL1   C12 2695   4.481   2.666   7.440 -1.0358 -0.3851 -0.1532
   37CHL1  H12A 2696   4.519   2.562   7.452 -0.3163  0.0463  1.6349
   37CHL1  H12B 2697   4.370   2.663   7.444 -1.0544 -0.6948 -0.7934
   37CHL1   C11 2698   4.512   2.713   7.295 -1.2765 -0.1801  0.7000
   37CHL1  H11A 2699   4.611   2.668   7.274 -1.2592  0.1033  0.1615
   37CHL1  H11B 2700   4.436   2.650   7.245 -0.0608 -1.9930  1.0473
   37CHL1    C9 2701   4.492   2.869   7.268  0.3708 -0.4512 -1.2595
   37CHL1    H9 2702   4.383   2.884   7.278  0.5949  0.7944 -0.4800
   37CHL1   C10 2703   4.538   2.916   7.128 -0.4515  0.2033 -0.0088
   37CHL1   C19 2704   4.671   2.839   7.097  0.3279 -0.7509 -0.1157
   37CHL1  H19A 2705   4.737   2.840   7.187 -0.1997  1.1504  0.2966
   37CHL1  H19B 2706   4.649   2.739   7.055  0.9934 -0.8424 -0.2647
   37CHL1  H19C 2707   4.709   2.877   7.000 -2.4237 -2.1457 -1.8403
   37CHL1    C1 2708   4.425   2.867   7.034  0.4851  0.0556 -0.0464
   37CHL1   H1A 2709   4.414   2.757   7.043 -4.4553  0.1690 -1.4769
   37CHL1   H1B 2710   4.326   2.903   7.071  0.9875 -0.1353  1.5438
   37CHL1    C2 2711   4.446   2.905   6.885 -0.2728  0.1720  0.0506
   37CHL1   H2A 2712   4.364   2.868   6.820 -2.0606  0.5780  1.9661
   37CHL1   H2B 2713   4.549   2.876   6.856  1.1224  1.2155  3.3936
   37CHL1   C20 2714   4.514   2.635   7.789 -0.0013 -0.3093 -0.5437
   37CHL1   H20 2715   4.618   2.646   7.826  0.5557 -1.1160 -1.7827
   37CHL1   C21 2716   4.493   2.501   7.722 -0.0166  0.1311  0.2785
   37CHL1  H21A 2717   4.551   2.495   7.628 -2.2478 -1.7741 -1.0769
   37CHL1  H21B 2718   4.383   2.490   7.710 -0.8444  3.2231  3.3815
   37CHL1  H21C 2719   4.540   2.424   7.787  0.7373 -0.3218 -0.7934
   37CHL1   C22 2720   4.431   2.647   7.923 -0.1747 -0.7232 -0.6273
   37CHL1  H22A 2721   4.471   2.733   7.979  0.1966 -2.2157  1.5200
   37CHL1  H22B 2722   4.324   2.672   7.905 -0.5934 -0.1469  2.2437
   37CHL1   C23 2723   4.460   2.539   8.027  0.1939 -0.0976 -0.1840
   37CHL1  H23A 2724   4.421   2.449   7.977 -0.1644 -0.3680  0.5670
   37CHL1  H23B 2725   4.571   2.529   8.023  0.3345  1.5705 -1.5845
   37CHL1   C24 2726   4.389   2.565   8.158  0.0378 -0.8244 -0.6599
   37CHL1  H24A 2727   4.420   2.666   8.190  2.7148 -1.7538 -0.0524
   37CHL1  H24B 2728   4.278   2.559   8.146  0.0137  0.4693 -1.2162
   37CHL1   C25 2729   4.411   2.464   8.276  0.4136 -0.1027 -0.2823
   37CHL1   H25 2730   4.353   2.377   8.237  0.8824 -1.5690  2.1091
   37CHL1   C26 2731   4.566   2.422   8.290  0.1556 -0.5478 -0.2782
   37CHL1  H26A 2732   4.577   2.344   8.368  3.1143 -1.2122 -1.2456
   37CHL1  H26B 2733   4.615   2.383   8.198  0.2605 -2.2462  0.4611
   37CHL1  H26C 2734   4.621   2.509   8.332 -0.8432  0.2404 -0.5345
   37CHL1   C27 2735   4.349   2.520   8.408  0.2938  0.1886  0.1780
   37CHL1  H27A 2736   4.383   2.620   8.443 -0.8740 -0.4731  3.5367
   37CHL1  H27B 2737   4.239   2.517   8.388  0.6008  0.0529 -1.7100
   37CHL1  H27C 2738   4.375   2.460   8.497 -0.6880 -0.0321  0.3289
   38CHL1    C3 2739   5.982   0.716   6.543  0.0607  0.5747  0.1469
   38CHL1    H3 2740   5.880   0.760   6.535 -0.6060 -1.0854 -0.9617
   38CHL1    O3 2741   6.045   0.718   6.420 -0.3926  0.2280 -0.3844
   38CHL1   H3' 2742   6.130   0.673   6.428 -0.3901  0.5206  2.1800
   38CHL1    C4 2743   6.055   0.794   6.647 -0.2837 -0.3608 -0.3019
   38CHL1   H4A 2744   6.159   0.756   6.639  1.0100  2.1138  2.6992
   38CHL1   H4B 2745   6.067   0.899   6.614 -3.3414  0.6784  1.4586
   38CHL1    C5 2746   6.021   0.789   6.799 -0.4537  0.4163  0.5063
   38CHL1    C6 2747   6.019   0.897   6.874 -0.4301  0.3541 -0.3159
   38CHL1    H6 2748   6.047   0.995   6.832 -2.1035  1.5133  1.0910
   38CHL1    C7 2749   5.988   0.887   7.027 -0.0215 -0.3140 -0.3458
   38CHL1   H7A 2750   6.072   0.937   7.079  1.1047 -2.7188  0.2824
   38CHL1   H7B 2751   5.898   0.948   7.052  0.0165 -0.5134  0.2874
   38CHL1    C8 2752   5.981   0.739   7.091 -0.3184 -0.0183  0.8720
   38CHL1    H8 2753   6.087   0.714   7.114 -0.1711 -0.5852 -0.3732
   38CHL1   C14 2754   5.902   0.736   7.217 -0.7725  1.5348 -0.0410
   38CHL1   H14 2755   5.796   0.758   7.189 -1.7016 -1.4077  0.7899
   38CHL1   C15 2756   5.930   0.838   7.331  0.1713  0.2969  0.1436
   38CHL1  H15A 2757   6.041   0.843   7.337  0.3599 -2.6639  0.2981
   38CHL1  H15B 2758   5.903   0.942   7.302 -0.3520  0.8374  2.3767
   38CHL1   C16 2759   5.881   0.775   7.459  0.7007  0.2398  0.0947
   38CHL1  H16A 2760   5.967   0.771   7.529 -0.6372  1.1036  1.8658
   38CHL1  H16B 2761   5.810   0.839   7.515 -1.2459  0.1035 -2.0640
   38CHL1   C17 2762   5.813   0.641   7.417 -0.6786  0.6283 -0.2832
   38CHL1   H17 2763   5.709   0.666   7.388 -1.0997  0.5055  1.0782
   38CHL1   C13 2764   5.895   0.602   7.290  0.0264 -0.4775 -0.0105
   38CHL1   C18 2765   6.036   0.549   7.327 -0.5510 -0.1742  0.0814
   38CHL1  H18A 2766   6.088   0.599   7.412 -1.3362  0.2857  0.3031
   38CHL1  H18B 2767   6.032   0.442   7.358 -3.8721 -0.4647 -0.9610
   38CHL1  H18C 2768   6.095   0.542   7.233  0.1347 -1.9211  0.5919
   38CHL1   C12 2769   5.828   0.502   7.189 -0.1116 -0.8202  0.0562
   38CHL1  H12A 2770   5.819   0.401   7.233  1.1316  0.4716  3.6476
   38CHL1  H12B 2771   5.725   0.541   7.170  0.9005  2.8868  1.2842
   38CHL1   C11 2772   5.894   0.490   7.047  0.2586 -0.0072 -0.1400
   38CHL1  H11A 2773   5.991   0.438   7.060  0.3982  0.4114  0.5728
   38CHL1  H11B 2774   5.822   0.446   6.975 -0.3458  1.1622 -0.2818
   38CHL1    C9 2775   5.921   0.636   6.989  0.0871  0.2731  0.7947
   38CHL1    H9 2776   5.819   0.675   6.971  0.9735  0.8015 -5.0340
   38CHL1   C10 2777   5.989   0.647   6.846 -0.1552 -0.0505  0.0428
   38CHL1   C19 2778   6.120   0.571   6.862  0.3092  0.5534 -0.1057
   38CHL1  H19A 2779   6.203   0.623   6.916 -1.3057 -0.4295  3.6443
   38CHL1  H19B 2780   6.119   0.468   6.904  0.7303  1.0389  1.1495
   38CHL1  H19C 2781   6.169   0.549   6.765  0.7492 -2.4931  0.6960
   38CHL1    C1 2782   5.903   0.572   6.742  0.7661 -0.1254  0.1615
   38CHL1   H1A 2783   5.908   0.465   6.774 -0.0752  0.0880  1.0446
   38CHL1   H1B 2784   5.794   0.591   6.755  0.3328 -3.0392  1.7389
   38CHL1    C2 2785   5.956   0.574   6.598  0.3992  0.9458 -0.1300
   38CHL1   H2A 2786   5.884   0.520   6.532 -0.0311  0.8660  0.4029
   38CHL1   H2B 2787   6.053   0.519   6.597  0.0120  0.1672  1.6889
   38CHL1   C20 2788   5.805   0.546   7.530  0.1312 -0.5966 -0.3415
   38CHL1   H20 2789   5.908   0.530   7.570 -0.4725  2.7815  3.3363
   38CHL1   C21 2790   5.744   0.412   7.496  0.5453 -0.0381  0.6302
   38CHL1  H21A 2791   5.801   0.369   7.411 -1.4879 -0.4269 -0.5920
   38CHL1  H21B 2792   5.644   0.418   7.449  1.1465  0.7704 -0.6054
   38CHL1  H21C 2793   5.739   0.346   7.586 -0.0644 -0.4190  0.3187
   38CHL1   C22 2794   5.739   0.611   7.667  0.0805 -0.4446  0.4609
   38CHL1  H22A 2795   5.762   0.720   7.672  2.3604 -0.7811 -1.0227
   38CHL1  H22B 2796   5.629   0.601   7.651  0.3100 -1.7609 -0.4935
   38CHL1   C23 2797   5.785   0.552   7.797 -0.4465 -0.2809  0.6048
   38CHL1  H23A 2798   5.756   0.445   7.796 -1.2829 -0.0536 -0.2242
   38CHL1  H23B 2799   5.896   0.559   7.805 -0.4421 -1.0571  1.3085
   38CHL1   C24 2800   5.717   0.626   7.915 -0.7229  0.3091  0.2201
   38CHL1  H24A 2801   5.739   0.735   7.926  0.4970  0.2960 -1.6591
   38CHL1  H24B 2802   5.609   0.625   7.890 -0.2315  1.2745 -2.1748
   38CHL1   C25 2803   5.737   0.552   8.051 -0.1154  0.0226  0.4558
   38CHL1   H25 2804   5.683   0.455   8.042 -1.6008  0.7752  0.9930
   38CHL1   C26 2805   5.889   0.543   8.092 -0.5011 -0.3498 -0.2922
   38CHL1  H26A 2806   5.948   0.480   8.022  0.1525  2.5416 -2.5718
   38CHL1  H26B 2807   5.937   0.644   8.086 -0.6879 -0.1856  0.7439
   38CHL1  H26C 2808   5.893   0.514   8.199 -2.0602  3.0114  0.8304
   38CHL1   C27 2809   5.649   0.621   8.162  0.6598 -0.0256 -0.1317
   38CHL1  H27A 2810   5.540   0.619   8.140  0.0180  0.6065  2.5416
   38CHL1  H27B 2811   5.657   0.568   8.259 -0.3643  1.4991  0.8405
   38CHL1  H27C 2812   5.669   0.729   8.178  0.7830  0.1888 -1.6158
   39CHL1    C3 2813   5.478   0.036   6.911 -0.1816  0.3806  1.4395
   39CHL1    H3 2814   5.570   0.093   6.935  0.4997  0.3977 -0.9589
   39CHL1    O3 2815   5.445   0.068   6.773  0.1096 -0.9776 -0.1431
   39CHL1   H3' 2816   5.366   0.122   6.785  0.5789 -0.8472  3.2087
   39CHL1    C4 2817   5.511  -0.117   6.916 -0.5165  0.7736 -0.2541
   39CHL1   H4A 2818   5.415  -0.171   6.896 -0.9154  1.0632  0.7911
   39CHL1   H4B 2819   5.579  -0.145   6.834  0.0097 -1.4581  0.8513
   39CHL1    C5 2820   5.570  -0.144   7.050  0.8845 -0.1501  0.0147
   39CHL1    C6 2821   5.694  -0.194   7.066  0.1261 -0.0995 -0.3347
   39CHL1    H6 2822   5.758  -0.214   6.979  0.3698 -3.2048  0.4391
   39CHL1    C7 2823   5.739  -0.222   7.203  0.7368 -0.4567  0.8196
   39CHL1   H7A 2824   5.793  -0.319   7.215 -0.5471 -1.4563 -0.9920
   39CHL1   H7B 2825   5.802  -0.133   7.221 -0.1276  0.7178 -1.5891
   39CHL1    C8 2826   5.634  -0.225   7.319  0.0422 -0.1893  0.0033
   39CHL1    H8 2827   5.572  -0.315   7.302 -0.9693  0.5475 -0.2959
   39CHL1   C14 2828   5.705  -0.219   7.455  0.1722  0.1233 -0.5647
   39CHL1   H14 2829   5.759  -0.124   7.476 -0.6209  0.2021  1.3417
   39CHL1   C15 2830   5.815  -0.321   7.482 -0.4267 -0.2527  0.5442
   39CHL1  H15A 2831   5.787  -0.420   7.439 -3.2813  0.4142  0.7129
   39CHL1  H15B 2832   5.915  -0.284   7.450 -1.1171  0.9643 -0.3055
   39CHL1   C16 2833   5.807  -0.338   7.637 -0.2799  0.4018  0.1919
   39CHL1  H16A 2834   5.789  -0.445   7.661 -0.5070  0.7976  1.9435
   39CHL1  H16B 2835   5.905  -0.307   7.681 -0.1970  0.2641  0.1051
   39CHL1   C17 2836   5.693  -0.244   7.687 -0.0814 -0.2677  0.5824
   39CHL1   H17 2837   5.720  -0.136   7.689 -0.3927 -0.0398 -2.9010
   39CHL1   C13 2838   5.602  -0.237   7.567 -0.0553 -0.6167  0.3842
   39CHL1   C18 2839   5.516  -0.365   7.566  0.6284 -0.0908  0.1750
   39CHL1  H18A 2840   5.461  -0.381   7.470  0.1749  2.8379 -0.1329
   39CHL1  H18B 2841   5.587  -0.449   7.582 -1.0789 -1.2397  2.2366
   39CHL1  H18C 2842   5.445  -0.365   7.651  1.1662  2.6664  0.6915
   39CHL1   C12 2843   5.511  -0.110   7.560  0.6804 -0.0468  1.0704
   39CHL1  H12A 2844   5.421  -0.125   7.623  0.9798 -1.3092  1.2300
   39CHL1  H12B 2845   5.557  -0.010   7.580  2.7483 -0.9859  1.3464
   39CHL1   C11 2846   5.449  -0.102   7.418  0.5035  0.2320 -0.2122
   39CHL1  H11A 2847   5.395  -0.199   7.417  0.8249  0.0360  0.6428
   39CHL1  H11B 2848   5.383  -0.013   7.411 -0.3678 -0.4874 -1.6826
   39CHL1    C9 2849   5.537  -0.107   7.301 -0.6426 -0.1918 -0.2816
   39CHL1    H9 2850   5.596  -0.012   7.300  1.1434 -1.2541 -0.9280
   39CHL1   C10 2851   5.472  -0.109   7.161  0.0937  0.5965 -0.7968
   39CHL1   C19 2852   5.362  -0.215   7.165  0.2994  0.6454  0.1395
   39CHL1  H19A 2853   5.378  -0.323   7.187 -2.0231 -0.0301 -1.0957
   39CHL1  H19B 2854   5.279  -0.197   7.237 -2.0954 -3.2025 -1.3202
   39CHL1  H19C 2855   5.319  -0.230   7.064  0.3917  0.7492  0.0846
   39CHL1    C1 2856   5.404   0.035   7.142 -0.2686  0.1405 -1.4063
   39CHL1   H1A 2857   5.316   0.039   7.210  1.0418  1.5476  0.2814
   39CHL1   H1B 2858   5.466   0.116   7.186 -0.9317 -0.0762 -0.0312
   39CHL1    C2 2859   5.353   0.056   6.994  0.0534  0.4154 -0.3399
   39CHL1   H2A 2860   5.323   0.162   7.009  2.4552  1.2578 -1.0716
   39CHL1   H2B 2861   5.270  -0.017   6.980  2.2997 -2.4578  0.4160
   39CHL1   C20 2862   5.639  -0.280   7.830 -0.3630  0.6253 -0.5436
   39CHL1   H20 2863   5.596  -0.382   7.837  0.9198  0.1781  1.6987
   39CHL1   C21 2864   5.530  -0.187   7.884  0.6494 -0.2824  0.6282
   39CHL1  H21A 2865   5.573  -0.085   7.892  1.4929 -0.2441 -2.7222
   39CHL1  H21B 2866   5.491  -0.226   7.980 -0.6353  0.6065  0.5067
   39CHL1  H21C 2867   5.440  -0.180   7.818  1.1841 -0.1637 -0.0974
   39CHL1   C22 2868   5.754  -0.261   7.944 -0.7097 -0.5806 -0.5268
   39CHL1  H22A 2869   5.829  -0.328   7.898 -0.4030  0.7210 -2.0158
   39CHL1  H22B 2870   5.796  -0.159   7.938 -0.9761 -0.4963 -1.1441
   39CHL1   C23 2871   5.716  -0.299   8.082 -0.1017  0.6340 -0.6222
   39CHL1  H23A 2872   5.665  -0.224   8.147  1.3397 -0.1369  1.5116
   39CHL1  H23B 2873   5.644  -0.383   8.085 -0.2272  0.7170  2.2373
   39CHL1   C24 2874   5.848  -0.349   8.151  0.6737 -0.3299  0.2975
   39CHL1  H24A 2875   5.870  -0.451   8.112  2.0627 -0.5659  1.6093
   39CHL1  H24B 2876   5.923  -0.269   8.133 -1.2085  1.0931 -1.6815
   39CHL1   C25 2877   5.842  -0.356   8.307  0.6806 -0.3156  0.2496
   39CHL1   H25 2878   5.801  -0.257   8.339 -0.6404 -0.3057 -1.3392
   39CHL1   C26 2879   5.759  -0.470   8.358  0.0997 -0.4961 -0.3284
   39CHL1  H26A 2880   5.651  -0.446   8.346  0.1445  0.5368  1.0567
   39CHL1  H26B 2881   5.779  -0.560   8.298 -3.3584 -0.5234 -1.6537
   39CHL1  H26C 2882   5.780  -0.487   8.466  2.3041 -0.1249 -0.6530
   39CHL1   C27 2883   5.984  -0.373   8.360  0.3785  0.6740 -0.0724
   39CHL1  H27A 2884   6.018  -0.479   8.354 -0.1510  0.3775  1.6409
   39CHL1  H27B 2885   6.069  -0.320   8.312  1.7554 -1.2477  0.0992
   39CHL1  H27C 2886   5.998  -0.344   8.466  2.0703 -0.2454 -0.0031
   40CHL1    C3 2887   0.615   5.694   6.753 -0.2989  0.2439  0.4479
   40CHL1    H3 2888   0.504   5.698   6.765 -0.3974 -0.4236 -0.2023
   40CHL1    O3 2889   0.636   5.686   6.608  0.2612  0.2703 -0.2797
   40CHL1   H3' 2890   0.731   5.703   6.605  0.6921 -0.3253  4.1993
   40CHL1    C4 2891   0.668   5.823   6.817  0.5055 -0.0976 -0.1140
   40CHL1   H4A 2892   0.777   5.832   6.800  0.7349  0.5299  1.5191
   40CHL1   H4B 2893   0.623   5.917   6.778 -0.0866  0.9476  2.8548
   40CHL1    C5 2894   0.647   5.834   6.964 -0.5392 -0.6823 -0.1296
   40CHL1    C6 2895   0.589   5.931   7.030 -0.0670  0.1756  0.8511
   40CHL1    H6 2896   0.551   6.019   6.977 -0.5929 -0.6941 -0.2685
   40CHL1    C7 2897   0.584   5.946   7.180  0.0616  0.5010  0.1499
   40CHL1   H7A 2898   0.617   6.049   7.206  0.2861  0.2481  0.8967
   40CHL1   H7B 2899   0.481   5.924   7.215  0.8130  0.6087  2.6376
   40CHL1    C8 2900   0.678   5.844   7.260 -0.2989 -0.7465 -0.1037
   40CHL1    H8 2901   0.780   5.888   7.251 -0.6118 -0.1298 -0.6427
   40CHL1   C14 2902   0.652   5.830   7.401 -0.1666  0.0967  0.3665
   40CHL1   H14 2903   0.552   5.781   7.398 -0.8195  1.4417 -1.1292
   40CHL1   C15 2904   0.641   5.963   7.478 -0.4830 -0.5203 -0.1790
   40CHL1  H15A 2905   0.723   6.030   7.445 -1.7186  1.3415  0.3571
   40CHL1  H15B 2906   0.542   6.012   7.467  0.1248  1.6001  2.6211
   40CHL1   C16 2907   0.667   5.911   7.620  0.4771 -0.2097 -0.3391
   40CHL1  H16A 2908   0.761   5.952   7.662  0.7438 -2.2995  1.2595
   40CHL1  H16B 2909   0.583   5.948   7.682 -0.4805  0.7568 -2.1434
   40CHL1   C17 2910   0.680   5.760   7.623 -0.1360 -0.3752  0.2207
   40CHL1   H17 2911   0.576   5.721   7.625 -1.8835  3.6940  2.7958
   40CHL1   C13 2912   0.742   5.737   7.483  0.2751 -0.3933 -0.1049
   40CHL1   C18 2913   0.886   5.783   7.486  0.3048 -0.0868  0.3470
   40CHL1  H18A 2914   0.944   5.709   7.545  0.1451 -0.8525 -0.4364
   40CHL1  H18B 2915   0.925   5.789   7.382 -0.7624 -2.2271 -0.2165
   40CHL1  H18C 2916   0.913   5.881   7.532  1.7536  0.6291 -1.8469
   40CHL1   C12 2917   0.737   5.605   7.420  0.2535 -0.2503  0.7789
   40CHL1  H12A 2918   0.781   5.512   7.463  0.8646  0.1568  1.0562
   40CHL1  H12B 2919   0.633   5.570   7.431  1.1272 -3.8496 -1.1086
   40CHL1   C11 2920   0.758   5.603   7.268  0.2002  0.1146 -0.8977
   40CHL1  H11A 2921   0.866   5.603   7.244  0.3667 -0.5499 -0.1839
   40CHL1  H11B 2922   0.720   5.504   7.232  0.0574  0.4993 -1.8522
   40CHL1    C9 2923   0.679   5.710   7.189 -0.1443  0.0370 -0.4302
   40CHL1    H9 2924   0.574   5.673   7.194  0.2093 -0.8198  2.0832
   40CHL1   C10 2925   0.717   5.708   7.037  0.3894 -0.1006  0.0749
   40CHL1   C19 2926   0.869   5.717   7.016  0.3028  0.1315 -0.7007
   40CHL1  H19A 2927   0.928   5.634   7.060  1.8248  0.0024 -2.7986
   40CHL1  H19B 2928   0.895   5.712   6.908  0.7644 -1.7605 -0.5417
   40CHL1  H19C 2929   0.913   5.812   7.052 -2.2196  1.2422 -0.3435
   40CHL1    C1 2930   0.640   5.589   6.973 -0.1291 -0.1513  0.1321
   40CHL1   H1A 2931   0.654   5.496   7.032 -0.1800  0.5047  1.2232
   40CHL1   H1B 2932   0.531   5.614   6.973 -0.1887  0.1220 -3.5410
   40CHL1    C2 2933   0.670   5.570   6.824 -0.4863 -0.0754  0.0123
   40CHL1   H2A 2934   0.617   5.480   6.787  0.0570 -0.5005  0.2564
   40CHL1   H2B 2935   0.777   5.541   6.815 -0.4632 -0.2460  0.7896
   40CHL1   C20 2936   0.745   5.712   7.751 -0.0856  0.6640 -0.4418
   40CHL1   H20 2937   0.835   5.772   7.775  0.1524  0.6032 -1.1607
   40CHL1   C21 2938   0.775   5.557   7.740  0.9085 -0.2782  0.3356
   40CHL1  H21A 2939   0.862   5.557   7.671  1.4620  2.2089  0.9322
   40CHL1  H21B 2940   0.691   5.494   7.702 -2.1454  2.3919  2.1060
   40CHL1  H21C 2941   0.811   5.510   7.834 -0.1807 -0.4153  0.7034
   40CHL1   C22 2942   0.647   5.739   7.871 -0.1231 -0.2472 -0.3482
   40CHL1  H22A 2943   0.615   5.845   7.881  0.2377  0.0251 -1.8843
   40CHL1  H22B 2944   0.549   5.687   7.877  0.5721 -1.5568  0.0130
   40CHL1   C23 2945   0.718   5.704   7.997 -0.5643 -1.1219 -0.2202
   40CHL1  H23A 2946   0.714   5.593   8.005 -1.7858 -1.2559 -2.3158
   40CHL1  H23B 2947   0.824   5.738   7.991 -0.8907  0.1715  0.8988
   40CHL1   C24 2948   0.654   5.766   8.122 -0.3717 -0.7581  0.3728
   40CHL1  H24A 2949   0.674   5.874   8.136  0.4238 -1.0191  1.3799
   40CHL1  H24B 2950   0.545   5.760   8.104 -0.3065  1.2768 -0.9322
   40CHL1   C25 2951   0.689   5.708   8.262 -0.0073  0.0032 -0.5325
   40CHL1   H25 2952   0.642   5.783   8.329  1.2891  1.5182 -1.2192
   40CHL1   C26 2953   0.631   5.572   8.296 -0.2291  0.0435 -0.3320
   40CHL1  H26A 2954   0.687   5.498   8.235  2.9940  0.7703  1.5330
   40CHL1  H26B 2955   0.653   5.545   8.401 -0.4424 -0.4091 -0.4007
   40CHL1  H26C 2956   0.522   5.570   8.275 -0.4506  5.0170 -0.8523
   40CHL1   C27 2957   0.838   5.701   8.289  0.2740  0.0171 -0.6815
   40CHL1  H27A 2958   0.891   5.634   8.219  0.5069 -2.6725  1.8803
   40CHL1  H27B 2959   0.885   5.802   8.283 -0.3390  0.4545  1.2588
   40CHL1  H27C 2960   0.863   5.659   8.388  2.3686  1.0794 -0.7054
   41CHL1    C3 2961   0.357   5.353   6.970 -0.0197  0.0965  0.5299
   41CHL1    H3 2962   0.385   5.453   7.010  1.7282  1.2262 -3.0777
   41CHL1    O3 2963   0.357   5.365   6.828 -0.9270 -0.1997  0.1085
   41CHL1   H3' 2964   0.287   5.425   6.802 -0.3108 -0.0826 -1.3444
   41CHL1    C4 2965   0.451   5.248   7.012 -0.1535 -0.0785  0.0222
   41CHL1   H4A 2966   0.434   5.161   6.945 -0.7122 -1.1244  1.4660
   41CHL1   H4B 2967   0.557   5.263   6.983  0.6207 -3.4412  0.6547
   41CHL1    C5 2968   0.440   5.228   7.163  0.2112  0.6987 -0.3091
   41CHL1    C6 2969   0.544   5.233   7.239  0.3716 -0.3463 -0.3227
   41CHL1    H6 2970   0.631   5.276   7.187 -0.8497  0.0314 -2.1454
   41CHL1    C7 2971   0.547   5.199   7.388  0.6716  0.0657  0.3697
   41CHL1   H7A 2972   0.639   5.146   7.419  0.0545 -0.7950  0.7939
   41CHL1   H7B 2973   0.548   5.293   7.447  0.3215  0.6108 -0.4611
   41CHL1    C8 2974   0.431   5.114   7.432  0.1163 -0.4747  0.2633
   41CHL1    H8 2975   0.440   5.016   7.379 -0.0265  0.2117 -1.0721
   41CHL1   C14 2976   0.424   5.104   7.583 -1.2367 -0.6497 -0.4747
   41CHL1   H14 2977   0.399   5.207   7.616 -1.7380 -0.4546 -1.4261
   41CHL1   C15 2978   0.552   5.064   7.658  0.3252  0.2855 -0.7097
   41CHL1  H15A 2979   0.585   4.964   7.623 -0.7060 -0.1710 -0.4195
   41CHL1  H15B 2980   0.632   5.141   7.655  0.8438 -0.1316  1.0337
   41CHL1   C16 2981   0.501   5.027   7.799 -1.1744 -0.0697 -0.1711
   41CHL1  H16A 2982   0.531   4.922   7.820 -2.2128 -0.4689 -0.6254
   41CHL1  H16B 2983   0.536   5.090   7.884 -1.3465  0.7228 -0.6766
   41CHL1   C17 2984   0.342   5.035   7.796 -1.0578  0.4605  0.6570
   41CHL1   H17 2985   0.316   5.140   7.822  1.1800  1.9721 -2.4029
   41CHL1   C13 2986   0.308   5.029   7.641 -0.2633 -0.0272  0.1827
   41CHL1   C18 2987   0.313   4.880   7.583  0.1265 -0.1081 -0.1542
   41CHL1  H18A 2988   0.395   4.833   7.641  1.1634 -0.7959 -2.1011
   41CHL1  H18B 2989   0.215   4.831   7.598 -0.3580  1.2885  1.6777
   41CHL1  H18C 2990   0.336   4.863   7.476 -0.3087 -0.6815 -0.1585
   41CHL1   C12 2991   0.181   5.095   7.594  0.0701 -0.0531 -0.0955
   41CHL1  H12A 2992   0.091   5.044   7.635 -1.3095 -0.7984 -3.6886
   41CHL1  H12B 2993   0.182   5.203   7.619  0.4176 -0.2882  0.9651
   41CHL1   C11 2994   0.176   5.100   7.435  0.3765 -0.4879  0.3823
   41CHL1  H11A 2995   0.150   4.999   7.397  3.0821 -0.9535 -0.3876
   41CHL1  H11B 2996   0.077   5.150   7.422  0.1376 -0.3336  2.4481
   41CHL1    C9 2997   0.300   5.169   7.370  0.4709  0.1036  0.3577
   41CHL1    H9 2998   0.300   5.271   7.414 -0.8886 -0.2251  1.1813
   41CHL1   C10 2999   0.301   5.187   7.214 -0.5378 -0.3044 -0.1444
   41CHL1   C19 3000   0.280   5.045   7.149 -0.0798  0.4058  0.3630
   41CHL1  H19A 3001   0.188   4.994   7.184 -0.1656 -0.2352 -0.7450
   41CHL1  H19B 3002   0.272   5.048   7.038  0.5559 -2.7610  0.1219
   41CHL1  H19C 3003   0.354   4.969   7.183 -1.3536 -0.1857  1.9409
   41CHL1    C1 3004   0.194   5.288   7.162 -0.2851 -0.5755  0.4671
   41CHL1   H1A 3005   0.090   5.249   7.169 -0.8186  0.5478 -0.6984
   41CHL1   H1B 3006   0.195   5.382   7.222  1.5254  0.5051 -1.1396
   41CHL1    C2 3007   0.218   5.319   7.011 -0.4999 -0.1447 -0.0082
   41CHL1   H2A 3008   0.146   5.402   6.994  0.6147  0.8554 -0.0496
   41CHL1   H2B 3009   0.178   5.231   6.956 -0.2548  0.2218 -0.7945
   41CHL1   C20 3010   0.284   4.946   7.903 -0.6334 -0.3956  0.3449
   41CHL1   H20 3011   0.317   4.843   7.878 -1.2106 -0.1761 -1.4289
   41CHL1   C21 3012   0.130   4.953   7.889 -0.6275  0.1128  0.2137
   41CHL1  H21A 3013   0.085   5.055   7.890  2.5804  1.6464 -0.6592
   41CHL1  H21B 3014   0.080   4.870   7.943  0.9506 -1.2267 -0.3203
   41CHL1  H21C 3015   0.114   4.911   7.787  0.8064 -2.0144  0.8103
   41CHL1   C22 3016   0.335   4.992   8.045  0.5158  0.3408 -0.3300
   41CHL1  H22A 3017   0.444   4.971   8.044  0.3724 -0.7158 -2.9164
   41CHL1  H22B 3018   0.314   5.100   8.058 -0.5357  0.3131 -1.5147
   41CHL1   C23 3019   0.264   4.921   8.162  0.0059  0.3602 -0.8142
   41CHL1  H23A 3020   0.163   4.966   8.173 -0.1055  0.1942 -1.1365
   41CHL1  H23B 3021   0.241   4.815   8.138  1.6393  0.3959 -2.7808
   41CHL1   C24 3022   0.347   4.943   8.291  0.1544 -0.3716  0.2106
   41CHL1  H24A 3023   0.402   4.847   8.305  0.2102 -0.3793 -0.0675
   41CHL1  H24B 3024   0.413   5.030   8.272 -0.9590  0.1600 -1.3751
   41CHL1   C25 3025   0.266   4.964   8.419  0.9661 -0.0561  0.3716
   41CHL1   H25 3026   0.190   5.044   8.408  0.6552 -0.5907 -1.8784
   41CHL1   C26 3027   0.200   4.831   8.455 -0.7165 -0.4343  0.0021
   41CHL1  H26A 3028   0.124   4.845   8.534  0.5168  0.9293  0.9890
   41CHL1  H26B 3029   0.140   4.787   8.372 -1.7216 -0.2024  0.5949
   41CHL1  H26C 3030   0.275   4.751   8.473  2.0549  2.3119  1.5791
   41CHL1   C27 3031   0.359   5.007   8.536  0.4357 -0.1187  0.1874
   41CHL1  H27A 3032   0.435   4.931   8.568  0.6372  0.1760  0.4191
   41CHL1  H27B 3033   0.412   5.101   8.509 -1.6813  0.7329 -1.2474
   41CHL1  H27C 3034   0.299   5.032   8.626 -1.4351 -2.7321 -0.2099
   42CHL1    C3 3035   1.600   1.981   6.969 -0.2080 -0.2891 -0.0021
   42CHL1    H3 3036   1.683   1.986   7.043 -0.1324  0.1223 -0.1123
   42CHL1    O3 3037   1.643   1.896   6.863  0.0978 -0.2363  0.4992
   42CHL1   H3' 3038   1.566   1.868   6.812  0.7052  0.3851 -0.8114
   42CHL1    C4 3039   1.480   1.918   7.041  0.1300  0.1328  0.3129
   42CHL1   H4A 3040   1.398   1.896   6.969 -0.6674 -0.5541  1.4049
   42CHL1   H4B 3041   1.517   1.820   7.078  3.8005  1.6311  1.0692
   42CHL1    C5 3042   1.434   2.009   7.157 -0.3691 -0.4170 -0.1922
   42CHL1    C6 3043   1.428   1.956   7.277 -0.3607 -0.5353 -0.7421
   42CHL1    H6 3044   1.463   1.853   7.289  1.1793  0.0396 -0.0652
   42CHL1    C7 3045   1.388   2.033   7.403  0.5588 -0.1592 -0.8840
   42CHL1   H7A 3046   1.323   1.972   7.469  0.1365  0.1305 -1.0281
   42CHL1   H7B 3047   1.485   2.046   7.457  1.1324 -0.3814 -1.8377
   42CHL1    C8 3048   1.317   2.165   7.361  0.4937 -0.0949 -0.2378
   42CHL1    H8 3049   1.215   2.138   7.325  0.1915 -1.6121  1.6004
   42CHL1   C14 3050   1.284   2.261   7.482  0.0490 -0.6695  0.2862
   42CHL1   H14 3051   1.386   2.287   7.518 -0.0137  0.5347 -0.3499
   42CHL1   C15 3052   1.199   2.198   7.586 -0.3606 -0.6998 -0.0303
   42CHL1  H15A 3053   1.115   2.149   7.531 -0.4812 -1.0933  0.4991
   42CHL1  H15B 3054   1.253   2.122   7.645  1.1343 -1.3403 -2.1323
   42CHL1   C16 3055   1.143   2.321   7.662 -0.0467  0.3582  0.2829
   42CHL1  H16A 3056   1.032   2.314   7.653 -0.2358  0.9049  1.8615
   42CHL1  H16B 3057   1.158   2.337   7.771 -2.3123 -0.5811  0.7976
   42CHL1   C17 3058   1.191   2.450   7.578 -0.2831 -0.4087 -0.3598
   42CHL1   H17 3059   1.293   2.472   7.618  0.0836 -0.4885 -1.2357
   42CHL1   C13 3060   1.218   2.396   7.436 -0.2150 -0.1336 -0.0542
   42CHL1   C18 3061   1.087   2.375   7.361  0.4043  0.6054 -0.3106
   42CHL1  H18A 3062   1.081   2.287   7.294  3.2156  1.2679 -1.5842
   42CHL1  H18B 3063   0.994   2.367   7.420 -0.3234 -1.3754 -1.6342
   42CHL1  H18C 3064   1.071   2.454   7.284 -1.3109 -0.0351 -0.6363
   42CHL1   C12 3065   1.319   2.466   7.352 -0.0495 -0.3058 -0.4937
   42CHL1  H12A 3066   1.276   2.567   7.334 -0.5518 -0.4209  0.0064
   42CHL1  H12B 3067   1.411   2.490   7.408 -0.5371 -0.9684  0.6221
   42CHL1   C11 3068   1.353   2.387   7.230 -0.1343 -0.1715  0.3088
   42CHL1  H11A 3069   1.262   2.398   7.168  0.4041  0.3031 -0.4085
   42CHL1  H11B 3070   1.435   2.443   7.180 -0.2058 -0.7798 -0.5022
   42CHL1    C9 3071   1.399   2.240   7.256  0.8900 -0.3144  1.1993
   42CHL1    H9 3072   1.498   2.260   7.301  1.7060  3.1492 -1.6725
   42CHL1   C10 3073   1.407   2.160   7.121  0.6064 -0.0290 -0.2128
   42CHL1   C19 3074   1.266   2.167   7.051  0.2667  0.1045  0.6234
   42CHL1  H19A 3075   1.256   2.090   6.972 -0.3871 -1.3624  2.0798
   42CHL1  H19B 3076   1.173   2.165   7.111 -0.7043  0.9975 -0.8087
   42CHL1  H19C 3077   1.269   2.264   6.998  0.0536  1.2314  2.5915
   42CHL1    C1 3078   1.513   2.216   7.024  0.4201  0.4201 -0.6533
   42CHL1   H1A 3079   1.479   2.309   6.975 -0.7067  0.6360  0.5049
   42CHL1   H1B 3080   1.601   2.240   7.088  0.4341  1.2145 -0.9537
   42CHL1    C2 3081   1.557   2.118   6.915  0.2339 -0.4527 -0.9286
   42CHL1   H2A 3082   1.639   2.167   6.858  0.5560  0.9978  0.7079
   42CHL1   H2B 3083   1.474   2.095   6.846  1.2235 -1.3010 -1.8862
   42CHL1   C20 3084   1.100   2.566   7.602 -0.1460  0.4930  0.5445
   42CHL1   H20 3085   1.005   2.558   7.544 -1.3068 -0.0949  2.4388
   42CHL1   C21 3086   1.159   2.696   7.553 -0.1635 -0.4725 -0.1127
   42CHL1  H21A 3087   1.177   2.712   7.445  0.9606 -3.5217 -0.4830
   42CHL1  H21B 3088   1.256   2.720   7.600  0.1376 -1.7934 -0.0123
   42CHL1  H21C 3089   1.093   2.776   7.592  3.1445  0.4897  4.4019
   42CHL1   C22 3090   1.051   2.570   7.755 -0.0486 -0.6142  0.6393
   42CHL1  H22A 3091   0.974   2.649   7.764 -0.8683 -1.5163  1.8124
   42CHL1  H22B 3092   0.996   2.476   7.775  1.7134 -1.8642 -0.0516
   42CHL1   C23 3093   1.160   2.599   7.854 -0.1031  0.3905 -1.0042
   42CHL1  H23A 3094   1.221   2.509   7.879 -0.9822  0.1392  0.3666
   42CHL1  H23B 3095   1.221   2.684   7.815  0.6900  1.2954  1.8994
   42CHL1   C24 3096   1.114   2.645   7.989 -0.4884 -0.3059  0.0154
   42CHL1  H24A 3097   1.060   2.740   7.970 -1.2735 -0.7766 -0.1251
   42CHL1  H24B 3098   1.040   2.574   8.031  0.1557  0.8605  3.4837
   42CHL1   C25 3099   1.224   2.654   8.099 -1.2694  0.0323  0.6979
   42CHL1   H25 3100   1.298   2.728   8.061 -1.3635 -0.4343 -0.4323
   42CHL1   C26 3101   1.159   2.708   8.226 -0.0313 -0.4196  0.6418
   42CHL1  H26A 3102   1.074   2.651   8.269 -0.6408  0.5274  0.7072
   42CHL1  H26B 3103   1.236   2.735   8.302  0.5534  1.4778 -0.5381
   42CHL1  H26C 3104   1.107   2.801   8.196  0.2169 -0.2767  0.6497
   42CHL1   C27 3105   1.277   2.517   8.138 -0.4079  0.8128 -0.4200
   42CHL1  H27A 3106   1.188   2.457   8.167 -0.6615  1.6656  0.6282
   42CHL1  H27B 3107   1.345   2.522   8.226  0.7793  1.1221 -1.3253
   42CHL1  H27C 3108   1.324   2.465   8.052 -0.4711  1.0014 -0.5695
   43CHL1    C3 3109   1.466   6.535   6.961  0.2508  0.0871 -0.0752
   43CHL1    H3 3110   1.460   6.640   6.928  1.5129  0.3912  0.5912
   43CHL1    O3 3111   1.510   6.461   6.844  0.4744  0.2457 -0.2490
   43CHL1   H3' 3112   1.600   6.435   6.866 -0.2800 -3.0003 -0.4066
   43CHL1    C4 3113   1.572   6.527   7.083  0.3621  0.1665 -0.2704
   43CHL1   H4A 3114   1.619   6.426   7.082  2.2364  0.9888 -1.4852
   43CHL1   H4B 3115   1.646   6.604   7.054 -1.0709  2.1025  1.0113
   43CHL1    C5 3116   1.526   6.578   7.221 -0.1679  0.4344 -0.3693
   43CHL1    C6 3117   1.594   6.675   7.288 -0.3593 -0.1085 -0.6499
   43CHL1    H6 3118   1.688   6.718   7.250 -0.3069 -0.7619 -1.2767
   43CHL1    C7 3119   1.536   6.735   7.410  0.4181  0.2595  0.5527
   43CHL1   H7A 3120   1.616   6.753   7.484  1.2762 -1.2662  0.0481
   43CHL1   H7B 3121   1.487   6.830   7.380  3.1084  1.0840 -1.5989
   43CHL1    C8 3122   1.431   6.647   7.485  0.0686 -0.6284 -0.2377
   43CHL1    H8 3123   1.497   6.563   7.514 -1.7494 -2.3637 -0.8879
   43CHL1   C14 3124   1.372   6.715   7.605  0.7697 -0.0425  0.1968
   43CHL1   H14 3125   1.333   6.809   7.559  0.0632 -0.1996  0.4696
   43CHL1   C15 3126   1.466   6.763   7.715  0.1520 -0.0235 -0.0466
   43CHL1  H15A 3127   1.539   6.687   7.748 -0.4344 -0.1674  0.9501
   43CHL1  H15B 3128   1.536   6.846   7.690 -0.5001  1.1614  1.8117
   43CHL1   C16 3129   1.371   6.798   7.829 -0.6214  0.1668  0.2749
   43CHL1  H16A 3130   1.390   6.734   7.918 -0.5534 -2.1887 -1.3613
   43CHL1  H16B 3131   1.375   6.906   7.855  0.7893 -0.1242  1.4029
   43CHL1   C17 3132   1.226   6.754   7.777 -0.2435 -1.3495  1.4390
   43CHL1   H17 3133   1.194   6.846   7.725  0.5023 -0.2389  2.8643
   43CHL1   C13 3134   1.251   6.654   7.672 -0.1916 -0.0271 -0.6010
   43CHL1   C18 3135   1.293   6.523   7.741 -0.0136  0.4190 -0.1304
   43CHL1  H18A 3136   1.341   6.454   7.668 -0.0637  0.5143 -0.2521
   43CHL1  H18B 3137   1.375   6.540   7.814 -0.7860 -0.2358  0.9280
   43CHL1  H18C 3138   1.202   6.472   7.780 -1.1597  1.9470 -0.7321
   43CHL1   C12 3139   1.143   6.623   7.570 -0.2067  0.9698  0.1923
   43CHL1  H12A 3140   1.070   6.571   7.635  2.5851 -2.7444  0.6738
   43CHL1  H12B 3141   1.112   6.726   7.544  0.7604  1.2209 -0.0067
   43CHL1   C11 3142   1.197   6.539   7.448 -0.4079  0.1970  0.4244
   43CHL1  H11A 3143   1.220   6.438   7.488 -1.3228  0.1900  0.9636
   43CHL1  H11B 3144   1.113   6.527   7.377 -1.2224 -3.3363  1.7439
   43CHL1    C9 3145   1.323   6.601   7.387 -0.1630 -0.1262  0.1057
   43CHL1    H9 3146   1.291   6.697   7.342 -1.3804  0.6672  2.4896
   43CHL1   C10 3147   1.386   6.520   7.268  0.4347  0.7612  0.4830
   43CHL1   C19 3148   1.405   6.368   7.301  0.2750  0.1710 -0.0464
   43CHL1  H19A 3149   1.457   6.311   7.221  1.6733  3.4206 -1.6452
   43CHL1  H19B 3150   1.454   6.351   7.399  1.3676  0.1485 -0.5836
   43CHL1  H19C 3151   1.304   6.327   7.324  1.0029 -0.8323  1.5081
   43CHL1    C1 3152   1.283   6.531   7.150 -0.1660  0.0989 -0.6464
   43CHL1   H1A 3153   1.190   6.481   7.183  0.0080 -0.1260 -0.4959
   43CHL1   H1B 3154   1.267   6.640   7.134  1.9171  1.0676  2.7500
   43CHL1    C2 3155   1.330   6.480   7.011  0.3839 -0.1851  0.0008
   43CHL1   H2A 3156   1.264   6.507   6.926 -0.1263 -0.0324  0.4412
   43CHL1   H2B 3157   1.332   6.369   7.014  0.5132 -0.1642  1.5106
   43CHL1   C20 3158   1.113   6.733   7.885 -0.2134  0.8245  0.1731
   43CHL1   H20 3159   1.035   6.670   7.838  1.2248 -1.9299  1.2768
   43CHL1   C21 3160   1.054   6.871   7.919 -0.1578  0.8849  0.5178
   43CHL1  H21A 3161   1.131   6.930   7.975 -0.0235  3.6899 -2.3599
   43CHL1  H21B 3162   0.966   6.855   7.984 -0.6212  0.3661 -0.2247
   43CHL1  H21C 3163   1.029   6.924   7.825  0.5834  0.1557 -0.1106
   43CHL1   C22 3164   1.161   6.649   8.010  0.0124 -0.1172  0.0156
   43CHL1  H22A 3165   1.213   6.555   7.984 -1.3149 -1.2409  1.2421
   43CHL1  H22B 3166   1.240   6.706   8.064  2.1964 -2.4756 -0.5479
   43CHL1   C23 3167   1.053   6.616   8.110 -0.1280 -0.1357  0.0283
   43CHL1  H23A 3168   1.011   6.711   8.150  2.8877  1.6477 -0.7167
   43CHL1  H23B 3169   0.970   6.554   8.071  2.0125 -4.0053  1.1012
   43CHL1   C24 3170   1.108   6.544   8.238 -0.1844  0.3533  0.3914
   43CHL1  H24A 3171   1.158   6.455   8.193  0.7624  1.3513 -0.6069
   43CHL1  H24B 3172   1.185   6.603   8.291 -0.3637  0.4205  0.5753
   43CHL1   C25 3173   0.987   6.506   8.331  0.0335 -0.8332 -0.2764
   43CHL1   H25 3174   0.896   6.477   8.275 -0.6270  1.1902 -0.3172
   43CHL1   C26 3175   1.017   6.386   8.425 -0.0820 -0.4231  0.3817
   43CHL1  H26A 3176   1.053   6.301   8.364  0.2327 -0.4262  0.5712
   43CHL1  H26B 3177   1.085   6.420   8.506 -2.0385  5.2742  0.0968
   43CHL1  H26C 3178   0.921   6.353   8.471 -0.2338 -1.2390 -0.5023
   43CHL1   C27 3179   0.954   6.626   8.424 -0.0228 -0.2413  0.5973
   43CHL1  H27A 3180   1.051   6.654   8.470  1.0281  1.4987 -2.3706
   43CHL1  H27B 3181   0.929   6.714   8.360  1.2733 -1.1467 -1.2560
   43CHL1  H27C 3182   0.881   6.599   8.502  2.2256 -0.7693  2.6338
   44CHL1    C3 3183   1.128   5.242   6.720  0.7308  0.1150 -0.2675
   44CHL1    H3 3184   1.239   5.253   6.717  1.0325 -1.1255  2.9516
   44CHL1    O3 3185   1.091   5.258   6.587 -0.5148  0.1836 -0.1504
   44CHL1   H3' 3186   0.996   5.248   6.598 -0.3465 -0.0718  1.2845
   44CHL1    C4 3187   1.079   5.103   6.776 -0.5932 -0.5018  0.3654
   44CHL1   H4A 3188   0.974   5.079   6.750 -0.1447 -2.3274  0.0640
   44CHL1   H4B 3189   1.131   5.026   6.714 -0.2344  1.8753 -2.4763
   44CHL1    C5 3190   1.094   5.084   6.925  0.9294 -0.5243 -0.0885
   44CHL1    C6 3191   1.144   4.977   6.974 -0.8848  0.3346 -0.3018
   44CHL1    H6 3192   1.163   4.888   6.913 -3.4807  1.4607 -2.9724
   44CHL1    C7 3193   1.147   4.946   7.122 -0.2466  0.0184  0.2047
   44CHL1   H7A 3194   1.109   4.846   7.152 -0.8096  0.5742  1.4285
   44CHL1   H7B 3195   1.253   4.960   7.152 -0.2022  2.2947 -0.8179
   44CHL1    C8 3196   1.066   5.038   7.219 -0.0885 -0.7861  0.6155
   44CHL1    H8 3197   0.962   5.003   7.211  0.3775 -2.3848  1.2557
   44CHL1   C14 3198   1.123   5.031   7.360 -0.8410 -0.6500  0.5973
   44CHL1   H14 3199   1.230   5.063   7.357 -0.1970 -2.5551  1.0883
   44CHL1   C15 3200   1.148   4.896   7.425 -0.4219  0.3753  0.6158
   44CHL1  H15A 3201   1.051   4.841   7.424 -1.4442  2.0928  0.7794
   44CHL1  H15B 3202   1.230   4.837   7.379 -1.4321 -0.1126 -0.6354
   44CHL1   C16 3203   1.174   4.928   7.572 -0.0040  0.0753 -0.3244
   44CHL1  H16A 3204   1.110   4.861   7.633 -1.5746  0.3133 -1.6166
   44CHL1  H16B 3205   1.279   4.908   7.600  0.7680 -0.6667 -3.3375
   44CHL1   C17 3206   1.143   5.075   7.593 -0.5236 -0.2014  1.6186
   44CHL1   H17 3207   1.239   5.129   7.578 -1.4434  0.8428 -0.9928
   44CHL1   C13 3208   1.057   5.117   7.470 -0.4783  0.1007 -0.2287
   44CHL1   C18 3209   0.912   5.073   7.488 -0.6981  0.1548  0.4648
   44CHL1  H18A 3210   0.906   4.963   7.505  1.5644  0.0113  0.5862
   44CHL1  H18B 3211   0.867   5.125   7.575 -3.1859 -2.1963  0.7167
   44CHL1  H18C 3212   0.861   5.097   7.392  1.4968 -1.0918 -1.1163
   44CHL1   C12 3213   1.043   5.271   7.425 -0.5548  0.1888 -0.5725
   44CHL1  H12A 3214   0.969   5.321   7.491 -0.4790 -0.0193 -0.3310
   44CHL1  H12B 3215   1.145   5.311   7.441  0.0069 -1.1428 -0.7209
   44CHL1   C11 3216   1.004   5.282   7.277  0.5038  0.3224  0.5054
   44CHL1  H11A 3217   0.894   5.272   7.266  0.0821  0.5614  3.5210
   44CHL1  H11B 3218   1.027   5.388   7.254  1.3754  0.7313  2.9751
   44CHL1    C9 3219   1.079   5.185   7.176  0.0950  0.3331 -0.4609
   44CHL1    H9 3220   1.189   5.200   7.183  0.3581 -0.7428 -1.8078
   44CHL1   C10 3221   1.044   5.201   7.020 -0.0326 -0.4253  0.2882
   44CHL1   C19 3222   0.887   5.222   7.010 -0.2055 -0.1964  0.0183
   44CHL1  H19A 3223   0.856   5.239   6.904  1.2002  1.2784 -0.2048
   44CHL1  H19B 3224   0.828   5.135   7.045 -0.3280 -0.2466 -0.3060
   44CHL1  H19C 3225   0.862   5.313   7.068  0.0860  0.5486 -0.9934
   44CHL1    C1 3226   1.110   5.334   6.959 -0.0926  0.2876 -0.2252
   44CHL1   H1A 3227   1.078   5.422   7.018 -1.8385 -0.3650 -0.1266
   44CHL1   H1B 3228   1.221   5.338   6.963 -0.1230  4.0869 -0.0846
   44CHL1    C2 3229   1.075   5.356   6.812 -0.2658  0.1582  0.1402
   44CHL1   H2A 3230   1.131   5.445   6.776  1.4975 -1.7175 -2.0843
   44CHL1   H2B 3231   0.966   5.373   6.800 -0.2921  0.6618  1.0453
   44CHL1   C20 3232   1.099   5.103   7.735 -0.5358 -0.1464 -0.7639
   44CHL1   H20 3233   0.996   5.066   7.756 -0.5714 -0.0541 -0.7781
   44CHL1   C21 3234   1.108   5.256   7.752  0.1139 -0.6191  0.2359
   44CHL1  H21A 3235   1.029   5.300   7.688  2.6450  2.8594 -0.8110
   44CHL1  H21B 3236   1.206   5.299   7.722  0.1288  0.4689  1.7570
   44CHL1  H21C 3237   1.081   5.290   7.854 -2.1626 -0.1818 -0.4643
   44CHL1   C22 3238   1.180   5.033   7.843  0.0993  0.5949 -0.8371
   44CHL1  H22A 3239   1.211   4.931   7.815  0.4267 -0.2802  2.2882
   44CHL1  H22B 3240   1.268   5.098   7.861  0.5902 -0.4688  0.8870
   44CHL1   C23 3241   1.104   5.008   7.977  0.1210 -0.0568 -0.0953
   44CHL1  H23A 3242   1.073   5.101   8.030  0.1351 -0.1633  0.1038
   44CHL1  H23B 3243   1.011   4.951   7.958  1.4240 -1.0013 -5.0253
   44CHL1   C24 3244   1.199   4.922   8.060 -0.5517  0.0433 -0.8078
   44CHL1  H24A 3245   1.210   4.826   8.005  0.5032  1.1749 -2.6668
   44CHL1  H24B 3246   1.298   4.972   8.063 -0.5619  0.0514 -0.5032
   44CHL1   C25 3247   1.152   4.888   8.212  0.2041 -0.2344  0.8345
   44CHL1   H25 3248   1.042   4.899   8.227  0.2155 -0.8318  1.3829
   44CHL1   C26 3249   1.181   4.742   8.247 -0.4235  0.7639  0.6956
   44CHL1  H26A 3250   1.288   4.719   8.232 -0.3436  1.6759 -0.2341
   44CHL1  H26B 3251   1.142   4.717   8.349 -1.3588 -0.1740  0.1298
   44CHL1  H26C 3252   1.132   4.683   8.167 -1.6742  1.3812  0.9687
   44CHL1   C27 3253   1.225   4.976   8.314  0.0893 -0.3886 -0.1740
   44CHL1  H27A 3254   1.335   4.965   8.308  0.1137  0.3234 -1.1928
   44CHL1  H27B 3255   1.206   5.086   8.307  0.9460 -0.1628  0.7853
   44CHL1  H27C 3256   1.194   4.953   8.418 -1.1386 -1.8900 -0.8357
   45CHL1    C3 3257   2.511   3.056   6.758 -0.3708  0.1691 -0.5178
   45CHL1    H3 3258   2.478   3.157   6.787  0.5105  0.3352 -0.0460
   45CHL1    O3 3259   2.507   3.030   6.618  0.3428  0.4344 -0.4247
   45CHL1   H3' 3260   2.534   2.939   6.609 -2.2503 -0.8342  2.8241
   45CHL1    C4 3261   2.655   3.046   6.806  0.1842 -1.2207 -0.3345
   45CHL1   H4A 3262   2.691   2.950   6.764  0.8469 -1.5667  1.0027
   45CHL1   H4B 3263   2.716   3.122   6.754  0.6281  0.7905  2.8789
   45CHL1    C5 3264   2.670   3.051   6.956  0.2080 -0.2194 -0.2724
   45CHL1    C6 3265   2.753   3.133   7.026  0.6271  0.1016  0.3808
   45CHL1    H6 3266   2.819   3.201   6.969  0.5998 -1.0667 -1.1031
   45CHL1    C7 3267   2.761   3.131   7.177  0.0367 -0.0966 -0.3778
   45CHL1   H7A 3268   2.871   3.134   7.192  0.1709 -1.6353 -0.9297
   45CHL1   H7B 3269   2.717   3.227   7.212  1.3249  1.5490 -2.9817
   45CHL1    C8 3270   2.699   3.012   7.250 -0.0205  0.2539 -0.3028
   45CHL1    H8 3271   2.767   2.925   7.235  2.7722  2.5939 -2.5065
   45CHL1   C14 3272   2.679   3.041   7.396 -0.6801 -0.1503  0.4697
   45CHL1   H14 3273   2.610   3.128   7.402 -0.9464 -0.0502 -2.5726
   45CHL1   C15 3274   2.803   3.091   7.472  0.4290 -0.6564 -0.1211
   45CHL1  H15A 3275   2.893   3.036   7.439  2.1124  0.5547  2.1868
   45CHL1  H15B 3276   2.817   3.199   7.451 -1.8484 -0.4813 -1.1213
   45CHL1   C16 3277   2.768   3.058   7.615  0.1026 -0.9230 -0.7313
   45CHL1  H16A 3278   2.853   2.998   7.651 -0.6752 -0.8084  1.4132
   45CHL1  H16B 3279   2.768   3.156   7.668 -1.2216 -0.5206 -1.4137
   45CHL1   C17 3280   2.627   2.983   7.616  0.0457 -0.1700  0.1804
   45CHL1   H17 3281   2.549   3.062   7.621  1.3828  1.1769  0.2619
   45CHL1   C13 3282   2.619   2.925   7.472 -0.3390 -0.3414 -0.5071
   45CHL1   C18 3283   2.704   2.796   7.464  0.2006  0.7165  0.1788
   45CHL1  H18A 3284   2.809   2.815   7.497  0.2624 -0.2784  0.5790
   45CHL1  H18B 3285   2.654   2.722   7.530 -0.6861  1.2224  0.0862
   45CHL1  H18C 3286   2.709   2.760   7.359 -0.9039  3.7127 -1.0205
   45CHL1   C12 3287   2.474   2.897   7.410 -0.1122  0.1173 -0.4267
   45CHL1  H12A 3288   2.420   2.813   7.459  0.6306  0.0325  0.2843
   45CHL1  H12B 3289   2.413   2.987   7.432 -1.3567 -0.8484  0.2087
   45CHL1   C11 3290   2.487   2.870   7.255  0.4110  0.5512  0.6471
   45CHL1  H11A 3291   2.536   2.771   7.248 -0.9233 -0.1492  0.8938
   45CHL1  H11B 3292   2.388   2.865   7.204  2.0797  2.6407 -3.2174
   45CHL1    C9 3293   2.572   2.976   7.176 -0.1719 -0.7317  0.2292
   45CHL1    H9 3294   2.510   3.068   7.186 -0.1730 -0.2511 -3.0662
   45CHL1   C10 3295   2.581   2.943   7.030  0.3291  0.3569 -0.5423
   45CHL1   C19 3296   2.653   2.806   6.998 -0.6784  0.2650 -0.0701
   45CHL1  H19A 3297   2.687   2.793   6.893  1.3811 -0.9151  0.6764
   45CHL1  H19B 3298   2.745   2.800   7.059 -2.4523  1.3999  2.9016
   45CHL1  H19C 3299   2.597   2.711   7.017  0.5827 -0.6084 -0.5865
   45CHL1    C1 3300   2.435   2.958   6.973 -0.2241 -0.1130  0.2326
   45CHL1   H1A 3301   2.364   2.888   7.023  0.9622 -1.1536  0.5231
   45CHL1   H1B 3302   2.404   3.061   7.001  0.5096  1.2405 -3.4393
   45CHL1    C2 3303   2.426   2.945   6.820 -0.1528 -0.1419  0.6016
   45CHL1   H2A 3304   2.322   2.962   6.784 -0.2741  1.2135  1.5132
   45CHL1   H2B 3305   2.449   2.842   6.785 -3.0451 -0.8032  0.3387
   45CHL1   C20 3306   2.611   2.884   7.732 -0.1485  0.1120 -0.4114
   45CHL1   H20 3307   2.670   2.791   7.715 -0.3845 -0.3329  1.0929
   45CHL1   C21 3308   2.460   2.836   7.736 -0.8419  0.0188  0.7278
   45CHL1  H21A 3309   2.428   2.797   7.835  2.5238 -0.6695  1.7115
   45CHL1  H21B 3310   2.434   2.760   7.659  0.5207  2.2228 -2.0810
   45CHL1  H21C 3311   2.398   2.919   7.698 -0.4506 -0.8821 -2.0519
   45CHL1   C22 3312   2.651   2.950   7.870 -0.4721  0.4870 -0.3812
   45CHL1  H22A 3313   2.761   2.961   7.873 -0.4247  0.4952 -1.8112
   45CHL1  H22B 3314   2.609   3.053   7.874  0.6807  0.9515  0.1705
   45CHL1   C23 3315   2.617   2.866   7.995  1.3629 -0.5855  0.5700
   45CHL1  H23A 3316   2.511   2.887   8.018  1.6733  0.2063  1.3458
   45CHL1  H23B 3317   2.638   2.761   7.964  0.7483 -0.3893 -0.5831
   45CHL1   C24 3318   2.711   2.894   8.111 -0.2701 -0.3482  0.0186
   45CHL1  H24A 3319   2.814   2.866   8.080  0.9320  4.4297 -1.1252
   45CHL1  H24B 3320   2.711   3.004   8.130  0.3078 -0.4402  0.6199
   45CHL1   C25 3321   2.666   2.819   8.238  0.4727  0.3296  0.0285
   45CHL1   H25 3322   2.643   2.718   8.198 -3.2650  0.6303  1.0097
   45CHL1   C26 3323   2.789   2.811   8.337 -0.2276 -0.4053  0.0826
   45CHL1  H26A 3324   2.771   2.717   8.394 -0.5312 -0.4024 -0.0056
   45CHL1  H26B 3325   2.882   2.807   8.277  0.6709 -1.0732  1.4604
   45CHL1  H26C 3326   2.790   2.896   8.408 -0.1778 -0.4834  0.1762
   45CHL1   C27 3327   2.543   2.866   8.311  0.9821 -0.2806 -0.0447
   45CHL1  H27A 3328   2.455   2.860   8.243  1.5808 -0.6199 -0.8068
   45CHL1  H27B 3329   2.521   2.788   8.387 -0.9874  1.3022  1.1183
   45CHL1  H27C 3330   2.554   2.963   8.364 -0.7634 -0.2193  0.2679
   46CHL1    C3 3331   4.611   5.911   6.941 -0.5365  0.4992 -0.4464
   46CHL1    H3 3332   4.692   5.987   6.942  1.9970 -1.8704  3.1378
   46CHL1    O3 3333   4.584   5.845   6.816 -0.1545  0.3235  0.2577
   46CHL1   H3' 3334   4.488   5.853   6.813 -0.2490 -0.9595 -0.9628
   46CHL1    C4 3335   4.643   5.813   7.038 -0.6714  0.5322 -0.7612
   46CHL1   H4A 3336   4.561   5.738   7.036  0.0316 -0.2536 -0.9171
   46CHL1   H4B 3337   4.731   5.752   7.008  0.5769  0.9337  1.8204
   46CHL1    C5 3338   4.662   5.858   7.183  0.0359 -0.1665  0.2751
   46CHL1    C6 3339   4.773   5.838   7.250 -0.2670  0.0508  0.1248
   46CHL1    H6 3340   4.866   5.787   7.219  0.6969  1.0753  1.2017
   46CHL1    C7 3341   4.775   5.856   7.397 -0.0334 -0.4780 -0.1324
   46CHL1   H7A 3342   4.814   5.764   7.445  0.5405 -0.5549 -0.7411
   46CHL1   H7B 3343   4.841   5.941   7.424  0.1929 -0.5191 -0.5485
   46CHL1    C8 3344   4.638   5.894   7.466 -0.2875  0.7872 -0.1184
   46CHL1    H8 3345   4.572   5.806   7.477 -0.5689  0.8691 -1.0502
   46CHL1   C14 3346   4.665   5.957   7.600  0.3112 -0.2253  0.4604
   46CHL1   H14 3347   4.721   6.050   7.574  0.2404 -0.1799  0.4734
   46CHL1   C15 3348   4.759   5.892   7.706  0.1139  0.1441 -0.3439
   46CHL1  H15A 3349   4.730   5.784   7.714 -2.3575  0.6331 -1.7026
   46CHL1  H15B 3350   4.869   5.887   7.691  0.2622 -2.5254  0.9347
   46CHL1   C16 3351   4.730   5.962   7.836  0.1756 -0.2114 -0.2508
   46CHL1  H16A 3352   4.700   5.888   7.913  1.9307 -0.0873  0.6055
   46CHL1  H16B 3353   4.817   6.007   7.887 -0.6756  1.5782 -0.2992
   46CHL1   C17 3354   4.620   6.068   7.804  0.3210  0.3209 -0.0834
   46CHL1   H17 3355   4.680   6.158   7.779  1.1399  0.0364  0.7934
   46CHL1   C13 3356   4.550   6.018   7.676 -0.5854 -0.0993  0.6141
   46CHL1   C18 3357   4.459   5.899   7.702  0.0064 -0.2915 -0.3851
   46CHL1  H18A 3358   4.426   5.867   7.601  1.4352  1.2618 -1.3952
   46CHL1  H18B 3359   4.513   5.823   7.762 -0.7481 -1.1473 -0.7736
   46CHL1  H18C 3360   4.365   5.922   7.757  0.4935 -0.6869  0.6564
   46CHL1   C12 3361   4.476   6.122   7.583  1.0322  0.7693  0.2541
   46CHL1  H12A 3362   4.382   6.159   7.629  0.2968  1.2073 -1.5260
   46CHL1  H12B 3363   4.549   6.203   7.562 -0.1061  1.1825 -2.5021
   46CHL1   C11 3364   4.441   6.062   7.448  0.7993  0.3598  0.1965
   46CHL1  H11A 3365   4.357   5.989   7.459 -0.7584  1.8070 -1.3231
   46CHL1  H11B 3366   4.404   6.140   7.377  0.7870 -1.7845 -2.3210
   46CHL1    C9 3367   4.563   5.998   7.376 -0.2228  0.5226 -0.1087
   46CHL1    H9 3368   4.631   6.085   7.358  0.0201  0.6208  1.1881
   46CHL1   C10 3369   4.534   5.933   7.241 -0.2144 -0.3098 -0.7522
   46CHL1   C19 3370   4.410   5.840   7.253  0.0329 -0.1134 -0.1037
   46CHL1  H19A 3371   4.397   5.786   7.157 -1.0697  1.8859 -1.1279
   46CHL1  H19B 3372   4.411   5.768   7.338 -2.2581 -2.1197 -1.6214
   46CHL1  H19C 3373   4.321   5.906   7.262  0.1309  0.3845 -2.3266
   46CHL1    C1 3374   4.499   6.042   7.137  0.0952 -0.2549  0.0966
   46CHL1   H1A 3375   4.406   6.096   7.162 -1.5659 -2.7972 -0.1839
   46CHL1   H1B 3376   4.577   6.120   7.146  1.2026 -1.5115  2.0034
   46CHL1    C2 3377   4.483   5.989   6.991  0.1035  0.0460  0.7075
   46CHL1   H2A 3378   4.456   6.068   6.918  0.3482  0.0443  0.6137
   46CHL1   H2B 3379   4.393   5.924   6.982 -0.2402  0.6471 -0.5095
   46CHL1   C20 3380   4.529   6.091   7.925  0.5977 -0.9830  0.1202
   46CHL1   H20 3381   4.482   5.999   7.966 -0.1182 -0.1243  1.2969
   46CHL1   C21 3382   4.410   6.184   7.889  0.6819  0.5900 -0.0192
   46CHL1  H21A 3383   4.347   6.203   7.978 -0.6259 -0.1041 -0.7640
   46CHL1  H21B 3384   4.334   6.142   7.820 -0.3944 -0.0152  1.4727
   46CHL1  H21C 3385   4.449   6.281   7.853 -1.8502  1.7059  0.0530
   46CHL1   C22 3386   4.604   6.157   8.049 -0.2183  0.1503 -0.3984
   46CHL1  H22A 3387   4.665   6.245   8.020 -1.2662  1.1343  0.2749
   46CHL1  H22B 3388   4.531   6.207   8.117  1.8443  1.8783  0.6927
   46CHL1   C23 3389   4.667   6.050   8.146  0.3383  0.3979  0.3660
   46CHL1  H23A 3390   4.579   5.989   8.177 -1.5804  1.8140 -1.9768
   46CHL1  H23B 3391   4.731   5.972   8.100  0.5790  0.4643  0.5842
   46CHL1   C24 3392   4.734   6.108   8.273 -0.0496  0.5807 -0.4661
   46CHL1  H24A 3393   4.660   6.174   8.323 -0.3245  0.9334 -1.3314
   46CHL1  H24B 3394   4.766   6.028   8.344  1.2639 -1.2210 -2.9375
   46CHL1   C25 3395   4.852   6.198   8.241 -0.0740  0.5790  0.4108
   46CHL1   H25 3396   4.821   6.275   8.168  0.8499  2.2466  1.7046
   46CHL1   C26 3397   4.916   6.256   8.362  0.2213 -0.2382 -0.9804
   46CHL1  H26A 3398   4.852   6.340   8.396  1.3369 -0.2782  1.5089
   46CHL1  H26B 3399   4.941   6.194   8.452  0.4582  1.5264  0.2129
   46CHL1  H26C 3400   5.016   6.300   8.340  0.1532  1.1573  1.1784
   46CHL1   C27 3401   4.960   6.106   8.173 -0.3571  0.5250  0.1001
   46CHL1  H27A 3402   4.976   6.026   8.248 -0.0104  1.1333  0.6878
   46CHL1  H27B 3403   4.932   6.075   8.070  2.2221 -0.7464 -0.2923
   46CHL1  H27C 3404   5.051   6.165   8.152 -0.5734 -0.1505 -3.1749
   47CHL1    C3 3405   2.638   3.502   6.770 -0.0226  0.4495 -0.1141
   47CHL1    H3 3406   2.683   3.402   6.757  3.2448  1.3615  2.8181
   47CHL1    O3 3407   2.666   3.588   6.654  0.0132  0.0341  0.1745
   47CHL1   H3' 3408   2.760   3.574   6.644  0.4163  0.8058  2.2954
   47CHL1    C4 3409   2.481   3.492   6.793  0.1472 -0.6266 -0.9059
   47CHL1   H4A 3410   2.434   3.592   6.778  1.9508  0.6594  1.3367
   47CHL1   H4B 3411   2.438   3.423   6.718 -2.5520 -0.2743  0.1751
   47CHL1    C5 3412   2.436   3.456   6.937  0.5584  0.7354  0.2887
   47CHL1    C6 3413   2.345   3.361   6.960  0.3496  0.4151 -0.5986
   47CHL1    H6 3414   2.299   3.304   6.878  1.6604  0.1228 -1.1610
   47CHL1    C7 3415   2.296   3.319   7.100  0.4852 -0.1126  0.2818
   47CHL1   H7A 3416   2.186   3.301   7.103  0.5552 -0.5601  0.3134
   47CHL1   H7B 3417   2.327   3.217   7.133  0.9711 -0.2066 -0.4533
   47CHL1    C8 3418   2.342   3.428   7.213  0.3885 -0.4078 -0.0133
   47CHL1    H8 3419   2.272   3.513   7.224  0.8333 -0.2263  1.6143
   47CHL1   C14 3420   2.341   3.372   7.354 -0.4597  0.4514 -0.9798
   47CHL1   H14 3421   2.422   3.298   7.340 -1.2714 -1.0102  1.4125
   47CHL1   C15 3422   2.224   3.296   7.403 -0.1787  0.2233  0.0490
   47CHL1  H15A 3423   2.133   3.356   7.379 -1.0937 -1.4314 -0.8288
   47CHL1  H15B 3424   2.199   3.199   7.355  1.7362  0.1873 -0.9394
   47CHL1   C16 3425   2.242   3.292   7.550 -0.1689  0.5385 -0.2557
   47CHL1  H16A 3426   2.153   3.325   7.608 -1.8253 -2.2399 -1.0190
   47CHL1  H16B 3427   2.263   3.185   7.572  0.9319  1.2026  2.3160
   47CHL1   C17 3428   2.378   3.372   7.583  0.2642  0.5415 -0.4351
   47CHL1   H17 3429   2.458   3.297   7.565 -0.9316 -1.5950  2.4151
   47CHL1   C13 3430   2.381   3.464   7.464  0.2775 -0.8503 -0.0826
   47CHL1   C18 3431   2.272   3.581   7.493  0.0616  0.2539  0.1448
   47CHL1  H18A 3432   2.315   3.642   7.575 -1.9086  1.2338  0.4983
   47CHL1  H18B 3433   2.261   3.640   7.400  0.5177  1.6084  0.9249
   47CHL1  H18C 3434   2.177   3.529   7.518  1.7090 -3.9273 -1.2874
   47CHL1   C12 3435   2.514   3.528   7.436 -0.2412 -0.5456 -0.4792
   47CHL1  H12A 3436   2.525   3.615   7.504 -0.6350  0.0785 -1.2025
   47CHL1  H12B 3437   2.601   3.458   7.438 -0.2072 -0.4875  0.7598
   47CHL1   C11 3438   2.519   3.584   7.298 -0.1576  0.5758 -0.0513
   47CHL1  H11A 3439   2.441   3.663   7.298  0.2415  0.9741  0.3582
   47CHL1  H11B 3440   2.614   3.632   7.269 -0.6026  0.6610 -1.4422
   47CHL1    C9 3441   2.483   3.482   7.186  1.2200 -0.3197 -0.0864
   47CHL1    H9 3442   2.547   3.393   7.206 -1.1205 -1.5007  2.9388
   47CHL1   C10 3443   2.510   3.534   7.044  0.3360 -0.0796  0.5303
   47CHL1   C19 3444   2.456   3.678   7.027  0.2579 -0.5267 -0.6781
   47CHL1  H19A 3445   2.479   3.714   6.924 -0.4877  0.3155 -0.5601
   47CHL1  H19B 3446   2.345   3.675   7.034  0.1916 -1.0711 -1.7590
   47CHL1  H19C 3447   2.511   3.749   7.092 -1.5280  0.7431 -0.4653
   47CHL1    C1 3448   2.663   3.537   7.023 -0.6529 -0.4861  0.1077
   47CHL1   H1A 3449   2.711   3.609   7.093 -0.0696 -1.1020  0.3522
   47CHL1   H1B 3450   2.700   3.436   7.048 -1.3859 -0.7835  0.0043
   47CHL1    C2 3451   2.713   3.569   6.884 -0.1644 -0.1504 -0.4684
   47CHL1   H2A 3452   2.820   3.542   6.884  0.2196  1.2810  0.2847
   47CHL1   H2B 3453   2.701   3.677   6.864 -0.6538 -0.1136 -0.0020
   47CHL1   C20 3454   2.394   3.428   7.722 -0.0179 -0.4424 -0.1297
   47CHL1   H20 3455   2.469   3.511   7.718  1.6878 -1.9511 -0.8475
   47CHL1   C21 3456   2.469   3.315   7.800  0.1834 -0.4680  0.3310
   47CHL1  H21A 3457   2.556   3.276   7.744  0.4507  0.0273  0.3915
   47CHL1  H21B 3458   2.399   3.234   7.829 -0.1645 -0.3917 -0.2801
   47CHL1  H21C 3459   2.512   3.357   7.894  0.4500 -0.4039  0.1812
   47CHL1   C22 3460   2.268   3.461   7.801 -0.0427  0.8384  0.5809
   47CHL1  H22A 3461   2.192   3.522   7.746 -0.6380 -0.6884 -0.3453
   47CHL1  H22B 3462   2.218   3.366   7.829  0.1447  0.7973  0.7728
   47CHL1   C23 3463   2.291   3.537   7.935 -0.0464  0.3267 -0.4108
   47CHL1  H23A 3464   2.364   3.484   8.000  0.6393  0.4487 -1.0686
   47CHL1  H23B 3465   2.330   3.638   7.914 -3.4614  1.8443 -0.1675
   47CHL1   C24 3466   2.162   3.550   8.013  0.4753  0.7438 -0.1779
   47CHL1  H24A 3467   2.091   3.482   7.962 -1.7150  2.5544  0.3209
   47CHL1  H24B 3468   2.182   3.525   8.120  3.0475  0.1517 -0.7126
   47CHL1   C25 3469   2.100   3.692   8.010  0.5787 -0.3021 -0.0374
   47CHL1   H25 3470   2.187   3.760   8.029  0.4382 -0.6798  2.2953
   47CHL1   C26 3471   2.047   3.726   7.872 -0.2205  0.6436 -0.3112
   47CHL1  H26A 3472   2.129   3.754   7.802 -0.8010  0.1925 -1.1976
   47CHL1  H26B 3473   1.997   3.634   7.833 -0.0696  0.8709 -1.0631
   47CHL1  H26C 3474   1.963   3.797   7.883 -1.4858 -0.7205 -0.7222
   47CHL1   C27 3475   1.980   3.720   8.107 -0.3505 -0.8538  0.2355
   47CHL1  H27A 3476   1.963   3.829   8.121  0.7110 -0.3621 -1.8444
   47CHL1  H27B 3477   1.885   3.668   8.082 -0.3217 -0.4413 -0.7658
   47CHL1  H27C 3478   2.004   3.678   8.207 -2.5325 -1.6315  0.4802
   48CHL1    C3 3479   6.733   0.138   6.257 -0.1520  0.5437  0.2488
   48CHL1    H3 3480   6.667   0.064   6.208  2.2151 -0.5718 -1.4487
   48CHL1    O3 3481   6.778   0.215   6.152 -0.1280  0.0294 -0.2320
   48CHL1   H3' 3482   6.774   0.151   6.081 -1.4368 -0.0074 -0.1393
   48CHL1    C4 3483   6.646   0.216   6.356  0.4620 -0.0972 -0.0244
   48CHL1   H4A 3484   6.676   0.321   6.374 -0.8826 -0.0325  2.4081
   48CHL1   H4B 3485   6.552   0.225   6.297  0.5616  0.6554 -0.0713
   48CHL1    C5 3486   6.614   0.139   6.482  0.2962  0.5957 -0.3505
   48CHL1    C6 3487   6.487   0.121   6.519  0.2982 -0.8268 -0.4847
   48CHL1    H6 3488   6.411   0.177   6.463  0.3041 -0.2243  0.0960
   48CHL1    C7 3489   6.453   0.043   6.645  0.4984 -0.4904 -0.1996
   48CHL1   H7A 3490   6.384   0.111   6.700  0.3463 -2.7894  2.7072
   48CHL1   H7B 3491   6.393  -0.050   6.630  0.6303 -0.7756  0.9423
   48CHL1    C8 3492   6.572   0.013   6.737  0.4929 -0.4543  0.2832
   48CHL1    H8 3493   6.612   0.105   6.786  1.8228 -1.0206  0.3081
   48CHL1   C14 3494   6.532  -0.093   6.837 -0.7674 -0.2476 -0.2144
   48CHL1   H14 3495   6.504  -0.185   6.782  0.2100 -0.1375 -0.9362
   48CHL1   C15 3496   6.402  -0.062   6.919 -0.3256  0.4074 -0.1180
   48CHL1  H15A 3497   6.392   0.045   6.947 -2.7272  0.6817 -1.7487
   48CHL1  H15B 3498   6.302  -0.086   6.877  0.3768 -3.3577 -0.0486
   48CHL1   C16 3499   6.425  -0.139   7.050  0.3473 -0.0034  0.0685
   48CHL1  H16A 3500   6.414  -0.072   7.138 -0.0894 -1.4680  1.1802
   48CHL1  H16B 3501   6.351  -0.218   7.076  2.0918 -1.2534  1.5363
   48CHL1   C17 3502   6.561  -0.221   7.035  0.1191 -1.2739 -0.2420
   48CHL1   H17 3503   6.551  -0.319   6.985  0.6985 -1.4045 -0.1065
   48CHL1   C13 3504   6.638  -0.130   6.935 -0.9464 -0.7187 -0.4783
   48CHL1   C18 3505   6.702  -0.009   7.008 -0.3727  0.4760 -0.3456
   48CHL1  H18A 3506   6.733   0.071   6.936 -2.4970  0.6215 -1.1561
   48CHL1  H18B 3507   6.637   0.032   7.089 -0.7032 -1.5493  0.4552
   48CHL1  H18C 3508   6.789  -0.049   7.065 -1.0868 -1.3692 -0.5020
   48CHL1   C12 3509   6.750  -0.196   6.849 -0.3674  0.9005 -0.6354
   48CHL1  H12A 3510   6.836  -0.228   6.912 -0.3018  0.7596 -0.7961
   48CHL1  H12B 3511   6.701  -0.288   6.811 -0.2083 -0.3620  1.9467
   48CHL1   C11 3512   6.804  -0.096   6.744 -0.0302 -0.4269 -0.4035
   48CHL1  H11A 3513   6.872  -0.029   6.802  0.1645 -0.5349 -0.5058
   48CHL1  H11B 3514   6.878  -0.143   6.675  0.3366  0.4412 -0.6133
   48CHL1    C9 3515   6.689  -0.040   6.655  0.2110 -0.8878  0.5358
   48CHL1    H9 3516   6.648  -0.125   6.596 -0.5626  0.5689 -1.1358
   48CHL1   C10 3517   6.732   0.065   6.546  0.5192 -1.2185  0.2773
   48CHL1   C19 3518   6.834   0.157   6.607  0.5295 -0.6101 -0.6630
   48CHL1  H19A 3519   6.808   0.194   6.708  1.4163  1.6118 -1.2033
   48CHL1  H19B 3520   6.932   0.105   6.612  0.9619  0.3250  2.4944
   48CHL1  H19C 3521   6.854   0.246   6.544  2.0123  0.2186  0.9111
   48CHL1    C1 3522   6.809  -0.020   6.441  0.6742  0.0690  0.6074
   48CHL1   H1A 3523   6.899  -0.071   6.483  0.6805 -0.1183  0.3637
   48CHL1   H1B 3524   6.732  -0.087   6.399  1.0918 -1.2792  1.9260
   48CHL1    C2 3525   6.857   0.068   6.319 -0.3813  1.0081  0.0603
   48CHL1   H2A 3526   6.887  -0.005   6.241  0.4359  0.0758  1.2273
   48CHL1   H2B 3527   6.936   0.145   6.332 -1.9353  2.6722  0.1925
   48CHL1   C20 3528   6.629  -0.247   7.166 -0.9054  0.7491  0.2288
   48CHL1   H20 3529   6.654  -0.152   7.219 -1.7474  0.6071  0.8878
   48CHL1   C21 3530   6.754  -0.341   7.157 -0.5635  0.3716 -0.2760
   48CHL1  H21A 3531   6.780  -0.366   7.262 -2.8583 -0.8983  0.0644
   48CHL1  H21B 3532   6.840  -0.287   7.112  0.8376  0.5047  2.3659
   48CHL1  H21C 3533   6.727  -0.432   7.099 -2.4836  0.8556 -0.1901
   48CHL1   C22 3534   6.535  -0.316   7.255  0.2249 -0.1262 -0.1988
   48CHL1  H22A 3535   6.432  -0.276   7.248  0.2597 -0.3200 -3.2346
   48CHL1  H22B 3536   6.518  -0.425   7.238 -3.9884  0.1332  1.2404
   48CHL1   C23 3537   6.548  -0.308   7.410  0.3580  0.6051 -0.2912
   48CHL1  H23A 3538   6.639  -0.360   7.446  1.1232  1.2353 -1.2702
   48CHL1  H23B 3539   6.554  -0.203   7.445 -0.3354 -0.3611  3.0673
   48CHL1   C24 3540   6.423  -0.382   7.474  0.2837  0.3908 -0.2051
   48CHL1  H24A 3541   6.330  -0.359   7.418  0.9430  1.4727 -0.8920
   48CHL1  H24B 3542   6.439  -0.489   7.447  0.4187  0.1698  0.7253
   48CHL1   C25 3543   6.410  -0.365   7.624  0.2814  0.4654  0.3820
   48CHL1   H25 3544   6.507  -0.396   7.670 -0.2036  1.2644  2.0521
   48CHL1   C26 3545   6.372  -0.220   7.662  0.7982 -0.3827  0.4135
   48CHL1  H26A 3546   6.273  -0.205   7.615  0.3987  0.8261  1.5721
   48CHL1  H26B 3547   6.355  -0.210   7.772 -1.4042 -0.5860  0.1258
   48CHL1  H26C 3548   6.441  -0.144   7.620  0.1072  0.9736  1.6649
   48CHL1   C27 3549   6.307  -0.470   7.678 -0.1025 -0.0664  0.7995
   48CHL1  H27A 3550   6.335  -0.573   7.650  2.9178  0.1668  2.5605
   48CHL1  H27B 3551   6.309  -0.453   7.788 -0.9783  3.5639  0.4144
   48CHL1  H27C 3552   6.214  -0.424   7.638  0.9338  2.9440  1.5834
   49CHL1    C3 3553   4.573   2.521   6.781 -0.7366 -0.4552 -0.3338
   49CHL1    H3 3554   4.598   2.619   6.827  1.9461 -2.3009  2.4836
   49CHL1    O3 3555   4.543   2.538   6.641 -0.6592  0.6597 -0.0714
   49CHL1   H3' 3556   4.575   2.459   6.596  0.5112  1.5419 -0.8266
   49CHL1    C4 3557   4.690   2.430   6.808 -0.7368  0.4705  0.6706
   49CHL1   H4A 3558   4.676   2.337   6.749  1.1314  0.9466 -0.6122
   49CHL1   H4B 3559   4.785   2.466   6.762 -2.1519  0.5335 -2.4393
   49CHL1    C5 3560   4.712   2.410   6.961 -0.8478 -0.1487  0.1490
   49CHL1    C6 3561   4.819   2.447   7.023 -1.4573 -0.0099 -0.1148
   49CHL1    H6 3562   4.903   2.495   6.970 -0.0610 -0.7774  1.3130
   49CHL1    C7 3563   4.847   2.408   7.163  0.2269 -0.2604  0.1415
   49CHL1   H7A 3564   4.946   2.362   7.177  0.1230 -0.8317 -0.8862
   49CHL1   H7B 3565   4.832   2.503   7.219 -0.6766  0.0599 -0.6066
   49CHL1    C8 3566   4.742   2.310   7.234  0.4547 -1.0958 -0.4416
   49CHL1    H8 3567   4.763   2.208   7.194 -1.9365 -2.2119  0.9144
   49CHL1   C14 3568   4.754   2.311   7.382  0.4619  0.1284  0.2191
   49CHL1   H14 3569   4.732   2.416   7.412  0.6635  0.4790 -0.8220
   49CHL1   C15 3570   4.894   2.282   7.444 -0.2600  0.4007  0.2381
   49CHL1  H15A 3571   4.944   2.196   7.395  3.2981  1.8912  0.9578
   49CHL1  H15B 3572   4.961   2.369   7.430 -0.1636  0.3639  0.4616
   49CHL1   C16 3573   4.858   2.239   7.589 -0.2741 -0.9725 -0.1421
   49CHL1  H16A 3574   4.920   2.148   7.602  0.7893 -0.5049 -1.6675
   49CHL1  H16B 3575   4.889   2.302   7.675 -0.5017  0.5968 -1.1709
   49CHL1   C17 3576   4.705   2.215   7.601  0.1094  0.5726  0.0430
   49CHL1   H17 3577   4.661   2.311   7.637 -1.1810  0.9974 -2.4549
   49CHL1   C13 3578   4.658   2.209   7.452 -0.4239 -0.2503  0.0195
   49CHL1   C18 3579   4.693   2.065   7.411 -0.1509 -0.2061 -0.2951
   49CHL1  H18A 3580   4.679   2.064   7.301  0.6149  0.7661 -0.4139
   49CHL1  H18B 3581   4.795   2.030   7.436  0.7105  0.9964 -1.9761
   49CHL1  H18C 3582   4.622   1.985   7.444  1.6191 -1.8749 -0.3515
   49CHL1   C12 3583   4.510   2.253   7.414 -0.5285  0.2850 -0.3575
   49CHL1  H12A 3584   4.431   2.188   7.459  0.0120  0.8680  1.5654
   49CHL1  H12B 3585   4.503   2.358   7.451 -0.1602  0.2668 -0.2260
   49CHL1   C11 3586   4.489   2.267   7.260 -0.0721 -0.5730  0.1651
   49CHL1  H11A 3587   4.493   2.164   7.217  0.8871 -0.7336  0.6232
   49CHL1  H11B 3588   4.390   2.315   7.247  0.2206  0.1178  0.4454
   49CHL1    C9 3589   4.601   2.346   7.193 -0.7160  0.1101  0.0121
   49CHL1    H9 3590   4.588   2.451   7.228 -3.3508 -0.2696  0.3945
   49CHL1   C10 3591   4.590   2.354   7.034  0.3897 -0.0667 -0.4011
   49CHL1   C19 3592   4.565   2.205   6.992 -0.1281  0.3824 -0.9126
   49CHL1  H19A 3593   4.590   2.188   6.885 -2.3934  0.8862 -1.5529
   49CHL1  H19B 3594   4.623   2.130   7.051 -1.6909 -0.5238 -0.4713
   49CHL1  H19C 3595   4.456   2.184   6.998 -0.1221  0.7361  1.3698
   49CHL1    C1 3596   4.470   2.450   7.004 -0.2825 -0.2644 -0.6374
   49CHL1   H1A 3597   4.373   2.411   7.042 -0.2674 -0.7091 -1.0359
   49CHL1   H1B 3598   4.487   2.547   7.055  0.1311 -0.7955  0.2638
   49CHL1    C2 3599   4.449   2.473   6.857  0.3320 -0.0804  0.3653
   49CHL1   H2A 3600   4.367   2.548   6.847  0.4521  0.2050  1.4327
   49CHL1   H2B 3601   4.407   2.385   6.804  1.2340 -0.3802  0.1330
   49CHL1   C20 3602   4.653   2.109   7.710 -0.3737  0.9474 -0.0009
   49CHL1   H20 3603   4.695   2.012   7.676  1.7615  2.0354 -0.6555
   49CHL1   C21 3604   4.500   2.098   7.717 -0.8569 -0.4790 -0.4663
   49CHL1  H21A 3605   4.456   2.057   7.623 -0.3179 -2.2762  0.0115
   49CHL1  H21B 3606   4.467   2.203   7.728  0.0489 -0.1280 -0.9742
   49CHL1  H21C 3607   4.472   2.039   7.807  1.1389 -1.9506 -0.7181
   49CHL1   C22 3608   4.708   2.127   7.853  0.0989 -0.5427  0.5035
   49CHL1  H22A 3609   4.811   2.169   7.848  0.1762 -0.9200 -2.4906
   49CHL1  H22B 3610   4.643   2.200   7.906 -1.5150 -0.0180 -2.0354
   49CHL1   C23 3611   4.703   2.006   7.945  0.4919  0.5490 -0.5469
   49CHL1  H23A 3612   4.600   1.966   7.956  1.7067 -2.3879  1.3768
   49CHL1  H23B 3613   4.764   1.928   7.894 -0.1446 -0.1380 -0.2818
   49CHL1   C24 3614   4.751   2.047   8.082 -0.4347  0.4445  0.1208
   49CHL1  H24A 3615   4.856   2.078   8.064 -0.4802  1.5147  1.4973
   49CHL1  H24B 3616   4.704   2.140   8.120  0.9748  1.3028 -0.1467
   49CHL1   C25 3617   4.732   1.937   8.190 -0.0463  0.0170 -0.7805
   49CHL1   H25 3618   4.775   1.839   8.159  0.1374 -0.4505  0.8796
   49CHL1   C26 3619   4.809   1.975   8.313  0.0544 -0.0475  0.2869
   49CHL1  H26A 3620   4.918   1.968   8.290 -0.2313 -0.2822 -1.0762
   49CHL1  H26B 3621   4.778   2.075   8.351  1.8537 -0.5369  3.3490
   49CHL1  H26C 3622   4.788   1.908   8.399  1.3545  2.0199  2.3427
   49CHL1   C27 3623   4.579   1.911   8.223  0.0484 -0.6871 -0.0150
   49CHL1  H27A 3624   4.571   1.846   8.313  0.1850 -0.2123  0.3444
   49CHL1  H27B 3625   4.534   2.012   8.236  3.3745  1.1514 -1.5087
   49CHL1  H27C 3626   4.544   1.850   8.137  0.0543 -1.4393  0.5111
   50CHL1    C3 3627   5.873   1.423   6.518  1.0124 -0.1104  0.3962
   50CHL1    H3 3628   5.783   1.357   6.511  1.9475 -1.2493 -1.6285
   50CHL1    O3 3629   5.887   1.476   6.384  0.3895 -0.7595 -0.4366
   50CHL1   H3' 3630   5.963   1.535   6.394 -1.2576  1.2759  0.9008
   50CHL1    C4 3631   5.843   1.538   6.612  0.0071 -0.1640  0.4505
   50CHL1   H4A 3632   5.921   1.616   6.599  0.0805  0.0852  2.2009
   50CHL1   H4B 3633   5.752   1.592   6.576  1.5856  2.1261 -0.3827
   50CHL1    C5 3634   5.845   1.494   6.758  0.3769 -0.2714  0.3101
   50CHL1    C6 3635   5.741   1.532   6.840 -0.0719  0.1247 -0.3997
   50CHL1    H6 3636   5.656   1.592   6.803 -1.6177 -0.9570  1.2633
   50CHL1    C7 3637   5.745   1.510   6.987 -0.0136 -0.5941  0.0591
   50CHL1   H7A 3638   5.714   1.606   7.034  0.4845 -0.3762 -0.0458
   50CHL1   H7B 3639   5.673   1.428   7.009  0.5406 -0.6139  2.0038
   50CHL1    C8 3640   5.890   1.465   7.033 -0.5055 -0.2292  0.0290
   50CHL1    H8 3641   5.959   1.551   7.047  0.0765 -0.6379 -0.2770
   50CHL1   C14 3642   5.883   1.410   7.173 -0.1096 -0.0875 -0.1983
   50CHL1   H14 3643   5.823   1.317   7.163  0.9565 -0.8939  0.6748
   50CHL1   C15 3644   5.815   1.483   7.287  0.3117 -0.6870 -1.5909
   50CHL1  H15A 3645   5.851   1.588   7.297 -1.4220 -0.2356  0.8020
   50CHL1  H15B 3646   5.705   1.476   7.276  0.1075 -1.2041  0.3632
   50CHL1   C16 3647   5.853   1.409   7.425  0.2228 -0.1730  0.5606
   50CHL1  H16A 3648   5.907   1.485   7.485 -1.1562  1.7285 -0.4807
   50CHL1  H16B 3649   5.763   1.385   7.486 -0.4351 -1.8688 -0.9839
   50CHL1   C17 3650   5.950   1.299   7.382  0.5870 -0.1828 -0.5836
   50CHL1   H17 3651   5.893   1.204   7.374 -0.1951  0.3090 -0.9709
   50CHL1   C13 3652   6.010   1.341   7.240 -0.2944  0.0808  0.3097
   50CHL1   C18 3653   6.123   1.440   7.257  0.1899  0.0731 -0.1981
   50CHL1  H18A 3654   6.123   1.511   7.172 -0.2881 -0.6593 -0.8131
   50CHL1  H18B 3655   6.101   1.495   7.351  0.6039  2.0131 -1.1835
   50CHL1  H18C 3656   6.223   1.393   7.272 -0.6055 -1.9327 -0.8372
   50CHL1   C12 3657   6.051   1.226   7.138  0.1274  0.2185  0.3929
   50CHL1  H12A 3658   6.139   1.166   7.169  0.0855 -0.0168  0.0592
   50CHL1  H12B 3659   5.969   1.151   7.136  0.8582 -0.6091 -1.9280
   50CHL1   C11 3660   6.072   1.281   6.995 -0.3017  0.1472  0.4571
   50CHL1  H11A 3661   6.159   1.350   6.991 -1.1047  1.1338 -2.2405
   50CHL1  H11B 3662   6.102   1.205   6.920  0.3588  1.5453 -0.7684
   50CHL1    C9 3663   5.941   1.354   6.942 -0.5720 -0.6177  0.5851
   50CHL1    H9 3664   5.858   1.280   6.937 -0.3683 -0.7947 -0.5132
   50CHL1   C10 3665   5.963   1.411   6.800  0.3659 -0.0256  0.2911
   50CHL1   C19 3666   6.085   1.510   6.809 -0.7976 -0.9306  0.3359
   50CHL1  H19A 3667   6.075   1.598   6.876 -0.1658 -2.3522  2.4356
   50CHL1  H19B 3668   6.182   1.458   6.823 -1.0156 -1.6773 -0.7901
   50CHL1  H19C 3669   6.101   1.553   6.708 -1.8902  1.4048  1.0805
   50CHL1    C1 3670   5.990   1.297   6.698  0.1979  0.1151  0.1584
   50CHL1   H1A 3671   6.087   1.254   6.730 -0.5003 -3.0006 -1.4562
   50CHL1   H1B 3672   5.918   1.212   6.697  0.7829 -0.4046 -1.3775
   50CHL1    C2 3673   5.995   1.341   6.554 -0.2825  0.1545  0.0604
   50CHL1   H2A 3674   6.007   1.250   6.491 -0.5729 -0.1571  0.4444
   50CHL1   H2B 3675   6.082   1.407   6.532 -0.4373 -0.3827 -2.3606
   50CHL1   C20 3676   6.049   1.268   7.497  0.2700  0.2433 -0.2304
   50CHL1   H20 3677   6.107   1.359   7.522  1.5538 -0.5296 -0.3345
   50CHL1   C21 3678   6.149   1.173   7.443 -0.0569 -0.3072  0.3777
   50CHL1  H21A 3679   6.103   1.075   7.417 -1.9492  0.7242 -0.3640
   50CHL1  H21B 3680   6.219   1.163   7.528 -2.1110 -0.0322  2.1805
   50CHL1  H21C 3681   6.199   1.214   7.352 -0.8412 -0.2948 -0.0546
   50CHL1   C22 3682   5.985   1.210   7.626 -0.2763  0.0065 -0.2896
   50CHL1  H22A 3683   5.906   1.277   7.666 -0.7326 -0.7448  0.1088
   50CHL1  H22B 3684   5.932   1.115   7.601  0.3260 -0.4306  0.0553
   50CHL1   C23 3685   6.086   1.173   7.739  0.4456  0.5359  0.1885
   50CHL1  H23A 3686   6.138   1.079   7.710  0.0520  0.9320 -1.9602
   50CHL1  H23B 3687   6.169   1.245   7.753  0.3505  0.8121 -0.6627
   50CHL1   C24 3688   6.026   1.138   7.883  0.2939  0.0296  0.1204
   50CHL1  H24A 3689   6.105   1.136   7.962 -0.4836 -1.4574  0.9081
   50CHL1  H24B 3690   5.953   1.221   7.891 -0.6789 -0.5602 -2.0831
   50CHL1   C25 3691   5.942   1.010   7.899  0.4527 -0.0765 -0.0698
   50CHL1   H25 3692   5.848   1.017   7.841  1.2047  1.1377 -1.2050
   50CHL1   C26 3693   6.016   0.883   7.850 -0.4803 -0.5075 -0.0474
   50CHL1  H26A 3694   6.125   0.889   7.873 -0.8628 -0.2343  1.8362
   50CHL1  H26B 3695   5.985   0.785   7.893 -0.4584 -1.3887 -1.8989
   50CHL1  H26C 3696   5.993   0.869   7.742  0.6998 -0.8272 -0.2768
   50CHL1   C27 3697   5.904   0.997   8.044 -0.0060 -0.2962  0.3310
   50CHL1  H27A 3698   5.995   0.992   8.108 -0.0069 -0.2503  0.3367
   50CHL1  H27B 3699   5.836   1.076   8.082 -0.2502 -0.4154  0.1461
   50CHL1  H27C 3700   5.845   0.904   8.063 -1.7579  0.6252 -0.4147
   51CHL1    C3 3701   3.054   2.938   6.880  0.8743 -0.0549  0.1862
   51CHL1    H3 3702   2.967   2.994   6.921  0.3685  1.6949 -3.0127
   51CHL1    O3 3703   3.071   2.965   6.752  0.1423  0.8343  0.2195
   51CHL1   H3' 3704   3.129   2.893   6.727 -2.1837 -1.8685  2.0833
   51CHL1    C4 3705   3.182   2.989   6.953  0.3370  0.0633  0.1517
   51CHL1   H4A 3706   3.279   2.957   6.908  1.0637  0.2936  1.4764
   51CHL1   H4B 3707   3.188   3.098   6.931 -0.4441 -0.0324 -0.5519
   51CHL1    C5 3708   3.184   2.960   7.101  0.1940  1.0284 -0.5670
   51CHL1    C6 3709   3.198   3.060   7.185  0.4126  0.2472 -0.3982
   51CHL1    H6 3710   3.212   3.164   7.153 -0.6188  1.2813  2.2298
   51CHL1    C7 3711   3.187   3.038   7.329 -0.1694 -0.4776 -1.3308
   51CHL1   H7A 3712   3.259   3.103   7.383 -0.5952  0.1490 -1.5042
   51CHL1   H7B 3713   3.089   3.081   7.357  0.0639 -1.3683  1.0345
   51CHL1    C8 3714   3.193   2.887   7.375  0.5070  0.5835 -0.5422
   51CHL1    H8 3715   3.303   2.867   7.374  0.8948  2.2848  1.4707
   51CHL1   C14 3716   3.144   2.871   7.516 -0.0553  0.4018  0.2055
   51CHL1   H14 3717   3.033   2.882   7.518 -0.0992  0.1606 -0.5341
   51CHL1   C15 3718   3.191   2.974   7.616 -0.0240 -0.1460  0.1692
   51CHL1  H15A 3719   3.297   3.004   7.604 -0.2834 -0.1005 -2.7367
   51CHL1  H15B 3720   3.131   3.067   7.610 -0.2602 -0.1119  2.4738
   51CHL1   C16 3721   3.170   2.894   7.750  0.9954  0.4856  0.3514
   51CHL1  H16A 3722   3.266   2.893   7.807  1.4012  3.7356 -0.0683
   51CHL1  H16B 3723   3.090   2.938   7.813  1.1958 -2.3380  2.7935
   51CHL1   C17 3724   3.127   2.742   7.717 -0.7609 -0.9304 -0.2316
   51CHL1   H17 3725   3.017   2.746   7.727 -1.0817  1.8496 -3.2476
   51CHL1   C13 3726   3.161   2.726   7.564 -0.1911 -0.6172  0.0276
   51CHL1   C18 3727   3.307   2.680   7.559 -0.7115  0.1168  0.3602
   51CHL1  H18A 3728   3.376   2.741   7.620  1.1954 -1.1021 -0.4799
   51CHL1  H18B 3729   3.318   2.572   7.580 -1.2337 -0.3713 -1.6250
   51CHL1  H18C 3730   3.350   2.686   7.456 -0.5731  0.9737  0.4613
   51CHL1   C12 3731   3.067   2.638   7.485  0.1221  0.4609  0.2911
   51CHL1  H12A 3732   3.070   2.534   7.524 -2.0900  0.6165  0.9946
   51CHL1  H12B 3733   2.964   2.672   7.507 -0.9569 -0.6348 -2.5034
   51CHL1   C11 3734   3.104   2.645   7.332 -0.3281  0.8934 -0.0368
   51CHL1  H11A 3735   3.204   2.599   7.318 -0.1548  1.9748 -3.0081
   51CHL1  H11B 3736   3.023   2.584   7.285  0.0227  0.7064 -0.4066
   51CHL1    C9 3737   3.111   2.794   7.283 -0.4332  0.2869  0.0358
   51CHL1    H9 3738   3.008   2.834   7.294  0.2868  2.5034 -0.7529
   51CHL1   C10 3739   3.140   2.816   7.133 -0.1784 -0.0011  0.3312
   51CHL1   C19 3740   3.268   2.734   7.096 -0.1860  0.3393 -0.8313
   51CHL1  H19A 3741   3.315   2.763   7.000  0.3253 -1.0820 -1.0215
   51CHL1  H19B 3742   3.345   2.729   7.176  0.5895 -0.6888 -1.6356
   51CHL1  H19C 3743   3.249   2.625   7.085  2.8036 -0.9138  3.6573
   51CHL1    C1 3744   3.021   2.769   7.052  0.3065 -0.3965 -0.2291
   51CHL1   H1A 3745   2.998   2.668   7.094 -0.9926  0.7606  2.0876
   51CHL1   H1B 3746   2.936   2.834   7.085 -0.1710 -0.6871 -0.8757
   51CHL1    C2 3747   3.042   2.786   6.906 -0.5930  0.0500 -0.0010
   51CHL1   H2A 3748   2.958   2.738   6.852  1.2900 -2.4352 -0.9454
   51CHL1   H2B 3749   3.135   2.738   6.868 -0.8656  0.1605 -0.8177
   51CHL1   C20 3750   3.186   2.641   7.820 -0.0118 -0.2760 -0.6832
   51CHL1   H20 3751   3.297   2.649   7.817  0.1401 -1.5772  0.5257
   51CHL1   C21 3752   3.139   2.503   7.791 -0.7121  0.3712  0.5067
   51CHL1  H21A 3753   3.177   2.461   7.695 -2.3711  0.9372 -0.4398
   51CHL1  H21B 3754   3.030   2.484   7.788 -0.9472  1.7560 -2.4053
   51CHL1  H21C 3755   3.190   2.430   7.859 -2.8602 -2.9848 -1.1938
   51CHL1   C22 3756   3.148   2.691   7.962 -0.0381  0.0873  0.9223
   51CHL1  H22A 3757   3.161   2.800   7.976 -1.6283  0.6021 -1.0610
   51CHL1  H22B 3758   3.037   2.684   7.970 -0.0523 -2.2841 -0.4540
   51CHL1   C23 3759   3.203   2.624   8.087  0.1718  0.3341  0.0401
   51CHL1  H23A 3760   3.190   2.515   8.073 -2.3366  0.6374 -0.3893
   51CHL1  H23B 3761   3.312   2.639   8.104  0.2907 -0.7275  0.2656
   51CHL1   C24 3762   3.118   2.672   8.207 -0.5589  0.4768  0.1849
   51CHL1  H24A 3763   3.131   2.782   8.219 -0.8574  0.6210 -0.7074
   51CHL1  H24B 3764   3.012   2.651   8.182 -0.3185 -0.0142 -0.4414
   51CHL1   C25 3765   3.158   2.609   8.342  0.3151  0.5418  0.1592
   51CHL1   H25 3766   3.269   2.610   8.345  0.4038 -1.0203 -1.0650
   51CHL1   C26 3767   3.093   2.676   8.461  0.2483  0.6374  0.2379
   51CHL1  H26A 3768   2.984   2.654   8.458  0.6852 -1.5599 -2.5974
   51CHL1  H26B 3769   3.141   2.630   8.550  0.9735 -1.1448 -1.0098
   51CHL1  H26C 3770   3.120   2.784   8.452  1.6568  0.4897  2.1427
   51CHL1   C27 3771   3.134   2.458   8.355  0.1590 -0.3233 -0.1302
   51CHL1  H27A 3772   3.194   2.399   8.282 -0.1962  1.5296 -2.0285
   51CHL1  H27B 3773   3.166   2.430   8.458 -2.4692 -0.8090  0.6462
   51CHL1  H27C 3774   3.028   2.425   8.351 -0.2525  0.7987  0.9382
   52CHL1    C3 3775   5.441   3.043   6.902 -0.6074 -0.5371  0.7731
   52CHL1    H3 3776   5.343   2.992   6.914 -0.5932 -0.4045  1.5639
   52CHL1    O3 3777   5.436   3.106   6.777  0.4757  0.0350 -0.1336
   52CHL1   H3' 3778   5.528   3.118   6.755  0.4748 -1.5746 -1.1642
   52CHL1    C4 3779   5.452   3.154   7.010 -0.0468  0.4121  0.3401
   52CHL1   H4A 3780   5.540   3.220   6.993  2.5312 -2.4997  1.3376
   52CHL1   H4B 3781   5.363   3.220   7.006 -0.9300 -0.7955 -0.4841
   52CHL1    C5 3782   5.468   3.085   7.148 -0.0322  0.0671 -0.4001
   52CHL1    C6 3783   5.387   3.118   7.250  1.1829  1.0749 -0.6721
   52CHL1    H6 3784   5.318   3.204   7.244  0.5902  0.6432 -0.0792
   52CHL1    C7 3785   5.397   3.062   7.385  0.6388 -0.3915 -0.5019
   52CHL1   H7A 3786   5.406   3.151   7.451 -1.2681  0.2707 -1.0693
   52CHL1   H7B 3787   5.304   3.007   7.409  0.4280 -0.3558 -1.2072
   52CHL1    C8 3788   5.524   2.980   7.410 -0.0136  0.0893 -0.7933
   52CHL1    H8 3789   5.602   3.059   7.415 -0.4714  0.4726  0.8263
   52CHL1   C14 3790   5.522   2.914   7.538  0.1397 -0.3519  0.1268
   52CHL1   H14 3791   5.447   2.833   7.529 -0.8104  0.6058 -0.7945
   52CHL1   C15 3792   5.473   3.001   7.663  0.5868 -0.6303 -0.2425
   52CHL1  H15A 3793   5.521   3.100   7.648  3.0193 -1.4183  1.7754
   52CHL1  H15B 3794   5.362   3.004   7.673  0.6897  3.4306  1.2286
   52CHL1   C16 3795   5.527   2.919   7.784 -0.5076 -0.6198  0.5849
   52CHL1  H16A 3796   5.602   2.989   7.829 -1.5855  1.0608 -0.1251
   52CHL1  H16B 3797   5.456   2.898   7.866 -1.9817  3.2593  0.5188
   52CHL1   C17 3798   5.592   2.790   7.717  0.1395  0.7013 -0.2128
   52CHL1   H17 3799   5.512   2.716   7.694 -1.4288  2.5019 -0.8884
   52CHL1   C13 3800   5.651   2.843   7.581  0.3652  0.1938  0.0507
   52CHL1   C18 3801   5.774   2.941   7.605 -0.9274 -0.1825 -0.2359
   52CHL1  H18A 3802   5.863   2.881   7.636 -1.8641 -1.9876 -0.9134
   52CHL1  H18B 3803   5.817   2.986   7.513  0.9923 -0.2825  0.5692
   52CHL1  H18C 3804   5.747   3.019   7.679  2.7072  0.2837  0.8213
   52CHL1   C12 3805   5.670   2.740   7.462  0.4073  0.0024 -0.3577
   52CHL1  H12A 3806   5.760   2.676   7.472 -0.2204 -0.6238  1.6042
   52CHL1  H12B 3807   5.590   2.665   7.474  1.1610 -0.7548  0.0599
   52CHL1   C11 3808   5.679   2.801   7.328 -0.2186  0.1373  0.1028
   52CHL1  H11A 3809   5.778   2.849   7.316 -0.3054  0.0359 -1.1755
   52CHL1  H11B 3810   5.681   2.714   7.259 -0.8682 -0.0196  0.2703
   52CHL1    C9 3811   5.564   2.894   7.291  0.5226 -0.0773 -0.2909
   52CHL1    H9 3812   5.470   2.835   7.287 -0.6605  1.3657  2.5812
   52CHL1   C10 3813   5.576   2.970   7.158 -0.0000  0.8687 -0.4754
   52CHL1   C19 3814   5.710   3.045   7.152  0.9668 -0.3057 -0.0043
   52CHL1  H19A 3815   5.720   3.119   7.234  1.0656 -0.6525  0.2980
   52CHL1  H19B 3816   5.793   2.972   7.154 -0.4928 -2.1179 -1.1020
   52CHL1  H19C 3817   5.722   3.098   7.055  1.2768 -0.4645 -0.0522
   52CHL1    C1 3818   5.574   2.874   7.034 -0.4571 -0.6601  0.4889
   52CHL1   H1A 3819   5.669   2.817   7.037 -0.5134 -0.8732  4.7355
   52CHL1   H1B 3820   5.491   2.804   7.059 -0.1670 -1.6305 -1.0987
   52CHL1    C2 3821   5.557   2.950   6.899  0.8482  0.2855 -0.2123
   52CHL1   H2A 3822   5.519   2.874   6.828 -0.4972 -0.9551  1.7150
   52CHL1   H2B 3823   5.655   2.994   6.873  0.4536  0.2986 -1.7505
   52CHL1   C20 3824   5.690   2.719   7.807 -0.1497  0.6030 -0.6043
   52CHL1   H20 3825   5.771   2.788   7.839 -0.4680 -0.0966  1.9207
   52CHL1   C21 3826   5.743   2.591   7.743 -0.2522  0.6998 -0.3373
   52CHL1  H21A 3827   5.794   2.524   7.815 -1.9871 -0.5678 -0.2375
   52CHL1  H21B 3828   5.815   2.602   7.659  1.8821 -1.2527  1.1196
   52CHL1  H21C 3829   5.653   2.537   7.707  0.3458 -0.3293 -0.3379
   52CHL1   C22 3830   5.629   2.672   7.946  0.1027 -0.1048  0.0863
   52CHL1  H22A 3831   5.574   2.758   7.990 -0.9558 -1.4313  1.4594
   52CHL1  H22B 3832   5.548   2.601   7.920 -0.9468  1.5640 -1.4114
   52CHL1   C23 3833   5.720   2.621   8.046 -0.1934 -0.4835  0.4151
   52CHL1  H23A 3834   5.788   2.536   8.026  1.4904  0.7164  0.8547
   52CHL1  H23B 3835   5.789   2.706   8.064 -1.7357  1.0396 -0.5618
   52CHL1   C24 3836   5.649   2.586   8.173  0.0635 -0.1069  0.2566
   52CHL1  H24A 3837   5.615   2.674   8.232  4.1139  1.1445  1.0175
   52CHL1  H24B 3838   5.566   2.514   8.158  0.8537 -1.5076  2.1428
   52CHL1   C25 3839   5.742   2.521   8.289  0.4623  0.3252 -0.1192
   52CHL1   H25 3840   5.689   2.541   8.385  0.0873  0.9104 -0.4425
   52CHL1   C26 3841   5.739   2.367   8.276  0.3363 -0.3556  0.1014
   52CHL1  H26A 3842   5.784   2.323   8.367  3.1729 -0.9788 -1.4664
   52CHL1  H26B 3843   5.631   2.340   8.278  0.4622 -1.5148 -2.9235
   52CHL1  H26C 3844   5.793   2.335   8.184  3.7377  1.4006  1.3232
   52CHL1   C27 3845   5.888   2.581   8.302  0.5244 -0.1421  0.1989
   52CHL1  H27A 3846   5.960   2.543   8.227  1.2774 -0.5635  1.1157
   52CHL1  H27B 3847   5.880   2.692   8.292  2.1671  0.0795  1.0064
   52CHL1  H27C 3848   5.927   2.573   8.405 -0.8981  2.1507  0.9913
   53CHL1    C3 3849   2.255   6.352   6.929  0.2210 -0.1432 -0.6133
   53CHL1    H3 3850   2.196   6.269   6.973 -0.8359  1.6031  1.5356
   53CHL1    O3 3851   2.289   6.325   6.795  0.1819 -0.2385  0.5804
   53CHL1   H3' 3852   2.340   6.244   6.803 -1.6546 -1.4853  0.2275
   53CHL1    C4 3853   2.178   6.484   6.948 -0.1622 -0.3715 -1.0457
   53CHL1   H4A 3854   2.235   6.571   6.911 -1.7726  0.5633 -1.4397
   53CHL1   H4B 3855   2.091   6.477   6.879 -2.2798  1.7160  1.1678
   53CHL1    C5 3856   2.140   6.504   7.093  0.5723 -0.1891  0.0930
   53CHL1    C6 3857   2.012   6.525   7.129  0.0768  0.1040 -0.1411
   53CHL1    H6 3858   1.936   6.518   7.050  0.1954 -0.5578 -0.2022
   53CHL1    C7 3859   1.971   6.568   7.264 -0.1212  0.0570  0.1570
   53CHL1   H7A 3860   1.891   6.644   7.273 -0.2541 -0.2302  1.5185
   53CHL1   H7B 3861   1.929   6.471   7.300  0.3964  0.2129  1.2354
   53CHL1    C8 3862   2.085   6.609   7.361 -0.7195  0.4186 -0.4549
   53CHL1    H8 3863   2.121   6.711   7.338  0.7567  0.3293  1.2783
   53CHL1   C14 3864   2.035   6.601   7.505 -0.2017  0.0315  0.5715
   53CHL1   H14 3865   2.015   6.492   7.513  0.9675 -0.3048 -0.6111
   53CHL1   C15 3866   1.906   6.674   7.548 -0.4987  0.2999 -0.1150
   53CHL1  H15A 3867   1.886   6.773   7.504 -1.1719  0.3266  0.2322
   53CHL1  H15B 3868   1.825   6.610   7.508  0.9111 -0.0348 -2.6032
   53CHL1   C16 3869   1.916   6.680   7.697  0.2235  0.2206 -0.7031
   53CHL1  H16A 3870   1.898   6.780   7.741 -2.9228  0.6202 -2.5803
   53CHL1  H16B 3871   1.850   6.608   7.750  1.0803  0.3327  0.5622
   53CHL1   C17 3872   2.058   6.624   7.728 -0.0319 -0.0738 -0.0368
   53CHL1   H17 3873   2.048   6.514   7.743  1.2089 -0.0301  1.3095
   53CHL1   C13 3874   2.142   6.635   7.606 -0.7946 -0.2024  0.4808
   53CHL1   C18 3875   2.168   6.780   7.585  0.1974 -0.1894 -0.3132
   53CHL1  H18A 3876   2.246   6.803   7.661 -0.7136  0.6192  0.4004
   53CHL1  H18B 3877   2.216   6.802   7.487 -0.0352 -2.3599 -0.9511
   53CHL1  H18C 3878   2.090   6.856   7.609 -0.5580 -1.0950  0.1770
   53CHL1   C12 3879   2.262   6.545   7.581  0.2751 -0.4629 -0.0516
   53CHL1  H12A 3880   2.351   6.580   7.637 -1.3158  2.0712  1.0676
   53CHL1  H12B 3881   2.237   6.444   7.619  2.3685 -0.2492  2.0843
   53CHL1   C11 3882   2.308   6.544   7.434 -0.0193 -0.0020  0.2374
   53CHL1  H11A 3883   2.344   6.648   7.421 -1.9301  0.6543 -0.0279
   53CHL1  H11B 3884   2.392   6.471   7.435  0.7147  0.8197 -0.4026
   53CHL1    C9 3885   2.203   6.516   7.332  0.0822 -0.2787 -0.0783
   53CHL1    H9 3886   2.177   6.410   7.355 -1.2380 -0.4389 -2.0582
   53CHL1   C10 3887   2.262   6.516   7.190 -0.1942  0.7780  0.4810
   53CHL1   C19 3888   2.334   6.654   7.167 -0.0813 -0.3632  0.4801
   53CHL1  H19A 3889   2.431   6.662   7.222  0.9400 -3.2641 -0.7057
   53CHL1  H19B 3890   2.366   6.663   7.061  1.1995  0.8435  0.9324
   53CHL1  H19C 3891   2.274   6.746   7.186  0.8663  0.9178 -2.2167
   53CHL1    C1 3892   2.353   6.393   7.169 -0.1997 -0.4356 -0.2653
   53CHL1   H1A 3893   2.449   6.417   7.220  0.2286  0.5148 -1.4540
   53CHL1   H1B 3894   2.312   6.306   7.224 -0.7927  0.5169  0.8247
   53CHL1    C2 3895   2.378   6.356   7.020 -0.8055  0.6114 -0.4796
   53CHL1   H2A 3896   2.444   6.267   7.012  0.3256  1.4733 -1.1107
   53CHL1   H2B 3897   2.457   6.424   6.980  1.2561 -1.7700 -0.7075
   53CHL1   C20 3898   2.106   6.676   7.870  0.6313 -0.3819 -0.2374
   53CHL1   H20 3899   2.125   6.785   7.865  0.2939 -0.2361  1.3064
   53CHL1   C21 3900   2.233   6.598   7.904  0.1388  0.5046  0.3400
   53CHL1  H21A 3901   2.215   6.489   7.900  3.2457 -0.0684 -1.0965
   53CHL1  H21B 3902   2.262   6.612   8.010 -1.6959 -2.5306  1.3476
   53CHL1  H21C 3903   2.321   6.626   7.842  0.1965 -1.1756 -0.3863
   53CHL1   C22 3904   2.009   6.659   7.985  0.1430  0.3869  0.5006
   53CHL1  H22A 3905   2.044   6.711   8.076  0.5986 -0.3626  0.7630
   53CHL1  H22B 3906   1.916   6.717   7.963 -0.9162 -1.6403 -0.6865
   53CHL1   C23 3907   1.976   6.516   8.028  0.0787  0.2300  0.2680
   53CHL1  H23A 3908   1.945   6.462   7.936  0.8427  2.2806 -1.2755
   53CHL1  H23B 3909   2.066   6.471   8.073  0.7218  0.5788 -0.6335
   53CHL1   C24 3910   1.866   6.499   8.136  0.9395 -0.5484  0.1759
   53CHL1  H24A 3911   1.855   6.389   8.146 -0.4598 -0.2356  3.0614
   53CHL1  H24B 3912   1.915   6.535   8.229  0.4872 -1.4513  0.7715
   53CHL1   C25 3913   1.734   6.595   8.123 -1.1581  0.3962 -0.4792
   53CHL1   H25 3914   1.773   6.699   8.118  0.5664 -0.2626 -1.8326
   53CHL1   C26 3915   1.660   6.577   7.996  0.1113 -0.1647 -0.4448
   53CHL1  H26A 3916   1.691   6.646   7.915 -1.5392  1.4517  0.2383
   53CHL1  H26B 3917   1.666   6.469   7.968  2.6336 -0.7547  1.9202
   53CHL1  H26C 3918   1.553   6.594   8.019  0.1727 -0.5980  0.2162
   53CHL1   C27 3919   1.642   6.573   8.242  0.1217 -0.6496 -0.0882
   53CHL1  H27A 3920   1.588   6.476   8.235 -1.3796  0.1989 -0.7281
   53CHL1  H27B 3921   1.703   6.590   8.334  1.6255  1.9663 -1.4693
   53CHL1  H27C 3922   1.558   6.646   8.233  0.2827 -0.3985  0.3902
   54CHL1    C3 3923   2.942   1.148   7.056 -0.5451 -0.2794  0.4178
   54CHL1    H3 3924   2.856   1.080   7.036  0.0437 -2.0827  3.4499
   54CHL1    O3 3925   2.966   1.230   6.944  0.1662 -0.0306 -0.4163
   54CHL1   H3' 3926   2.919   1.186   6.874 -1.8101 -0.0986  0.8823
   54CHL1    C4 3927   2.914   1.245   7.169  0.1959 -0.6329 -0.1587
   54CHL1   H4A 3928   2.999   1.316   7.170  0.8782 -1.3344 -2.4246
   54CHL1   H4B 3929   2.825   1.300   7.133  1.0321 -0.1687 -1.6241
   54CHL1    C5 3930   2.899   1.174   7.303 -0.1680 -0.2062 -0.2333
   54CHL1    C6 3931   2.794   1.190   7.386 -0.7043  0.1221 -0.2056
   54CHL1    H6 3932   2.701   1.243   7.362 -1.0183 -0.0088  0.6835
   54CHL1    C7 3933   2.797   1.128   7.523  0.2424 -0.5847 -0.7449
   54CHL1   H7A 3934   2.760   1.197   7.601  1.9060  0.8663 -1.1651
   54CHL1   H7B 3935   2.743   1.031   7.534  2.8291 -2.2486 -1.6431
   54CHL1    C8 3936   2.936   1.076   7.572  0.4680 -0.0002 -0.5438
   54CHL1    H8 3937   2.987   1.170   7.601 -1.9452  0.5747  2.3021
   54CHL1   C14 3938   2.920   0.988   7.692 -0.1913  0.0105  0.5698
   54CHL1   H14 3939   2.861   0.905   7.646 -0.8803  1.1557 -0.7128
   54CHL1   C15 3940   2.835   1.044   7.816  0.0307  0.0629  0.0128
   54CHL1  H15A 3941   2.858   1.147   7.851  4.2075 -0.3834 -0.8796
   54CHL1  H15B 3942   2.729   1.034   7.784 -0.5955  0.3490  1.8711
   54CHL1   C16 3943   2.870   0.938   7.920 -0.0943 -0.6174  0.3011
   54CHL1  H16A 3944   2.908   0.993   8.008  0.9505  0.9180 -1.0606
   54CHL1  H16B 3945   2.787   0.872   7.954  0.3525 -0.3979  1.9104
   54CHL1   C17 3946   2.991   0.849   7.870 -0.1496  0.3088 -0.5888
   54CHL1   H17 3947   2.957   0.751   7.830 -0.6212 -0.2131  1.0290
   54CHL1   C13 3948   3.047   0.928   7.745 -0.4371  0.5691 -0.0179
   54CHL1   C18 3949   3.133   1.046   7.787 -0.3208 -0.7787 -0.1844
   54CHL1  H18A 3950   3.089   1.113   7.864  1.1368 -0.6087  0.5483
   54CHL1  H18B 3951   3.226   1.007   7.834 -0.7656 -0.1002  1.3497
   54CHL1  H18C 3952   3.163   1.116   7.706  1.1261  2.5391  2.9073
   54CHL1   C12 3953   3.110   0.840   7.630 -0.9099 -0.6444 -0.4663
   54CHL1  H12A 3954   3.207   0.797   7.660 -0.9881 -1.6225 -1.5334
   54CHL1  H12B 3955   3.031   0.763   7.615 -0.9289 -0.3555 -2.0829
   54CHL1   C11 3956   3.132   0.924   7.499  0.1102 -0.3891 -0.9760
   54CHL1  H11A 3957   3.219   0.987   7.529  0.2540 -0.1054 -1.9423
   54CHL1  H11B 3958   3.163   0.848   7.424 -0.9811 -1.4019 -0.4339
   54CHL1    C9 3959   3.005   0.995   7.456 -0.1069  0.0416  0.5889
   54CHL1    H9 3960   2.937   0.911   7.431 -1.4877  1.6328 -1.3143
   54CHL1   C10 3961   3.023   1.082   7.332 -0.2656 -0.6383  0.4317
   54CHL1   C19 3962   3.157   1.169   7.349  0.0101  0.6877  0.9585
   54CHL1  H19A 3963   3.133   1.229   7.440 -0.6104  2.3598 -0.2489
   54CHL1  H19B 3964   3.249   1.112   7.373  1.4920  1.9511 -1.3617
   54CHL1  H19C 3965   3.176   1.239   7.265 -0.4119 -2.9260 -2.4602
   54CHL1    C1 3966   3.052   0.989   7.210 -0.5037  0.0651 -0.1858
   54CHL1   H1A 3967   3.146   0.932   7.227 -1.1588 -0.6701  1.2206
   54CHL1   H1B 3968   2.965   0.921   7.193 -0.2923 -0.6528  1.3944
   54CHL1    C2 3969   3.067   1.063   7.077  0.0062  0.3809  0.1250
   54CHL1   H2A 3970   3.084   0.993   6.992 -3.5237 -0.6114  0.0818
   54CHL1   H2B 3971   3.161   1.123   7.073  0.2842 -0.0653 -0.3236
   54CHL1   C20 3972   3.087   0.821   7.979  0.1404 -0.4660 -0.2064
   54CHL1   H20 3973   3.133   0.912   8.023  1.3829 -1.5521  0.8410
   54CHL1   C21 3974   3.203   0.733   7.929  0.4675  0.5922  0.0354
   54CHL1  H21A 3975   3.161   0.642   7.881  2.5354  0.0095 -0.7809
   54CHL1  H21B 3976   3.260   0.700   8.018  1.5817 -1.9819 -1.5091
   54CHL1  H21C 3977   3.269   0.779   7.852 -0.9878  2.1728 -0.3371
   54CHL1   C22 3978   3.036   0.751   8.109  0.3351  0.1263 -0.0307
   54CHL1  H22A 3979   3.118   0.704   8.167 -0.3602 -1.4931 -0.3139
   54CHL1  H22B 3980   2.980   0.822   8.174 -0.7250 -0.0396 -0.7300
   54CHL1   C23 3981   2.950   0.625   8.081  0.5234 -0.4281 -0.1546
   54CHL1  H23A 3982   2.854   0.662   8.039  2.1313  2.0236 -1.9668
   54CHL1  H23B 3983   2.996   0.555   8.008 -0.0806 -1.3683  0.3449
   54CHL1   C24 3984   2.903   0.537   8.193  0.0845 -0.1194 -0.5600
   54CHL1  H24A 3985   2.839   0.599   8.259  3.7544  2.7199  0.6662
   54CHL1  H24B 3986   2.835   0.461   8.148  0.7625 -1.0832  0.0037
   54CHL1   C25 3987   3.015   0.474   8.292 -0.0959  0.2440  0.1057
   54CHL1   H25 3988   3.083   0.559   8.316  0.4561 -0.5926  1.6167
   54CHL1   C26 3989   2.930   0.421   8.405 -0.5896  0.6012 -0.3461
   54CHL1  H26A 3990   2.864   0.501   8.446 -0.4360  0.0188  1.1013
   54CHL1  H26B 3991   2.864   0.341   8.365  0.6194 -1.0363  0.7802
   54CHL1  H26C 3992   2.973   0.371   8.495 -1.6957 -0.3759 -0.3392
   54CHL1   C27 3993   3.096   0.365   8.225 -0.0921 -0.5784 -0.7989
   54CHL1  H27A 3994   3.163   0.313   8.296  1.2787 -0.3939 -1.9166
   54CHL1  H27B 3995   3.029   0.292   8.175  1.4814 -1.6076 -1.4516
   54CHL1  H27C 3996   3.157   0.404   8.140 -0.8583 -1.7395 -1.9309
   55CHL1    C3 3997   3.104   2.214   6.967 -0.4534  0.1015  0.0063
   55CHL1    H3 3998   3.083   2.322   6.985 -0.6168 -0.0501  0.7602
   55CHL1    O3 3999   3.131   2.204   6.827  0.0137 -0.3436 -0.3841
   55CHL1   H3' 4000   3.131   2.108   6.819 -1.5320 -0.3807 -0.1455
   55CHL1    C4 4001   3.219   2.181   7.063 -0.2184 -0.3752 -0.2122
   55CHL1   H4A 4002   3.248   2.079   7.031 -0.8972 -0.3714 -0.8796
   55CHL1   H4B 4003   3.305   2.247   7.041 -1.1259  0.4617 -1.3765
   55CHL1    C5 4004   3.179   2.189   7.208  0.0165  0.2668 -0.2525
   55CHL1    C6 4005   3.257   2.255   7.293  0.3189 -0.2227 -0.3339
   55CHL1    H6 4006   3.347   2.308   7.257 -1.4513  3.3070 -0.0000
   55CHL1    C7 4007   3.237   2.247   7.447 -0.2606  0.8346  1.1432
   55CHL1   H7A 4008   3.337   2.222   7.491  0.1841 -1.4574 -0.9413
   55CHL1   H7B 4009   3.200   2.340   7.495 -1.4692 -0.1725  2.2515
   55CHL1    C8 4010   3.142   2.127   7.477 -0.5240  0.8709 -0.2825
   55CHL1    H8 4011   3.190   2.028   7.461 -2.6046  0.2271 -3.2485
   55CHL1   C14 4012   3.098   2.148   7.626 -0.6624  0.0191  1.0803
   55CHL1   H14 4013   3.041   2.242   7.639 -0.7299 -0.1005  1.6392
   55CHL1   C15 4014   3.219   2.151   7.722 -0.1202 -0.0955 -0.6128
   55CHL1  H15A 4015   3.295   2.081   7.680  0.0703  0.7129 -1.6553
   55CHL1  H15B 4016   3.274   2.247   7.735 -0.2370 -0.1710  0.5477
   55CHL1   C16 4017   3.149   2.111   7.861  0.1293 -0.2156  0.0988
   55CHL1  H16A 4018   3.212   2.049   7.929 -0.6777 -0.7417  0.3752
   55CHL1  H16B 4019   3.158   2.214   7.901 -1.1687  0.8962 -2.2456
   55CHL1   C17 4020   3.004   2.072   7.829  0.2483  0.3210 -0.0730
   55CHL1   H17 4021   2.943   2.163   7.850  1.5079  1.0283  0.6985
   55CHL1   C13 4022   3.005   2.038   7.674  0.2193  0.2786  0.5380
   55CHL1   C18 4023   3.061   1.899   7.652 -0.5208 -0.4038 -0.3917
   55CHL1  H18A 4024   3.045   1.870   7.546 -1.7489  1.8697 -0.8942
   55CHL1  H18B 4025   3.170   1.889   7.670 -0.5757 -2.7902 -0.9839
   55CHL1  H18C 4026   3.008   1.824   7.714 -2.5390  0.1810 -1.3344
   55CHL1   C12 4027   2.875   2.062   7.597 -0.0838 -0.1454  0.3205
   55CHL1  H12A 4028   2.800   1.986   7.628  1.5074 -0.8094  2.8069
   55CHL1  H12B 4029   2.849   2.167   7.625  0.4513 -0.0043  0.2940
   55CHL1   C11 4030   2.893   2.053   7.443  0.5539 -0.4914 -0.4300
   55CHL1  H11A 4031   2.899   1.945   7.418  1.6945 -0.9690  1.6648
   55CHL1  H11B 4032   2.799   2.080   7.390  1.1093  0.9216 -0.7469
   55CHL1    C9 4033   3.016   2.133   7.389 -0.5484 -0.0548 -0.1544
   55CHL1    H9 4034   2.986   2.239   7.394  0.3255  0.1879  0.0740
   55CHL1   C10 4035   3.052   2.103   7.238  0.0795  0.1826  0.2141
   55CHL1   C19 4036   3.087   1.951   7.228 -0.7847  0.4447  0.1869
   55CHL1  H19A 4037   3.121   1.923   7.126 -2.2649  0.9322 -0.4740
   55CHL1  H19B 4038   3.171   1.926   7.295 -0.4032 -0.2831 -0.5454
   55CHL1  H19C 4039   2.999   1.886   7.249 -0.4467 -0.2729 -0.5456
   55CHL1    C1 4040   2.942   2.137   7.149  0.4089  0.2450 -0.1547
   55CHL1   H1A 4041   2.848   2.081   7.167  0.6844 -0.9220 -2.0009
   55CHL1   H1B 4042   2.921   2.245   7.165 -1.1111 -0.2246  1.3197
   55CHL1    C2 4043   2.984   2.130   6.998 -0.3243 -0.0820  0.5569
   55CHL1   H2A 4044   2.898   2.155   6.933  0.4116 -2.0408 -1.3069
   55CHL1   H2B 4045   3.007   2.026   6.964 -0.2904  0.0969  0.0216
   55CHL1   C20 4046   2.942   1.970   7.928 -0.1189 -0.8034  0.1834
   55CHL1   H20 4047   2.996   1.873   7.922  0.1378 -0.6762  0.4396
   55CHL1   C21 4048   2.799   1.938   7.901 -0.2137  0.2803  0.2023
   55CHL1  H21A 4049   2.755   1.873   7.979  1.7420 -0.7362  0.5180
   55CHL1  H21B 4050   2.814   1.883   7.806 -0.5644 -1.5573  1.1790
   55CHL1  H21C 4051   2.743   2.032   7.879 -1.3669 -0.4183  0.0543
   55CHL1   C22 4052   2.955   2.022   8.075  0.2642  0.2046 -0.6477
   55CHL1  H22A 4053   3.049   2.080   8.088 -0.8222  1.9778 -0.4236
   55CHL1  H22B 4054   2.873   2.096   8.090  1.3890  1.0893  1.7024
   55CHL1   C23 4055   2.948   1.918   8.187  0.6618  0.1012  0.3893
   55CHL1  H23A 4056   2.867   1.845   8.166  1.5598 -0.4835 -1.1463
   55CHL1  H23B 4057   3.038   1.854   8.190 -0.1494 -1.2019 -1.4410
   55CHL1   C24 4058   2.926   1.985   8.324 -0.4560 -0.4284 -0.0800
   55CHL1  H24A 4059   2.824   2.028   8.321  1.3989  4.7837  0.2268
   55CHL1  H24B 4060   2.920   1.908   8.403  1.5767  0.6238  1.1851
   55CHL1   C25 4061   3.031   2.082   8.373  0.0597 -0.2140  0.0737
   55CHL1   H25 4062   3.033   2.172   8.307  0.5470  1.0805  1.7834
   55CHL1   C26 4063   2.994   2.142   8.510  0.2624  0.2959  0.3763
   55CHL1  H26A 4064   3.012   2.068   8.590  0.8042 -0.8959 -0.8112
   55CHL1  H26B 4065   3.071   2.218   8.535  1.6816 -0.3091 -1.8339
   55CHL1  H26C 4066   2.893   2.186   8.494  0.2058 -0.5128 -1.7768
   55CHL1   C27 4067   3.169   2.016   8.388 -0.2840 -0.3113 -0.5181
   55CHL1  H27A 4068   3.169   1.937   8.466 -0.2431 -0.0619 -0.2659
   55CHL1  H27B 4069   3.192   1.970   8.289 -2.0810 -0.9601 -0.6780
   55CHL1  H27C 4070   3.239   2.098   8.411 -2.0683  1.1512 -0.0937
   56CHL1    C3 4071   2.134   1.704   6.776  1.1786 -0.1074  0.9215
   56CHL1    H3 4072   2.145   1.814   6.792  2.0942 -0.3230  1.8962
   56CHL1    O3 4073   2.199   1.667   6.659  0.4889  0.1334  0.1129
   56CHL1   H3' 4074   2.148   1.717   6.595  1.1870 -0.0952 -0.6450
   56CHL1    C4 4075   2.205   1.626   6.887 -0.3534  0.3626 -0.2855
   56CHL1   H4A 4076   2.192   1.519   6.861 -2.6213  0.2312  1.1914
   56CHL1   H4B 4077   2.315   1.641   6.876 -0.3022 -0.1085 -0.4250
   56CHL1    C5 4078   2.148   1.642   7.027 -1.2531  0.0109  0.3096
   56CHL1    C6 4079   2.228   1.679   7.129 -0.2020 -0.5632 -0.9027
   56CHL1    H6 4080   2.335   1.686   7.102  0.2811  2.7762  1.2856
   56CHL1    C7 4081   2.178   1.704   7.274  0.3525  0.0114  0.0439
   56CHL1   H7A 4082   2.245   1.662   7.352  0.2774  1.2644  0.8009
   56CHL1   H7B 4083   2.169   1.814   7.283 -2.3110 -0.2340  1.3851
   56CHL1    C8 4084   2.035   1.640   7.284  0.2988 -0.9173 -0.7972
   56CHL1    H8 4085   2.057   1.531   7.287 -1.6565 -1.3218 -0.2278
   56CHL1   C14 4086   1.980   1.694   7.417  0.5807  0.0246  0.6524
   56CHL1   H14 4087   1.978   1.804   7.405 -1.8106 -0.2197 -2.1415
   56CHL1   C15 4088   2.058   1.670   7.546  0.1317  0.2434  0.2409
   56CHL1  H15A 4089   2.114   1.575   7.530 -1.3536 -0.7514  0.8038
   56CHL1  H15B 4090   2.136   1.748   7.558  0.6615 -0.1726 -0.3651
   56CHL1   C16 4091   1.956   1.655   7.655  0.5642 -0.1907  0.0154
   56CHL1  H16A 4092   1.952   1.548   7.684 -4.5479 -0.0947  0.4840
   56CHL1  H16B 4093   1.986   1.722   7.739  0.0154  1.0071 -0.7345
   56CHL1   C17 4094   1.822   1.688   7.586 -0.0377  0.0225 -0.0980
   56CHL1   H17 4095   1.817   1.798   7.573  4.0274  0.2982 -0.7401
   56CHL1   C13 4096   1.842   1.642   7.440  0.2669  0.3299 -0.4043
   56CHL1   C18 4097   1.828   1.483   7.437  0.3519  0.1894 -0.0792
   56CHL1  H18A 4098   1.724   1.457   7.467  0.9525 -2.0095  0.2928
   56CHL1  H18B 4099   1.857   1.439   7.340  0.4188  1.4709 -0.6553
   56CHL1  H18C 4100   1.897   1.434   7.511  0.1962  1.4392  0.9292
   56CHL1   C12 4101   1.746   1.697   7.342  0.1298 -0.3476 -0.2222
   56CHL1  H12A 4102   1.647   1.648   7.353  0.2571 -0.5819 -0.1190
   56CHL1  H12B 4103   1.740   1.807   7.355  0.0790  0.1546 -3.6849
   56CHL1   C11 4104   1.796   1.664   7.198  0.1990  0.2624  0.3226
   56CHL1  H11A 4105   1.768   1.558   7.177 -0.7767  0.4508  0.6067
   56CHL1  H11B 4106   1.730   1.711   7.123  1.1596 -0.7710 -1.2154
   56CHL1    C9 4107   1.943   1.686   7.164  0.4899 -0.0490 -0.8269
   56CHL1    H9 4108   1.949   1.797   7.169  0.3773 -0.0981  0.9237
   56CHL1   C10 4109   1.994   1.621   7.032  0.2025 -0.3075  0.7007
   56CHL1   C19 4110   1.964   1.469   7.015  0.2455 -0.7147  0.3602
   56CHL1  H19A 4111   2.010   1.400   7.088  1.5739 -0.1359  0.0995
   56CHL1  H19B 4112   1.855   1.449   7.022  0.2576 -0.2028  2.5939
   56CHL1  H19C 4113   2.003   1.431   6.918 -0.1815 -1.4589  0.4690
   56CHL1    C1 4114   1.932   1.702   6.915 -0.3326 -0.3734 -0.4943
   56CHL1   H1A 4115   1.821   1.694   6.914 -0.5299  1.7202  0.2722
   56CHL1   H1B 4116   1.938   1.813   6.918 -1.8422 -0.2832  1.6709
   56CHL1    C2 4117   1.983   1.666   6.776 -0.0616  0.8403  0.4740
   56CHL1   H2A 4118   1.935   1.728   6.698 -1.0145 -0.4938 -0.0261
   56CHL1   H2B 4119   1.972   1.562   6.739 -0.6811  1.1990 -0.3840
   56CHL1   C20 4120   1.686   1.647   7.658 -0.0201 -0.1842 -0.5710
   56CHL1   H20 4121   1.655   1.550   7.612  1.2318 -1.0688  0.3820
   56CHL1   C21 4122   1.581   1.757   7.633  0.4454 -0.4284  0.1238
   56CHL1  H21A 4123   1.576   1.784   7.525 -0.3321  1.4287  0.5965
   56CHL1  H21B 4124   1.626   1.847   7.679  0.4195  0.5359 -1.6533
   56CHL1  H21C 4125   1.479   1.745   7.673  0.2783 -2.8716 -0.8520
   56CHL1   C22 4126   1.710   1.618   7.808  0.4678 -0.3043 -0.0130
   56CHL1  H22A 4127   1.784   1.535   7.815  0.4326 -0.9111 -4.0648
   56CHL1  H22B 4128   1.748   1.710   7.857  0.7341  0.1645 -1.0736
   56CHL1   C23 4129   1.591   1.559   7.895 -0.3283  0.2763 -0.2160
   56CHL1  H23A 4130   1.505   1.628   7.880  0.8057  1.3127 -2.6297
   56CHL1  H23B 4131   1.563   1.458   7.859  2.5796 -0.8125  0.3218
   56CHL1   C24 4132   1.621   1.548   8.043  0.6229  0.3540  0.4882
   56CHL1  H24A 4133   1.520   1.548   8.091  1.1389  1.5776  1.6185
   56CHL1  H24B 4134   1.661   1.448   8.072 -0.7391 -0.3853 -0.0721
   56CHL1   C25 4135   1.694   1.673   8.104 -0.5174  0.3642  0.3366
   56CHL1   H25 4136   1.791   1.682   8.051 -0.0199 -2.1287  0.7209
   56CHL1   C26 4137   1.626   1.809   8.095  0.7945 -0.5657  0.1125
   56CHL1  H26A 4138   1.563   1.832   8.184  1.0843 -2.3726  0.8166
   56CHL1  H26B 4139   1.556   1.812   8.010  0.2790  1.3725  0.5589
   56CHL1  H26C 4140   1.698   1.892   8.076  0.6078 -0.1517  1.1333
   56CHL1   C27 4141   1.737   1.642   8.247  0.5162 -0.1203  0.3332
   56CHL1  H27A 4142   1.645   1.631   8.309 -0.3954  0.0590 -0.9356
   56CHL1  H27B 4143   1.803   1.553   8.249  0.3978 -0.2278 -0.2159
   56CHL1  H27C 4144   1.792   1.725   8.297  0.4652 -0.3274  0.7337
   57SAPC     N 4145   0.354   5.222  10.822  0.7766  0.2008  0.0604
   57SAPC   C12 4146   0.423   5.093  10.777  0.5689 -0.0288 -0.2677
   57SAPC  H12A 4147   0.349   5.025  10.737  0.1928 -0.0332  0.4194
   57SAPC  H12B 4148   0.458   5.044  10.867  1.2598 -1.7987 -1.4275
   57SAPC   C13 4149   0.453   5.293  10.903 -0.5361  0.1674 -0.1798
   57SAPC  H13A 4150   0.544   5.319  10.852 -0.0836 -0.8002  0.1066
   57SAPC  H13B 4151   0.410   5.385  10.941  0.6329 -0.9132  4.3777
   57SAPC  H13C 4152   0.479   5.226  10.984 -2.5120 -0.1559  0.2425
   57SAPC   C14 4153   0.313   5.304  10.704  0.8741  0.4359 -0.4762
   57SAPC  H14A 4154   0.254   5.252  10.630 -0.7518  0.4396  0.7406
   57SAPC  H14B 4155   0.250   5.390  10.720  0.3758  0.3227 -1.7507
   57SAPC  H14C 4156   0.401   5.330  10.648  2.5598 -0.2578  1.7086
   57SAPC   C15 4157   0.233   5.192  10.908 -0.6654  0.1304  0.2774
   57SAPC  H15A 4158   0.204   5.277  10.968  0.5478  2.3994 -2.1818
   57SAPC  H15B 4159   0.159   5.145  10.845  1.6550 -0.5312 -2.1332
   57SAPC  H15C 4160   0.259   5.118  10.983  0.8115  0.7199  0.3828
   57SAPC   C11 4161   0.529   5.099  10.661 -0.0529  0.0289  0.3055
   57SAPC  H11A 4162   0.489   5.144  10.568  2.4265  0.9311 -0.4164
   57SAPC  H11B 4163   0.550   4.993  10.635 -1.3107 -0.0118 -0.6023
   57SAPC     P 4164   0.709   5.279  10.641  0.1465 -0.2629 -0.0868
   57SAPC   O13 4165   0.660   5.402  10.715 -0.0326  0.0941  0.5920
   57SAPC   O14 4166   0.857   5.264  10.641  0.6069 -0.1572 -0.0028
   57SAPC   O12 4167   0.651   5.150  10.710 -0.5429 -0.2804 -0.3630
   57SAPC   O11 4168   0.651   5.269  10.494  0.4242  0.0488 -0.0728
   57SAPC    C1 4169   0.603   5.380  10.410 -0.1377 -0.3233  0.1785
   57SAPC    HA 4170   0.594   5.470  10.475 -2.9413  0.1407 -0.7080
   57SAPC    HB 4171   0.665   5.393  10.319 -0.4803 -0.5932 -0.0969
   57SAPC    C2 4172   0.466   5.355  10.345 -0.1421  0.6592  0.2713
   57SAPC    HS 4173   0.398   5.292  10.404  0.0743  2.0155  2.0487
   57SAPC   O21 4174   0.500   5.298  10.219 -0.0388  0.4982  0.3129
   57SAPC   C21 4175   0.429   5.196  10.172 -0.7225 -0.6638  0.0578
   57SAPC   O22 4176   0.340   5.141  10.235 -0.2244  0.0263  0.6166
   57SAPC   C22 4177   0.483   5.144  10.044 -0.0999  0.0333  0.2969
   57SAPC   H2R 4178   0.593   5.130  10.054  0.2438  1.5531 -0.9491
   57SAPC   H2S 4179   0.448   5.044  10.011 -1.1789  0.5822 -0.2657
   57SAPC    C3 4180   0.391   5.492  10.319 -0.9957  0.4044 -0.3108
   57SAPC    HX 4181   0.450   5.534  10.235 -0.2304  1.3176  0.6613
   57SAPC    HY 4182   0.398   5.556  10.409 -2.4448 -0.0264  0.1237
   57SAPC   O31 4183   0.262   5.462  10.275  0.1900  0.0037  0.2375
   57SAPC   C31 4184   0.169   5.463  10.363 -0.0961  0.7875 -0.4944
   57SAPC   O32 4185   0.177   5.497  10.477  0.0399 -0.3236 -0.2324
   57SAPC   C32 4186   0.040   5.399  10.308 -1.1257 -0.4075 -0.5096
   57SAPC   H2X 4187  -0.042   5.431  10.375 -0.5807  0.0616 -0.0627
   57SAPC   H2Y 4188   0.052   5.288  10.303 -0.4470 -0.2959 -1.9290
   57SAPC   C23 4189   0.450   5.237   9.919 -0.5586 -0.7112 -0.8183
   57SAPC   H3R 4190   0.492   5.339   9.930 -2.4954 -0.0657  1.5668
   57SAPC   H3S 4191   0.339   5.240   9.909 -0.7130 -0.5421  0.7636
   57SAPC   C24 4192   0.507   5.185   9.781  0.4390  1.0815 -0.1258
   57SAPC   H4R 4193   0.475   5.261   9.706  1.0216  1.5545  0.0910
   57SAPC   H4S 4194   0.468   5.083   9.764  0.9884  0.9782 -0.8048
   57SAPC   C25 4195   0.658   5.171   9.790  0.2636  1.1581 -0.0784
   57SAPC   H5R 4196   0.700   5.166   9.891  0.2297  2.1449 -0.0005
   57SAPC   C26 4197   0.751   5.190   9.689 -1.0483 -0.4214 -0.0046
   57SAPC   H6R 4198   0.855   5.164   9.715 -1.5967 -1.5889  1.1421
   57SAPC   C27 4199   0.730   5.231   9.548 -0.1613 -0.3414 -0.5112
   57SAPC   H7R 4200   0.825   5.218   9.492 -0.0862  0.9052 -0.7070
   57SAPC   H7S 4201   0.726   5.342   9.544  4.4847  0.0774  0.9717
   57SAPC   C28 4202   0.626   5.148   9.480 -0.3504  0.5050 -0.2908
   57SAPC   H8R 4203   0.615   5.054   9.536  0.1196  0.5549 -0.1112
   57SAPC   C29 4204   0.541   5.172   9.376  0.2667  0.2217 -0.1976
   57SAPC   H9R 4205   0.493   5.087   9.325  2.8087 -0.7126 -1.2208
   57SAPC  C210 4206   0.536   5.303   9.302 -0.7140 -0.2338  0.0081
   57SAPC  H10R 4207   0.569   5.377   9.378  0.1629  2.0004 -2.3953
   57SAPC  H10S 4208   0.433   5.328   9.268 -0.6083  2.3960  1.3346
   57SAPC  C211 4209   0.649   5.300   9.198  0.0433 -0.0106  0.3358
   57SAPC  H11R 4210   0.743   5.259   9.236  1.0736  2.0599  0.1626
   57SAPC  C212 4211   0.648   5.361   9.077 -0.4690  0.7088 -0.4413
   57SAPC  H12R 4212   0.732   5.351   9.006 -0.4433 -2.0105 -0.1521
   57SAPC  C213 4213   0.536   5.439   9.011 -0.4800  0.4183  0.5992
   57SAPC  H13R 4214   0.554   5.549   9.012 -0.2336  0.3990 -0.3393
   57SAPC  H13S 4215   0.444   5.429   9.072 -0.8516 -1.1650 -0.1755
   57SAPC  C214 4216   0.520   5.392   8.864  0.6541  0.8169 -0.2303
   57SAPC  H14R 4217   0.454   5.305   8.853  2.5547 -0.6384 -0.6249
   57SAPC  C215 4218   0.572   5.444   8.751 -0.3952 -0.7186  0.6697
   57SAPC  H15R 4219   0.569   5.395   8.653 -1.0440  1.7673 -0.6288
   57SAPC  C216 4220   0.667   5.562   8.737 -0.4595  0.2964 -0.3191
   57SAPC  H16R 4221   0.634   5.631   8.817 -0.3057 -0.1151  0.1072
   57SAPC  H16S 4222   0.649   5.622   8.645  1.7887  3.9219  1.3776
   57SAPC  C217 4223   0.812   5.513   8.743 -0.6358  0.6128  0.1188
   57SAPC  H17R 4224   0.839   5.489   8.638 -0.6943 -0.7290  0.3963
   57SAPC  H17S 4225   0.845   5.428   8.806  1.1698  0.1297 -1.4012
   57SAPC  C218 4226   0.908   5.629   8.778  0.1855 -0.4468  0.6624
   57SAPC  H18R 4227   0.870   5.722   8.730 -1.2260 -2.0375 -1.4720
   57SAPC  H18S 4228   1.005   5.605   8.729  2.1696 -0.3124  4.1467
   57SAPC  C219 4229   0.922   5.627   8.928  0.3059  0.2897 -0.5892
   57SAPC  H19R 4230   0.951   5.522   8.949  0.2205 -0.1216 -2.3325
   57SAPC  H19S 4231   0.820   5.652   8.963  0.4028  0.2179 -0.2558
   57SAPC  C220 4232   1.011   5.732   8.989 -0.8045 -0.9142  0.2193
   57SAPC  H20R 4233   1.002   5.832   8.943  0.0328 -0.8765  0.1385
   57SAPC  H20S 4234   1.116   5.699   8.981  0.2521  1.2291  3.2643
   57SAPC  H20T 4235   0.985   5.741   9.097  0.7744  1.4971  0.4665
   57SAPC   C33 4236  -0.005   5.461  10.168  0.1035  0.1987  0.0571
   57SAPC   H3X 4237   0.005   5.571  10.157  0.8227  0.1528  0.1873
   57SAPC   H3Y 4238  -0.114   5.444  10.162  0.2324 -0.4167 -0.6526
   57SAPC   C34 4239   0.054   5.383  10.052 -0.3349 -0.2594  0.4450
   57SAPC   H4X 4240   0.034   5.275  10.066  0.2804 -0.4645 -0.2342
   57SAPC   H4Y 4241   0.164   5.396  10.054 -0.3926  0.6409 -0.9392
   57SAPC   C35 4242  -0.010   5.428   9.916  0.0787  0.0471  0.7814
   57SAPC   H5X 4243  -0.025   5.537   9.901 -3.4293 -0.5826 -1.5625
   57SAPC   H5Y 4244  -0.111   5.382   9.909  0.8061 -1.5689  0.4209
   57SAPC   C36 4245   0.074   5.391   9.791  0.5142  0.7100 -0.4964
   57SAPC   H6X 4246   0.052   5.282   9.784 -0.4246  0.8134  0.5577
   57SAPC   H6Y 4247   0.181   5.388   9.819  0.2946 -3.6073  0.6293
   57SAPC   C37 4248   0.052   5.474   9.664  0.3442 -0.2390  0.4381
   57SAPC   H7X 4249   0.031   5.580   9.689  1.5492  0.3106 -0.7756
   57SAPC   H7Y 4250  -0.029   5.425   9.606  2.3048 -1.4410 -1.4116
   57SAPC   C38 4251   0.168   5.468   9.563 -0.1291 -0.2782  0.4748
   57SAPC   H8X 4252   0.193   5.362   9.543  0.5961 -0.6422  2.9895
   57SAPC   H8Y 4253   0.257   5.500   9.621  0.2378  0.2504 -0.3636
   57SAPC   C39 4254   0.152   5.550   9.426  0.0194  0.5993  0.3593
   57SAPC   H9X 4255   0.253   5.585   9.397  0.1328  0.4624  0.5866
   57SAPC   H9Y 4256   0.082   5.635   9.434  0.7778  1.6681 -2.8447
   57SAPC  C310 4257   0.085   5.468   9.325 -0.2734  0.4828  0.0979
   57SAPC  H10X 4258  -0.002   5.413   9.368 -0.0220  0.0408  0.0544
   57SAPC  H10Y 4259   0.158   5.391   9.292 -1.6238 -0.0637 -1.7740
   57SAPC  C311 4260   0.040   5.546   9.200 -0.4594 -0.0765 -0.3295
   57SAPC  H11X 4261  -0.027   5.625   9.240  1.3711  0.4038  1.9948
   57SAPC  H11Y 4262  -0.023   5.479   9.137 -1.3020  0.8131 -0.4574
   57SAPC  C312 4263   0.160   5.609   9.127  0.7183  0.3143  0.3000
   57SAPC  H12X 4264   0.220   5.527   9.083  1.0357  0.5395  0.3107
   57SAPC  H12Y 4265   0.214   5.660   9.209  0.1668  1.4472 -0.0270
   57SAPC  C313 4266   0.115   5.714   9.024  0.3229 -0.2010 -0.0457
   57SAPC  H13X 4267   0.050   5.797   9.060  0.2296 -0.0396 -0.5816
   57SAPC  H13Y 4268   0.057   5.649   8.955  2.2890 -0.3082 -1.7013
   57SAPC  C314 4269   0.235   5.766   8.945  0.1283  0.4759  0.1366
   57SAPC  H14X 4270   0.321   5.698   8.957  0.3368  0.6895 -0.1384
   57SAPC  H14Y 4271   0.260   5.869   8.978 -0.3800  0.1335  1.6634
   57SAPC  C315 4272   0.200   5.741   8.801  0.3642 -0.5498  0.2949
   57SAPC  H15X 4273   0.106   5.798   8.783 -0.2284 -0.5455  2.9081
   57SAPC  H15Y 4274   0.160   5.639   8.783  1.3467 -0.8637 -0.1808
   57SAPC  C316 4275   0.311   5.771   8.705 -0.1744 -0.3260  0.1821
   57SAPC  H16X 4276   0.394   5.699   8.723  0.6949  0.3604 -0.9089
   57SAPC  H16Y 4277   0.346   5.876   8.717  0.0146 -0.5799  2.2447
   57SAPC  C317 4278   0.272   5.752   8.553  0.2133 -0.3326 -0.1565
   57SAPC  H17X 4279   0.179   5.812   8.537  1.1979  1.0832 -0.7462
   57SAPC  H17Y 4280   0.241   5.647   8.533 -2.1607  0.1334  0.7245
   57SAPC  C318 4281   0.382   5.791   8.451 -0.4708 -0.4524 -0.0882
   57SAPC  H18X 4282   0.388   5.901   8.432 -2.3396 -0.5905 -1.7430
   57SAPC  H18Y 4283   0.351   5.762   8.348  1.0220 -3.1819  0.1349
   57SAPC  H18Z 4284   0.483   5.750   8.475 -0.9319 -0.3737  2.1331
   58SAPC     N 4285   4.355   1.038  10.938 -0.3930 -0.1108  0.2261
   58SAPC   C12 4286   4.248   1.140  10.973  0.0794 -0.2127  0.6968
   58SAPC  H12A 4287   4.244   1.171  11.076  0.0398  2.5952 -0.0765
   58SAPC  H12B 4288   4.149   1.101  10.954 -0.8355  2.2416  0.0326
   58SAPC   C13 4289   4.487   1.097  10.961  0.4973  0.3031  0.6174
   58SAPC  H13A 4290   4.558   1.022  10.929 -0.7663 -1.3602  1.5931
   58SAPC  H13B 4291   4.503   1.183  10.896  1.2817 -1.1159 -1.1594
   58SAPC  H13C 4292   4.486   1.122  11.066 -1.6942 -3.3835  1.6369
   58SAPC   C14 4293   4.347   0.923  11.041 -0.6122 -0.3080  0.6687
   58SAPC  H14A 4294   4.328   0.965  11.139  0.3001  0.3786  0.5578
   58SAPC  H14B 4295   4.263   0.858  11.021 -0.9426  0.3368 -0.0501
   58SAPC  H14C 4296   4.427   0.850  11.041  0.3288  0.6649 -0.6140
   58SAPC   C15 4297   4.349   0.976  10.807 -0.6002  0.0935  0.6480
   58SAPC  H15A 4298   4.446   0.930  10.799  1.0978  2.7874  3.4996
   58SAPC  H15B 4299   4.275   0.898  10.805  0.5056 -0.9665 -0.6952
   58SAPC  H15C 4300   4.335   1.047  10.727  1.0119 -0.8686 -0.5320
   58SAPC   C11 4301   4.261   1.278  10.894  0.3115 -0.1430 -0.1108
   58SAPC  H11A 4302   4.341   1.350  10.921 -0.9682  1.8806 -1.4021
   58SAPC  H11B 4303   4.176   1.340  10.930  0.5818 -0.2379  0.7103
   58SAPC     P 4304   4.128   1.249  10.678 -0.1456  0.2141  0.0281
   58SAPC   O13 4305   4.158   1.186  10.544  0.3220 -0.2249 -0.0231
   58SAPC   O14 4306   4.025   1.191  10.754  0.5881  0.0650 -0.1410
   58SAPC   O12 4307   4.263   1.270  10.751 -0.1043 -0.2447  0.0319
   58SAPC   O11 4308   4.095   1.402  10.655  0.6951 -0.2593 -1.0667
   58SAPC    C1 4309   4.194   1.507  10.628 -0.6027  0.2925 -0.6695
   58SAPC    HA 4310   4.176   1.587  10.703 -1.0094 -0.0717 -0.3688
   58SAPC    HB 4311   4.298   1.471  10.640 -0.5933  0.3323 -0.6327
   58SAPC    C2 4312   4.181   1.569  10.490 -0.0645  0.0723  0.3523
   58SAPC    HS 4313   4.102   1.646  10.504 -0.8935 -0.2858 -1.9787
   58SAPC   O21 4314   4.147   1.467  10.392 -0.5793 -0.3162  0.2238
   58SAPC   C21 4315   4.013   1.460  10.375  0.1972 -0.5518  0.2650
   58SAPC   O22 4316   3.934   1.554  10.400  0.5293  0.1635 -0.2052
   58SAPC   C22 4317   3.965   1.331  10.304  0.3904 -0.2477  0.0829
   58SAPC   H2R 4318   4.030   1.246  10.335 -0.2062 -0.2929  1.2497
   58SAPC   H2S 4319   3.861   1.311  10.337  0.1375 -0.2693 -0.7053
   58SAPC    C3 4320   4.313   1.632  10.437 -0.0432  0.7624  0.4731
   58SAPC    HX 4321   4.371   1.537  10.438  1.0429  1.4193  0.7864
   58SAPC    HY 4322   4.359   1.706  10.505  1.3496  1.9053 -1.6237
   58SAPC   O31 4323   4.315   1.671  10.293 -0.2851  0.6374 -0.7486
   58SAPC   C31 4324   4.255   1.788  10.274 -1.1653 -0.5802  0.3865
   58SAPC   O32 4325   4.215   1.860  10.365 -0.1086  0.2799  0.5185
   58SAPC   C32 4326   4.251   1.829  10.125  0.7585  0.1525 -0.6154
   58SAPC   H2X 4327   4.144   1.843  10.100  0.6980  3.7636  1.1021
   58SAPC   H2Y 4328   4.303   1.747  10.071  0.6774 -1.7855  2.0603
   58SAPC   C23 4329   3.952   1.344  10.146 -0.0536 -0.3349 -0.2567
   58SAPC   H3R 4330   3.884   1.262  10.115  1.0432 -0.8530 -1.3724
   58SAPC   H3S 4331   4.049   1.325  10.095  0.6861 -0.8124  1.2640
   58SAPC   C24 4332   3.915   1.493  10.103  0.4957  0.4556 -0.3712
   58SAPC   H4R 4333   3.984   1.573  10.138 -0.0065  0.8426 -0.2510
   58SAPC   H4S 4334   3.819   1.510  10.155  1.6475  0.7330  1.7705
   58SAPC   C25 4335   3.880   1.495   9.951 -0.3902  0.1091  0.6762
   58SAPC   H5R 4336   3.803   1.424   9.919  0.3634  0.8332 -3.2020
   58SAPC   C26 4337   3.919   1.573   9.850 -0.2201  0.6396  0.4996
   58SAPC   H6R 4338   3.880   1.565   9.748 -0.1581  1.5234  0.3945
   58SAPC   C27 4339   4.020   1.683   9.863  0.6122  0.1481 -0.1057
   58SAPC   H7R 4340   4.099   1.670   9.786  0.1238  3.3589 -1.2867
   58SAPC   H7S 4341   4.070   1.672   9.962  0.4742 -0.9011 -0.1377
   58SAPC   C28 4342   3.952   1.819   9.848 -0.5545  0.3074  1.0875
   58SAPC   H8R 4343   3.897   1.847   9.939 -1.2824  1.4601  0.3158
   58SAPC   C29 4344   3.927   1.885   9.732 -0.5900  0.3489 -0.0616
   58SAPC   H9R 4345   3.882   1.985   9.738 -1.0313  0.0364  3.8965
   58SAPC  C210 4346   3.974   1.836   9.593 -0.0911  0.5187 -0.5409
   58SAPC  H10R 4347   3.985   1.726   9.590  1.3809  0.6182  0.4543
   58SAPC  H10S 4348   4.078   1.869   9.571  0.0903  0.0994 -0.3159
   58SAPC  C211 4349   3.891   1.879   9.470  0.0374 -0.2862 -0.4882
   58SAPC  H11R 4350   3.825   1.966   9.482 -0.5389 -0.6370 -1.0342
   58SAPC  C212 4351   3.874   1.809   9.363  0.4754 -0.0738  0.2851
   58SAPC  H12R 4352   3.823   1.851   9.275  1.7965  1.6048  0.2757
   58SAPC  C213 4353   3.941   1.671   9.330 -0.0782  0.2922 -0.3154
   58SAPC  H13R 4354   4.034   1.662   9.390 -0.3097  0.5295  0.0881
   58SAPC  H13S 4355   3.985   1.673   9.229 -0.7023  2.7274 -0.5926
   58SAPC  C214 4356   3.866   1.542   9.359 -0.1120 -0.5438  0.4000
   58SAPC  H14R 4357   3.894   1.489   9.451  0.4802 -1.3518 -0.2298
   58SAPC  C215 4358   3.782   1.477   9.282  0.6452 -0.8041 -0.1839
   58SAPC  H15R 4359   3.728   1.386   9.313 -1.5311 -0.1080 -1.6874
   58SAPC  C216 4360   3.726   1.527   9.153  0.6951  0.0647  0.4146
   58SAPC  H16R 4361   3.794   1.603   9.109 -0.0925  1.7280  1.9691
   58SAPC  H16S 4362   3.627   1.577   9.159 -0.7884 -2.3564 -1.7475
   58SAPC  C217 4363   3.703   1.410   9.048 -1.0968  0.7190  0.0221
   58SAPC  H17R 4364   3.678   1.465   8.954  0.7286  2.6771  0.5998
   58SAPC  H17S 4365   3.608   1.356   9.068 -0.3648 -1.3067 -1.6953
   58SAPC  C218 4366   3.835   1.327   9.015  0.1711 -0.9756 -0.0753
   58SAPC  H18R 4367   3.840   1.240   9.084 -1.1875 -1.0344 -0.0153
   58SAPC  H18S 4368   3.923   1.393   9.030 -1.2407  0.3485  3.5845
   58SAPC  C219 4369   3.843   1.286   8.864  0.2056 -0.2006 -0.3081
   58SAPC  H19R 4370   3.932   1.221   8.848  1.7615  1.5884  0.5756
   58SAPC  H19S 4371   3.875   1.370   8.799 -0.4328 -1.0888 -1.8039
   58SAPC  C220 4372   3.719   1.216   8.812 -0.2741  0.4818  0.2279
   58SAPC  H20R 4373   3.638   1.291   8.800 -2.7606 -1.9194  1.1931
   58SAPC  H20S 4374   3.685   1.145   8.890 -1.0466  0.0708 -0.4683
   58SAPC  H20T 4375   3.756   1.177   8.715  0.7469  0.1580  0.7376
   58SAPC   C33 4376   4.335   1.964  10.105 -0.2096  0.2694 -0.5971
   58SAPC   H3X 4377   4.439   1.964  10.144 -0.0747 -1.9728 -0.7991
   58SAPC   H3Y 4378   4.273   2.038  10.159 -1.4022 -1.2375  0.1981
   58SAPC   C34 4379   4.335   1.997   9.959 -0.0250 -0.4045 -0.1745
   58SAPC   H4X 4380   4.369   2.103   9.954 -2.3429  0.4522  0.7690
   58SAPC   H4Y 4381   4.233   2.016   9.920  0.0594  0.3546 -0.0329
   58SAPC   C35 4382   4.407   1.904   9.871 -0.2969 -0.4857 -0.6739
   58SAPC   H5X 4383   4.359   1.804   9.879 -0.1236 -0.4579  1.1462
   58SAPC   H5Y 4384   4.517   1.896   9.886 -0.0698 -0.6424 -2.2874
   58SAPC   C36 4385   4.396   1.951   9.723 -0.7698 -0.3072  0.1232
   58SAPC   H6X 4386   4.445   2.049   9.706 -0.2952 -0.6864 -0.7448
   58SAPC   H6Y 4387   4.288   1.960   9.698 -1.1539  1.4176  2.1270
   58SAPC   C37 4388   4.463   1.856   9.622 -0.2199  0.3323  0.3540
   58SAPC   H7X 4389   4.411   1.758   9.637  2.2930 -1.4838 -1.9105
   58SAPC   H7Y 4390   4.571   1.847   9.645  0.1993  2.3845 -0.6304
   58SAPC   C38 4391   4.454   1.897   9.472 -0.4842 -0.3637  0.1456
   58SAPC   H8X 4392   4.516   1.988   9.457 -1.8066  0.8379  1.5232
   58SAPC   H8Y 4393   4.350   1.928   9.448  0.1805  2.0422  0.1653
   58SAPC   C39 4394   4.481   1.788   9.377  0.3790 -0.5893 -0.2735
   58SAPC   H9X 4395   4.416   1.699   9.392 -0.3890  0.1917  1.2897
   58SAPC   H9Y 4396   4.582   1.751   9.400  0.6688 -0.0037 -0.5621
   58SAPC  C310 4397   4.471   1.839   9.227  0.2632  0.0803 -0.9459
   58SAPC  H10X 4398   4.548   1.919   9.236 -0.5879  0.9570 -1.1991
   58SAPC  H10Y 4399   4.374   1.892   9.212 -0.3506 -0.0267  2.0038
   58SAPC  C311 4400   4.503   1.736   9.126  0.0874 -0.4981 -0.1163
   58SAPC  H11X 4401   4.427   1.655   9.117  0.4405 -1.0643  1.6650
   58SAPC  H11Y 4402   4.590   1.672   9.151 -1.3632 -2.3602  0.4082
   58SAPC  C312 4403   4.514   1.806   8.983 -0.9296  0.1772  0.5316
   58SAPC  H12X 4404   4.608   1.865   8.978 -1.8882  1.6364 -1.7023
   58SAPC  H12Y 4405   4.425   1.871   8.970 -1.7401 -1.1009 -0.5284
   58SAPC  C313 4406   4.513   1.706   8.866 -0.8836 -0.8300 -0.7779
   58SAPC  H13X 4407   4.423   1.642   8.852  0.8325 -3.7808  0.8707
   58SAPC  H13Y 4408   4.595   1.632   8.879 -1.9149 -1.9317 -0.2887
   58SAPC  C314 4409   4.534   1.780   8.732 -0.6588 -0.6068  0.2779
   58SAPC  H14X 4410   4.625   1.843   8.744 -2.0435  1.6452 -0.5054
   58SAPC  H14Y 4411   4.441   1.838   8.713 -2.3955 -3.3010 -0.0552
   58SAPC  C315 4412   4.543   1.683   8.613  0.0416  0.2733 -0.5326
   58SAPC  H15X 4413   4.529   1.741   8.520 -1.8652 -0.9574 -1.0778
   58SAPC  H15Y 4414   4.458   1.614   8.629  0.2077  0.3939  1.1181
   58SAPC  C316 4415   4.667   1.597   8.601 -0.3115  0.2765 -0.6182
   58SAPC  H16X 4416   4.680   1.531   8.690  0.3854 -1.0772 -1.6816
   58SAPC  H16Y 4417   4.766   1.646   8.592  0.3369 -0.5150  1.5263
   58SAPC  C317 4418   4.658   1.499   8.479  0.6012 -0.3939  0.4159
   58SAPC  H17X 4419   4.674   1.562   8.390  0.4245  1.2993  1.5339
   58SAPC  H17Y 4420   4.560   1.448   8.469  0.1749  0.5074 -0.1148
   58SAPC  C318 4421   4.773   1.388   8.471 -0.3301 -0.6505  0.1130
   58SAPC  H18X 4422   4.776   1.325   8.563  0.4611  0.4650  0.8685
   58SAPC  H18Y 4423   4.864   1.451   8.477  0.3684 -1.5465 -0.6651
   58SAPC  H18Z 4424   4.765   1.337   8.373 -1.3018  2.0380 -1.3091
   59SAPC     N 4425   5.962   4.757  10.924 -0.0803 -0.6308 -0.2209
   59SAPC   C12 4426   5.899   4.891  10.964  0.0194 -0.1583 -0.2076
   59SAPC  H12A 4427   5.898   4.911  11.071  0.8604 -0.1032 -0.2090
   59SAPC  H12B 4428   5.797   4.881  10.931 -0.9186  1.3922  1.9283
   59SAPC   C13 4429   5.901   4.655  11.019 -0.4614  0.0437  0.4089
   59SAPC  H13A 4430   5.801   4.625  10.991 -0.5204  0.8566 -0.2794
   59SAPC  H13B 4431   5.959   4.564  11.015  0.6100  0.5847  2.2356
   59SAPC  H13C 4432   5.910   4.691  11.121  2.9179 -0.0233  0.2490
   59SAPC   C14 4433   5.939   4.711  10.782  0.1514 -0.3788 -0.2570
   59SAPC  H14A 4434   5.998   4.624  10.756  1.3623 -0.3225  2.0541
   59SAPC  H14B 4435   5.837   4.680  10.762  0.0023  0.1039 -0.2527
   59SAPC  H14C 4436   5.966   4.786  10.709  1.7484 -0.7262 -0.0583
   59SAPC   C15 4437   6.113   4.767  10.959  0.4518  0.6545 -0.0405
   59SAPC  H15A 4438   6.121   4.779  11.066 -0.4427  0.5452  0.0460
   59SAPC  H15B 4439   6.163   4.675  10.933 -1.9285 -0.8564  0.4680
   59SAPC  H15C 4440   6.169   4.846  10.910 -0.2094 -0.0063 -1.9524
   59SAPC   C11 4441   5.963   5.016  10.902  0.3511 -0.7293  0.1400
   59SAPC  H11A 4442   5.932   5.027  10.796  1.2738 -1.1526 -0.1891
   59SAPC  H11B 4443   6.073   5.002  10.898  0.5041  0.3120  0.3846
   59SAPC     P 4444   6.001   5.179  11.112 -0.2635  0.4011  0.1074
   59SAPC   O13 4445   5.963   5.316  11.152 -0.3990  0.5941  0.8509
   59SAPC   O14 4446   5.998   5.069  11.210  0.5393 -0.1417 -0.2354
   59SAPC   O12 4447   5.920   5.134  10.982  0.2381 -0.4301 -0.6564
   59SAPC   O11 4448   6.144   5.173  11.051 -0.2835 -0.0557 -0.5471
   59SAPC    C1 4449   6.222   5.286  11.037 -0.6397  0.4073 -0.3517
   59SAPC    HA 4450   6.221   5.347  11.130  1.5570  0.3032 -0.1860
   59SAPC    HB 4451   6.323   5.243  11.020 -0.3182 -0.8750  3.7200
   59SAPC    C2 4452   6.173   5.371  10.918  0.1109  0.1323  0.4663
   59SAPC    HS 4453   6.064   5.389  10.928  0.1128  0.8911 -0.6790
   59SAPC   O21 4454   6.210   5.302  10.798 -0.1436  0.7332 -0.1334
   59SAPC   C21 4455   6.115   5.297  10.710  0.1013 -0.0430  0.6378
   59SAPC   O22 4456   6.001   5.345  10.729 -0.1863  0.4759  0.3098
   59SAPC   C22 4457   6.159   5.208  10.592  0.5955 -0.1232 -0.8293
   59SAPC   H2R 4458   6.130   5.261  10.499 -2.0314 -1.4234 -0.8554
   59SAPC   H2S 4459   6.269   5.202  10.603  0.6425  2.1150  0.6226
   59SAPC    C3 4460   6.246   5.510  10.922  0.9383 -0.7081 -0.2931
   59SAPC    HX 4461   6.355   5.490  10.934  1.4790  2.1703  0.1252
   59SAPC    HY 4462   6.227   5.561  11.019 -2.9440 -2.9653  0.3424
   59SAPC   O31 4463   6.203   5.596  10.815 -0.2124 -0.1331 -0.3221
   59SAPC   C31 4464   6.297   5.628  10.728  0.4982 -0.2092  0.2783
   59SAPC   O32 4465   6.415   5.602  10.738  0.3765 -0.5823 -0.6701
   59SAPC   C32 4466   6.252   5.694  10.597 -0.9310  0.3030  0.1524
   59SAPC   H2X 4467   6.299   5.643  10.510  2.1948 -0.4393  2.1489
   59SAPC   H2Y 4468   6.285   5.799  10.610 -3.5558  0.8814  3.5315
   59SAPC   C23 4469   6.084   5.074  10.594  0.3190  0.4115  0.6285
   59SAPC   H3R 4470   5.977   5.100  10.594  0.0596 -0.5162 -0.9825
   59SAPC   H3S 4471   6.114   5.002  10.674 -1.0483 -0.2940  0.5271
   59SAPC   C24 4472   6.122   4.994  10.461  0.0368 -0.3540  0.4482
   59SAPC   H4R 4473   6.096   5.055  10.372  0.4604 -0.4535  0.2552
   59SAPC   H4S 4474   6.070   4.897  10.458 -2.7814  1.0898 -1.3266
   59SAPC   C25 4475   6.271   4.966  10.440  0.1238  1.6687 -0.6489
   59SAPC   H5R 4476   6.297   4.879  10.502 -3.4160  2.3521  2.1608
   59SAPC   C26 4477   6.356   5.034  10.364 -0.5489 -0.7805  0.0883
   59SAPC   H6R 4478   6.464   5.016  10.370 -0.0421  0.7382 -2.6605
   59SAPC   C27 4479   6.329   5.160  10.283  0.0064 -0.4341 -0.2138
   59SAPC   H7R 4480   6.278   5.230  10.351 -2.5582 -2.5923  0.2552
   59SAPC   H7S 4481   6.248   5.142  10.209 -1.2892  1.1868  0.7519
   59SAPC   C28 4482   6.453   5.222  10.228  0.3542 -0.8600  0.1514
   59SAPC   H8R 4483   6.520   5.270  10.301 -2.1720  1.6430  1.0029
   59SAPC   C29 4484   6.503   5.225  10.101 -0.1572 -0.3121 -0.8290
   59SAPC   H9R 4485   6.598   5.278  10.083 -0.3248 -0.1142 -1.1263
   59SAPC  C210 4486   6.447   5.164   9.978 -0.1101  1.0476  0.1708
   59SAPC  H10R 4487   6.359   5.103  10.008 -2.1257  3.9070  0.4842
   59SAPC  H10S 4488   6.520   5.095   9.932  0.7670  2.4524 -0.6149
   59SAPC  C211 4489   6.410   5.282   9.888 -0.3524  0.7654  0.2994
   59SAPC  H11R 4490   6.363   5.363   9.946 -0.2585  1.3765 -0.4549
   59SAPC  C212 4491   6.407   5.279   9.753  0.1584  0.3974  0.7375
   59SAPC  H12R 4492   6.372   5.367   9.697 -0.6203 -0.6374 -0.4684
   59SAPC  C213 4493   6.458   5.171   9.659  0.1322 -0.5328  0.4969
   59SAPC  H13R 4494   6.370   5.114   9.620 -1.3949  2.0638 -0.1092
   59SAPC  H13S 4495   6.510   5.090   9.714  0.4417  0.0507  1.0824
   59SAPC  C214 4496   6.547   5.231   9.559 -0.1687 -0.8402 -0.2818
   59SAPC  H14R 4497   6.638   5.282   9.596 -1.3074  2.3886 -1.5841
   59SAPC  C215 4498   6.519   5.252   9.431 -0.1037  0.9525  0.6255
   59SAPC  H15R 4499   6.603   5.287   9.369 -1.5078  1.4265 -1.0739
   59SAPC  C216 4500   6.401   5.207   9.353 -0.3105  0.4022 -0.0676
   59SAPC  H16R 4501   6.315   5.267   9.390 -1.8569 -1.5482 -0.3440
   59SAPC  H16S 4502   6.380   5.101   9.376  2.3543  0.2174  1.9581
   59SAPC  C217 4503   6.414   5.222   9.200  0.7767 -0.2163  0.3854
   59SAPC  H17R 4504   6.513   5.182   9.170  0.8734 -1.1530  1.8424
   59SAPC  H17S 4505   6.430   5.330   9.179 -0.0067 -0.3686 -1.1144
   59SAPC  C218 4506   6.297   5.174   9.118  0.1280  1.1036  0.7294
   59SAPC  H18R 4507   6.211   5.243   9.121 -0.7484  0.0076  1.3237
   59SAPC  H18S 4508   6.260   5.075   9.151 -0.5611  1.2951  0.5503
   59SAPC  C219 4509   6.349   5.164   8.971  0.1708  0.4622  0.6510
   59SAPC  H19R 4510   6.421   5.080   8.959 -1.4943 -0.8960 -0.4365
   59SAPC  H19S 4511   6.381   5.265   8.939 -0.6936 -0.0024 -2.0029
   59SAPC  C220 4512   6.233   5.120   8.879 -0.2757  0.8438 -0.0259
   59SAPC  H20R 4513   6.164   5.203   8.854 -1.6580 -0.1125  0.5276
   59SAPC  H20S 4514   6.174   5.045   8.936 -0.8712 -0.1410 -1.8732
   59SAPC  H20T 4515   6.267   5.077   8.783  2.7142  1.0144  0.8497
   59SAPC   C33 4516   6.094   5.686  10.581 -0.3313  0.2607 -0.3179
   59SAPC   H3X 4517   6.041   5.756  10.650 -2.8575  1.2198 -3.0198
   59SAPC   H3Y 4518   6.050   5.588  10.608  1.0062 -0.2405  0.1323
   59SAPC   C34 4519   6.053   5.713  10.436  0.1001 -0.7935  0.4627
   59SAPC   H4X 4520   6.097   5.807  10.395  0.5739 -1.2854 -0.1820
   59SAPC   H4Y 4521   5.942   5.718  10.430  0.1700  2.6713  0.2103
   59SAPC   C35 4522   6.095   5.610  10.332 -0.6096 -0.2716  0.4430
   59SAPC   H5X 4523   6.052   5.515  10.371  2.0970 -1.5885  0.4590
   59SAPC   H5Y 4524   6.206   5.606  10.333 -0.3739  2.5867  3.3431
   59SAPC   C36 4525   6.047   5.650  10.192 -0.9678 -0.8011  0.1143
   59SAPC   H6X 4526   6.072   5.756  10.170 -4.4226 -0.1663 -1.4297
   59SAPC   H6Y 4527   5.938   5.667  10.201 -1.1024 -1.3635 -0.3807
   59SAPC   C37 4528   6.081   5.560  10.077 -0.7116  0.2495 -0.0304
   59SAPC   H7X 4529   6.020   5.470  10.099 -0.5115  0.2299  0.4617
   59SAPC   H7Y 4530   6.190   5.538  10.085 -0.7354  0.3879  0.7286
   59SAPC   C38 4531   6.060   5.621   9.937  0.0206  0.1434 -0.1417
   59SAPC   H8X 4532   6.108   5.722   9.935 -1.2433  0.7554 -1.2143
   59SAPC   H8Y 4533   5.953   5.644   9.923  0.3153  1.4851 -0.3882
   59SAPC   C39 4534   6.108   5.530   9.821  0.9160  0.2487  0.5433
   59SAPC   H9X 4535   6.055   5.433   9.814 -1.4390  1.2806  2.8010
   59SAPC   H9Y 4536   6.218   5.515   9.830  1.0176 -0.1706 -1.0458
   59SAPC  C310 4537   6.080   5.596   9.687 -0.5447  0.4837  0.2905
   59SAPC  H10X 4538   6.118   5.700   9.694 -0.2166  0.3664  0.2238
   59SAPC  H10Y 4539   5.970   5.586   9.674 -0.4261 -0.8962  0.1461
   59SAPC  C311 4540   6.142   5.523   9.571 -0.3439 -0.2321  0.3037
   59SAPC  H11X 4541   6.105   5.418   9.564  1.9375 -1.0339 -0.9606
   59SAPC  H11Y 4542   6.253   5.519   9.578 -0.3481  0.3235  0.7216
   59SAPC  C312 4543   6.112   5.610   9.445 -0.2359 -0.4090  0.3857
   59SAPC  H12X 4544   6.176   5.701   9.445  0.4282 -0.8229 -1.9390
   59SAPC  H12Y 4545   6.005   5.639   9.448  0.1592  1.1876  0.1216
   59SAPC  C313 4546   6.141   5.536   9.315 -0.6403 -0.0459 -0.7178
   59SAPC  H13X 4547   6.069   5.452   9.302 -0.1664 -0.6316  0.3139
   59SAPC  H13Y 4548   6.239   5.483   9.323 -0.0751  1.1837  1.0390
   59SAPC  C314 4549   6.135   5.623   9.191  0.8081  1.1197  0.5116
   59SAPC  H14X 4550   6.197   5.713   9.211  0.7019  1.5374 -0.8938
   59SAPC  H14Y 4551   6.032   5.662   9.179  1.4142  3.0258  1.1187
   59SAPC  C315 4552   6.169   5.557   9.054 -0.0807 -0.2673 -0.4591
   59SAPC  H15X 4553   6.087   5.485   9.034 -0.3148  0.7257 -3.8703
   59SAPC  H15Y 4554   6.270   5.509   9.059  1.3946  2.6922  0.9516
   59SAPC  C316 4555   6.158   5.658   8.943 -0.1237 -0.6314  0.8738
   59SAPC  H16X 4556   6.245   5.725   8.930 -2.4572  2.2351 -1.7082
   59SAPC  H16Y 4557   6.074   5.730   8.956  0.6199  1.0347 -2.4770
   59SAPC  C317 4558   6.135   5.596   8.802  0.0904  0.1347 -0.6570
   59SAPC  H17X 4559   6.039   5.541   8.799 -0.1938  0.6567 -2.6024
   59SAPC  H17Y 4560   6.206   5.511   8.796 -1.3062 -1.0053 -1.5400
   59SAPC  C318 4561   6.159   5.689   8.688  0.0672 -0.0970  0.7149
   59SAPC  H18X 4562   6.160   5.637   8.590 -3.9280  1.7976 -0.5391
   59SAPC  H18Y 4563   6.249   5.753   8.700  0.7431 -1.1654  1.4495
   59SAPC  H18Z 4564   6.071   5.757   8.688 -0.7768 -1.1469 -0.5673
   60SAPC     N 4565   1.222   2.896  10.859  0.0995 -0.3991 -0.5139
   60SAPC   C12 4566   1.241   2.785  10.957 -0.6355  0.0615 -0.1915
   60SAPC  H12A 4567   1.205   2.701  10.899 -0.7211 -0.2527  0.3202
   60SAPC  H12B 4568   1.179   2.800  11.044  1.3164  0.0006  1.2847
   60SAPC   C13 4569   1.071   2.904  10.828  0.1660 -0.1401  0.0011
   60SAPC  H13A 4570   1.056   2.978  10.751 -1.7293 -0.4236  0.0443
   60SAPC  H13B 4571   1.029   2.810  10.797  0.7690 -0.6260  0.6357
   60SAPC  H13C 4572   1.017   2.946  10.912 -0.0124 -0.7963  0.2183
   60SAPC   C14 4573   1.273   3.027  10.918 -0.1491  0.2166  0.0982
   60SAPC  H14A 4574   1.241   3.042  11.020 -0.9236 -0.6379 -0.0020
   60SAPC  H14B 4575   1.379   3.007  10.918 -0.1515  0.1810  0.9873
   60SAPC  H14C 4576   1.245   3.113  10.858 -2.9449  0.9316  2.2266
   60SAPC   C15 4577   1.295   2.860  10.727  0.0176 -0.4798  0.2429
   60SAPC  H15A 4578   1.258   2.914  10.641  1.2547 -1.5977 -1.0522
   60SAPC  H15B 4579   1.397   2.892  10.740 -0.4149  2.6897 -2.7010
   60SAPC  H15C 4580   1.282   2.754  10.710 -3.2870 -0.2440  0.7413
   60SAPC   C11 4581   1.382   2.748  10.995 -0.9080 -0.3742  1.1202
   60SAPC  H11A 4582   1.372   2.669  11.073  3.0732 -1.4085  0.7764
   60SAPC  H11B 4583   1.429   2.841  11.035  1.8739 -0.7770 -0.9389
   60SAPC     P 4584   1.478   2.541  10.858  0.2678 -0.2384  0.0988
   60SAPC   O13 4585   1.581   2.481  10.941  0.0912 -0.6840 -0.1314
   60SAPC   O14 4586   1.338   2.483  10.857 -0.3517 -0.0621 -1.0233
   60SAPC   O12 4587   1.468   2.694  10.888  0.0389 -0.2077 -0.2236
   60SAPC   O11 4588   1.539   2.533  10.710  1.0960  0.2162 -0.4645
   60SAPC    C1 4589   1.580   2.636  10.629  0.2674 -0.0645  1.2286
   60SAPC    HA 4590   1.531   2.736  10.640 -1.1832 -0.8409  2.1366
   60SAPC    HB 4591   1.687   2.654  10.650  0.3733  2.9206 -1.1386
   60SAPC    C2 4592   1.590   2.591  10.480 -0.2306 -0.2433 -0.3230
   60SAPC    HS 4593   1.639   2.676  10.428 -0.4124  0.4462  0.6093
   60SAPC   O21 4594   1.455   2.572  10.425 -0.2212 -0.2869  0.6889
   60SAPC   C21 4595   1.388   2.683  10.403  0.0302  0.6086 -0.2024
   60SAPC   O22 4596   1.429   2.798  10.432 -0.4636 -0.0339  0.1762
   60SAPC   C22 4597   1.261   2.658  10.323  0.5367 -0.0632  0.0573
   60SAPC   H2R 4598   1.258   2.554  10.285  0.6923 -0.7782  1.8842
   60SAPC   H2S 4599   1.175   2.655  10.393  0.5863  2.6250  0.3443
   60SAPC    C3 4600   1.681   2.467  10.448  0.3267  1.2130  0.3813
   60SAPC    HX 4601   1.645   2.379  10.506  0.2282 -0.1378 -1.6347
   60SAPC    HY 4602   1.785   2.488  10.483  0.9862 -1.6208  0.3542
   60SAPC   O31 4603   1.688   2.440  10.301  0.4512 -0.5708  0.0838
   60SAPC   C31 4604   1.596   2.363  10.260  0.7515  0.4230 -0.7061
   60SAPC   O32 4605   1.543   2.266  10.316  0.1628  0.1542  0.0701
   60SAPC   C32 4606   1.541   2.417  10.125 -0.5330 -0.4603  0.6194
   60SAPC   H2X 4607   1.581   2.519  10.111 -1.3819  0.0963  2.0311
   60SAPC   H2Y 4608   1.433   2.430  10.147 -0.0462  1.7795  1.9943
   60SAPC   C23 4609   1.241   2.762  10.201  0.4368 -0.1434 -0.1944
   60SAPC   H3R 4610   1.318   2.746  10.122  0.1526 -0.7771 -0.3541
   60SAPC   H3S 4611   1.267   2.865  10.233 -0.4855  0.2877 -0.7865
   60SAPC   C24 4612   1.107   2.765  10.129 -0.0594 -0.1918  0.6723
   60SAPC   H4R 4613   1.032   2.811  10.198  1.2180  0.3906  1.7138
   60SAPC   H4S 4614   1.079   2.660  10.106  1.0561 -0.6488  1.3491
   60SAPC   C25 4615   1.097   2.853  10.007 -0.2091  0.1356 -0.0945
   60SAPC   H5R 4616   1.060   2.954  10.028 -2.1635 -0.5207 -0.1990
   60SAPC   C26 4617   1.142   2.827   9.879  0.4955  0.4679  0.5885
   60SAPC   H6R 4618   1.159   2.910   9.809 -1.7164  0.1919 -0.3658
   60SAPC   C27 4619   1.199   2.696   9.838 -0.3320 -0.6048 -0.7876
   60SAPC   H7R 4620   1.137   2.654   9.756 -0.0013 -2.0266 -0.3307
   60SAPC   H7S 4621   1.200   2.625   9.923  1.5244  1.4225  1.0175
   60SAPC   C28 4622   1.337   2.725   9.781 -0.6986 -0.3962 -0.6124
   60SAPC   H8R 4623   1.411   2.733   9.862 -2.2459 -0.9711  0.9121
   60SAPC   C29 4624   1.368   2.744   9.651 -0.7758 -0.0834  0.0672
   60SAPC   H9R 4625   1.472   2.776   9.632 -1.4171  1.5224 -0.9670
   60SAPC  C210 4626   1.271   2.740   9.534  0.0093 -0.3030 -0.4350
   60SAPC  H10R 4627   1.166   2.725   9.569 -0.4597  0.4107 -1.5144
   60SAPC  H10S 4628   1.301   2.654   9.470  1.0822  0.7267 -1.3707
   60SAPC  C211 4629   1.274   2.863   9.451  0.1849  0.2607 -0.2656
   60SAPC  H11R 4630   1.286   2.957   9.507  1.6071 -0.5382  0.8194
   60SAPC  C212 4631   1.260   2.874   9.315 -0.0886  0.4644  0.0050
   60SAPC  H12R 4632   1.250   2.974   9.270  3.2523  1.6076  1.4528
   60SAPC  C213 4633   1.237   2.752   9.219  0.2224 -1.2274 -0.5425
   60SAPC  H13R 4634   1.154   2.690   9.259  0.2073 -1.3181 -0.7172
   60SAPC  H13S 4635   1.323   2.683   9.237 -0.0270 -1.8472 -1.6397
   60SAPC  C214 4636   1.216   2.785   9.076 -0.4512  0.5798  0.0227
   60SAPC  H14R 4637   1.209   2.889   9.040  1.7357  0.7241 -0.1573
   60SAPC  C215 4638   1.220   2.685   8.990 -0.9291  0.5128  0.0889
   60SAPC  H15R 4639   1.221   2.712   8.884 -0.1192 -0.2653 -0.1174
   60SAPC  C216 4640   1.237   2.538   9.020 -1.2137  0.4491 -0.6840
   60SAPC  H16R 4641   1.158   2.479   8.969  0.4619 -1.8575 -0.7897
   60SAPC  H16S 4642   1.228   2.509   9.127  0.5252 -0.3022 -0.7035
   60SAPC  C217 4643   1.379   2.490   8.979 -0.2903  0.1405 -0.5576
   60SAPC  H17R 4644   1.461   2.561   9.004 -0.7797  0.6762 -0.4214
   60SAPC  H17S 4645   1.374   2.493   8.868 -2.1274  2.7302 -0.5100
   60SAPC  C218 4646   1.412   2.356   9.033 -0.2985 -0.2531  0.0933
   60SAPC  H18R 4647   1.335   2.285   8.995 -1.5913  1.0164  0.2474
   60SAPC  H18S 4648   1.412   2.361   9.144  0.2223 -0.5113  0.1068
   60SAPC  C219 4649   1.539   2.312   8.961 -0.1307  0.5856 -0.4189
   60SAPC  H19R 4650   1.622   2.385   8.969 -0.2860  0.8243 -0.9255
   60SAPC  H19S 4651   1.519   2.289   8.854  0.5961 -1.3282 -0.1752
   60SAPC  C220 4652   1.591   2.178   9.027  0.3935  0.2890 -0.3687
   60SAPC  H20R 4653   1.523   2.094   8.998  0.1447  0.3148  0.1336
   60SAPC  H20S 4654   1.568   2.176   9.135 -0.1188 -0.3189 -0.4797
   60SAPC  H20T 4655   1.697   2.156   9.001  0.4694 -0.7696  0.7595
   60SAPC   C33 4656   1.563   2.323  10.001  0.2815 -0.1809  0.0746
   60SAPC   H3X 4657   1.494   2.236  10.012 -1.1118  0.9181  0.3067
   60SAPC   H3Y 4658   1.666   2.284  10.006  0.4464  0.0746 -1.0212
   60SAPC   C34 4659   1.519   2.383   9.871 -0.3291  0.4260 -0.2792
   60SAPC   H4X 4660   1.594   2.460   9.841  0.7239  0.0094  1.1826
   60SAPC   H4Y 4661   1.429   2.441   9.899  1.4544  2.6441  1.2655
   60SAPC   C35 4662   1.495   2.280   9.759  0.5574  0.1147 -0.7796
   60SAPC   H5X 4663   1.409   2.218   9.792  1.8431 -1.9428 -1.0837
   60SAPC   H5Y 4664   1.585   2.214   9.760  0.2697 -0.2902  1.0421
   60SAPC   C36 4665   1.473   2.338   9.625 -0.0019  0.5510 -0.0136
   60SAPC   H6X 4666   1.396   2.418   9.632 -1.9691 -1.3517  1.5260
   60SAPC   H6Y 4667   1.431   2.261   9.558  0.5699  0.7825 -0.6503
   60SAPC   C37 4668   1.598   2.407   9.565  0.3945  0.0683 -0.1814
   60SAPC   H7X 4669   1.679   2.334   9.585 -0.4109 -0.5252  1.0068
   60SAPC   H7Y 4670   1.616   2.502   9.620 -0.0502  0.3766 -0.5544
   60SAPC   C38 4671   1.583   2.428   9.416  0.0739  0.2965  1.0924
   60SAPC   H8X 4672   1.489   2.481   9.390 -0.1868 -1.1216 -1.1486
   60SAPC   H8Y 4673   1.556   2.331   9.369 -1.0410  0.9877  0.2448
   60SAPC   C39 4674   1.708   2.478   9.346  0.2225 -0.4763  0.1847
   60SAPC   H9X 4675   1.693   2.452   9.239  1.4579 -0.3482 -0.0351
   60SAPC   H9Y 4676   1.801   2.438   9.392  0.2466  0.7639  1.2661
   60SAPC  C310 4677   1.713   2.633   9.352  0.3242  0.2624  0.1118
   60SAPC  H10X 4678   1.743   2.668   9.453  1.4609 -1.2553  0.3516
   60SAPC  H10Y 4679   1.615   2.677   9.327  0.5608  0.2071 -0.9768
   60SAPC  C311 4680   1.817   2.694   9.255 -0.0452  0.2852  0.1800
   60SAPC  H11X 4681   1.920   2.658   9.271 -0.0319  0.5128  0.6015
   60SAPC  H11Y 4682   1.797   2.802   9.269 -1.8587  0.0618 -0.4494
   60SAPC  C312 4683   1.793   2.673   9.103 -0.3086 -0.2829  0.8295
   60SAPC  H12X 4684   1.685   2.687   9.081  0.0252  0.0720 -0.7166
   60SAPC  H12Y 4685   1.818   2.567   9.085  0.2623 -0.2342  1.3173
   60SAPC  C313 4686   1.870   2.756   9.000 -0.1688  0.4540  0.6458
   60SAPC  H13X 4687   1.980   2.745   9.017 -0.1792  1.0263  1.1333
   60SAPC  H13Y 4688   1.835   2.860   9.011  0.8958  0.6946  2.0620
   60SAPC  C314 4689   1.838   2.713   8.853 -0.6188 -0.3122  0.1763
   60SAPC  H14X 4690   1.808   2.606   8.858  1.8050 -1.0773 -0.3580
   60SAPC  H14Y 4691   1.928   2.737   8.792 -1.3659 -0.9959 -1.2262
   60SAPC  C315 4692   1.726   2.798   8.791  0.5205  0.3272 -0.3432
   60SAPC  H15X 4693   1.657   2.813   8.876 -1.7879  0.8562 -2.2027
   60SAPC  H15Y 4694   1.673   2.734   8.717  2.0884  0.6889 -1.8548
   60SAPC  C316 4695   1.760   2.927   8.723  0.3555  0.1053 -0.7199
   60SAPC  H16X 4696   1.836   2.903   8.646 -0.2633  0.8142 -1.5706
   60SAPC  H16Y 4697   1.794   3.004   8.797  0.8523  0.4532 -1.3009
   60SAPC  C317 4698   1.652   2.996   8.634  0.3118  0.5449 -0.4494
   60SAPC  H17X 4699   1.602   3.061   8.709  0.7980 -0.7877  1.0937
   60SAPC  H17Y 4700   1.584   2.914   8.603 -0.4195  0.4750  1.2260
   60SAPC  C318 4701   1.707   3.064   8.506 -0.5049 -0.5005 -0.0313
   60SAPC  H18X 4702   1.773   2.997   8.447 -0.1137  0.6526 -0.9667
   60SAPC  H18Y 4703   1.742   3.167   8.531  1.8805 -0.7463 -2.0059
   60SAPC  H18Z 4704   1.627   3.078   8.429  0.2594 -0.7604 -0.8804
   61SAPC     N 4705   3.548   1.692  10.894 -0.3008  1.2100 -0.4525
   61SAPC   C12 4706   3.413   1.638  10.909 -0.3226 -0.1715  0.1060
   61SAPC  H12A 4707   3.420   1.532  10.892  0.1349 -0.1951  0.4143
   61SAPC  H12B 4708   3.353   1.665  10.823  0.1786 -1.6424 -0.7344
   61SAPC   C13 4709   3.634   1.632  11.007  0.6172 -0.2639  0.1270
   61SAPC  H13A 4710   3.621   1.525  10.995  3.2517 -0.6401 -0.0536
   61SAPC  H13B 4711   3.738   1.661  11.009  0.6232 -0.1333 -1.1994
   61SAPC  H13C 4712   3.599   1.662  11.105  2.0072  0.9883  0.2781
   61SAPC   C14 4713   3.591   1.637  10.760 -0.1223 -0.2298  0.4820
   61SAPC  H14A 4714   3.526   1.672  10.681 -0.8175 -1.2985  0.5625
   61SAPC  H14B 4715   3.683   1.685  10.732 -0.2679 -0.3543 -0.2419
   61SAPC  H14C 4716   3.614   1.532  10.759  1.6007  0.1302 -0.4435
   61SAPC   C15 4717   3.556   1.834  10.896  0.4491  0.0465 -0.2142
   61SAPC  H15A 4718   3.491   1.861  10.978  0.1165  2.7178 -1.2685
   61SAPC  H15B 4719   3.653   1.880  10.904  0.3248  0.1904  0.5736
   61SAPC  H15C 4720   3.511   1.887  10.814 -0.8490 -0.6581  0.0173
   61SAPC   C11 4721   3.339   1.648  11.044  0.5292 -0.4004  0.6111
   61SAPC  H11A 4722   3.399   1.600  11.123  1.5729  1.0913  0.7649
   61SAPC  H11B 4723   3.243   1.594  11.030 -0.8447  1.5492  1.9050
   61SAPC     P 4724   3.167   1.848  11.070  0.0504 -0.3962 -0.4844
   61SAPC   O13 4725   3.100   1.749  11.150  1.1753  0.0105  0.0715
   61SAPC   O14 4726   3.172   1.987  11.113  0.9960  0.1435  0.4313
   61SAPC   O12 4727   3.316   1.788  11.069  0.1438 -0.4823  0.1942
   61SAPC   O11 4728   3.126   1.848  10.917 -0.2843 -0.0810 -0.2267
   61SAPC    C1 4729   3.099   1.967  10.854 -0.0648  0.2283  0.3838
   61SAPC    HA 4730   2.991   1.988  10.871 -0.2375 -0.1027 -0.2845
   61SAPC    HB 4731   3.159   2.056  10.881  0.9293  0.0488 -1.1206
   61SAPC    C2 4732   3.119   1.954  10.702 -0.3861 -0.4806 -0.0042
   61SAPC    HS 4733   3.089   2.047  10.648 -0.3719 -1.0510 -1.0338
   61SAPC   O21 4734   3.047   1.848  10.641 -0.6148 -0.4611  0.1530
   61SAPC   C21 4735   2.916   1.852  10.645  0.9373  0.4912  0.3518
   61SAPC   O22 4736   2.851   1.948  10.688  0.0912  0.5271 -0.3434
   61SAPC   C22 4737   2.855   1.718  10.595  0.1738 -0.0238 -0.5378
   61SAPC   H2R 4738   2.920   1.683  10.512  0.9312 -4.1094  1.5350
   61SAPC   H2S 4739   2.860   1.641  10.674  1.9171 -0.1251 -0.7081
   61SAPC    C3 4740   3.269   1.939  10.674 -0.3306 -0.3421  0.1222
   61SAPC    HX 4741   3.321   1.864  10.737 -0.3037 -1.2361 -0.9412
   61SAPC    HY 4742   3.332   2.024  10.709  0.8731 -1.6597  1.2826
   61SAPC   O31 4743   3.282   1.930  10.528 -0.6767 -0.5004  0.3925
   61SAPC   C31 4744   3.321   1.815  10.478  0.1462 -0.2938 -0.0025
   61SAPC   O32 4745   3.337   1.718  10.550  0.0066  0.1002 -0.0006
   61SAPC   C32 4746   3.350   1.835  10.333 -0.1412 -0.4318 -0.2178
   61SAPC   H2X 4747   3.421   1.920  10.315 -1.7418  1.2141  0.8837
   61SAPC   H2Y 4748   3.249   1.860  10.293  0.4162 -0.9935 -2.1247
   61SAPC   C23 4749   2.706   1.737  10.542  0.1722 -0.1688  0.1366
   61SAPC   H3R 4750   2.654   1.790  10.625 -0.1574 -0.2689 -0.0041
   61SAPC   H3S 4751   2.661   1.636  10.528  3.4059 -2.1075  2.2814
   61SAPC   C24 4752   2.688   1.831  10.424 -0.0265 -0.0159  0.0839
   61SAPC   H4R 4753   2.767   1.909  10.425  0.7563 -0.7771 -0.6406
   61SAPC   H4S 4754   2.594   1.886  10.442  1.0817  2.0920 -0.2698
   61SAPC   C25 4755   2.687   1.747  10.293  0.0473  0.0354 -0.0023
   61SAPC   H5R 4756   2.602   1.682  10.270 -0.5048  0.2204  1.4572
   61SAPC   C26 4757   2.774   1.754  10.194  0.0995 -0.6652 -0.3318
   61SAPC   H6R 4758   2.745   1.708  10.098 -0.7240  0.5188 -0.6800
   61SAPC   C27 4759   2.901   1.837  10.197 -0.4592 -0.3529  0.1137
   61SAPC   H7R 4760   2.920   1.881  10.297 -1.0732  0.9779 -0.3238
   61SAPC   H7S 4761   2.878   1.928  10.137 -1.5138  0.7458  2.0751
   61SAPC   C28 4762   3.018   1.755  10.143 -0.6423  0.1709  0.1803
   61SAPC   H8R 4763   3.053   1.678  10.213 -0.8647 -1.3307 -1.2938
   61SAPC   C29 4764   3.082   1.761  10.027  0.0038 -0.3872 -0.3365
   61SAPC   H9R 4765   3.173   1.702  10.007  0.4208  0.2232 -0.2569
   61SAPC  C210 4766   3.046   1.857   9.917 -0.7784  0.1415  0.0969
   61SAPC  H10R 4767   3.137   1.895   9.866 -0.1620 -1.5457 -0.1114
   61SAPC  H10S 4768   2.992   1.935   9.974 -2.1925 -0.4533 -0.3732
   61SAPC  C211 4769   2.955   1.785   9.822 -0.1802  0.4562  0.2654
   61SAPC  H11R 4770   2.923   1.682   9.842 -0.5414  0.3873 -0.6171
   61SAPC  C212 4771   2.893   1.851   9.725 -0.2059 -0.1294  0.4423
   61SAPC  H12R 4772   2.814   1.798   9.669  1.3715 -1.8245 -0.3302
   61SAPC  C213 4773   2.912   2.000   9.692 -0.5409  0.0014 -0.3532
   61SAPC  H13R 4774   2.899   2.073   9.775 -0.5836  0.2545 -0.5835
   61SAPC  H13S 4775   2.829   2.029   9.625 -0.6848 -0.7413 -0.5148
   61SAPC  C214 4776   3.047   2.028   9.626 -0.3912  0.1794 -0.0643
   61SAPC  H14R 4777   3.114   2.087   9.690  0.1281 -1.1398  0.6268
   61SAPC  C215 4778   3.087   1.985   9.504  0.1296 -0.7353  0.2206
   61SAPC  H15R 4779   3.180   2.035   9.473 -0.0383 -0.2354  0.5242
   61SAPC  C216 4780   3.007   1.901   9.400 -0.2145 -0.4459 -0.1993
   61SAPC  H16R 4781   2.901   1.896   9.436  0.4640 -0.8168  1.9091
   61SAPC  H16S 4782   3.048   1.798   9.400 -1.1178 -0.8320  0.8023
   61SAPC  C217 4783   3.012   1.964   9.256  0.1339 -0.0816  0.3211
   61SAPC  H17R 4784   3.120   1.965   9.231 -0.2303  0.8441 -1.3287
   61SAPC  H17S 4785   2.976   2.067   9.273  1.0513  0.1500  0.9414
   61SAPC  C218 4786   2.929   1.890   9.159  0.3817  0.7717  0.3292
   61SAPC  H18R 4787   2.820   1.898   9.177  0.1661 -0.7950 -0.1774
   61SAPC  H18S 4788   2.955   1.782   9.166 -2.4847 -0.3688 -3.5379
   61SAPC  C219 4789   2.942   1.942   9.016  1.1405 -0.5092  0.7351
   61SAPC  H19R 4790   3.045   1.958   8.976 -0.1197 -1.1987 -3.1819
   61SAPC  H19S 4791   2.894   2.042   9.018  0.7759 -0.6073 -1.3313
   61SAPC  C220 4792   2.859   1.862   8.916 -0.0522  0.1634  0.1434
   61SAPC  H20R 4793   2.874   1.753   8.932 -4.7544 -0.6955  0.3591
   61SAPC  H20S 4794   2.891   1.886   8.813 -1.7312 -0.6070 -0.6010
   61SAPC  H20T 4795   2.750   1.884   8.925 -0.0004  0.2349  0.6471
   61SAPC   C33 4796   3.389   1.704  10.256  0.1145 -0.4501 -0.0937
   61SAPC   H3X 4797   3.308   1.629  10.261  0.6692 -0.9890  2.0438
   61SAPC   H3Y 4798   3.469   1.654  10.315 -1.9468 -1.8563  1.6651
   61SAPC   C34 4799   3.452   1.736  10.118 -0.4109  0.5207 -0.0322
   61SAPC   H4X 4800   3.536   1.808  10.115  0.7418 -0.7262  0.7544
   61SAPC   H4Y 4801   3.366   1.770  10.056 -2.1994  0.8043  2.4659
   61SAPC   C35 4802   3.504   1.616  10.054  0.4354 -0.5354 -0.1298
   61SAPC   H5X 4803   3.415   1.550  10.044  1.0834 -1.5378  0.4847
   61SAPC   H5Y 4804   3.578   1.559  10.115  0.2637 -0.6260 -0.0050
   61SAPC   C36 4805   3.557   1.634   9.904 -0.2598  0.4260  0.3100
   61SAPC   H6X 4806   3.600   1.536   9.873  0.8210  1.3738 -1.4055
   61SAPC   H6Y 4807   3.650   1.695   9.903  0.2706 -0.3670 -0.2550
   61SAPC   C37 4808   3.457   1.700   9.805 -0.3354  0.1492 -0.0808
   61SAPC   H7X 4809   3.448   1.808   9.826  1.0542  0.1973  0.4065
   61SAPC   H7Y 4810   3.358   1.652   9.821  0.1620 -0.8391  0.1237
   61SAPC   C38 4811   3.491   1.682   9.656 -0.1830  0.5178  0.0489
   61SAPC   H8X 4812   3.487   1.572   9.638  2.2664  0.5324 -0.9682
   61SAPC   H8Y 4813   3.600   1.705   9.657 -0.0234 -0.1600  1.5674
   61SAPC   C39 4814   3.411   1.762   9.552  0.0130 -0.1318  0.1238
   61SAPC   H9X 4815   3.434   1.867   9.578  3.2894 -0.3377 -1.4527
   61SAPC   H9Y 4816   3.302   1.743   9.565  0.0471  0.0226  0.6374
   61SAPC  C310 4817   3.447   1.743   9.402  0.2043  0.0537 -0.0823
   61SAPC  H10X 4818   3.455   1.634   9.381 -2.1634  0.3134 -3.0096
   61SAPC  H10Y 4819   3.544   1.788   9.373 -0.8460  0.6619 -2.9638
   61SAPC  C311 4820   3.344   1.796   9.307 -0.0603 -0.2552 -0.2696
   61SAPC  H11X 4821   3.339   1.907   9.316 -0.5638 -0.3796  1.2674
   61SAPC  H11Y 4822   3.247   1.760   9.347  0.1182  1.1729  1.5759
   61SAPC  C312 4823   3.377   1.751   9.163 -0.0890 -0.2349  0.0989
   61SAPC  H12X 4824   3.407   1.645   9.181 -0.1090 -0.3199 -0.3597
   61SAPC  H12Y 4825   3.460   1.817   9.130  1.1722 -1.0872  1.3989
   61SAPC  C313 4826   3.259   1.741   9.068  0.5587 -0.4323  0.7565
   61SAPC  H13X 4827   3.208   1.834   9.035 -3.1276 -2.1945  0.9872
   61SAPC  H13Y 4828   3.191   1.677   9.128  0.8647  1.3097  3.0855
   61SAPC  C314 4829   3.314   1.670   8.945 -0.0302  0.0253  0.8697
   61SAPC  H14X 4830   3.379   1.587   8.979 -0.3979 -0.0952  1.2816
   61SAPC  H14Y 4831   3.377   1.745   8.893 -2.1708  2.4386  1.5506
   61SAPC  C315 4832   3.211   1.612   8.850  0.0859  1.1174  0.1756
   61SAPC  H15X 4833   3.148   1.697   8.816 -0.6633 -0.1305 -1.7584
   61SAPC  H15Y 4834   3.139   1.545   8.900  0.8548 -0.1838 -0.3981
   61SAPC  C316 4835   3.271   1.551   8.715  0.7747  0.1323 -0.3223
   61SAPC  H16X 4836   3.316   1.451   8.733 -1.5780 -1.1044 -0.8191
   61SAPC  H16Y 4837   3.340   1.629   8.675 -0.3404  1.8759  1.0222
   61SAPC  C317 4838   3.163   1.534   8.602 -0.7644  0.4986 -0.2221
   61SAPC  H17X 4839   3.097   1.448   8.627  0.2919  0.1345  1.4676
   61SAPC  H17Y 4840   3.225   1.495   8.518  1.4176 -1.9389  2.2975
   61SAPC  C318 4841   3.081   1.656   8.552 -0.6080 -0.2347  0.6225
   61SAPC  H18X 4842   3.150   1.742   8.536 -0.0982 -0.7449  0.0493
   61SAPC  H18Y 4843   3.000   1.677   8.625 -0.4948 -1.6437  1.1803
   61SAPC  H18Z 4844   3.031   1.610   8.464  1.8747 -2.8480  0.4467
   62SAPC     N 4845   6.606   1.313  10.588  0.3281  0.1192  0.2516
   62SAPC   C12 4846   6.469   1.355  10.544 -0.1769  0.4762  0.8343
   62SAPC  H12A 4847   6.474   1.446  10.486 -0.4715  0.5395  0.9062
   62SAPC  H12B 4848   6.404   1.367  10.630 -1.5370 -3.6242  0.5688
   62SAPC   C13 4849   6.688   1.283  10.466  0.3872 -0.1049 -0.1554
   62SAPC  H13A 4850   6.643   1.198  10.416 -1.8823  0.6806  0.4304
   62SAPC  H13B 4851   6.679   1.367  10.398 -0.7908  0.9237  1.1996
   62SAPC  H13C 4852   6.790   1.260  10.491  0.2084 -0.4343  0.2911
   62SAPC   C14 4853   6.676   1.416  10.676  0.2757 -0.1461 -0.1669
   62SAPC  H14A 4854   6.658   1.517  10.642 -3.2746 -0.2699  0.9773
   62SAPC  H14B 4855   6.645   1.404  10.778 -1.8815 -0.3665 -0.8042
   62SAPC  H14C 4856   6.784   1.405  10.674  0.5831  2.3117  0.2048
   62SAPC   C15 4857   6.599   1.191  10.669  0.1224 -0.3402 -0.6210
   62SAPC  H15A 4858   6.569   1.202  10.772  1.7544  0.9740 -0.2319
   62SAPC  H15B 4859   6.530   1.118  10.629  0.2714 -0.9119  0.1578
   62SAPC  H15C 4860   6.703   1.161  10.678  0.2936  0.1306 -0.9500
   62SAPC   C11 4861   6.390   1.245  10.462 -0.1581 -0.4637 -0.0340
   62SAPC  H11A 4862   6.454   1.184  10.395  1.0871 -1.0439  1.6176
   62SAPC  H11B 4863   6.304   1.291  10.409 -0.2753 -1.0904 -0.3985
   62SAPC     P 4864   6.207   1.165  10.641 -0.0585  0.1751 -0.3948
   62SAPC   O13 4865   6.227   1.124  10.777 -0.5822 -0.1042  0.2437
   62SAPC   O14 4866   6.156   1.301  10.628  0.2257 -0.4967  1.1246
   62SAPC   O12 4867   6.340   1.152  10.557  0.1683 -0.1367  0.0450
   62SAPC   O11 4868   6.110   1.055  10.569  0.2409 -0.3457 -0.4109
   62SAPC    C1 4869   6.148   0.926  10.527 -0.5860  0.1763 -0.4503
   62SAPC    HA 4870   6.255   0.919  10.553 -0.6318  0.7000 -0.1041
   62SAPC    HB 4871   6.097   0.849  10.590 -3.4580  2.3953  0.1856
   62SAPC    C2 4872   6.105   0.884  10.382  0.1335  0.4619 -0.0247
   62SAPC    HS 4873   6.153   0.787  10.358 -1.2258  0.0243 -1.0807
   62SAPC   O21 4874   6.151   0.970  10.279  0.5991 -0.3132 -0.4500
   62SAPC   C21 4875   6.280   0.965  10.252  0.3437  0.5969 -0.1509
   62SAPC   O22 4876   6.360   0.888  10.298  0.3370  0.5137  0.4482
   62SAPC   C22 4877   6.308   1.077  10.150  0.0889  0.8999 -0.6160
   62SAPC   H2R 4878   6.235   1.062  10.068 -0.0282  1.0567 -0.5399
   62SAPC   H2S 4879   6.279   1.177  10.188  0.2263  0.9630 -0.6774
   62SAPC    C3 4880   5.953   0.863  10.370  0.8026 -0.5701 -0.2883
   62SAPC    HX 4881   5.902   0.950  10.415  2.2454 -0.6307  1.5857
   62SAPC    HY 4882   5.936   0.779  10.440  1.4890 -0.0603  0.4947
   62SAPC   O31 4883   5.914   0.831  10.237  0.2267 -0.2388  0.2536
   62SAPC   C31 4884   5.871   0.932  10.166 -0.3248  0.2455  0.4550
   62SAPC   O32 4885   5.842   1.043  10.205 -0.1303  0.0665 -0.7346
   62SAPC   C32 4886   5.867   0.892  10.021  0.6207  0.3889 -0.3306
   62SAPC   H2X 4887   5.852   0.982   9.958 -1.1588 -0.1151 -0.6775
   62SAPC   H2Y 4888   5.776   0.832   9.998 -0.9440  3.0097 -1.5001
   62SAPC   C23 4889   6.440   1.081  10.075 -0.1901  0.0662 -0.2871
   62SAPC   H3R 4890   6.524   1.113  10.140 -0.2682  0.1044 -0.2063
   62SAPC   H3S 4891   6.431   1.158   9.996  0.5611  0.6969  0.2333
   62SAPC   C24 4892   6.478   0.949   9.987  0.2867 -0.4425 -0.3415
   62SAPC   H4R 4893   6.474   0.862  10.057 -0.0469 -0.9223 -0.9558
   62SAPC   H4S 4894   6.588   0.951   9.969  0.1978 -0.9758 -0.9638
   62SAPC   C25 4895   6.386   0.941   9.868  0.5290  0.7799 -0.2086
   62SAPC   H5R 4896   6.280   0.936   9.898  0.4164  0.9140 -0.5811
   62SAPC   C26 4897   6.422   0.960   9.741 -0.6968 -0.3027  0.9982
   62SAPC   H6R 4898   6.341   0.957   9.667  0.9273 -0.2384 -0.8490
   62SAPC   C27 4899   6.556   0.986   9.684 -0.3008 -0.5430  0.3739
   62SAPC   H7R 4900   6.633   0.980   9.765 -0.5764  2.6751  1.0050
   62SAPC   H7S 4901   6.568   1.087   9.640  4.7484 -1.5875 -1.3741
   62SAPC   C28 4902   6.574   0.884   9.574 -0.6049 -0.2203  1.2160
   62SAPC   H8R 4903   6.567   0.780   9.612  1.7023 -0.7769  0.2572
   62SAPC   C29 4904   6.597   0.913   9.440 -0.1594  0.6256  0.4363
   62SAPC   H9R 4905   6.593   0.827   9.372  0.8713  0.8974  0.0200
   62SAPC  C210 4906   6.603   1.050   9.375 -0.3798  0.1562  0.1558
   62SAPC  H10R 4907   6.711   1.071   9.360  0.0861 -2.3548 -0.5708
   62SAPC  H10S 4908   6.560   1.133   9.434  2.4575  0.9569  1.2939
   62SAPC  C211 4909   6.531   1.059   9.243 -0.4916  0.2993  0.4012
   62SAPC  H11R 4910   6.422   1.058   9.254 -0.9935  1.7833 -3.1515
   62SAPC  C212 4911   6.587   1.032   9.119  0.0379 -0.0502 -0.1341
   62SAPC  H12R 4912   6.516   1.030   9.036  0.3916  0.6096 -0.4642
   62SAPC  C213 4913   6.724   1.003   9.071  0.8765 -0.3189 -0.2152
   62SAPC  H13R 4914   6.803   1.016   9.148  2.1623  0.2495 -1.5735
   62SAPC  H13S 4915   6.748   1.080   8.993  0.6388 -0.9366 -0.9085
   62SAPC  C214 4916   6.726   0.861   9.012  1.0886 -0.0918 -0.0644
   62SAPC  H14R 4917   6.689   0.793   9.091 -1.7355  1.3129 -0.0502
   62SAPC  C215 4918   6.763   0.817   8.893 -0.1947 -0.4699 -0.3934
   62SAPC  H15R 4919   6.751   0.711   8.867 -0.8869 -1.0394  2.0308
   62SAPC  C216 4920   6.815   0.913   8.787 -0.1462 -0.5967 -0.1163
   62SAPC  H16R 4921   6.923   0.893   8.774  0.7487  3.0374  0.5646
   62SAPC  H16S 4922   6.823   1.015   8.829  2.4952 -0.2735 -1.1635
   62SAPC  C217 4923   6.750   0.918   8.648  0.4935  0.2834  0.3580
   62SAPC  H17R 4924   6.645   0.934   8.682  0.8576 -0.4359  1.9227
   62SAPC  H17S 4925   6.751   0.818   8.598 -3.1222 -0.8968  2.2777
   62SAPC  C218 4926   6.807   1.019   8.554 -0.7415  0.6418 -0.0727
   62SAPC  H18R 4927   6.909   1.001   8.514 -1.6645  0.3880 -2.4765
   62SAPC  H18S 4928   6.810   1.119   8.602  1.9213  0.6777 -0.1720
   62SAPC  C219 4929   6.721   1.011   8.419  0.2731 -0.0160 -0.3594
   62SAPC  H19R 4930   6.732   0.901   8.408  0.9100 -0.6942  4.6231
   62SAPC  H19S 4931   6.770   1.077   8.345  1.6990 -2.1393 -1.4169
   62SAPC  C220 4932   6.571   1.058   8.447  0.1770 -0.1347 -0.2183
   62SAPC  H20R 4933   6.523   0.985   8.516 -1.0563 -0.0454 -0.9418
   62SAPC  H20S 4934   6.520   1.047   8.348 -2.1642 -1.5719  1.0378
   62SAPC  H20T 4935   6.582   1.160   8.488 -0.5359  0.1152 -0.6216
   62SAPC   C33 4936   6.001   0.820   9.977 -0.6822 -0.0347  0.4148
   62SAPC   H3X 4937   6.006   0.723  10.032  1.3920  0.5706  1.4123
   62SAPC   H3Y 4938   6.085   0.884  10.012  0.0499 -1.4527  1.3564
   62SAPC   C34 4939   6.018   0.790   9.829  0.5732 -0.3066 -0.3810
   62SAPC   H4X 4940   6.126   0.777   9.808  0.7489  1.2703 -0.6039
   62SAPC   H4Y 4941   5.986   0.879   9.770  0.7891 -0.0187 -0.0684
   62SAPC   C35 4942   5.941   0.662   9.781  0.5851  0.6103  0.2728
   62SAPC   H5X 4943   5.837   0.671   9.818  0.8663  1.4209  0.9049
   62SAPC   H5Y 4944   5.984   0.573   9.832 -1.2288 -0.6779 -0.3406
   62SAPC   C36 4945   5.952   0.642   9.632 -0.3163 -0.7716  1.3421
   62SAPC   H6X 4946   5.923   0.537   9.609  0.5491 -0.9958  1.2243
   62SAPC   H6Y 4947   6.043   0.681   9.582  0.0234 -0.0962  2.4529
   62SAPC   C37 4948   5.843   0.728   9.554 -0.1509 -0.3714 -0.2045
   62SAPC   H7X 4949   5.881   0.832   9.552 -1.2060  0.0603  0.6098
   62SAPC   H7Y 4950   5.749   0.720   9.614  0.1839  1.5250  0.6512
   62SAPC   C38 4951   5.822   0.695   9.408  0.7347 -0.8440  0.4116
   62SAPC   H8X 4952   5.731   0.633   9.393 -1.5221  2.1142  0.8703
   62SAPC   H8Y 4953   5.899   0.638   9.352  0.2699 -0.7049 -0.3890
   62SAPC   C39 4954   5.791   0.814   9.319 -0.3009  0.5623  0.6477
   62SAPC   H9X 4955   5.895   0.851   9.309  0.8190 -2.2879  0.8855
   62SAPC   H9Y 4956   5.732   0.883   9.383 -0.5201  0.4582  0.5608
   62SAPC  C310 4957   5.732   0.803   9.179 -0.0362 -0.1034 -1.5891
   62SAPC  H10X 4958   5.732   0.905   9.134  1.8295  1.2630  1.2480
   62SAPC  H10Y 4959   5.630   0.766   9.202  0.3919  0.0157  0.7115
   62SAPC  C311 4960   5.803   0.705   9.082 -0.0095 -0.1764 -0.1113
   62SAPC  H11X 4961   5.799   0.597   9.107 -1.2541 -0.1062  0.0754
   62SAPC  H11Y 4962   5.910   0.728   9.095 -0.3443  0.0383  3.1628
   62SAPC  C312 4963   5.744   0.710   8.942 -0.2662  0.3784  0.7395
   62SAPC  H12X 4964   5.725   0.816   8.914  0.5469  0.1552 -0.7670
   62SAPC  H12Y 4965   5.647   0.657   8.936 -0.1071  0.1886 -0.4007
   62SAPC  C313 4966   5.855   0.660   8.842  0.2655  0.1517 -0.3214
   62SAPC  H13X 4967   5.899   0.566   8.881 -0.7942  0.2479  1.1780
   62SAPC  H13Y 4968   5.939   0.732   8.846 -0.7489  1.4819 -1.5834
   62SAPC  C314 4969   5.790   0.649   8.709 -1.0856 -0.1948  0.9748
   62SAPC  H14X 4970   5.735   0.742   8.683  1.0285  0.7084 -0.5499
   62SAPC  H14Y 4971   5.717   0.566   8.720 -1.7019  0.2887  0.5969
   62SAPC  C315 4972   5.883   0.599   8.606 -0.1224  0.3145 -0.2601
   62SAPC  H15X 4973   5.979   0.644   8.642  1.1704 -2.0449 -0.5694
   62SAPC  H15Y 4974   5.850   0.639   8.507 -0.7578 -1.0326 -0.6042
   62SAPC  C316 4975   5.918   0.451   8.593 -0.4956  1.0553 -0.2785
   62SAPC  H16X 4976   5.829   0.391   8.566  0.4038  0.0295 -1.0404
   62SAPC  H16Y 4977   5.955   0.416   8.692  0.3132  2.0036 -0.2246
   62SAPC  C317 4978   6.037   0.427   8.493 -0.5675 -0.0910 -0.0678
   62SAPC  H17X 4979   6.123   0.494   8.512  0.0728 -1.6362  2.9182
   62SAPC  H17Y 4980   6.013   0.471   8.393  0.3637  0.7788  0.0694
   62SAPC  C318 4981   6.098   0.286   8.488 -0.7001 -0.0826  0.0417
   62SAPC  H18X 4982   6.138   0.250   8.585  1.7405  3.1851  0.4187
   62SAPC  H18Y 4983   6.178   0.286   8.411 -0.3240 -0.0428  0.4277
   62SAPC  H18Z 4984   6.029   0.208   8.450 -0.2925 -0.8198  0.7893
   63SAPC     N 4985   5.443   6.025   6.237  0.0931  0.3216  0.0068
   63SAPC   C12 4986   5.538   6.020   6.123 -0.2378  0.2729 -0.2310
   63SAPC  H12A 4987   5.551   6.118   6.080  2.0187 -0.2132 -0.7834
   63SAPC  H12B 4988   5.492   5.959   6.047  1.0354  0.9174 -1.5652
   63SAPC   C13 4989   5.318   6.092   6.185 -0.0906 -0.6073 -0.4020
   63SAPC  H13A 4990   5.255   6.136   6.261 -0.3692 -1.1620 -0.3029
   63SAPC  H13B 4991   5.347   6.169   6.116  1.0719  0.7302  1.4731
   63SAPC  H13C 4992   5.252   6.019   6.140  1.2946 -1.4153 -1.1688
   63SAPC   C14 4993   5.410   5.890   6.298  0.2607  0.4150 -0.4251
   63SAPC  H14A 4994   5.497   5.829   6.320  0.2135  0.6542  0.4511
   63SAPC  H14B 4995   5.359   5.909   6.391 -1.3438 -1.4035 -0.8627
   63SAPC  H14C 4996   5.343   5.833   6.235 -0.1665  1.6178 -1.0887
   63SAPC   C15 4997   5.503   6.114   6.349  0.4184 -0.3867 -0.3235
   63SAPC  H15A 4998   5.605   6.087   6.373 -0.5156 -2.5003  1.5805
   63SAPC  H15B 4999   5.498   6.218   6.321 -0.0926 -0.1239  0.7121
   63SAPC  H15C 5000   5.456   6.110   6.446  0.5545  0.6825 -0.2063
   63SAPC   C11 5001   5.683   5.972   6.143  0.5531  0.0209 -0.6140
   63SAPC  H11A 5002   5.721   5.960   6.039 -1.1234 -0.5550 -1.1768
   63SAPC  H11B 5003   5.686   5.869   6.183  1.6071  0.6812  1.1281
   63SAPC     P 5004   5.920   6.030   6.224 -0.0221 -0.4517 -0.1952
   63SAPC   O13 5005   5.982   6.009   6.091 -0.2847  0.2059 -0.6012
   63SAPC   O14 5006   5.977   6.146   6.296 -0.4986 -0.2887  0.0764
   63SAPC   O12 5007   5.767   6.066   6.212  0.6490  0.5873  1.1206
   63SAPC   O11 5008   5.922   5.891   6.312  0.1537 -0.0184 -0.5038
   63SAPC    C1 5009   5.824   5.854   6.415  0.2460  0.8689  1.1503
   63SAPC    HA 5010   5.719   5.866   6.380 -0.2393  0.2251  2.3659
   63SAPC    HB 5011   5.829   5.744   6.423 -2.4957  0.4390 -1.0963
   63SAPC    C2 5012   5.839   5.937   6.543  0.4794 -0.1632 -0.6058
   63SAPC    HS 5013   5.820   6.042   6.513  1.2117 -0.1727 -1.1409
   63SAPC   O21 5014   5.974   5.915   6.602 -0.2988 -0.4566  0.5136
   63SAPC   C21 5015   6.006   6.014   6.684 -0.7524 -0.0032  0.0452
   63SAPC   O22 5016   5.950   6.123   6.691  0.7444 -0.1206  0.0324
   63SAPC   C22 5017   6.132   5.987   6.766  0.9044  0.7957  0.4983
   63SAPC   H2R 5018   6.171   5.889   6.732  3.0969  1.6284  0.4237
   63SAPC   H2S 5019   6.203   6.070   6.747 -0.0470  1.1811 -1.6339
   63SAPC    C3 5020   5.728   5.889   6.644 -0.3807 -1.2789  0.0577
   63SAPC    HX 5021   5.773   5.790   6.663 -0.4023 -1.6032 -1.4407
   63SAPC    HY 5022   5.631   5.878   6.591  0.0247 -0.5766 -0.8658
   63SAPC   O31 5023   5.711   5.972   6.767  0.2503 -0.8465 -0.0811
   63SAPC   C31 5024   5.662   6.092   6.740 -0.1225  0.4746 -0.0312
   63SAPC   O32 5025   5.610   6.125   6.637  0.8588 -0.7778  0.4598
   63SAPC   C32 5026   5.671   6.185   6.863 -0.3013 -1.0968 -0.0876
   63SAPC   H2X 5027   5.697   6.289   6.834 -3.2801  0.4834  2.2256
   63SAPC   H2Y 5028   5.746   6.152   6.937  2.5255 -0.2555 -2.4051
   63SAPC   C23 5029   6.105   5.973   6.911 -0.1733  0.4493 -0.1912
   63SAPC   H3R 5030   6.020   5.905   6.934 -1.0426  2.1327  1.8424
   63SAPC   H3S 5031   6.069   6.067   6.958  0.7358  0.4917  0.4451
   63SAPC   C24 5032   6.235   5.933   6.981 -0.5261  0.0037  0.0934
   63SAPC   H4R 5033   6.230   5.960   7.089 -0.1661 -2.7956  0.8776
   63SAPC   H4S 5034   6.309   5.990   6.921 -1.1081 -1.2612 -1.9395
   63SAPC   C25 5035   6.273   5.787   6.969  0.4521  0.3184  0.5783
   63SAPC   H5R 5036   6.351   5.768   6.894  0.5823 -0.6416  0.9427
   63SAPC   C26 5037   6.235   5.689   7.055  0.4998 -0.8177  0.3459
   63SAPC   H6R 5038   6.268   5.585   7.040 -0.2910 -0.9562 -0.4657
   63SAPC   C27 5039   6.142   5.706   7.176 -0.7032  0.2993  0.4077
   63SAPC   H7R 5040   6.060   5.777   7.151 -0.2600  0.4070 -0.8573
   63SAPC   H7S 5041   6.201   5.759   7.253 -1.7536  2.7603 -0.3760
   63SAPC   C28 5042   6.092   5.580   7.235 -1.1627 -0.5413  0.0005
   63SAPC   H8R 5043   6.060   5.497   7.170 -0.6065 -1.9375  1.4210
   63SAPC   C29 5044   6.085   5.553   7.365  0.0652 -0.1764 -0.2331
   63SAPC   H9R 5045   6.073   5.446   7.389  0.0813 -0.2440 -0.5282
   63SAPC  C210 5046   6.129   5.652   7.477 -0.0186 -0.0434 -0.1047
   63SAPC  H10R 5047   6.173   5.749   7.449  0.5515  0.1316  1.3318
   63SAPC  H10S 5048   6.220   5.609   7.524  0.7972  1.8052  0.0713
   63SAPC  C211 5049   6.011   5.674   7.563 -0.2835 -0.9029  0.8731
   63SAPC  H11R 5050   5.918   5.713   7.518 -0.4585  1.0903  2.7913
   63SAPC  C212 5051   6.007   5.657   7.692  0.8274  0.6184 -0.0134
   63SAPC  H12R 5052   5.913   5.689   7.737 -0.7306  0.1525 -2.7109
   63SAPC  C213 5053   6.104   5.602   7.788  0.3321  0.4617 -0.5495
   63SAPC  H13R 5054   6.138   5.698   7.833  1.8395 -0.1726 -0.2732
   63SAPC  H13S 5055   6.197   5.562   7.743  1.4396  1.9188  0.3579
   63SAPC  C214 5056   6.053   5.494   7.881  0.2478  0.3242 -0.2101
   63SAPC  H14R 5057   6.036   5.402   7.823 -0.9011 -0.6091  1.5038
   63SAPC  C215 5058   6.066   5.496   8.016  0.7206 -0.2585 -0.0484
   63SAPC  H15R 5059   6.026   5.418   8.082 -0.3862 -0.4480 -0.9158
   63SAPC  C216 5060   6.119   5.610   8.099 -0.1549  0.4688  0.5222
   63SAPC  H16R 5061   6.187   5.676   8.040  0.4512  0.1724  0.8812
   63SAPC  H16S 5062   6.180   5.565   8.180  0.5303  0.0679 -0.1998
   63SAPC  C217 5063   6.016   5.710   8.144 -0.3356  0.1744  0.4519
   63SAPC  H17R 5064   5.953   5.739   8.058 -0.5627 -1.0648  0.1830
   63SAPC  H17S 5065   6.063   5.801   8.187 -2.3224  1.3965  0.1135
   63SAPC  C218 5066   5.916   5.655   8.250  0.4826 -0.5983  0.3607
   63SAPC  H18R 5067   5.962   5.630   8.347 -0.8042  1.5230  1.5998
   63SAPC  H18S 5068   5.872   5.561   8.211  2.6869 -0.9548 -1.4235
   63SAPC  C219 5069   5.795   5.751   8.283  0.0541 -0.5031  0.5178
   63SAPC  H19R 5070   5.721   5.681   8.327  0.4939 -1.3415 -0.0471
   63SAPC  H19S 5071   5.752   5.794   8.191  0.0604 -1.1565  0.2048
   63SAPC  C220 5072   5.840   5.856   8.386  0.1100  0.1944 -0.3325
   63SAPC  H20R 5073   5.874   5.804   8.479 -2.2690  1.4030  1.3393
   63SAPC  H20S 5074   5.762   5.930   8.414  1.4489  0.7326  2.2528
   63SAPC  H20T 5075   5.927   5.904   8.338  0.1980 -1.0504 -1.4826
   63SAPC   C33 5076   5.536   6.194   6.940 -0.4106 -0.7154  0.2583
   63SAPC   H3X 5077   5.482   6.097   6.933  1.7947 -2.1488  1.5938
   63SAPC   H3Y 5078   5.478   6.276   6.893 -1.4772 -1.9003 -0.5628
   63SAPC   C34 5079   5.548   6.226   7.090  0.0702  0.2860 -0.0040
   63SAPC   H4X 5080   5.452   6.279   7.110 -0.6486 -0.9247 -0.1887
   63SAPC   H4Y 5081   5.630   6.302   7.094  0.0868  0.2681 -0.0028
   63SAPC   C35 5082   5.564   6.105   7.178  0.4636  0.2805  0.3179
   63SAPC   H5X 5083   5.663   6.056   7.169  0.5336  0.4562  0.1274
   63SAPC   H5Y 5084   5.492   6.024   7.153  0.3507  0.4733  0.0095
   63SAPC   C36 5085   5.546   6.145   7.322 -0.1102 -0.0959  0.2388
   63SAPC   H6X 5086   5.455   6.203   7.348  1.1039  1.8797  0.2808
   63SAPC   H6Y 5087   5.635   6.206   7.350  1.5449 -2.5463  0.5807
   63SAPC   C37 5088   5.558   6.020   7.410  0.0929  0.6662  0.1725
   63SAPC   H7X 5089   5.645   5.962   7.374 -1.2099 -0.7952 -0.7171
   63SAPC   H7Y 5090   5.469   5.960   7.382 -0.2585  1.4316 -0.4011
   63SAPC   C38 5091   5.569   6.053   7.561  0.1155 -0.2498 -0.3575
   63SAPC   H8X 5092   5.489   6.125   7.591  0.5133 -0.2411  0.7389
   63SAPC   H8Y 5093   5.665   6.100   7.591 -1.0928  3.4057 -1.5864
   63SAPC   C39 5094   5.555   5.925   7.642  0.0662  0.4001  0.3904
   63SAPC   H9X 5095   5.638   5.852   7.628 -2.3174 -2.3400 -0.5868
   63SAPC   H9Y 5096   5.465   5.869   7.606 -0.1561  0.8282  0.2789
   63SAPC  C310 5097   5.539   5.954   7.785 -0.3377  0.3229 -0.0312
   63SAPC  H10X 5098   5.480   5.879   7.842  1.3558  1.4116  3.4320
   63SAPC  H10Y 5099   5.487   6.053   7.783 -1.0627 -0.0717 -1.1544
   63SAPC  C311 5100   5.669   5.979   7.871 -0.2893  0.2880 -0.0466
   63SAPC  H11X 5101   5.741   6.033   7.807  0.9877 -0.8496  0.3849
   63SAPC  H11Y 5102   5.711   5.881   7.903 -1.0247 -0.0977 -0.2380
   63SAPC  C312 5103   5.640   6.062   7.998 -0.6441  0.2848  0.6343
   63SAPC  H12X 5104   5.603   6.165   7.978 -1.6773  0.1723  1.8004
   63SAPC  H12Y 5105   5.735   6.074   8.054 -0.7495  0.8066  0.7068
   63SAPC  C313 5106   5.525   5.993   8.085 -0.6336 -0.3751  0.1433
   63SAPC  H13X 5107   5.545   5.885   8.102  0.2304 -0.2801 -0.1987
   63SAPC  H13Y 5108   5.434   6.005   8.024  0.6583  1.4643 -1.5341
   63SAPC  C314 5109   5.495   6.063   8.216 -0.0198  0.4760  0.4244
   63SAPC  H14X 5110   5.466   6.166   8.187  1.2689 -0.1677 -3.9898
   63SAPC  H14Y 5111   5.589   6.079   8.272 -0.7880  2.6305  1.1838
   63SAPC  C315 5112   5.390   5.985   8.291 -0.5172  0.6609  0.6046
   63SAPC  H15X 5113   5.440   5.894   8.332 -1.2189  0.0631  0.1585
   63SAPC  H15Y 5114   5.305   5.955   8.226  0.4134  0.1942 -0.4378
   63SAPC  C316 5115   5.335   6.069   8.407 -0.9509 -0.1543  0.2276
   63SAPC  H16X 5116   5.287   6.159   8.364  0.6512  0.9399  0.6298
   63SAPC  H16Y 5117   5.424   6.101   8.466  0.6794 -0.9139 -1.6816
   63SAPC  C317 5118   5.236   5.991   8.497  0.4627 -0.0231 -0.2044
   63SAPC  H17X 5119   5.280   5.889   8.503  1.4200  0.3979  0.2071
   63SAPC  H17Y 5120   5.143   5.985   8.437  0.8227  3.5935 -1.4070
   63SAPC  C318 5121   5.210   6.050   8.636  0.2214  0.0491 -0.3784
   63SAPC  H18X 5122   5.155   6.145   8.623 -3.0526 -1.6062  0.2392
   63SAPC  H18Y 5123   5.305   6.056   8.694 -0.5872  0.8180  0.9054
   63SAPC  H18Z 5124   5.137   5.981   8.683  0.6724 -0.3605 -0.2710
   64SAPC     N 5125   0.460   0.089   5.953 -0.2487 -0.0360 -0.0151
   64SAPC   C12 5126   0.551   0.192   6.014  0.8503  0.1810 -0.1751
   64SAPC  H12A 5127   0.571   0.172   6.119 -0.5641 -2.5743 -0.3346
   64SAPC  H12B 5128   0.498   0.286   6.011  0.4142 -0.0416  0.3146
   64SAPC   C13 5129   0.437   0.116   5.804 -0.2499  0.1211  0.5332
   64SAPC  H13A 5130   0.532   0.137   5.757 -0.5399  1.3582  0.4596
   64SAPC  H13B 5131   0.396   0.025   5.763  3.0146 -0.7803 -1.0690
   64SAPC  H13C 5132   0.369   0.198   5.786 -1.3044 -0.7103  0.6382
   64SAPC   C14 5133   0.510  -0.053   5.964 -0.0365  0.3340  0.3490
   64SAPC  H14A 5134   0.612  -0.052   5.930 -0.5702  0.7621 -1.3137
   64SAPC  H14B 5135   0.507  -0.092   6.065 -0.9125  2.3942  1.1933
   64SAPC  H14C 5136   0.455  -0.115   5.895  0.0055 -0.6099  1.1486
   64SAPC   C15 5137   0.329   0.087   6.022  0.0536  0.2114 -0.2807
   64SAPC  H15A 5138   0.255   0.027   5.970  0.4596 -0.6855  0.1414
   64SAPC  H15B 5139   0.347   0.044   6.120  1.4059 -1.2898 -1.1341
   64SAPC  H15C 5140   0.288   0.186   6.028 -2.3328 -0.6500 -1.0998
   64SAPC   C11 5141   0.692   0.205   5.946  0.6232 -0.4143 -0.5190
   64SAPC  H11A 5142   0.754   0.285   5.993 -0.7341  1.1957 -1.3911
   64SAPC  H11B 5143   0.678   0.240   5.842 -1.3640 -1.6056 -0.6956
   64SAPC     P 5144   0.903   0.050   5.884  0.2289  0.4485 -0.4271
   64SAPC   O13 5145   0.889  -0.099   5.853  0.3781 -0.3362 -0.2430
   64SAPC   O14 5146   0.931   0.151   5.777  0.4471  0.1326  0.1733
   64SAPC   O12 5147   0.768   0.091   5.959 -0.5040  0.0204  0.4361
   64SAPC   O11 5148   1.015   0.062   6.001 -0.2615 -0.0389  0.2289
   64SAPC    C1 5149   1.010  -0.022   6.122 -0.5920 -0.4340 -0.3854
   64SAPC    HA 5150   0.985  -0.126   6.092 -0.2748 -0.8032  0.6167
   64SAPC    HB 5151   1.112  -0.029   6.163  0.6490  2.3307 -2.5978
   64SAPC    C2 5152   0.902   0.027   6.226 -0.6758  0.9570  0.1066
   64SAPC    HS 5153   0.808  -0.008   6.180  0.8052 -2.5993 -0.4884
   64SAPC   O21 5154   0.909   0.168   6.253  0.6694 -0.8754 -0.4038
   64SAPC   C21 5155   0.789   0.224   6.284  0.3394  0.2596  1.1277
   64SAPC   O22 5156   0.679   0.168   6.283  0.0966 -0.0603  0.3716
   64SAPC   C22 5157   0.796   0.376   6.287 -0.1765  0.7807  0.5765
   64SAPC   H2R 5158   0.896   0.418   6.263 -0.5775  1.8103  0.6861
   64SAPC   H2S 5159   0.731   0.401   6.201 -1.5990 -1.7445  0.8034
   64SAPC    C3 5160   0.924  -0.053   6.364 -0.0326 -0.0498  0.2069
   64SAPC    HX 5161   1.023  -0.013   6.393 -0.5671  0.8215  0.8847
   64SAPC    HY 5162   0.926  -0.162   6.341 -0.3876 -0.2358  1.0168
   64SAPC   O31 5163   0.837  -0.022   6.473 -0.3606 -0.1204 -0.1384
   64SAPC   C31 5164   0.716  -0.086   6.476 -0.4752 -0.1023  0.6144
   64SAPC   O32 5165   0.673  -0.159   6.388  0.0321  0.3595  0.1110
   64SAPC   C32 5166   0.642  -0.046   6.601 -0.9887 -0.2423 -0.4130
   64SAPC   H2X 5167   0.602   0.057   6.587 -0.5891 -0.3340 -2.5403
   64SAPC   H2Y 5168   0.721  -0.048   6.678 -0.1369  3.2270 -1.0473
   64SAPC   C23 5169   0.737   0.427   6.423  0.1768 -0.4424  0.9229
   64SAPC   H3R 5170   0.656   0.359   6.457 -0.5636 -0.1575 -0.2452
   64SAPC   H3S 5171   0.693   0.526   6.398  0.1980 -0.6393  0.0701
   64SAPC   C24 5172   0.849   0.448   6.526  0.7660 -1.0875 -0.1803
   64SAPC   H4R 5173   0.816   0.513   6.610  0.5527  0.4564 -1.4081
   64SAPC   H4S 5174   0.932   0.514   6.493 -0.5137  0.2518 -0.8438
   64SAPC   C25 5175   0.904   0.314   6.580 -0.2000  0.0815 -0.2042
   64SAPC   H5R 5176   0.995   0.285   6.527 -0.6229 -0.7735 -0.4795
   64SAPC   C26 5177   0.872   0.248   6.693 -0.1698  0.4464 -0.4680
   64SAPC   H6R 5178   0.925   0.152   6.707  0.2125  0.5237 -1.2809
   64SAPC   C27 5179   0.770   0.288   6.800  0.5314 -0.1724 -0.4324
   64SAPC   H7R 5180   0.750   0.202   6.868 -0.0296 -0.2618 -0.7027
   64SAPC   H7S 5181   0.675   0.312   6.747  0.9562  3.1260  0.1070
   64SAPC   C28 5182   0.796   0.410   6.883 -0.6272 -0.2141 -0.0268
   64SAPC   H8R 5183   0.853   0.491   6.835 -1.5501  0.7715  0.5288
   64SAPC   C29 5184   0.762   0.427   7.010  0.1203 -0.1222  0.9207
   64SAPC   H9R 5185   0.786   0.523   7.057 -0.0993  0.0073  0.7680
   64SAPC  C210 5186   0.688   0.321   7.099 -0.4345 -0.3368 -0.1741
   64SAPC  H10R 5187   0.773   0.287   7.163  2.1525  0.6373 -2.8654
   64SAPC  H10S 5188   0.644   0.235   7.044 -3.5447  1.9078 -1.4907
   64SAPC  C211 5189   0.576   0.385   7.183  0.1140 -0.0528  0.5350
   64SAPC  H11R 5190   0.499   0.433   7.120  0.2725  1.0462  1.1564
   64SAPC  C212 5191   0.584   0.414   7.315 -0.7006  0.0680  0.1906
   64SAPC  H12R 5192   0.501   0.462   7.370  0.1691 -0.8249  2.4350
   64SAPC  C213 5193   0.691   0.364   7.407 -0.2400 -0.3820 -0.1627
   64SAPC  H13R 5194   0.694   0.434   7.493  1.7856  1.3160 -1.4964
   64SAPC  H13S 5195   0.791   0.384   7.362 -1.1938 -0.3278 -2.3732
   64SAPC  C214 5196   0.685   0.221   7.450 -0.4848  0.2357  0.6653
   64SAPC  H14R 5197   0.665   0.150   7.369  0.6859 -1.6216  1.9127
   64SAPC  C215 5198   0.711   0.165   7.570  0.2375 -0.5605 -0.4583
   64SAPC  H15R 5199   0.713   0.056   7.582  0.3855 -0.5057 -0.0021
   64SAPC  C216 5200   0.741   0.244   7.700 -0.2698  0.8006  0.7045
   64SAPC  H16R 5201   0.733   0.354   7.686 -0.7657  0.8662  1.4453
   64SAPC  H16S 5202   0.845   0.224   7.732 -0.8033 -1.6258  1.1667
   64SAPC  C217 5203   0.646   0.200   7.809  0.1508  0.5551 -0.0998
   64SAPC  H17R 5204   0.697   0.248   7.895  0.1986  2.2634 -1.0387
   64SAPC  H17S 5205   0.659   0.089   7.812  0.4098  0.5741 -0.4001
   64SAPC  C218 5206   0.497   0.240   7.793 -0.3542 -0.6873  0.1186
   64SAPC  H18R 5207   0.457   0.205   7.696 -1.1644 -1.0597  0.5787
   64SAPC  H18S 5208   0.484   0.350   7.783  2.0958 -0.3783 -0.3520
   64SAPC  C219 5209   0.412   0.198   7.903  0.3937 -0.0222 -0.7379
   64SAPC  H19R 5210   0.462   0.233   7.996  1.5741  0.5316 -1.5599
   64SAPC  H19S 5211   0.416   0.087   7.905 -1.4939 -0.1542 -1.8102
   64SAPC  C220 5212   0.262   0.243   7.879  0.1264  0.5631  0.1468
   64SAPC  H20R 5213   0.243   0.352   7.866 -0.1388  0.4200 -0.6914
   64SAPC  H20S 5214   0.193   0.204   7.956  1.0577  1.4529  1.4906
   64SAPC  H20T 5215   0.231   0.192   7.786  1.2030 -0.9000  0.5534
   64SAPC   C33 5216   0.536  -0.145   6.642  0.4497  0.1950  0.1456
   64SAPC   H3X 5217   0.587  -0.205   6.721  2.6710  1.8862  0.1238
   64SAPC   H3Y 5218   0.516  -0.204   6.551 -2.6339  0.9895  0.2170
   64SAPC   C34 5219   0.393  -0.083   6.666 -0.5859 -0.1542 -0.2708
   64SAPC   H4X 5220   0.313  -0.155   6.693  1.5977 -1.7155  2.5633
   64SAPC   H4Y 5221   0.382  -0.009   6.584 -1.6191  1.9135  1.5879
   64SAPC   C35 5222   0.387   0.007   6.794 -0.1416 -0.3526  0.5678
   64SAPC   H5X 5223   0.290   0.062   6.792 -1.0203 -1.8630  0.1443
   64SAPC   H5Y 5224   0.469   0.081   6.795 -1.6445  1.3747  0.5547
   64SAPC   C36 5225   0.391  -0.075   6.925  0.5420  0.1068 -0.4452
   64SAPC   H6X 5226   0.496  -0.105   6.942  0.6282 -0.6088 -2.0776
   64SAPC   H6Y 5227   0.331  -0.167   6.907  1.6749 -0.5973 -0.6783
   64SAPC   C37 5228   0.346  -0.000   7.045  0.2742 -0.3509  0.3046
   64SAPC   H7X 5229   0.243   0.029   7.016  0.7167 -0.0533 -1.0487
   64SAPC   H7Y 5230   0.406   0.092   7.058  1.4899 -0.7736 -1.8152
   64SAPC   C38 5231   0.335  -0.074   7.182 -0.0250  0.2872 -0.6568
   64SAPC   H8X 5232   0.419  -0.138   7.215  0.5092  1.1962 -0.2044
   64SAPC   H8Y 5233   0.260  -0.152   7.160 -0.8361  1.1528 -1.0230
   64SAPC   C39 5234   0.290   0.009   7.307  0.0112  1.0497 -0.1970
   64SAPC   H9X 5235   0.191   0.057   7.287 -0.5691 -0.0005  0.0867
   64SAPC   H9Y 5236   0.366   0.086   7.332  0.3102  0.6511  0.1314
   64SAPC  C310 5237   0.272  -0.078   7.432  0.5907  0.4190 -0.2112
   64SAPC  H10X 5238   0.365  -0.137   7.448  0.4563  0.7161  1.8946
   64SAPC  H10Y 5239   0.194  -0.151   7.400  2.1131 -1.1441 -0.5037
   64SAPC  C311 5240   0.222  -0.009   7.551  0.1751  0.0882  0.1856
   64SAPC  H11X 5241   0.134   0.053   7.523 -2.6280 -4.1520 -1.2807
   64SAPC  H11Y 5242   0.308   0.051   7.589 -0.0579  0.4849  0.0958
   64SAPC  C312 5243   0.166  -0.107   7.667  0.1762 -0.3421  0.2060
   64SAPC  H12X 5244   0.154  -0.042   7.756 -1.1572  0.6423 -0.6505
   64SAPC  H12Y 5245   0.239  -0.185   7.697 -1.9478 -1.8727  1.6984
   64SAPC  C313 5246   0.031  -0.157   7.627  0.4345  0.2395 -0.3756
   64SAPC  H13X 5247   0.026  -0.231   7.544  1.7939  0.7795 -0.9675
   64SAPC  H13Y 5248  -0.035  -0.078   7.584  0.4038  0.9961  0.9865
   64SAPC  C314 5249  -0.053  -0.192   7.751  0.6569 -0.0906  0.1145
   64SAPC  H14X 5250  -0.141  -0.247   7.710  0.2612  1.2331 -0.9003
   64SAPC  H14Y 5251  -0.084  -0.092   7.789  0.4048 -0.3110  0.4949
   64SAPC  C315 5252   0.009  -0.269   7.869  0.0557  0.3951 -1.1052
   64SAPC  H15X 5253   0.105  -0.224   7.903 -0.7675 -1.6997  5.4722
   64SAPC  H15Y 5254   0.030  -0.372   7.832  0.2013  0.7713 -2.0868
   64SAPC  C316 5255  -0.093  -0.260   7.977  0.2228  0.3701 -0.4850
   64SAPC  H16X 5256  -0.190  -0.283   7.929  0.8336 -1.9734 -0.7007
   64SAPC  H16Y 5257  -0.091  -0.152   8.005  3.7383 -0.1170  1.7000
   64SAPC  C317 5258  -0.067  -0.357   8.094 -0.0323  0.6227  0.3354
   64SAPC  H17X 5259  -0.156  -0.340   8.158  1.5131  1.3985  2.3823
   64SAPC  H17Y 5260   0.017  -0.320   8.156  3.2588 -2.4839 -1.8828
   64SAPC  C318 5261  -0.048  -0.511   8.059 -0.2044 -0.1972  0.5168
   64SAPC  H18X 5262  -0.061  -0.570   8.152  0.9736  2.3841  2.4459
   64SAPC  H18Y 5263   0.057  -0.511   8.022 -0.3873  1.1444 -0.0623
   64SAPC  H18Z 5264  -0.117  -0.540   7.977 -1.8205 -0.5443  1.9519
   65SAPC     N 5265   5.191   2.797   5.941 -0.2115 -0.3937  0.9647
   65SAPC   C12 5266   5.251   2.937   5.925 -0.0647 -0.2694 -0.0553
   65SAPC  H12A 5267   5.182   2.996   5.867 -1.0697 -0.8310  0.5241
   65SAPC  H12B 5268   5.346   2.926   5.877 -0.4036 -2.1001 -0.3781
   65SAPC   C13 5269   5.047   2.798   5.969  0.3378 -0.2698  0.0868
   65SAPC  H13A 5270   5.031   2.856   6.059  0.7443 -1.2681  0.8311
   65SAPC  H13B 5271   4.988   2.857   5.901  1.2211  1.1921  0.5538
   65SAPC  H13C 5272   5.004   2.700   5.986  0.8799 -0.6568 -0.7484
   65SAPC   C14 5273   5.209   2.719   5.812  0.2451  0.7813  0.1156
   65SAPC  H14A 5274   5.170   2.619   5.827 -1.3418  1.5874  1.7409
   65SAPC  H14B 5275   5.136   2.762   5.746 -2.0116  1.0235  2.6228
   65SAPC  H14C 5276   5.310   2.726   5.775  2.3049 -2.1929  4.3017
   65SAPC   C15 5277   5.264   2.725   6.055  0.2249 -0.2641  0.4442
   65SAPC  H15A 5278   5.232   2.760   6.152 -1.2572 -1.3604  0.3955
   65SAPC  H15B 5279   5.235   2.621   6.056 -0.5228 -0.0848 -0.5443
   65SAPC  H15C 5280   5.371   2.734   6.051  0.2239 -0.0999  0.7790
   65SAPC   C11 5281   5.278   3.017   6.051 -0.1220  1.0488  0.4550
   65SAPC  H11A 5282   5.348   3.098   6.018  0.3871 -0.0013 -1.1990
   65SAPC  H11B 5283   5.343   2.967   6.126  0.2352 -0.9986 -1.1349
   65SAPC     P 5284   5.083   3.171   6.036  0.2645 -0.2001 -0.3533
   65SAPC   O13 5285   5.169   3.289   6.024  0.0365  0.3888 -0.1355
   65SAPC   O14 5286   5.017   3.131   5.911  0.1755  0.0713  0.3268
   65SAPC   O12 5287   5.160   3.059   6.111 -0.4926 -0.4842  0.1505
   65SAPC   O11 5288   4.968   3.201   6.143 -0.7341 -0.5348  0.3385
   65SAPC    C1 5289   4.889   3.087   6.192  0.9709 -0.0071 -0.0052
   65SAPC    HA 5290   4.829   3.056   6.104  1.6198 -1.5823  0.0746
   65SAPC    HB 5291   4.948   2.996   6.217 -0.9843 -0.9818  1.2602
   65SAPC    C2 5292   4.788   3.126   6.300  0.8812 -0.0686 -0.4165
   65SAPC    HS 5293   4.707   3.183   6.250 -1.3553 -1.6919  1.1269
   65SAPC   O21 5294   4.846   3.195   6.408  0.3651 -0.5818 -0.3653
   65SAPC   C21 5295   4.758   3.278   6.474 -0.3664  0.0745 -0.5036
   65SAPC   O22 5296   4.640   3.278   6.463  0.0445  0.3835  0.1693
   65SAPC   C22 5297   4.842   3.339   6.588 -0.0367 -0.3542  0.2752
   65SAPC   H2R 5298   4.907   3.258   6.627  0.2166 -1.6537 -2.5496
   65SAPC   H2S 5299   4.906   3.422   6.552 -0.9577  0.4568  0.4723
   65SAPC    C3 5300   4.704   3.004   6.351  0.6981 -0.1172 -0.3182
   65SAPC    HX 5301   4.643   2.963   6.268 -0.7381  3.3422 -1.1626
   65SAPC    HY 5302   4.620   3.045   6.411 -1.1007 -0.5755 -2.4039
   65SAPC   O31 5303   4.784   2.908   6.423  0.2933  0.6945 -0.2826
   65SAPC   C31 5304   4.788   2.931   6.561  0.0743  0.1575  0.4366
   65SAPC   O32 5305   4.704   2.997   6.619  0.3332 -0.0681 -0.5205
   65SAPC   C32 5306   4.906   2.859   6.623 -0.3777 -0.0517 -0.5100
   65SAPC   H2X 5307   4.991   2.863   6.552 -0.9366 -1.7001 -1.3049
   65SAPC   H2Y 5308   4.883   2.751   6.637 -0.1977 -0.1735 -1.1331
   65SAPC   C23 5309   4.749   3.377   6.708 -0.1175 -0.7943 -0.0716
   65SAPC   H3R 5310   4.706   3.284   6.753 -0.4827 -0.7766 -0.3839
   65SAPC   H3S 5311   4.657   3.433   6.682  2.1059  2.5102 -1.4750
   65SAPC   C24 5312   4.825   3.455   6.821 -0.6077  0.2313 -0.1610
   65SAPC   H4R 5313   4.749   3.485   6.896 -1.7762 -0.6187 -0.9650
   65SAPC   H4S 5314   4.870   3.543   6.772  0.7685  0.2183  1.0109
   65SAPC   C25 5315   4.930   3.374   6.889 -0.5053  0.3432  0.0038
   65SAPC   H5R 5316   5.006   3.348   6.814 -0.1352  2.1072 -0.2711
   65SAPC   C26 5317   4.951   3.349   7.019  0.1234 -0.0932 -0.0207
   65SAPC   H6R 5318   5.034   3.280   7.041 -0.4435 -1.3055 -1.4730
   65SAPC   C27 5319   4.863   3.383   7.135 -0.1939 -0.3565 -0.1118
   65SAPC   H7R 5320   4.756   3.381   7.105 -0.1219  2.2494 -0.7962
   65SAPC   H7S 5321   4.892   3.481   7.177  1.5115 -1.3346  1.1584
   65SAPC   C28 5322   4.876   3.273   7.240 -0.1881 -0.5261 -0.5266
   65SAPC   H8R 5323   4.826   3.177   7.221 -0.0376 -0.6266 -0.4165
   65SAPC   C29 5324   4.961   3.276   7.344  0.3497 -0.6534  0.1922
   65SAPC   H9R 5325   4.961   3.189   7.412 -2.1013 -0.8717 -0.0146
   65SAPC  C210 5326   5.071   3.379   7.375  0.9751 -0.8405  0.1900
   65SAPC  H10R 5327   5.088   3.437   7.282 -2.1847 -1.8396 -1.1495
   65SAPC  H10S 5328   5.171   3.333   7.392  0.3186 -1.9554  1.2591
   65SAPC  C211 5329   5.030   3.481   7.479  0.0925  0.3832 -0.7211
   65SAPC  H11R 5330   4.935   3.535   7.471  0.2392  0.5134 -1.7678
   65SAPC  C212 5331   5.104   3.493   7.594 -0.1649 -0.3457  0.4958
   65SAPC  H12R 5332   5.056   3.551   7.675 -0.2267  3.4868 -2.0116
   65SAPC  C213 5333   5.222   3.408   7.632  0.0811  0.1221  0.5983
   65SAPC  H13R 5334   5.298   3.466   7.689 -0.0103  0.4603  0.3733
   65SAPC  H13S 5335   5.288   3.384   7.546 -0.0817  0.1377  0.4696
   65SAPC  C214 5336   5.186   3.272   7.692  0.7036  0.1508  0.3972
   65SAPC  H14R 5337   5.109   3.215   7.638 -1.5337  1.6087  1.8756
   65SAPC  C215 5338   5.245   3.213   7.795  0.2909  0.0545  0.2771
   65SAPC  H15R 5339   5.197   3.121   7.831  2.1555 -1.0597  0.0774
   65SAPC  C216 5340   5.351   3.284   7.874  0.5368 -0.1495  0.0482
   65SAPC  H16R 5341   5.404   3.357   7.808 -0.1024 -0.2804 -0.6281
   65SAPC  H16S 5342   5.426   3.214   7.917 -0.2834 -0.5616  0.8298
   65SAPC  C217 5343   5.301   3.350   7.995 -0.1974  0.0106  0.2150
   65SAPC  H17R 5344   5.255   3.275   8.063 -0.7440  0.7661  0.6947
   65SAPC  H17S 5345   5.215   3.419   7.982 -1.6953 -1.7611  0.1817
   65SAPC  C218 5346   5.417   3.411   8.076  0.2921 -0.2665  0.5566
   65SAPC  H18R 5347   5.470   3.483   8.010 -1.4973  0.3371 -0.2755
   65SAPC  H18S 5348   5.484   3.327   8.105 -0.4914 -0.2601  2.5132
   65SAPC  C219 5349   5.394   3.483   8.214 -0.0905 -0.4299  0.7720
   65SAPC  H19R 5350   5.343   3.409   8.280 -0.5514 -0.7880  0.0230
   65SAPC  H19S 5351   5.336   3.576   8.199  0.5338 -0.3145 -1.1991
   65SAPC  C220 5352   5.522   3.518   8.288  0.1949  0.4167 -0.0221
   65SAPC  H20R 5353   5.496   3.557   8.389  0.4023  0.6537 -0.0573
   65SAPC  H20S 5354   5.583   3.588   8.227 -1.0136 -0.0914 -1.9062
   65SAPC  H20T 5355   5.586   3.429   8.303 -0.0820  0.3233  0.6408
   65SAPC   C33 5356   4.929   2.924   6.759  0.0583 -0.3867  0.0400
   65SAPC   H3X 5357   4.833   2.911   6.813  0.3429 -1.5831  0.2857
   65SAPC   H3Y 5358   4.959   3.031   6.758  0.7827 -0.5778 -0.9204
   65SAPC   C34 5359   5.038   2.858   6.839 -0.3003  0.1648  0.0560
   65SAPC   H4X 5360   5.133   2.885   6.787  0.9129 -2.4192  0.7941
   65SAPC   H4Y 5361   5.030   2.748   6.849  0.9131  0.1901  1.7337
   65SAPC   C35 5362   5.030   2.917   6.984 -0.2362 -0.7813 -0.1035
   65SAPC   H5X 5363   4.929   2.951   7.013 -0.5168 -0.1391 -1.7848
   65SAPC   H5Y 5364   5.086   3.011   6.968 -0.2690 -0.3901  1.7957
   65SAPC   C36 5365   5.105   2.838   7.087 -0.2129 -0.1300  0.2149
   65SAPC   H6X 5366   5.209   2.816   7.056  0.2660  0.4436  1.3875
   65SAPC   H6Y 5367   5.053   2.740   7.077  0.7330 -1.0574  3.3747
   65SAPC   C37 5368   5.079   2.892   7.220  0.3929  0.4201 -0.5521
   65SAPC   H7X 5369   4.969   2.890   7.230  0.2901 -0.9098 -1.6572
   65SAPC   H7Y 5370   5.113   2.997   7.236  0.2974  0.5112 -0.9513
   65SAPC   C38 5371   5.133   2.802   7.333 -0.4866  0.1552  1.1732
   65SAPC   H8X 5372   5.244   2.797   7.331 -0.4690  0.4235  1.4597
   65SAPC   H8Y 5373   5.090   2.702   7.311 -1.0018  0.4995  0.5547
   65SAPC   C39 5374   5.088   2.830   7.471 -0.2694 -0.7538  0.2305
   65SAPC   H9X 5375   4.978   2.842   7.457  0.0276  3.1299  0.2287
   65SAPC   H9Y 5376   5.125   2.926   7.514 -1.8140 -0.0863  0.1267
   65SAPC  C310 5377   5.131   2.727   7.578  0.2877  0.6291  0.9446
   65SAPC  H10X 5378   5.239   2.737   7.604  0.1185  0.7993  1.5981
   65SAPC  H10Y 5379   5.117   2.625   7.536  2.2110  1.5744 -2.4446
   65SAPC  C311 5380   5.044   2.739   7.705 -0.9800 -0.4033 -0.1464
   65SAPC  H11X 5381   5.068   2.658   7.778 -0.0691 -1.6188 -1.7260
   65SAPC  H11Y 5382   4.936   2.720   7.684 -0.7977 -2.2100  0.3512
   65SAPC  C312 5383   5.048   2.875   7.774 -1.6262  0.2579  0.3698
   65SAPC  H12X 5384   5.007   2.950   7.703 -2.3247  0.8473  1.3738
   65SAPC  H12Y 5385   5.157   2.892   7.790 -1.0888 -1.6339 -0.9316
   65SAPC  C313 5386   4.974   2.882   7.910 -0.7172  0.9017 -0.4876
   65SAPC  H13X 5387   5.015   2.807   7.981 -0.0342  1.4880 -0.2470
   65SAPC  H13Y 5388   4.870   2.852   7.884 -1.1513  0.6054  1.4279
   65SAPC  C314 5389   4.961   3.022   7.964 -0.2748  0.3502 -0.3204
   65SAPC  H14X 5390   4.903   3.086   7.895  0.8703  1.2765 -0.4440
   65SAPC  H14Y 5391   5.062   3.058   7.993  0.6182 -1.2356 -1.3204
   65SAPC  C315 5392   4.871   3.023   8.092 -0.4781 -0.7431  0.1728
   65SAPC  H15X 5393   4.849   3.126   8.127  0.1091  0.0734 -1.7348
   65SAPC  H15Y 5394   4.921   2.958   8.167 -0.1865 -1.3938 -0.5709
   65SAPC  C316 5395   4.734   2.956   8.073 -0.2844 -0.0602 -0.4019
   65SAPC  H16X 5396   4.736   2.846   8.054  0.2899 -0.5098  2.0087
   65SAPC  H16Y 5397   4.667   3.011   8.003  2.0247  0.9451 -1.9432
   65SAPC  C317 5398   4.662   2.930   8.213  0.2045 -0.9005  0.0015
   65SAPC  H17X 5399   4.556   2.906   8.192 -0.3036  0.3792  1.0179
   65SAPC  H17Y 5400   4.668   3.025   8.271  2.9297 -2.6719  3.0098
   65SAPC  C318 5401   4.728   2.833   8.309  0.6567 -0.4972 -0.0946
   65SAPC  H18X 5402   4.655   2.809   8.389 -2.4044 -0.2908 -2.5949
   65SAPC  H18Y 5403   4.826   2.866   8.347  1.0613 -2.1293  0.3782
   65SAPC  H18Z 5404   4.739   2.734   8.259 -2.7834 -0.9701 -0.1978
   66SAPC     N 5405   4.313   1.460   5.745  0.2529  0.1529  0.1210
   66SAPC   C12 5406   4.241   1.453   5.875 -0.3573 -0.4840  0.3624
   66SAPC  H12A 5407   4.222   1.347   5.879 -1.7907 -0.2711 -0.2328
   66SAPC  H12B 5408   4.145   1.501   5.866 -0.5372 -0.8941  0.0551
   66SAPC   C13 5409   4.227   1.386   5.645 -0.4191  0.2538  0.2275
   66SAPC  H13A 5410   4.129   1.427   5.627 -0.6222 -0.6446 -0.9038
   66SAPC  H13B 5411   4.281   1.382   5.552 -1.9028 -2.0768 -0.6404
   66SAPC  H13C 5412   4.206   1.284   5.674 -1.9005  0.8022  1.2039
   66SAPC   C14 5413   4.341   1.603   5.701  0.1703 -0.2051  0.2822
   66SAPC  H14A 5414   4.418   1.604   5.626  2.0227  2.4540  2.0439
   66SAPC  H14B 5415   4.247   1.644   5.668 -0.8702 -0.6355  2.4854
   66SAPC  H14C 5416   4.381   1.660   5.784  0.1779  3.8130 -2.2376
   66SAPC   C15 5417   4.447   1.396   5.758  0.0465  0.2055 -0.1524
   66SAPC  H15A 5418   4.512   1.454   5.822  0.3882  1.4750 -1.5868
   66SAPC  H15B 5419   4.458   1.296   5.799 -1.0022  0.1359 -0.0314
   66SAPC  H15C 5420   4.500   1.405   5.664  0.3373  0.7694  0.0584
   66SAPC   C11 5421   4.304   1.519   6.001 -0.0408  0.0553 -0.0220
   66SAPC  H11A 5422   4.411   1.490   6.011  0.6568  2.0832 -1.0756
   66SAPC  H11B 5423   4.254   1.484   6.093 -0.9984  2.9800  0.6893
   66SAPC     P 5424   4.180   1.741   6.030 -0.4888 -0.5036  0.1982
   66SAPC   O13 5425   4.209   1.884   6.016  0.0491 -0.4729  0.0167
   66SAPC   O14 5426   4.061   1.688   5.969 -0.0384 -0.6610  0.7277
   66SAPC   O12 5427   4.304   1.660   5.986 -0.0540 -0.2338  0.7541
   66SAPC   O11 5428   4.169   1.712   6.184  0.3713 -0.7942 -0.4779
   66SAPC    C1 5429   4.256   1.775   6.279  0.4146 -0.4390 -0.4834
   66SAPC    HA 5430   4.287   1.876   6.243  0.6854 -0.4679 -0.3381
   66SAPC    HB 5431   4.194   1.781   6.371 -0.6972 -0.5103 -1.2104
   66SAPC    C2 5432   4.383   1.688   6.313  0.6060  0.0767 -0.4903
   66SAPC    HS 5433   4.438   1.670   6.218 -1.0756 -1.2072 -1.2839
   66SAPC   O21 5434   4.340   1.578   6.389  0.3085  0.2620  0.7432
   66SAPC   C21 5435   4.386   1.455   6.346 -0.2002  0.1237 -0.1888
   66SAPC   O22 5436   4.454   1.436   6.246 -0.5830  0.0954  0.3046
   66SAPC   C22 5437   4.329   1.340   6.437 -0.3496  0.5306  0.3546
   66SAPC   H2R 5438   4.306   1.385   6.535  2.9090 -1.1770  2.0729
   66SAPC   H2S 5439   4.235   1.307   6.389 -0.6793 -0.8943  1.8947
   66SAPC    C3 5440   4.479   1.770   6.401 -0.6272  0.8294 -0.6265
   66SAPC    HX 5441   4.429   1.811   6.491  0.1301  0.7328 -0.1442
   66SAPC    HY 5442   4.517   1.848   6.332  4.1538  0.8037  1.5519
   66SAPC   O31 5443   4.582   1.677   6.451  0.3446 -0.0245  0.1899
   66SAPC   C31 5444   4.677   1.657   6.372 -0.4542 -0.1282  0.5876
   66SAPC   O32 5445   4.689   1.717   6.266 -0.1908 -0.6053  0.4248
   66SAPC   C32 5446   4.768   1.554   6.436 -0.6790  0.4641  0.0496
   66SAPC   H2X 5447   4.778   1.475   6.359 -2.3275  2.0204 -1.8593
   66SAPC   H2Y 5448   4.711   1.512   6.522  0.3908  1.7943  1.4764
   66SAPC   C23 5449   4.412   1.213   6.445 -0.3133 -0.4615 -0.0135
   66SAPC   H3R 5450   4.518   1.236   6.467 -0.2496  0.1678 -0.9153
   66SAPC   H3S 5451   4.402   1.154   6.352  0.8916 -0.3511 -0.2217
   66SAPC   C24 5452   4.363   1.120   6.558  0.3598 -0.4592  0.6815
   66SAPC   H4R 5453   4.261   1.085   6.530  0.0554  2.3978 -2.4686
   66SAPC   H4S 5454   4.377   1.182   6.649  0.3335  0.2247  0.2189
   66SAPC   C25 5455   4.452   0.995   6.558  0.4442 -0.2074  0.1030
   66SAPC   H5R 5456   4.418   0.921   6.485  1.6071  1.0451 -1.7949
   66SAPC   C26 5457   4.548   0.976   6.649 -0.8951  0.1135  0.0713
   66SAPC   H6R 5458   4.607   0.884   6.636  1.0043  1.2488  0.2849
   66SAPC   C27 5459   4.591   1.066   6.756  0.1819  0.3194 -0.5977
   66SAPC   H7R 5460   4.575   1.174   6.735 -0.0441  0.4484  0.1965
   66SAPC   H7S 5461   4.698   1.063   6.785  0.0412 -1.2643 -0.1356
   66SAPC   C28 5462   4.511   1.042   6.886  0.5308 -0.5054  0.2287
   66SAPC   H8R 5463   4.494   0.936   6.912  3.2499 -0.8720  0.8785
   66SAPC   C29 5464   4.447   1.133   6.970 -0.4560  0.4001  0.2096
   66SAPC   H9R 5465   4.381   1.100   7.052  1.7053  1.6213  2.6170
   66SAPC  C210 5466   4.446   1.283   6.962 -0.1754 -0.4551 -0.3993
   66SAPC  H10R 5467   4.496   1.333   6.876  0.7953 -1.6236 -0.5443
   66SAPC  H10S 5468   4.506   1.313   7.051  0.8606  0.2892 -1.3200
   66SAPC  C211 5469   4.306   1.329   6.976 -0.0480 -0.0250  0.6057
   66SAPC  H11R 5470   4.252   1.332   6.881  2.4840 -3.0795 -1.1308
   66SAPC  C212 5471   4.239   1.341   7.092  0.1929  0.1447 -0.6012
   66SAPC  H12R 5472   4.132   1.364   7.077  0.0408  1.6401  2.1108
   66SAPC  C213 5473   4.282   1.319   7.229  0.1685  0.2723 -0.3748
   66SAPC  H13R 5474   4.298   1.209   7.240  1.2176  0.5502  1.3426
   66SAPC  H13S 5475   4.196   1.335   7.297  0.0978 -1.6575  0.0634
   66SAPC  C214 5476   4.399   1.392   7.291  0.1307 -0.1301 -0.2114
   66SAPC  H14R 5477   4.436   1.473   7.226  1.2155 -0.3288  0.1305
   66SAPC  C215 5478   4.463   1.361   7.404  0.3272 -0.0269 -0.1200
   66SAPC  H15R 5479   4.544   1.428   7.435 -0.7109  0.3588  1.9161
   66SAPC  C216 5480   4.436   1.246   7.493  0.0549 -0.3577 -0.0516
   66SAPC  H16R 5481   4.496   1.161   7.454 -2.9256 -2.1446 -1.0856
   66SAPC  H16S 5482   4.330   1.214   7.483 -0.3184  1.1709 -1.5278
   66SAPC  C217 5483   4.460   1.268   7.646  0.4567 -0.3844  0.4947
   66SAPC  H17R 5484   4.413   1.359   7.689  1.4767 -0.0234  0.8611
   66SAPC  H17S 5485   4.567   1.297   7.644  0.4848 -0.4496  0.9915
   66SAPC  C218 5486   4.458   1.143   7.729 -0.0178 -0.7714 -0.2027
   66SAPC  H18R 5487   4.509   1.062   7.673 -1.7452  1.7303 -6.1209
   66SAPC  H18S 5488   4.356   1.104   7.751 -0.0102  1.2069  4.6669
   66SAPC  C219 5489   4.503   1.171   7.870  0.0243  0.1164 -0.0044
   66SAPC  H19R 5490   4.446   1.263   7.897 -0.8934 -0.2215 -0.7451
   66SAPC  H19S 5491   4.608   1.209   7.866 -0.8241  2.7487  0.6048
   66SAPC  C220 5492   4.478   1.055   7.972  0.4000  0.1314 -0.5611
   66SAPC  H20R 5493   4.512   1.080   8.074  0.2620 -1.8066 -0.0055
   66SAPC  H20S 5494   4.540   0.967   7.947 -0.9281 -1.2491  0.7969
   66SAPC  H20T 5495   4.376   1.011   7.969  0.4142  0.1424 -2.5960
   66SAPC   C33 5496   4.909   1.622   6.474  0.3564  0.6276  0.2711
   66SAPC   H3X 5497   4.964   1.654   6.382  0.9938 -3.8739 -1.1740
   66SAPC   H3Y 5498   4.971   1.537   6.507 -1.6096 -0.1328  2.2702
   66SAPC   C34 5499   4.911   1.727   6.587 -0.1750  0.2752 -0.5451
   66SAPC   H4X 5500   5.005   1.715   6.645  0.6053 -1.1590 -2.0275
   66SAPC   H4Y 5501   4.828   1.689   6.650 -0.0037  0.9874  0.1270
   66SAPC   C35 5502   4.890   1.869   6.547 -0.3700 -0.7162  0.1092
   66SAPC   H5X 5503   4.809   1.875   6.472 -2.1466 -3.3074  1.6679
   66SAPC   H5Y 5504   4.979   1.904   6.490 -1.2288  0.8206 -0.3562
   66SAPC   C36 5505   4.849   1.965   6.661  0.5766  0.1277 -0.3482
   66SAPC   H6X 5506   4.748   1.937   6.699  1.1034 -1.3211  0.0661
   66SAPC   H6Y 5507   4.831   2.066   6.619 -0.5387 -1.1770 -3.3375
   66SAPC   C37 5508   4.946   1.972   6.778  0.4373 -0.1984  0.2577
   66SAPC   H7X 5509   5.051   1.969   6.740  0.1800  1.2217 -0.6596
   66SAPC   H7Y 5510   4.925   1.880   6.837  1.3405 -0.8542 -0.4010
   66SAPC   C38 5511   4.908   2.084   6.867  0.6130 -0.4287 -0.6279
   66SAPC   H8X 5512   4.805   2.084   6.910  0.9468  1.6406  0.2787
   66SAPC   H8Y 5513   4.906   2.181   6.812 -0.7788  0.2418  0.5282
   66SAPC   C39 5514   5.008   2.097   6.985 -0.5907  0.2089  0.5474
   66SAPC   H9X 5515   5.006   2.199   7.030 -0.6400  1.0908 -1.3489
   66SAPC   H9Y 5516   5.111   2.073   6.952 -0.4150  1.4226  0.1631
   66SAPC  C310 5517   4.981   1.992   7.092  0.1610  0.2214 -0.2580
   66SAPC  H10X 5518   4.999   1.890   7.053  0.7241  0.7780 -1.5096
   66SAPC  H10Y 5519   4.878   2.008   7.132 -0.3010 -1.0927 -0.8544
   66SAPC  C311 5520   5.085   2.014   7.207 -0.2850 -0.6382 -0.1767
   66SAPC  H11X 5521   5.057   2.116   7.239 -0.4162 -0.6230 -0.3437
   66SAPC  H11Y 5522   5.192   2.022   7.178  0.7548  1.1839  3.4927
   66SAPC  C312 5523   5.078   1.903   7.319  0.2498 -0.3712 -0.1018
   66SAPC  H12X 5524   5.087   1.799   7.280  0.7628 -0.3869  0.0516
   66SAPC  H12Y 5525   4.973   1.906   7.353  0.3947 -0.5532  0.3713
   66SAPC  C313 5526   5.174   1.922   7.439  0.1946 -0.0095  0.3814
   66SAPC  H13X 5527   5.169   2.032   7.453 -2.4007 -0.2253  1.9791
   66SAPC  H13Y 5528   5.274   1.890   7.404 -0.0390  1.0708 -1.4032
   66SAPC  C314 5529   5.120   1.855   7.567 -0.1482 -0.5669  0.1612
   66SAPC  H14X 5530   5.152   1.750   7.553  0.2724 -0.2318 -1.6329
   66SAPC  H14Y 5531   5.011   1.873   7.581  0.2399  2.6103 -0.1862
   66SAPC  C315 5532   5.198   1.908   7.690 -0.6059 -0.1563 -0.3447
   66SAPC  H15X 5533   5.218   2.017   7.682 -1.4775  0.2101  1.7582
   66SAPC  H15Y 5534   5.298   1.860   7.698 -0.3867  0.4833  1.1791
   66SAPC  C316 5535   5.122   1.874   7.819 -0.1586  0.5398  0.3308
   66SAPC  H16X 5536   5.018   1.912   7.817 -1.2296 -1.9953  2.1159
   66SAPC  H16Y 5537   5.180   1.910   7.907  0.7497 -0.1594  0.0443
   66SAPC  C317 5538   5.122   1.720   7.845 -0.5930  0.4552 -1.0118
   66SAPC  H17X 5539   5.230   1.696   7.834  0.1826  3.2250 -0.2101
   66SAPC  H17Y 5540   5.076   1.665   7.759  0.3910  1.6957 -2.3916
   66SAPC  C318 5541   5.054   1.673   7.970  0.2140 -1.3504 -0.5265
   66SAPC  H18X 5542   4.950   1.712   7.976  0.1584 -1.1751 -2.2386
   66SAPC  H18Y 5543   5.103   1.709   8.063 -0.4542  0.4402 -0.8215
   66SAPC  H18Z 5544   5.045   1.563   7.973 -0.5796 -1.2760  0.3707
   67SAPC     N 5545   5.805   4.407   6.061  0.1519  0.1258  0.0599
   67SAPC   C12 5546   5.707   4.405   6.182  0.6253 -0.2006  0.0075
   67SAPC  H12A 5547   5.627   4.338   6.154  0.1798 -0.1744  1.1421
   67SAPC  H12B 5548   5.660   4.501   6.195 -0.3168 -0.6778  0.2942
   67SAPC   C13 5549   5.736   4.445   5.936  0.6279 -0.6653 -0.0690
   67SAPC  H13A 5550   5.672   4.365   5.902 -0.7941  0.5334 -0.3269
   67SAPC  H13B 5551   5.677   4.531   5.963  0.4630 -1.0071  0.6785
   67SAPC  H13C 5552   5.812   4.468   5.863 -1.8458  0.7379 -2.3994
   67SAPC   C14 5553   5.916   4.501   6.090  0.3095  0.8329  0.1826
   67SAPC  H14A 5554   5.966   4.531   5.999  0.3268 -0.6663 -0.3347
   67SAPC  H14B 5555   5.879   4.592   6.135 -1.0299  1.0514 -1.2937
   67SAPC  H14C 5556   5.985   4.453   6.159  0.1208  0.1601 -0.0895
   67SAPC   C15 5557   5.872   4.278   6.044  0.0462 -0.0048  0.3794
   67SAPC  H15A 5558   5.925   4.276   5.950 -2.2158 -2.7737 -1.0167
   67SAPC  H15B 5559   5.942   4.245   6.120  1.0850  1.1280 -0.0652
   67SAPC  H15C 5560   5.806   4.193   6.035  0.9567 -0.7708  0.6944
   67SAPC   C11 5561   5.766   4.361   6.321 -0.0152  0.0221  0.2012
   67SAPC  H11A 5562   5.720   4.412   6.409  0.6648  2.1634 -0.6345
   67SAPC  H11B 5563   5.872   4.392   6.327 -0.2894  1.0563  0.0082
   67SAPC     P 5564   5.862   4.130   6.407 -0.0865  0.2955 -0.3518
   67SAPC   O13 5565   5.823   3.988   6.394  0.4467  0.3214  0.6196
   67SAPC   O14 5566   5.993   4.175   6.354 -0.0177  0.4462  0.3854
   67SAPC   O12 5567   5.750   4.219   6.340 -0.4278  0.3709  0.4386
   67SAPC   O11 5568   5.853   4.168   6.566  0.1852 -0.9227 -0.4526
   67SAPC    C1 5569   5.725   4.186   6.631 -0.8443  0.9104  0.0174
   67SAPC    HA 5570   5.696   4.294   6.629  1.1171  1.4716 -1.5400
   67SAPC    HB 5571   5.647   4.131   6.574 -1.5901  2.7889 -0.8943
   67SAPC    C2 5572   5.734   4.131   6.778 -0.3715  0.2104 -0.7859
   67SAPC    HS 5573   5.638   4.152   6.830  1.5750  0.2379  3.2048
   67SAPC   O21 5574   5.832   4.191   6.862 -0.2248  0.0432 -0.1317
   67SAPC   C21 5575   5.834   4.320   6.874  0.6349  0.6166 -0.0510
   67SAPC   O22 5576   5.745   4.393   6.834  0.0592 -0.2672 -0.8146
   67SAPC   C22 5577   5.959   4.358   6.956 -0.9979  0.0740  0.3906
   67SAPC   H2R 5578   6.025   4.409   6.883  0.4220  1.0580  2.2773
   67SAPC   H2S 5579   5.916   4.434   7.025 -1.9387 -0.2590  0.1803
   67SAPC    C3 5580   5.750   3.981   6.784 -0.0048 -0.3712  0.5068
   67SAPC    HX 5581   5.845   3.944   6.740 -1.7639 -1.6040 -2.4917
   67SAPC    HY 5582   5.673   3.936   6.719  0.7477 -0.3414 -0.4299
   67SAPC   O31 5583   5.719   3.941   6.921  0.3905  0.7363 -0.0743
   67SAPC   C31 5584   5.808   3.863   6.982 -0.5212 -0.3059 -0.5396
   67SAPC   O32 5585   5.922   3.842   6.944  0.0460  0.1353 -0.2914
   67SAPC   C32 5586   5.754   3.803   7.115  0.2429 -0.7737 -0.4035
   67SAPC   H2X 5587   5.688   3.718   7.088 -2.1570  0.6574  0.5443
   67SAPC   H2Y 5588   5.680   3.872   7.162  1.3753 -0.0415  0.3341
   67SAPC   C23 5589   6.039   4.238   7.025  0.7242 -0.0150  0.1315
   67SAPC   H3R 5590   6.140   4.268   7.062  0.9775 -1.3281  0.5463
   67SAPC   H3S 5591   6.056   4.163   6.944 -1.9779  1.6864 -2.2013
   67SAPC   C24 5592   5.971   4.192   7.160  0.8292  0.0016  0.0915
   67SAPC   H4R 5593   6.039   4.115   7.204 -0.1760  0.0025  1.7392
   67SAPC   H4S 5594   5.877   4.135   7.143  1.8088 -0.7791 -3.3294
   67SAPC   C25 5595   5.961   4.288   7.274 -0.2262  0.3963  0.5742
   67SAPC   H5R 5596   6.063   4.302   7.313  1.1147 -2.2880 -1.6295
   67SAPC   C26 5597   5.854   4.350   7.329  0.1375  0.0767  0.3387
   67SAPC   H6R 5598   5.868   4.412   7.419 -0.6345  0.2627  0.3408
   67SAPC   C27 5599   5.718   4.334   7.269 -0.1044 -0.3261 -0.9941
   67SAPC   H7R 5600   5.695   4.235   7.224 -0.3269 -0.9634  0.4497
   67SAPC   H7S 5601   5.707   4.404   7.183 -0.0198 -0.1846 -0.8911
   67SAPC   C28 5602   5.608   4.380   7.362  0.0930 -0.3408 -0.2389
   67SAPC   H8R 5603   5.560   4.479   7.356 -2.4988 -1.5143 -0.3789
   67SAPC   C29 5604   5.532   4.298   7.438 -0.4008 -0.3278  0.0584
   67SAPC   H9R 5605   5.459   4.351   7.501  0.9029  0.4390  0.9690
   67SAPC  C210 5606   5.556   4.151   7.450  0.5185 -0.0112  0.5983
   67SAPC  H10R 5607   5.625   4.139   7.536 -0.1087  0.2862  1.1462
   67SAPC  H10S 5608   5.604   4.117   7.355 -1.8806 -0.1215 -0.6341
   67SAPC  C211 5609   5.426   4.079   7.478 -0.0641  0.8567  0.6699
   67SAPC  H11R 5610   5.354   4.101   7.397  1.7212  3.7983 -0.2879
   67SAPC  C212 5611   5.395   3.992   7.580  0.3343  0.2062 -0.6150
   67SAPC  H12R 5612   5.292   3.953   7.585  0.8502 -1.2740 -0.8525
   67SAPC  C213 5613   5.491   3.940   7.678 -0.1049  0.3057  0.1010
   67SAPC  H13R 5614   5.484   4.004   7.769 -0.4524 -0.7135  0.8058
   67SAPC  H13S 5615   5.594   3.943   7.637 -0.6069  0.1874 -1.2315
   67SAPC  C214 5616   5.467   3.791   7.704 -0.1181  0.0403 -0.5001
   67SAPC  H14R 5617   5.450   3.724   7.619 -0.0141  1.6849 -1.8773
   67SAPC  C215 5618   5.471   3.737   7.827 -0.8837  0.1501  0.4795
   67SAPC  H15R 5619   5.444   3.630   7.834 -0.6664  0.1153  0.8710
   67SAPC  C216 5620   5.485   3.804   7.966  0.2147  0.1611  0.9681
   67SAPC  H16R 5621   5.546   3.898   7.968  0.7946 -0.1488 -0.5951
   67SAPC  H16S 5622   5.526   3.740   8.047 -1.1012  0.8594  2.2297
   67SAPC  C217 5623   5.351   3.845   8.014 -0.5830  0.1958  0.1862
   67SAPC  H17R 5624   5.289   3.754   8.027 -0.9745  0.3113 -0.8184
   67SAPC  H17S 5625   5.310   3.901   7.927 -1.9772  1.8419  1.7943
   67SAPC  C218 5626   5.344   3.939   8.136  0.5097  0.4598 -0.0836
   67SAPC  H18R 5627   5.238   3.947   8.169  0.2929  3.0524 -1.1518
   67SAPC  H18S 5628   5.380   4.043   8.118 -0.7698  1.1281  1.0567
   67SAPC  C219 5629   5.427   3.894   8.262  0.0990  0.8149  1.0453
   67SAPC  H19R 5630   5.536   3.894   8.241  0.3709  3.3873  2.1133
   67SAPC  H19S 5631   5.402   3.790   8.292  1.8644  0.1679  0.4102
   67SAPC  C220 5632   5.409   3.987   8.382 -0.1214 -0.4430 -0.1383
   67SAPC  H20R 5633   5.412   4.082   8.325 -1.4856 -0.4671 -0.2931
   67SAPC  H20S 5634   5.491   3.967   8.454 -0.8014 -0.2278  0.7050
   67SAPC  H20T 5635   5.307   3.984   8.426 -0.9945 -1.7591 -2.0849
   67SAPC   C33 5636   5.856   3.772   7.222  1.1475 -0.0528 -0.1501
   67SAPC   H3X 5637   5.935   3.849   7.234  1.6560 -0.2369 -2.0032
   67SAPC   H3Y 5638   5.902   3.679   7.183  2.4209  0.3857  0.2535
   67SAPC   C34 5639   5.788   3.773   7.362 -0.4674 -0.5333 -0.3252
   67SAPC   H4X 5640   5.726   3.682   7.378  0.0246 -0.5255  1.9309
   67SAPC   H4Y 5641   5.719   3.861   7.359  2.3186  1.7746 -2.3437
   67SAPC   C35 5642   5.894   3.795   7.473  0.9579  0.7667  0.7225
   67SAPC   H5X 5643   5.991   3.749   7.442  0.9670  1.9198 -1.1234
   67SAPC   H5Y 5644   5.851   3.757   7.568  0.1999  0.9719  0.4604
   67SAPC   C36 5645   5.913   3.943   7.500  0.1157  0.0344 -0.8076
   67SAPC   H6X 5646   5.820   3.990   7.541  1.0124  2.9770 -1.8590
   67SAPC   H6Y 5647   5.937   3.985   7.400  3.2463 -1.1504 -0.6510
   67SAPC   C37 5648   6.038   3.969   7.584  1.0364 -0.2387  0.4862
   67SAPC   H7X 5649   6.050   4.079   7.597  1.1388 -0.3051  0.9599
   67SAPC   H7Y 5650   6.124   3.929   7.528  0.8382  1.1349 -0.8621
   67SAPC   C38 5651   6.027   3.919   7.733  0.8014 -0.4463  1.1750
   67SAPC   H8X 5652   6.035   3.809   7.718  2.5917 -0.2367  0.2636
   67SAPC   H8Y 5653   5.928   3.940   7.777  0.7002  1.8587 -0.0030
   67SAPC   C39 5654   6.132   3.966   7.833 -0.4565 -0.1441 -0.2246
   67SAPC   H9X 5655   6.106   4.072   7.852 -1.3185 -0.6737  1.8159
   67SAPC   H9Y 5656   6.227   3.948   7.779 -0.7717 -0.4506 -0.6879
   67SAPC  C310 5657   6.129   3.888   7.959  0.3820  0.3736 -0.0366
   67SAPC  H10X 5658   6.213   3.926   8.021  1.4686  1.1407 -1.9158
   67SAPC  H10Y 5659   6.158   3.783   7.938  0.8208  0.7003 -1.1468
   67SAPC  C311 5660   6.002   3.890   8.047 -0.6443 -0.8543 -0.4338
   67SAPC  H11X 5661   6.023   3.832   8.139  0.1076  0.3814  0.2014
   67SAPC  H11Y 5662   5.925   3.831   7.994 -0.6994 -0.9651 -0.2284
   67SAPC  C312 5663   5.947   4.027   8.083 -0.1001  0.1121 -0.3307
   67SAPC  H12X 5664   5.918   4.081   7.990  0.5383 -0.1432 -0.6840
   67SAPC  H12Y 5665   6.023   4.087   8.137 -1.6765  2.6103 -0.7317
   67SAPC  C313 5666   5.827   4.036   8.188 -0.1244 -0.1035  0.1592
   67SAPC  H13X 5667   5.863   4.015   8.291  0.0524 -0.2278  0.0724
   67SAPC  H13Y 5668   5.747   3.967   8.156 -0.0314  1.0208 -2.7432
   67SAPC  C314 5669   5.767   4.175   8.212 -0.3573  0.8348 -0.1228
   67SAPC  H14X 5670   5.703   4.187   8.303 -0.1312  0.2531  0.1219
   67SAPC  H14Y 5671   5.709   4.189   8.118 -0.7172  0.7171  0.0762
   67SAPC  C315 5672   5.879   4.277   8.217 -0.9518 -0.1790 -0.0303
   67SAPC  H15X 5673   5.919   4.277   8.113  0.9801  0.2719  0.6776
   67SAPC  H15Y 5674   5.963   4.233   8.275 -0.9489  0.4092  0.4280
   67SAPC  C316 5675   5.834   4.406   8.276 -0.6552 -0.4375 -0.4291
   67SAPC  H16X 5676   5.785   4.372   8.370 -0.7451 -1.6654 -0.9136
   67SAPC  H16Y 5677   5.763   4.464   8.214 -0.1400  0.4653 -0.2038
   67SAPC  C317 5678   5.962   4.498   8.304  0.3562  0.2679 -0.5955
   67SAPC  H17X 5679   6.014   4.534   8.212  2.2245 -2.2889 -0.6487
   67SAPC  H17Y 5680   6.030   4.423   8.349 -3.0504 -2.3497  0.6085
   67SAPC  C318 5681   5.928   4.622   8.394 -0.1407 -0.7527  0.4557
   67SAPC  H18X 5682   5.832   4.671   8.367  1.6817  1.6385 -2.2947
   67SAPC  H18Y 5683   6.004   4.702   8.388  0.5659 -1.4560 -0.4271
   67SAPC  H18Z 5684   5.916   4.587   8.499  0.8328 -1.9512  0.1903
   68SAPC     N 5685   5.903   1.282   6.014 -0.1120 -0.3405  0.0927
   68SAPC   C12 5686   5.973   1.271   6.146 -0.1668  0.3996 -0.3654
   68SAPC  H12A 5687   6.015   1.172   6.152 -0.3561  0.3190 -0.3746
   68SAPC  H12B 5688   5.903   1.285   6.227 -2.6434 -1.1116 -2.0979
   68SAPC   C13 5689   5.994   1.211   5.914 -0.7854 -0.0703 -0.1348
   68SAPC  H13A 5690   6.004   1.105   5.932  0.3582  0.3871  2.2474
   68SAPC  H13B 5691   5.943   1.219   5.819 -1.2214 -0.6869  0.0351
   68SAPC  H13C 5692   6.091   1.255   5.925 -1.4548  1.1670  1.0238
   68SAPC   C14 5693   5.773   1.215   6.007  0.3500  0.1048 -0.0626
   68SAPC  H14A 5694   5.783   1.110   6.030 -1.0664  0.1193  0.7687
   68SAPC  H14B 5695   5.700   1.254   6.078 -0.8905 -0.6312 -0.8996
   68SAPC  H14C 5696   5.723   1.219   5.912  1.3417 -1.7626 -0.7157
   68SAPC   C15 5697   5.890   1.424   5.975  0.8265 -0.0153 -0.2152
   68SAPC  H15A 5698   5.871   1.429   5.869  1.4575 -2.2299 -0.4859
   68SAPC  H15B 5699   5.807   1.462   6.032  0.1208 -1.7584 -0.0067
   68SAPC  H15C 5700   5.981   1.478   5.994 -0.1547  2.1115 -1.1246
   68SAPC   C11 5701   6.101   1.365   6.171 -0.6478  0.5327 -0.7102
   68SAPC  H11A 5702   6.140   1.346   6.273 -2.3531  2.2026  0.3113
   68SAPC  H11B 5703   6.072   1.471   6.161 -0.4385  0.3600 -4.5546
   68SAPC     P 5704   6.269   1.452   5.998  0.0839 -0.0644 -0.0166
   68SAPC   O13 5705   6.340   1.382   5.887  0.2355 -0.1491  0.6117
   68SAPC   O14 5706   6.165   1.554   5.960  0.0205 -0.2306 -0.3408
   68SAPC   O12 5707   6.202   1.333   6.079  0.0513 -0.3507 -0.0049
   68SAPC   O11 5708   6.371   1.512   6.100 -0.6173 -0.5335 -0.3705
   68SAPC    C1 5709   6.493   1.434   6.125 -0.2943 -0.0378  0.6695
   68SAPC    HA 5710   6.470   1.327   6.145  0.9295 -0.8077 -1.7108
   68SAPC    HB 5711   6.560   1.453   6.038  0.2037  1.3385  1.3281
   68SAPC    C2 5712   6.572   1.493   6.250  0.2581  0.1356  0.1775
   68SAPC    HS 5713   6.629   1.580   6.212 -1.2577  0.1983 -2.1452
   68SAPC   O21 5714   6.661   1.395   6.314 -1.1029 -0.6426 -0.2398
   68SAPC   C21 5715   6.771   1.370   6.256 -0.4422  0.1681 -0.5473
   68SAPC   O22 5716   6.808   1.402   6.144  0.5634 -0.5617 -0.1439
   68SAPC   C22 5717   6.848   1.272   6.350 -0.2392 -0.6641 -0.4761
   68SAPC   H2R 5718   6.771   1.208   6.397  0.1852 -1.1112 -0.3792
   68SAPC   H2S 5719   6.922   1.217   6.287 -0.1062 -0.6255 -0.3531
   68SAPC    C3 5720   6.466   1.533   6.358 -0.2458 -0.6448 -0.1434
   68SAPC    HX 5721   6.415   1.439   6.387  0.4433 -1.0572 -0.2324
   68SAPC    HY 5722   6.403   1.608   6.306 -0.1080  0.0071  0.5978
   68SAPC   O31 5723   6.534   1.604   6.459 -0.4035 -0.3805 -0.3616
   68SAPC   C31 5724   6.453   1.613   6.569 -0.8455 -0.2989 -0.0304
   68SAPC   O32 5725   6.340   1.582   6.586 -0.1323  0.4643 -0.3689
   68SAPC   C32 5726   6.538   1.676   6.674  0.2870  0.0069 -0.4516
   68SAPC   H2X 5727   6.527   1.785   6.659  0.7495  0.3119  1.1981
   68SAPC   H2Y 5728   6.642   1.637   6.665 -0.2487 -1.2408 -1.5637
   68SAPC   C23 5729   6.932   1.338   6.460 -0.0573 -0.0373 -0.1663
   68SAPC   H3R 5730   7.009   1.405   6.414  0.7192 -2.6036 -2.9270
   68SAPC   H3S 5731   6.988   1.259   6.516  1.5442 -2.2621 -4.4434
   68SAPC   C24 5732   6.844   1.412   6.568 -0.2900  0.1923  0.9009
   68SAPC   H4R 5733   6.786   1.337   6.626 -2.3078  0.5302 -0.5568
   68SAPC   H4S 5734   6.772   1.480   6.518  0.0804 -1.3001 -1.8939
   68SAPC   C25 5735   6.937   1.488   6.652 -0.4805  0.0478 -0.3236
   68SAPC   H5R 5736   7.016   1.538   6.595  0.1272 -1.4395 -0.8127
   68SAPC   C26 5737   6.927   1.504   6.785 -0.2564 -0.2987 -0.8935
   68SAPC   H6R 5738   7.004   1.558   6.843 -0.3035 -1.7229  0.5733
   68SAPC   C27 5739   6.812   1.456   6.870  0.6293  0.2920 -1.0119
   68SAPC   H7R 5740   6.714   1.453   6.817 -0.8331  0.8715  1.5090
   68SAPC   H7S 5741   6.794   1.535   6.946  0.6629 -2.3050  1.9154
   68SAPC   C28 5742   6.829   1.323   6.946 -0.1955 -0.4551 -0.2512
   68SAPC   H8R 5743   6.881   1.244   6.890  0.0462 -1.3879  1.2421
   68SAPC   C29 5744   6.751   1.281   7.052  0.1239  0.8264  1.0981
   68SAPC   H9R 5745   6.760   1.176   7.085 -3.7950 -0.2144 -0.5377
   68SAPC  C210 5746   6.640   1.358   7.116  0.4218 -0.3160  0.6833
   68SAPC  H10R 5747   6.606   1.427   7.035  2.5447  0.6295  0.5248
   68SAPC  H10S 5748   6.680   1.419   7.200  1.1442  0.2437 -0.0514
   68SAPC  C211 5749   6.535   1.259   7.164 -0.1425  0.1940 -1.0682
   68SAPC  H11R 5750   6.481   1.202   7.086 -0.9543 -2.9250  1.5496
   68SAPC  C212 5751   6.504   1.224   7.293 -0.4722 -0.2522 -0.0683
   68SAPC  H12R 5752   6.422   1.152   7.304  0.4682 -1.3344  0.0699
   68SAPC  C213 5753   6.578   1.285   7.415  0.8062  0.5600  0.2495
   68SAPC  H13R 5754   6.504   1.343   7.475  0.9653  0.8113  0.2031
   68SAPC  H13S 5755   6.659   1.357   7.390 -1.2373  2.9343  0.0113
   68SAPC  C214 5756   6.627   1.166   7.491 -0.6427 -0.3951  0.2799
   68SAPC  H14R 5757   6.671   1.089   7.426 -0.9373  3.0047 -4.5116
   68SAPC  C215 5758   6.620   1.151   7.626 -0.4446  0.1927  0.2117
   68SAPC  H15R 5759   6.670   1.066   7.674  0.8387  0.9948  0.3790
   68SAPC  C216 5760   6.569   1.253   7.725 -0.1604 -0.3361 -0.7189
   68SAPC  H16R 5761   6.525   1.340   7.673  0.3484  0.4155  0.0628
   68SAPC  H16S 5762   6.656   1.282   7.788 -0.5218 -0.5289 -0.1234
   68SAPC  C217 5763   6.463   1.208   7.831  0.3912  0.0283 -0.0687
   68SAPC  H17R 5764   6.379   1.165   7.773 -0.6033 -0.8035  1.8912
   68SAPC  H17S 5765   6.413   1.297   7.875 -0.7267 -0.9450  0.7051
   68SAPC  C218 5766   6.516   1.113   7.931  0.5440  0.3763 -0.4883
   68SAPC  H18R 5767   6.567   1.170   8.012  2.3805 -0.5347 -0.9371
   68SAPC  H18S 5768   6.591   1.051   7.877 -0.2852 -1.4845  0.4057
   68SAPC  C219 5769   6.407   1.011   7.972 -0.4605 -0.8016  0.3784
   68SAPC  H19R 5770   6.375   0.954   7.882 -1.2053 -0.4102  0.3810
   68SAPC  H19S 5771   6.312   1.052   8.014 -0.1428  1.5327 -0.9764
   68SAPC  C220 5772   6.475   0.903   8.058  0.3776 -0.2367  0.2721
   68SAPC  H20R 5773   6.558   0.853   8.005 -1.5088 -1.4533 -1.6899
   68SAPC  H20S 5774   6.398   0.826   8.080  0.5921 -1.1780 -2.0213
   68SAPC  H20T 5775   6.510   0.960   8.147 -2.6475 -0.6107  1.8435
   68SAPC   C33 5776   6.505   1.643   6.824 -0.1690 -1.0513  0.7380
   68SAPC   H3X 5777   6.597   1.664   6.883 -0.8071 -1.1371  1.7835
   68SAPC   H3Y 5778   6.498   1.534   6.842  1.4672 -0.9876  2.0370
   68SAPC   C34 5779   6.396   1.732   6.874  0.4569 -0.0476  0.0210
   68SAPC   H4X 5780   6.304   1.727   6.812 -0.6584  2.0831  1.3520
   68SAPC   H4Y 5781   6.420   1.840   6.870 -0.1767  0.0896 -0.2655
   68SAPC   C35 5782   6.337   1.699   7.016 -0.3337  0.0943  1.0364
   68SAPC   H5X 5783   6.293   1.597   7.007  1.4210 -0.5567 -1.3226
   68SAPC   H5Y 5784   6.254   1.767   7.042 -1.3925 -0.3098 -1.0725
   68SAPC   C36 5785   6.445   1.700   7.119  0.3862  0.7919  0.3486
   68SAPC   H6X 5786   6.498   1.795   7.099  2.4975 -0.3760  0.1031
   68SAPC   H6Y 5787   6.511   1.617   7.086  0.7863  0.8898  0.8903
   68SAPC   C37 5788   6.386   1.685   7.261 -0.6136  0.7270 -0.5101
   68SAPC   H7X 5789   6.317   1.598   7.274 -1.9723  1.7664 -0.5855
   68SAPC   H7Y 5790   6.338   1.783   7.281 -1.4219  0.1828  0.2708
   68SAPC   C38 5791   6.502   1.663   7.365 -0.0913 -0.3917 -0.5995
   68SAPC   H8X 5792   6.554   1.760   7.352 -0.8514 -0.1960 -2.4067
   68SAPC   H8Y 5793   6.571   1.584   7.329 -0.5227 -1.1225  0.1556
   68SAPC   C39 5794   6.464   1.637   7.511 -0.2721  0.0294 -0.3583
   68SAPC   H9X 5795   6.404   1.543   7.517  0.7404 -0.5808  0.4994
   68SAPC   H9Y 5796   6.391   1.717   7.534 -1.8958 -1.2231 -0.9108
   68SAPC  C310 5797   6.573   1.644   7.611  0.7973  0.2453  0.7092
   68SAPC  H10X 5798   6.629   1.740   7.610 -1.4119  1.6121 -0.4559
   68SAPC  H10Y 5799   6.648   1.566   7.588 -1.1361 -1.6311  0.4658
   68SAPC  C311 5800   6.506   1.631   7.752 -0.2453 -0.2090  0.1588
   68SAPC  H11X 5801   6.437   1.544   7.745  0.2642 -0.7227  1.2844
   68SAPC  H11Y 5802   6.453   1.726   7.771  0.6190  0.0782  1.1988
   68SAPC  C312 5803   6.613   1.596   7.855 -0.3813  0.1963 -0.0772
   68SAPC  H12X 5804   6.675   1.688   7.868 -0.7880  0.4035  0.4004
   68SAPC  H12Y 5805   6.673   1.510   7.817  1.2025  0.6592  1.2249
   68SAPC  C313 5806   6.553   1.546   7.986  0.2102 -0.0905  0.0207
   68SAPC  H13X 5807   6.507   1.446   7.978 -0.1663  0.0518  0.3655
   68SAPC  H13Y 5808   6.477   1.622   8.014 -0.0098 -0.7161  1.2058
   68SAPC  C314 5809   6.643   1.545   8.101 -0.3911  0.5110  0.5955
   68SAPC  H14X 5810   6.673   1.651   8.116 -0.9336  0.8862 -0.7681
   68SAPC  H14Y 5811   6.742   1.498   8.087 -0.4336  1.0688 -2.0283
   68SAPC  C315 5812   6.579   1.504   8.237  0.1092  0.5328  0.2956
   68SAPC  H15X 5813   6.651   1.527   8.318  0.3485  0.7477  0.0208
   68SAPC  H15Y 5814   6.574   1.393   8.243  0.6024  0.5375  0.9623
   68SAPC  C316 5815   6.439   1.572   8.255 -0.6470  0.5122 -0.8337
   68SAPC  H16X 5816   6.358   1.519   8.202 -2.2673  0.3208  1.7063
   68SAPC  H16Y 5817   6.456   1.680   8.232  0.6886  0.9375  1.7288
   68SAPC  C317 5818   6.392   1.568   8.404 -0.0792 -0.3212  0.3827
   68SAPC  H17X 5819   6.303   1.634   8.419  0.3197 -0.0269  1.5468
   68SAPC  H17Y 5820   6.470   1.624   8.459 -0.4750  1.5450 -0.8158
   68SAPC  C318 5821   6.349   1.434   8.458  0.1873 -0.6324 -0.3036
   68SAPC  H18X 5822   6.425   1.356   8.435  0.1177  0.1721 -3.8023
   68SAPC  H18Y 5823   6.253   1.405   8.410 -0.1804  0.1838 -0.0733
   68SAPC  H18Z 5824   6.318   1.443   8.564  1.2755 -1.0173  0.0511
   69SLPC     N 5825   2.508   5.115  10.857 -0.2126  0.1705 -0.1188
   69SLPC   C13 5826   2.582   5.231  10.894 -0.1315 -0.1539 -0.1635
   69SLPC  H13A 5827   2.535   5.290  10.971  2.5610  0.4042  1.1701
   69SLPC  H13B 5828   2.675   5.202  10.941 -1.0419 -2.3454  0.4316
   69SLPC  H13C 5829   2.598   5.300  10.813  1.2881 -0.8610 -0.5284
   69SLPC   C14 5830   2.378   5.158  10.808 -0.9642  0.3606  0.2006
   69SLPC  H14A 5831   2.324   5.214  10.882  0.4319  2.0172  0.0300
   69SLPC  H14B 5832   2.384   5.215  10.716 -0.5205  2.5127  1.4853
   69SLPC  H14C 5833   2.321   5.069  10.788  1.9540 -1.6276  0.1406
   69SLPC   C15 5834   2.480   5.040  10.987  0.0876 -0.1909  0.5875
   69SLPC  H15A 5835   2.564   4.989  11.032 -0.7599 -2.1158  0.0696
   69SLPC  H15B 5836   2.425   5.100  11.058  0.4450 -1.0862  1.6539
   69SLPC  H15C 5837   2.413   4.957  10.970 -0.2073  0.2274 -0.3758
   69SLPC   C12 5838   2.581   5.028  10.752  0.2336 -0.1950 -0.8232
   69SLPC  H12A 5839   2.681   5.016  10.790 -0.6024 -1.9974  0.9892
   69SLPC  H12B 5840   2.598   5.096  10.670 -3.4171  0.2830 -1.3577
   69SLPC   C11 5841   2.516   4.908  10.687 -0.1641  0.7578 -0.4641
   69SLPC  H11A 5842   2.569   4.880  10.593 -1.1575  1.1062 -1.1441
   69SLPC  H11B 5843   2.411   4.940  10.671 -0.7358  0.1400  1.6921
   69SLPC     P 5844   2.414   4.684  10.804  0.3087  0.2556  0.6571
   69SLPC   O13 5845   2.480   4.563  10.852  0.2726  0.3638  0.4736
   69SLPC   O14 5846   2.316   4.746  10.896 -0.2205 -0.2218  0.0539
   69SLPC   O12 5847   2.524   4.799  10.781  0.2258  0.1332  0.1336
   69SLPC   O11 5848   2.343   4.656  10.670 -0.4479  0.3768 -0.1367
   69SLPC    C1 5849   2.406   4.621  10.543  0.7420 -0.7480  0.4695
   69SLPC    HA 5850   2.349   4.665  10.459  0.9029  0.0590  0.7759
   69SLPC    HB 5851   2.511   4.651  10.526  1.2070 -3.6432 -2.9113
   69SLPC    C2 5852   2.405   4.473  10.515  0.0198  0.5041 -0.0495
   69SLPC    HS 5853   2.456   4.416  10.596 -2.6416 -1.0216  0.6920
   69SLPC   O21 5854   2.471   4.448  10.389 -0.0138 -0.2901 -0.0876
   69SLPC   C21 5855   2.506   4.317  10.370  0.6733 -0.6706 -0.3423
   69SLPC   O22 5856   2.508   4.233  10.461 -0.3007 -0.2372  0.6282
   69SLPC   C22 5857   2.544   4.294  10.221 -0.0300 -0.7164 -0.1008
   69SLPC   H2R 5858   2.460   4.337  10.164  0.0589  0.0380  0.3216
   69SLPC   H2S 5859   2.629   4.361  10.197 -2.1429  0.9586 -3.5522
   69SLPC    C3 5860   2.256   4.409  10.531 -0.6122 -0.1348  0.6931
   69SLPC    HX 5861   2.189   4.464  10.461  0.3037  0.8778  0.6025
   69SLPC    HY 5862   2.224   4.432  10.635 -0.3810  0.5592  0.6115
   69SLPC   O31 5863   2.248   4.264  10.525  0.1297 -0.1348  0.0194
   69SLPC   C31 5864   2.211   4.213  10.408  0.0633  0.2541  0.7129
   69SLPC   O32 5865   2.193   4.272  10.300 -0.7099 -0.3035  0.0017
   69SLPC   C32 5866   2.201   4.068  10.432 -0.3496  0.4099 -0.1316
   69SLPC   H2X 5867   2.102   4.039  10.474  0.4098 -2.1919  0.0358
   69SLPC   H2Y 5868   2.279   4.031  10.502  0.0879  0.3999 -0.6226
   69SLPC   C23 5869   2.575   4.148  10.204 -0.6563 -0.0215 -0.4243
   69SLPC   H3R 5870   2.485   4.087  10.227 -0.4981 -0.6520 -1.4063
   69SLPC   H3S 5871   2.657   4.107  10.267 -1.5886 -0.6789  0.3878
   69SLPC   C24 5872   2.605   4.102  10.066 -0.8943 -0.0240  0.5825
   69SLPC   H4R 5873   2.618   3.993  10.082 -1.4567  0.0694  1.8529
   69SLPC   H4S 5874   2.700   4.146  10.028 -1.7224  1.7520  0.4672
   69SLPC   C25 5875   2.483   4.123   9.969  0.1446  0.3059 -0.2752
   69SLPC   H5R 5876   2.465   4.233   9.972  0.3259  0.4608  4.7569
   69SLPC   H5S 5877   2.391   4.076  10.010 -0.4112 -2.7789 -4.4574
   69SLPC   C26 5878   2.519   4.071   9.829 -0.7571 -0.3182 -0.2555
   69SLPC   H6R 5879   2.524   3.960   9.827  1.6939 -0.2573 -0.7058
   69SLPC   H6S 5880   2.625   4.102   9.812  0.5416 -3.8952  0.4115
   69SLPC   C27 5881   2.421   4.130   9.724 -0.6693 -0.0566 -0.1384
   69SLPC   H7R 5882   2.413   4.241   9.724  0.5167  0.0561  1.3626
   69SLPC   H7S 5883   2.326   4.085   9.759  0.6368 -2.2840  0.7286
   69SLPC   C28 5884   2.464   4.086   9.583 -0.2847  0.1927  0.2625
   69SLPC   H8R 5885   2.383   4.127   9.519 -2.1384 -1.3476  1.5202
   69SLPC   H8S 5886   2.457   3.976   9.572 -0.7377  0.2916 -0.5043
   69SLPC   C29 5887   2.598   4.130   9.530  0.2363 -0.2065 -0.5398
   69SLPC   H9R 5888   2.654   4.184   9.608  1.7673 -1.7921 -0.4871
   69SLPC  C210 5889   2.649   4.103   9.411 -0.7520 -0.6384 -0.7946
   69SLPC  H10R 5890   2.752   4.136   9.392 -2.1468  3.5480 -2.0953
   69SLPC  C211 5891   2.582   4.019   9.300 -0.0548  0.2848 -1.0700
   69SLPC  H11R 5892   2.479   3.987   9.326  0.1787  1.0213  0.8837
   69SLPC  H11S 5893   2.637   3.923   9.300 -0.8406 -0.2664  1.9240
   69SLPC  C212 5894   2.577   4.076   9.162  0.5429  0.0055 -0.4352
   69SLPC  H12R 5895   2.479   4.123   9.146  0.0006 -0.7263  0.6476
   69SLPC  C213 5896   2.673   4.076   9.068  0.2560 -0.5893 -0.2214
   69SLPC  H13R 5897   2.655   4.111   8.965  0.8845 -0.6924 -0.3715
   69SLPC  C214 5898   2.808   4.019   9.065 -0.2371 -0.4982 -0.4662
   69SLPC  H14R 5899   2.804   3.914   9.102  0.0615  0.3580  2.2131
   69SLPC  H14S 5900   2.876   4.081   9.127  1.0252 -0.9455 -1.3646
   69SLPC  C215 5901   2.862   4.003   8.918 -0.0513  0.0737 -0.4039
   69SLPC  H15R 5902   2.787   3.948   8.857  0.0009 -1.1365  0.5854
   69SLPC  H15S 5903   2.955   3.943   8.914  0.8027  1.1861  1.3785
   69SLPC  C216 5904   2.893   4.142   8.858 -0.4470 -0.4116  0.4708
   69SLPC  H16R 5905   2.978   4.189   8.912  0.3048 -0.4194 -0.6564
   69SLPC  H16S 5906   2.799   4.200   8.870  0.4288  1.6514 -1.8490
   69SLPC  C217 5907   2.928   4.125   8.709 -1.3335  0.0881 -0.4720
   69SLPC  H17R 5908   2.946   4.226   8.666  0.0287 -0.3736 -1.0648
   69SLPC  H17S 5909   2.834   4.090   8.659 -1.6946  0.2875  0.0644
   69SLPC  C218 5910   3.050   4.038   8.679  0.5086 -0.1614 -0.3690
   69SLPC  H18R 5911   3.059   4.029   8.568  0.4123 -0.5092 -0.3510
   69SLPC  H18S 5912   3.035   3.938   8.725 -0.2782 -1.3256 -2.9567
   69SLPC  H18T 5913   3.144   4.074   8.726  0.4930 -1.7402  0.9870
   69SLPC   C33 5914   2.223   3.983  10.305  0.5598  0.8545  0.5836
   69SLPC   H3X 5915   2.215   3.879  10.344  1.4126  0.4135 -0.3525
   69SLPC   H3Y 5916   2.326   4.002  10.266 -0.1744  0.0773 -1.9432
   69SLPC   C34 5917   2.120   3.982  10.190 -0.1181  0.5680  0.2868
   69SLPC   H4X 5918   2.124   4.081  10.140 -2.1724  0.4376 -0.2472
   69SLPC   H4Y 5919   2.019   3.969  10.235  0.7672 -0.9817  1.9632
   69SLPC   C35 5920   2.144   3.870  10.083 -0.2035 -0.8708 -0.0320
   69SLPC   H5X 5921   2.123   3.774  10.135 -0.5387 -0.8514 -0.1267
   69SLPC   H5Y 5922   2.251   3.876  10.053 -0.5086 -0.3132 -1.0482
   69SLPC   C36 5923   2.067   3.888   9.947 -0.2037 -0.1637  0.1912
   69SLPC   H6X 5924   2.102   3.973   9.885  3.2645 -0.3739  1.6233
   69SLPC   H6Y 5925   1.957   3.888   9.965 -0.5030 -0.4964 -1.4593
   69SLPC   C37 5926   2.102   3.768   9.862  0.7676  0.9216  0.2748
   69SLPC   H7X 5927   2.059   3.682   9.918  1.1073  1.3440  1.2236
   69SLPC   H7Y 5928   2.212   3.749   9.862  0.5624 -0.4712  1.3040
   69SLPC   C38 5929   2.058   3.788   9.716  1.5209 -0.7821 -0.3623
   69SLPC   H8X 5930   2.081   3.892   9.686  2.4558  0.0256  2.7959
   69SLPC   H8Y 5931   1.948   3.769   9.714  1.6302 -1.9864  1.6846
   69SLPC   C39 5932   2.139   3.691   9.621 -0.8780 -0.3570  0.2388
   69SLPC   H9X 5933   2.116   3.583   9.632 -0.2737 -0.3475  1.9581
   69SLPC   H9Y 5934   2.246   3.709   9.643 -0.9472 -0.3212  0.5586
   69SLPC  C310 5935   2.094   3.724   9.473  0.3799  0.2570  0.0887
   69SLPC  H10X 5936   2.135   3.825   9.452  1.5383  0.0210  1.1232
   69SLPC  H10Y 5937   1.983   3.716   9.481  0.5883 -2.2444  1.3684
   69SLPC  C311 5938   2.157   3.629   9.368  0.0521  0.7099  0.4647
   69SLPC  H11X 5939   2.108   3.533   9.394 -1.6530  1.2649 -0.5458
   69SLPC  H11Y 5940   2.267   3.631   9.384 -0.0676  2.3278  1.3026
   69SLPC  C312 5941   2.134   3.655   9.216  0.0722  0.0424 -0.2322
   69SLPC  H12X 5942   2.029   3.683   9.193  0.2435  1.1120  0.2297
   69SLPC  H12Y 5943   2.155   3.557   9.168  1.8830  1.0006 -1.5248
   69SLPC  C313 5944   2.229   3.764   9.158 -0.3715  0.3707 -0.2519
   69SLPC  H13X 5945   2.333   3.728   9.170  0.1001  0.8407 -2.5381
   69SLPC  H13Y 5946   2.226   3.858   9.218  1.5841 -0.6547  1.5931
   69SLPC  C314 5947   2.194   3.807   9.017  0.9472  0.1007  0.2972
   69SLPC  H14X 5948   2.089   3.842   9.029  0.6606 -0.9115  0.9115
   69SLPC  H14Y 5949   2.192   3.715   8.955  1.5360  0.7981 -0.7917
   69SLPC  C315 5950   2.281   3.919   8.960  0.7469  0.0723 -0.2793
   69SLPC  H15X 5951   2.384   3.879   8.953  1.4226  1.7671 -0.3273
   69SLPC  H15Y 5952   2.292   4.008   9.026 -1.0913 -0.0214  0.2164
   69SLPC  C316 5953   2.231   3.957   8.817  0.0245 -0.3426 -0.7815
   69SLPC  H16X 5954   2.263   4.060   8.794  0.0531 -0.9315 -3.6961
   69SLPC  H16Y 5955   2.121   3.959   8.804 -0.0225  0.6092 -0.2941
   69SLPC  C317 5956   2.285   3.873   8.708 -0.6453  0.0546  1.2926
   69SLPC  H17X 5957   2.246   3.769   8.707  0.4029 -0.3504  0.7712
   69SLPC  H17Y 5958   2.396   3.874   8.710 -0.5026  5.0007  2.2661
   69SLPC  C318 5959   2.253   3.932   8.570 -0.6174  0.1619 -0.4385
   69SLPC  H18X 5960   2.261   4.043   8.582 -1.1881  0.1776 -0.1342
   69SLPC  H18Y 5961   2.160   3.887   8.529 -0.0985 -2.2064  0.8089
   69SLPC  H18Z 5962   2.321   3.904   8.487  0.0395 -1.4858  0.6023
   70SLPC     N 5963   2.842   4.643  10.831 -0.6008 -0.4106 -0.5674
   70SLPC   C13 5964   2.982   4.598  10.848 -0.0390  0.8158  0.4062
   70SLPC  H13A 5965   3.026   4.638  10.938  0.1262 -1.8217  1.5946
   70SLPC  H13B 5966   2.988   4.491  10.861  1.6406  0.7665 -0.4848
   70SLPC  H13C 5967   3.045   4.625  10.765 -0.1544 -0.1153  0.0036
   70SLPC   C14 5968   2.774   4.658  10.969 -0.9120  1.0361  0.2168
   70SLPC  H14A 5969   2.668   4.678  10.963 -1.1878 -0.6351 -1.6769
   70SLPC  H14B 5970   2.784   4.566  11.024 -0.3298  2.3470  2.4152
   70SLPC  H14C 5971   2.817   4.730  11.037 -2.2500  1.8898  0.2073
   70SLPC   C15 5972   2.766   4.541  10.755  0.6405  0.2571  0.3057
   70SLPC  H15A 5973   2.663   4.563  10.735 -0.0410 -2.2844  0.7078
   70SLPC  H15B 5974   2.807   4.521  10.657  1.1979 -1.2654  0.8107
   70SLPC  H15C 5975   2.757   4.444  10.803  0.8736  0.9961  1.9276
   70SLPC   C12 5976   2.838   4.781  10.765  0.4550  0.0703 -0.4765
   70SLPC  H12A 5977   2.733   4.807  10.764 -0.0308 -1.6272  0.8637
   70SLPC  H12B 5978   2.872   4.778  10.662 -1.0276 -0.7949 -0.9710
   70SLPC   C11 5979   2.905   4.891  10.850  0.6340 -0.1913  0.4631
   70SLPC  H11A 5980   3.015   4.875  10.857  0.5639 -0.4345  1.0980
   70SLPC  H11B 5981   2.867   4.894  10.954  0.5385 -0.9753  0.4545
   70SLPC     P 5982   2.957   5.153  10.820  0.4715  0.1891 -0.3023
   70SLPC   O13 5983   2.907   5.261  10.729  0.4112  0.0890 -0.3508
   70SLPC   O14 5984   2.955   5.170  10.968 -0.1267 -0.1293  0.4393
   70SLPC   O12 5985   2.877   5.017  10.786 -0.2188 -0.6350  0.4525
   70SLPC   O11 5986   3.104   5.120  10.763 -0.3622 -0.0000 -0.1900
   70SLPC    C1 5987   3.113   5.070  10.627  0.3206 -1.1921 -0.0613
   70SLPC    HA 5988   3.202   5.003  10.629  0.3315 -1.3282 -2.3909
   70SLPC    HB 5989   3.024   5.012  10.597 -1.5369 -0.0344  2.8120
   70SLPC    C2 5990   3.135   5.183  10.520 -0.5242 -0.8432 -0.3869
   70SLPC    HS 5991   3.040   5.239  10.507 -1.3558 -1.7086  1.5332
   70SLPC   O21 5992   3.175   5.130  10.393 -0.0629  0.4816 -0.6231
   70SLPC   C21 5993   3.083   5.071  10.314  0.5825 -0.9239  0.9663
   70SLPC   O22 5994   2.963   5.060  10.334  0.1608  0.1236  0.5901
   70SLPC   C22 5995   3.151   5.048  10.184 -0.1972  0.8785 -0.1401
   70SLPC   H2R 5996   3.177   5.145  10.135 -1.3437  1.1234 -0.2884
   70SLPC   H2S 5997   3.239   4.981  10.195 -0.1324  0.3596 -3.0895
   70SLPC    C3 5998   3.247   5.278  10.558  0.2179  0.7304  0.4667
   70SLPC    HX 5999   3.335   5.225  10.601 -1.6036 -0.9963  2.3498
   70SLPC    HY 6000   3.214   5.333  10.649 -1.7168 -1.6710  1.3281
   70SLPC   O31 6001   3.278   5.365  10.450  0.1318 -0.8163 -0.0240
   70SLPC   C31 6002   3.408   5.394  10.436  0.1877 -0.2821  0.2119
   70SLPC   O32 6003   3.496   5.374  10.517  0.1899 -0.3022  0.6297
   70SLPC   C32 6004   3.422   5.451  10.301  0.9051  0.0382 -0.2092
   70SLPC   H2X 6005   3.472   5.548  10.319 -1.0773  1.0547  0.0932
   70SLPC   H2Y 6006   3.323   5.479  10.259  0.6422 -0.9027 -0.2401
   70SLPC   C23 6007   3.059   4.980  10.067  0.9220 -0.2625 -0.2878
   70SLPC   H3R 6008   2.961   5.032  10.069  1.2125  0.3264 -0.8176
   70SLPC   H3S 6009   3.037   4.872  10.080  1.3104 -0.3284 -0.1555
   70SLPC   C24 6010   3.136   5.003   9.931 -0.2690  0.5723 -0.2715
   70SLPC   H4R 6011   3.234   4.951   9.928  1.4916  3.6786 -0.1044
   70SLPC   H4S 6012   3.175   5.106   9.937  3.7054 -0.7932  0.1469
   70SLPC   C25 6013   3.037   4.994   9.818 -0.0442 -0.3562  0.2426
   70SLPC   H5R 6014   2.950   5.062   9.831  0.2194  0.0333 -0.0223
   70SLPC   H5S 6015   3.001   4.890   9.805  1.4905 -0.9673  0.7740
   70SLPC   C26 6016   3.101   5.036   9.683  0.7390 -0.0453 -0.0989
   70SLPC   H6R 6017   3.168   4.951   9.661  0.5347 -0.4799  0.8938
   70SLPC   H6S 6018   3.155   5.133   9.684  0.0690  0.3603 -1.0652
   70SLPC   C27 6019   2.992   5.048   9.582 -0.4062 -0.5446  1.0322
   70SLPC   H7R 6020   2.925   5.133   9.608 -0.8860 -1.5330  3.2512
   70SLPC   H7S 6021   2.923   4.961   9.586 -0.6579 -0.3650  0.6060
   70SLPC   C28 6022   3.029   5.058   9.436  0.2872  0.3667 -0.0893
   70SLPC   H8R 6023   3.104   5.134   9.407 -0.3802 -0.0832 -3.3484
   70SLPC   H8S 6024   2.933   5.092   9.393  0.2903  0.7584  0.2077
   70SLPC   C29 6025   3.081   4.934   9.372 -0.7532 -0.4072 -0.4515
   70SLPC   H9R 6026   3.188   4.921   9.396 -1.1789 -0.3895  1.6558
   70SLPC  C210 6027   3.003   4.852   9.291  0.3583  0.7593 -0.2467
   70SLPC  H10R 6028   3.049   4.773   9.230  1.7494  1.9272 -0.7970
   70SLPC  C211 6029   2.855   4.879   9.252 -0.3656  0.3215 -0.1556
   70SLPC  H11R 6030   2.793   4.908   9.339  1.0299 -1.5540  1.5604
   70SLPC  H11S 6031   2.816   4.783   9.212  0.0534 -0.1860  0.6252
   70SLPC  C212 6032   2.848   4.980   9.138  0.4413 -0.0351  0.0253
   70SLPC  H12R 6033   2.920   5.062   9.152  1.5304 -0.8921 -0.3558
   70SLPC  C213 6034   2.774   4.984   9.023 -0.0011  0.1132 -0.3042
   70SLPC  H13R 6035   2.783   5.076   8.964  0.6214  0.9347  1.0375
   70SLPC  C214 6036   2.674   4.879   8.994  0.8812  0.4936  0.8832
   70SLPC  H14R 6037   2.575   4.901   9.041  0.2460  2.0682 -1.0525
   70SLPC  H14S 6038   2.696   4.780   9.039  1.4287 -0.8803 -2.2030
   70SLPC  C215 6039   2.652   4.828   8.855 -0.0053  0.3553  0.3835
   70SLPC  H15R 6040   2.594   4.905   8.799 -0.0256  0.1735  0.1530
   70SLPC  H15S 6041   2.586   4.739   8.863 -0.8787  1.1003  1.8599
   70SLPC  C216 6042   2.784   4.790   8.787  0.3367 -0.4931 -0.4414
   70SLPC  H16R 6043   2.850   4.713   8.833  1.9760  0.3762 -1.2836
   70SLPC  H16S 6044   2.837   4.887   8.782 -1.2262  0.4017 -0.1631
   70SLPC  C217 6045   2.771   4.758   8.643 -0.4947 -0.5267  0.1107
   70SLPC  H17R 6046   2.738   4.652   8.650 -1.0326 -0.4893 -1.5033
   70SLPC  H17S 6047   2.874   4.757   8.602 -0.0076 -1.2495  1.2825
   70SLPC  C218 6048   2.677   4.847   8.558 -0.1964 -0.8182 -0.4648
   70SLPC  H18R 6049   2.574   4.838   8.599 -0.4298  2.2195 -0.1290
   70SLPC  H18S 6050   2.689   4.832   8.448 -0.0783  2.7903 -1.0581
   70SLPC  H18T 6051   2.710   4.953   8.562 -0.2166 -0.8064 -0.5890
   70SLPC   C33 6052   3.493   5.366  10.197 -0.0492  0.2127  0.2102
   70SLPC   H3X 6053   3.492   5.261  10.231  3.1027  0.4218  1.2356
   70SLPC   H3Y 6054   3.602   5.388  10.199 -0.3014  1.5605  2.4051
   70SLPC   C34 6055   3.420   5.377  10.063 -0.1231  0.1831  0.1118
   70SLPC   H4X 6056   3.411   5.482  10.028  0.3420  0.1956  0.0269
   70SLPC   H4Y 6057   3.317   5.336  10.072  0.9093 -2.6393  0.1893
   70SLPC   C35 6058   3.499   5.286   9.960  0.1327 -0.1840  0.4722
   70SLPC   H5X 6059   3.485   5.181   9.994 -1.7461 -0.3115 -0.5814
   70SLPC   H5Y 6060   3.608   5.302   9.974  0.1476  0.1566  0.0003
   70SLPC   C36 6061   3.440   5.289   9.820 -0.4340  0.0667 -0.2751
   70SLPC   H6X 6062   3.433   5.390   9.774 -1.9196 -0.4938 -1.3848
   70SLPC   H6Y 6063   3.335   5.259   9.839 -0.4137  1.3468  2.2277
   70SLPC   C37 6064   3.497   5.188   9.728  0.5240  0.5634  0.2361
   70SLPC   H7X 6065   3.453   5.090   9.754  0.7032  1.3300  4.0010
   70SLPC   H7Y 6066   3.608   5.193   9.728  0.4808  2.3976 -0.6995
   70SLPC   C38 6067   3.453   5.218   9.588 -0.2840 -0.1816  0.0847
   70SLPC   H8X 6068   3.342   5.207   9.580 -0.1602 -2.0100  0.5433
   70SLPC   H8Y 6069   3.500   5.138   9.527  1.8988 -0.2116  1.6864
   70SLPC   C39 6070   3.505   5.340   9.527  0.3342 -0.1065 -0.6444
   70SLPC   H9X 6071   3.609   5.342   9.567 -0.3235 -1.6005  1.3371
   70SLPC   H9Y 6072   3.459   5.433   9.569  0.4451 -0.6659  0.7984
   70SLPC  C310 6073   3.508   5.345   9.374  0.5538  0.6156  0.3572
   70SLPC  H10X 6074   3.547   5.245   9.343 -1.5738 -0.1351 -0.0952
   70SLPC  H10Y 6075   3.569   5.428   9.333 -0.0669  0.4145 -1.0202
   70SLPC  C311 6076   3.360   5.322   9.307 -0.5623 -0.0897  0.6287
   70SLPC  H11X 6077   3.300   5.415   9.316 -1.5117 -0.6121 -0.1333
   70SLPC  H11Y 6078   3.320   5.225   9.341 -0.1858  0.2147  2.0172
   70SLPC  C312 6079   3.368   5.288   9.153  0.5713 -0.5583  0.4467
   70SLPC  H12X 6080   3.266   5.272   9.113  0.0915  1.3027  0.8419
   70SLPC  H12Y 6081   3.430   5.199   9.126 -1.7491 -1.9033 -0.7430
   70SLPC  C313 6082   3.435   5.404   9.069 -0.0724 -0.3835  0.3986
   70SLPC  H13X 6083   3.531   5.426   9.120 -0.4319 -2.4197  2.0612
   70SLPC  H13Y 6084   3.368   5.492   9.077 -2.2139 -1.8547 -0.4601
   70SLPC  C314 6085   3.468   5.378   8.922  0.0278  0.2130  0.7266
   70SLPC  H14X 6086   3.381   5.338   8.867 -0.5649  1.4784  0.6954
   70SLPC  H14Y 6087   3.549   5.302   8.915 -1.1375 -1.0738  0.8670
   70SLPC  C315 6088   3.522   5.500   8.841  0.3659 -0.0361 -0.1431
   70SLPC  H15X 6089   3.571   5.462   8.748 -1.6803  0.3746 -1.4489
   70SLPC  H15Y 6090   3.597   5.548   8.908 -1.1036 -0.2922  1.7752
   70SLPC  C316 6091   3.412   5.600   8.799  0.3985  0.2246  0.3950
   70SLPC  H16X 6092   3.368   5.661   8.881 -0.9758  0.3067 -0.3831
   70SLPC  H16Y 6093   3.329   5.540   8.757  1.4365 -0.2832 -1.0424
   70SLPC  C317 6094   3.453   5.690   8.684 -0.1110 -0.0777 -0.0743
   70SLPC  H17X 6095   3.375   5.766   8.661 -3.3674 -2.9798  0.4545
   70SLPC  H17Y 6096   3.470   5.620   8.598  1.0697 -3.6274  2.7971
   70SLPC  C318 6097   3.586   5.770   8.703  0.1650  0.4280 -0.8820
   70SLPC  H18X 6098   3.667   5.695   8.720 -0.3130 -0.3436 -1.9076
   70SLPC  H18Y 6099   3.572   5.825   8.799  0.3500  0.5087 -0.9001
   70SLPC  H18Z 6100   3.616   5.843   8.625  1.8016  3.6010  2.3892
   71SLPC     N 6101   2.651   2.704  10.946 -0.3224  0.1735  0.4800
   71SLPC   C13 6102   2.510   2.677  10.909  0.4673 -0.3736  0.4100
   71SLPC  H13A 6103   2.438   2.729  10.971 -2.4498  0.9472 -3.6788
   71SLPC  H13B 6104   2.497   2.721  10.811  0.0885  0.3881  0.7933
   71SLPC  H13C 6105   2.493   2.570  10.909  0.5800 -0.4059 -1.0300
   71SLPC   C14 6106   2.744   2.601  10.884 -0.1764  0.3742 -0.0057
   71SLPC  H14A 6107   2.765   2.618  10.779  0.1104 -0.0285 -0.0138
   71SLPC  H14B 6108   2.839   2.599  10.936 -0.0928 -0.5311 -0.1751
   71SLPC  H14C 6109   2.694   2.507  10.900 -1.1526  1.0155  0.8612
   71SLPC   C15 6110   2.657   2.686  11.095 -0.4037  0.6752  0.1026
   71SLPC  H15A 6111   2.757   2.693  11.135 -0.0904 -0.1620 -0.5217
   71SLPC  H15B 6112   2.608   2.767  11.148 -0.0476  0.1285  1.2823
   71SLPC  H15C 6113   2.624   2.588  11.125  0.6076  1.5399  4.6550
   71SLPC   C12 6114   2.693   2.836  10.894 -0.0202 -0.5278  0.0228
   71SLPC  H12A 6115   2.795   2.859  10.924 -0.3863  1.2913 -0.0083
   71SLPC  H12B 6116   2.638   2.906  10.955 -0.3213 -2.0572  1.5693
   71SLPC   C11 6117   2.667   2.868  10.745 -0.0036  0.3253 -0.3074
   71SLPC  H11A 6118   2.692   2.775  10.691 -0.6007 -0.6053  0.9544
   71SLPC  H11B 6119   2.734   2.948  10.706  1.2235  0.2325  1.4768
   71SLPC     P 6120   2.453   2.857  10.609 -0.2166 -0.2291  0.1304
   71SLPC   O13 6121   2.427   2.714  10.636  0.2868  0.2330  0.1603
   71SLPC   O14 6122   2.338   2.949  10.581 -0.0494  0.6161 -0.1747
   71SLPC   O12 6123   2.532   2.914  10.732  0.2651  0.4219  0.7222
   71SLPC   O11 6124   2.563   2.874  10.499  0.1706  0.9636 -0.2108
   71SLPC    C1 6125   2.607   3.000  10.458  0.2915 -0.3844  0.0849
   71SLPC    HA 6126   2.571   3.075  10.532  0.2594 -0.5777  0.2635
   71SLPC    HB 6127   2.718   3.005  10.464  0.3592  1.4257 -1.4063
   71SLPC    C2 6128   2.566   3.045  10.317  0.3102  0.4264 -0.2559
   71SLPC    HS 6129   2.455   3.043  10.309  0.3730 -1.0628 -1.0311
   71SLPC   O21 6130   2.621   2.954  10.216  0.0371  0.1600 -0.2309
   71SLPC   C21 6131   2.559   2.940  10.096  0.3818 -0.3303  0.0318
   71SLPC   O22 6132   2.457   3.001  10.064  0.7327 -0.5504 -0.0633
   71SLPC   C22 6133   2.631   2.839  10.008 -0.0297  0.5592 -0.6268
   71SLPC   H2R 6134   2.735   2.878  10.008 -0.0481  0.6977  1.3511
   71SLPC   H2S 6135   2.628   2.736  10.051 -0.0598 -0.3067 -2.5788
   71SLPC    C3 6136   2.613   3.194  10.286  0.1776 -0.2090  0.5559
   71SLPC    HX 6137   2.719   3.171  10.265 -0.1655 -2.5609  1.1150
   71SLPC    HY 6138   2.603   3.276  10.361 -2.3992  0.2228 -0.1794
   71SLPC   O31 6139   2.558   3.242  10.161  0.0994 -0.1079 -0.4969
   71SLPC   C31 6140   2.432   3.295  10.168 -0.3544  0.6484 -0.5896
   71SLPC   O32 6141   2.373   3.322  10.272  0.3906 -0.3495 -0.1075
   71SLPC   C32 6142   2.381   3.309  10.020  0.5172  0.1359 -0.6269
   71SLPC   H2X 6143   2.280   3.264  10.009  0.3931  0.3550 -0.4001
   71SLPC   H2Y 6144   2.452   3.252   9.956  2.4209  2.2282 -0.5088
   71SLPC   C23 6145   2.571   2.844   9.863  0.0365 -0.5466  0.4185
   71SLPC   H3R 6146   2.615   2.937   9.822 -0.6539  0.4108  1.7541
   71SLPC   H3S 6147   2.460   2.837   9.865  0.0732 -1.7343 -0.7072
   71SLPC   C24 6148   2.619   2.723   9.786  0.0962  0.6743  0.3240
   71SLPC   H4R 6149   2.597   2.628   9.839  2.8326 -0.4946 -0.4539
   71SLPC   H4S 6150   2.728   2.728   9.767 -0.2131  2.0637 -1.3255
   71SLPC   C25 6151   2.541   2.717   9.655 -0.1929 -0.4192  0.7716
   71SLPC   H5R 6152   2.439   2.676   9.671 -1.3938  2.2564  0.6246
   71SLPC   H5S 6153   2.584   2.631   9.599  0.2122 -1.0604  2.0256
   71SLPC   C26 6154   2.534   2.842   9.572  0.0989 -0.5733 -0.0570
   71SLPC   H6R 6155   2.483   2.919   9.633 -0.6713 -0.1227 -1.2431
   71SLPC   H6S 6156   2.477   2.817   9.481 -0.1827 -1.7016  0.4162
   71SLPC   C27 6157   2.665   2.909   9.524  0.2920  0.2439  0.6863
   71SLPC   H7R 6158   2.712   2.840   9.450  0.6439  0.3542  0.8040
   71SLPC   H7S 6159   2.739   2.923   9.605  0.8896 -0.2573  0.2388
   71SLPC   C28 6160   2.646   3.052   9.466  0.5886  0.5460  0.3851
   71SLPC   H8R 6161   2.579   3.046   9.378  1.3757  0.2067 -0.1991
   71SLPC   H8S 6162   2.745   3.084   9.428 -0.1239  0.3760 -1.6973
   71SLPC   C29 6163   2.609   3.159   9.561  0.7557  0.4906  0.4459
   71SLPC   H9R 6164   2.668   3.179   9.652 -0.3330  0.2279  1.2225
   71SLPC  C210 6165   2.501   3.243   9.552 -0.6373  0.5436  0.4712
   71SLPC  H10R 6166   2.503   3.318   9.633  4.0312  0.1921  0.9817
   71SLPC  C211 6167   2.402   3.240   9.433 -0.4076 -0.0837  0.3705
   71SLPC  H11R 6168   2.448   3.214   9.335  0.6730 -0.0844  0.8645
   71SLPC  H11S 6169   2.353   3.339   9.430  2.6218  1.5072 -1.3342
   71SLPC  C212 6170   2.297   3.138   9.466 -0.2583  0.6267 -0.2905
   71SLPC  H12R 6171   2.334   3.035   9.472 -1.6567  0.2057  2.3371
   71SLPC  C213 6172   2.169   3.162   9.504  0.2975 -0.3165 -0.0125
   71SLPC  H13R 6173   2.107   3.076   9.533 -0.9886  0.6946  0.3244
   71SLPC  C214 6174   2.104   3.296   9.528 -0.4205  0.4611  0.4277
   71SLPC  H14R 6175   2.044   3.320   9.438 -0.1108 -0.2466  0.0273
   71SLPC  H14S 6176   2.185   3.369   9.548 -0.2016  0.6640 -1.0719
   71SLPC  C215 6177   2.017   3.295   9.650 -0.0690  0.2994 -0.3318
   71SLPC  H15R 6178   1.931   3.232   9.620 -0.2728  1.4899 -2.4728
   71SLPC  H15S 6179   1.969   3.394   9.666 -1.7242 -0.4083 -0.6549
   71SLPC  C216 6180   2.079   3.241   9.775 -0.4230  0.1048 -0.2352
   71SLPC  H16R 6181   2.172   3.294   9.805 -0.2189  0.7107 -1.8153
   71SLPC  H16S 6182   2.109   3.136   9.756  1.8707  0.6701 -0.0818
   71SLPC  C217 6183   1.975   3.245   9.885  0.6953 -0.5057 -0.3529
   71SLPC  H17R 6184   1.999   3.159   9.951  0.8082 -0.5125 -0.4044
   71SLPC  H17S 6185   1.878   3.231   9.832  1.7232 -1.5090 -2.0583
   71SLPC  C218 6186   1.968   3.378   9.966 -0.1671  0.1475  0.0168
   71SLPC  H18R 6187   2.068   3.424   9.979  0.0302  0.1548 -1.3762
   71SLPC  H18S 6188   1.916   3.377  10.064  1.9289  1.5773  1.2186
   71SLPC  H18T 6189   1.916   3.454   9.905  1.7800 -2.0396 -4.9711
   71SLPC   C33 6190   2.376   3.456   9.971  0.4215 -0.6339 -0.0442
   71SLPC   H3X 6191   2.306   3.508  10.040 -0.3903 -0.3403 -1.0616
   71SLPC   H3Y 6192   2.328   3.450   9.871  0.6271  0.0120 -0.1872
   71SLPC   C34 6193   2.513   3.514   9.967 -0.2706  0.2981 -0.3545
   71SLPC   H4X 6194   2.587   3.444   9.924  0.1006  0.1101  0.5675
   71SLPC   H4Y 6195   2.539   3.532  10.074 -1.4920 -1.7736  0.3537
   71SLPC   C35 6196   2.518   3.644   9.893  0.1149 -0.6310 -0.6106
   71SLPC   H5X 6197   2.615   3.684   9.929 -0.1935 -1.8593  1.7311
   71SLPC   H5Y 6198   2.439   3.713   9.929  0.3092 -0.7299  0.0208
   71SLPC   C36 6199   2.511   3.638   9.738 -0.5575 -0.5885  0.5479
   71SLPC   H6X 6200   2.463   3.727   9.693  1.1658 -0.3313 -0.8854
   71SLPC   H6Y 6201   2.446   3.551   9.718  1.6000 -2.4167  0.9889
   71SLPC   C37 6202   2.651   3.619   9.667  0.2943  0.0548  0.8083
   71SLPC   H7X 6203   2.688   3.522   9.705 -2.2266 -1.1613  0.3848
   71SLPC   H7Y 6204   2.719   3.688   9.721  0.7922  0.2033  0.0130
   71SLPC   C38 6205   2.641   3.630   9.514 -0.4274  0.8955 -0.2170
   71SLPC   H8X 6206   2.664   3.733   9.478  1.6892  0.1416 -1.1551
   71SLPC   H8Y 6207   2.536   3.605   9.487  0.0695 -0.5383 -0.8947
   71SLPC   C39 6208   2.740   3.545   9.429 -0.7857  0.2198 -0.3844
   71SLPC   H9X 6209   2.730   3.436   9.449  2.7478 -0.1093  0.1889
   71SLPC   H9Y 6210   2.844   3.579   9.448 -0.3285 -1.6385  0.7299
   71SLPC  C310 6211   2.700   3.568   9.281  0.6289  0.3979  0.4399
   71SLPC  H10X 6212   2.769   3.537   9.200  1.6635  2.4045  0.5088
   71SLPC  H10Y 6213   2.690   3.677   9.266  1.1447  0.3148 -0.5581
   71SLPC  C311 6214   2.581   3.489   9.238  0.3948  0.6337 -0.3835
   71SLPC  H11X 6215   2.489   3.540   9.275  0.1446 -0.5333  0.6608
   71SLPC  H11Y 6216   2.599   3.387   9.277  1.2025  1.8088  2.5512
   71SLPC  C312 6217   2.584   3.482   9.086 -0.3882  0.2424  0.0864
   71SLPC  H12X 6218   2.656   3.401   9.061  0.3616  0.6183  0.9997
   71SLPC  H12Y 6219   2.619   3.575   9.036 -0.3751 -0.7483 -1.8618
   71SLPC  C313 6220   2.447   3.449   9.030 -0.2970  0.2690  0.3502
   71SLPC  H13X 6221   2.384   3.536   9.057  0.3025  0.7845  0.1044
   71SLPC  H13Y 6222   2.405   3.357   9.077 -1.1955  1.7636  2.6863
   71SLPC  C314 6223   2.453   3.426   8.877 -0.0231  0.2601 -0.6463
   71SLPC  H14X 6224   2.516   3.339   8.849  0.2928  0.8934 -1.9856
   71SLPC  H14Y 6225   2.507   3.515   8.838 -0.1585 -0.0051 -1.4714
   71SLPC  C315 6226   2.311   3.407   8.818  0.6139  0.0031 -0.4877
   71SLPC  H15X 6227   2.261   3.506   8.828 -0.9610 -0.8582  0.4116
   71SLPC  H15Y 6228   2.265   3.330   8.883  1.5450 -0.8791 -0.8547
   71SLPC  C316 6229   2.316   3.365   8.673  0.1265  1.1097  0.3231
   71SLPC  H16X 6230   2.218   3.321   8.644 -0.9198  2.4475  1.6503
   71SLPC  H16Y 6231   2.383   3.277   8.664  0.3445  1.0819  1.8661
   71SLPC  C317 6232   2.353   3.457   8.553  0.3576 -0.4118 -0.5776
   71SLPC  H17X 6233   2.459   3.490   8.562  0.1553 -0.0808  0.6352
   71SLPC  H17Y 6234   2.290   3.548   8.565  1.3930  0.0163  2.3642
   71SLPC  C318 6235   2.328   3.399   8.415 -0.0612 -0.0266  0.0231
   71SLPC  H18X 6236   2.363   3.460   8.328 -2.0983 -1.9388 -2.3048
   71SLPC  H18Y 6237   2.223   3.380   8.386 -0.4238 -0.4334  1.5429
   71SLPC  H18Z 6238   2.393   3.309   8.407  0.1685  0.2660 -2.2859
   72SLPC     N 6239   5.608   1.342  10.565 -0.0221 -0.0199 -0.4885
   72SLPC   C13 6240   5.616   1.252  10.686 -0.1699  0.4421 -0.1576
   72SLPC  H13A 6241   5.586   1.302  10.776 -0.1121 -0.4341  0.3608
   72SLPC  H13B 6242   5.553   1.165  10.695  0.9145 -0.4359 -0.7293
   72SLPC  H13C 6243   5.712   1.209  10.712 -1.8921 -3.8577 -0.1877
   72SLPC   C14 6244   5.464   1.381  10.527 -0.0236  0.0549 -0.4522
   72SLPC  H14A 6245   5.408   1.292  10.504 -0.0028 -0.5058  1.5451
   72SLPC  H14B 6246   5.417   1.439  10.605  1.1550  1.2215 -0.5519
   72SLPC  H14C 6247   5.458   1.451  10.445  1.6404  2.9746  1.6884
   72SLPC   C15 6248   5.657   1.270  10.441 -0.0884  0.7543 -0.8112
   72SLPC  H15A 6249   5.764   1.252  10.448 -0.2679 -0.2352 -0.4455
   72SLPC  H15B 6250   5.610   1.173  10.441  0.3025  0.5536 -1.3609
   72SLPC  H15C 6251   5.631   1.327  10.353  0.1811  1.3882 -0.4837
   72SLPC   C12 6252   5.686   1.466  10.604 -0.0931  0.2842  0.3147
   72SLPC  H12A 6253   5.677   1.540  10.525  2.2117 -1.6185 -1.8948
   72SLPC  H12B 6254   5.790   1.439  10.610 -0.9456 -3.1336  1.6636
   72SLPC   C11 6255   5.651   1.542  10.739 -0.5125  0.3916  0.0521
   72SLPC  H11A 6256   5.732   1.619  10.744  0.8005 -0.9596  0.2178
   72SLPC  H11B 6257   5.661   1.468  10.821 -0.2731  1.0136  0.5918
   72SLPC     P 6258   5.476   1.724  10.796 -0.0101 -0.0900  0.3469
   72SLPC   O13 6259   5.324   1.729  10.802  0.0402 -0.0731 -0.3621
   72SLPC   O14 6260   5.549   1.742  10.921  0.1565  0.2754  0.1028
   72SLPC   O12 6261   5.511   1.585  10.733  1.2497 -0.2998  0.5333
   72SLPC   O11 6262   5.534   1.824  10.688  0.6070 -0.3624  0.1705
   72SLPC    C1 6263   5.540   1.788  10.552 -0.6088  0.1189  0.0969
   72SLPC    HA 6264   5.649   1.789  10.528 -1.0347 -3.2496 -2.7504
   72SLPC    HB 6265   5.495   1.691  10.522 -1.3274  0.7937 -1.0821
   72SLPC    C2 6266   5.480   1.910  10.474  0.3571  0.4306 -0.3851
   72SLPC    HS 6267   5.500   1.882  10.368  2.1273  0.8835 -0.1976
   72SLPC   O21 6268   5.559   2.024  10.500  0.3328 -0.1792  0.0895
   72SLPC   C21 6269   5.675   2.035  10.434  0.4174  0.0130 -0.9470
   72SLPC   O22 6270   5.716   1.953  10.353 -0.7201 -0.0470  0.0971
   72SLPC   C22 6271   5.750   2.163  10.477  0.6004  0.4482 -0.6433
   72SLPC   H2R 6272   5.679   2.234  10.527 -0.2325  0.0394 -1.2136
   72SLPC   H2S 6273   5.818   2.128  10.557 -2.6430 -0.1563  2.0680
   72SLPC    C3 6274   5.333   1.943  10.499  0.5180 -0.4387  0.2580
   72SLPC    HX 6275   5.292   2.030  10.443 -2.3147 -1.4252  0.6259
   72SLPC    HY 6276   5.330   1.964  10.608  1.6054  0.7540  0.0926
   72SLPC   O31 6277   5.254   1.828  10.473  0.4374  0.3930 -0.6516
   72SLPC   C31 6278   5.223   1.814  10.347  0.4414 -0.2946  0.5629
   72SLPC   O32 6279   5.256   1.893  10.256 -0.0330  0.0332 -0.2351
   72SLPC   C32 6280   5.156   1.678  10.324 -0.7750  0.4968 -0.1170
   72SLPC   H2X 6281   5.048   1.700  10.312 -0.8720  0.7900  1.1513
   72SLPC   H2Y 6282   5.173   1.616  10.415  1.2387  1.3570  0.1302
   72SLPC   C23 6283   5.832   2.220  10.355 -0.5693  0.0320  0.1349
   72SLPC   H3R 6284   5.918   2.152  10.337  0.4211  0.4793  2.8418
   72SLPC   H3S 6285   5.868   2.315  10.400 -0.8101  0.5759 -0.7717
   72SLPC   C24 6286   5.753   2.268  10.234  0.1099 -0.0394 -0.1362
   72SLPC   H4R 6287   5.695   2.354  10.272  0.3432 -0.0625  0.2770
   72SLPC   H4S 6288   5.677   2.197  10.193 -0.9074  0.3432  1.0175
   72SLPC   C25 6289   5.847   2.311  10.123  0.2272 -0.2336 -0.7980
   72SLPC   H5R 6290   5.931   2.239  10.113 -0.6194 -1.1916 -1.3125
   72SLPC   H5S 6291   5.891   2.406  10.158 -1.2548 -0.2741  1.3654
   72SLPC   C26 6292   5.795   2.314   9.978 -0.1405 -0.0427 -0.3342
   72SLPC   H6R 6293   5.710   2.386   9.970  0.7058  0.9483 -0.7468
   72SLPC   H6S 6294   5.756   2.216   9.942  0.2665 -0.8086  1.2505
   72SLPC   C27 6295   5.902   2.371   9.875 -0.0984 -0.3263  0.5896
   72SLPC   H7R 6296   5.988   2.304   9.851  0.4446  0.9947 -1.4318
   72SLPC   H7S 6297   5.941   2.467   9.918 -0.3187  1.0304 -2.0316
   72SLPC   C28 6298   5.831   2.409   9.738  0.5666 -0.3160  0.3303
   72SLPC   H8R 6299   5.906   2.471   9.684  0.9206  0.4424  1.6567
   72SLPC   H8S 6300   5.753   2.486   9.752  0.4943 -0.0784 -1.1789
   72SLPC   C29 6301   5.770   2.290   9.670  0.7875 -0.1813 -0.2530
   72SLPC   H9R 6302   5.678   2.247   9.712  1.3205 -1.6516 -0.5289
   72SLPC  C210 6303   5.819   2.220   9.564 -0.5894 -0.4640 -0.1703
   72SLPC  H10R 6304   5.763   2.131   9.534  2.2088 -2.6930  0.7993
   72SLPC  C211 6305   5.944   2.252   9.486 -0.1962  0.0635 -0.5998
   72SLPC  H11R 6306   5.989   2.155   9.456 -0.7227  0.1099 -1.5806
   72SLPC  H11S 6307   6.019   2.302   9.551  0.9245  0.1337 -1.8995
   72SLPC  C212 6308   5.902   2.324   9.368 -0.1850 -0.1271  0.2827
   72SLPC  H12R 6309   5.817   2.392   9.384 -1.1299 -0.5240 -2.4505
   72SLPC  C213 6310   5.952   2.342   9.252 -0.2038  0.2406 -0.7229
   72SLPC  H13R 6311   5.897   2.412   9.187 -1.2439  1.8463  1.7473
   72SLPC  C214 6312   6.082   2.279   9.213  0.7058  0.4368 -0.2316
   72SLPC  H14R 6313   6.073   2.196   9.140 -0.0916 -1.1624  1.5967
   72SLPC  H14S 6314   6.135   2.241   9.303  0.0754  1.8623  0.7861
   72SLPC  C215 6315   6.179   2.373   9.145 -0.3017  0.0829 -0.7687
   72SLPC  H15R 6316   6.205   2.452   9.219 -2.2551 -0.0345  0.1171
   72SLPC  H15S 6317   6.115   2.421   9.068 -1.9874 -2.6463 -1.2272
   72SLPC  C216 6318   6.295   2.296   9.078  0.0000  0.0176  0.0989
   72SLPC  H16R 6319   6.246   2.213   9.022 -0.7440  0.2749  0.3639
   72SLPC  H16S 6320   6.370   2.255   9.149 -0.6852 -1.5687 -0.0489
   72SLPC  C217 6321   6.375   2.388   8.986  0.2966  0.1274 -1.1137
   72SLPC  H17R 6322   6.480   2.381   9.022 -0.9198  0.3084  2.9555
   72SLPC  H17S 6323   6.352   2.495   9.004 -3.6731 -0.7055 -0.4099
   72SLPC  C218 6324   6.359   2.348   8.839 -0.1151  0.1182  0.4684
   72SLPC  H18R 6325   6.390   2.243   8.822 -0.3091  0.2337 -0.6565
   72SLPC  H18S 6326   6.415   2.420   8.775 -0.2428 -1.8862 -2.0354
   72SLPC  H18T 6327   6.249   2.347   8.822  0.0908 -0.5383 -0.9427
   72SLPC   C33 6328   5.217   1.621  10.196  0.8771 -0.8692 -0.3473
   72SLPC   H3X 6329   5.327   1.606  10.185  0.5263 -2.4168 -2.4630
   72SLPC   H3Y 6330   5.180   1.689  10.116 -0.3169  0.4894  1.3023
   72SLPC   C34 6331   5.156   1.484  10.172 -0.4093  0.7637 -0.7549
   72SLPC   H4X 6332   5.047   1.485  10.151 -1.1324 -1.1898  2.2401
   72SLPC   H4Y 6333   5.157   1.429  10.269 -3.1242  2.7497  0.5147
   72SLPC   C35 6334   5.231   1.405  10.068 -0.2321 -0.4910  0.4167
   72SLPC   H5X 6335   5.198   1.299  10.069  0.4173 -0.8912 -3.3937
   72SLPC   H5Y 6336   5.341   1.410  10.081  0.1478 -2.4672 -1.4522
   72SLPC   C36 6337   5.208   1.453   9.925 -0.2609  0.1082  0.0740
   72SLPC   H6X 6338   5.201   1.564   9.923 -0.4134  0.1323  1.3266
   72SLPC   H6Y 6339   5.101   1.430   9.906 -0.8329  0.7662  2.2150
   72SLPC   C37 6340   5.284   1.376   9.818  0.4290  0.2763  0.9277
   72SLPC   H7X 6341   5.283   1.270   9.850 -1.0988 -0.0088  0.0142
   72SLPC   H7Y 6342   5.388   1.405   9.793  0.6022 -0.8304  0.2810
   72SLPC   C38 6343   5.209   1.386   9.683 -0.2578 -0.1816  0.0236
   72SLPC   H8X 6344   5.100   1.379   9.698 -0.3902 -0.2773 -0.8959
   72SLPC   H8Y 6345   5.240   1.304   9.615 -1.1318 -0.3437 -0.1813
   72SLPC   C39 6346   5.225   1.524   9.615 -0.1646  0.0236  0.2924
   72SLPC   H9X 6347   5.331   1.527   9.581 -0.1555 -2.1101 -0.0153
   72SLPC   H9Y 6348   5.199   1.605   9.687  1.4385  0.1476  0.7565
   72SLPC  C310 6349   5.135   1.533   9.487 -0.3078  0.4242 -0.5334
   72SLPC  H10X 6350   5.141   1.636   9.448  0.5492  1.5055  2.2224
   72SLPC  H10Y 6351   5.029   1.514   9.514 -0.4402  0.4975 -0.9951
   72SLPC  C311 6352   5.173   1.435   9.372  0.2982 -0.4529  0.0075
   72SLPC  H11X 6353   5.144   1.331   9.398  2.6167 -1.2511 -0.3894
   72SLPC  H11Y 6354   5.284   1.430   9.365  0.2556  0.8991 -2.9847
   72SLPC  C312 6355   5.104   1.482   9.250 -0.1406 -0.4272  0.5736
   72SLPC  H12X 6356   5.126   1.590   9.243 -2.9369  0.1872  0.3848
   72SLPC  H12Y 6357   4.994   1.468   9.257  0.1034 -1.8156  2.2847
   72SLPC  C313 6358   5.157   1.419   9.118  0.0542 -0.0031 -0.8194
   72SLPC  H13X 6359   5.160   1.312   9.147  1.0418 -0.1422 -1.3802
   72SLPC  H13Y 6360   5.256   1.468   9.104 -0.0628  1.1133  1.7748
   72SLPC  C314 6361   5.070   1.447   8.997  0.4472 -0.8729  0.1945
   72SLPC  H14X 6362   5.020   1.546   8.998  0.9175 -0.6244 -0.6961
   72SLPC  H14Y 6363   4.988   1.373   8.982 -0.3432 -0.1286  0.7174
   72SLPC  C315 6364   5.159   1.444   8.873  0.2590  0.3185  0.0951
   72SLPC  H15X 6365   5.197   1.340   8.864  2.6086  0.8707  2.3585
   72SLPC  H15Y 6366   5.258   1.496   8.880  0.7754 -0.1693 -2.4746
   72SLPC  C316 6367   5.099   1.486   8.739 -0.0308 -0.2010 -0.0119
   72SLPC  H16X 6368   5.047   1.584   8.740 -1.2242 -0.8142  0.0420
   72SLPC  H16Y 6369   5.019   1.417   8.702 -0.2294  0.8621 -1.6511
   72SLPC  C317 6370   5.203   1.525   8.634  0.2139  0.3533 -0.1012
   72SLPC  H17X 6371   5.260   1.430   8.623 -1.3996 -0.7411  0.5146
   72SLPC  H17Y 6372   5.270   1.602   8.677  1.3074 -0.9926  0.6781
   72SLPC  C318 6373   5.139   1.565   8.498  0.3604 -0.3268 -0.3786
   72SLPC  H18X 6374   5.060   1.641   8.510 -0.7024 -1.4521 -0.0700
   72SLPC  H18Y 6375   5.101   1.481   8.436  1.1353 -1.2999  0.4287
   72SLPC  H18Z 6376   5.211   1.627   8.440  1.6467  0.5428  1.9954
   73SLPC     N 6377   4.401   6.515  10.807 -0.2791  0.1450 -0.5965
   73SLPC   C13 6378   4.459   6.600  10.910  0.5378 -0.5185  0.5218
   73SLPC  H13A 6379   4.379   6.648  10.963 -0.8163  0.5908 -2.3197
   73SLPC  H13B 6380   4.529   6.558  10.981 -0.0232  1.1750  2.1718
   73SLPC  H13C 6381   4.515   6.678  10.860  2.4741 -1.6899  0.7712
   73SLPC   C14 6382   4.315   6.594  10.718 -0.5935  0.2841  0.3828
   73SLPC  H14A 6383   4.247   6.646  10.784 -0.5577 -1.3240  1.7832
   73SLPC  H14B 6384   4.363   6.663  10.652  2.0415 -3.5825 -2.1318
   73SLPC  H14C 6385   4.253   6.526  10.662 -1.6452  1.4048  0.1531
   73SLPC   C15 6386   4.316   6.422  10.882 -0.3208 -0.0690 -0.4035
   73SLPC  H15A 6387   4.363   6.362  10.959 -0.5750  1.0347  0.6451
   73SLPC  H15B 6388   4.233   6.470  10.933  0.9621  1.2197  0.5417
   73SLPC  H15C 6389   4.268   6.354  10.813  0.6182 -1.7099  0.4998
   73SLPC   C12 6390   4.511   6.454  10.725 -0.4196 -0.0522 -0.0733
   73SLPC  H12A 6391   4.454   6.387  10.662 -3.0976  1.6361  0.4073
   73SLPC  H12B 6392   4.568   6.399  10.798 -0.9536  0.0586  0.4297
   73SLPC   C11 6393   4.607   6.537  10.640 -0.0519  0.3807 -0.5224
   73SLPC  H11A 6394   4.550   6.594  10.564  1.5230  0.6815 -1.5191
   73SLPC  H11B 6395   4.674   6.471  10.580 -0.7109  0.2083 -1.0773
   73SLPC     P 6396   4.810   6.592  10.796  0.0719 -0.3049  0.4629
   73SLPC   O13 6397   4.887   6.711  10.833  0.1932  0.2267  0.2072
   73SLPC   O14 6398   4.776   6.504  10.909 -0.3437  0.8486  0.8328
   73SLPC   O12 6399   4.675   6.631  10.721  0.1176  0.0145  0.9233
   73SLPC   O11 6400   4.894   6.512  10.689  0.4996  0.2986  0.1646
   73SLPC    C1 6401   5.018   6.570  10.632 -0.3617  0.1079 -0.3940
   73SLPC    HA 6402   5.075   6.620  10.713  1.6154 -0.5699 -1.2984
   73SLPC    HB 6403   5.078   6.488  10.587  0.8448  1.0046 -0.4667
   73SLPC    C2 6404   4.999   6.663  10.512  0.6414 -0.2276  0.2499
   73SLPC    HS 6405   4.947   6.759  10.534 -0.1204 -0.6845  0.4406
   73SLPC   O21 6406   4.946   6.583  10.402  0.0558  0.2929 -0.4286
   73SLPC   C21 6407   4.864   6.643  10.325  0.2237 -0.5968 -0.1586
   73SLPC   O22 6408   4.813   6.754  10.346 -0.1577 -0.0327  0.2271
   73SLPC   C22 6409   4.826   6.553  10.207  1.0984 -0.2374  0.4308
   73SLPC   H2R 6410   4.818   6.444  10.231  1.6445 -0.9087 -2.0926
   73SLPC   H2S 6411   4.725   6.584  10.171  1.6558  0.7881 -0.2993
   73SLPC    C3 6412   5.139   6.712  10.456  0.4841 -0.0841  1.2530
   73SLPC    HX 6413   5.201   6.621  10.435 -1.0374 -1.0124  0.6082
   73SLPC    HY 6414   5.196   6.772  10.531 -0.7994 -0.1927  2.3446
   73SLPC   O31 6415   5.113   6.785  10.332  0.0310 -0.3424 -0.3493
   73SLPC   C31 6416   5.102   6.918  10.344 -0.0769 -0.1443 -0.4331
   73SLPC   O32 6417   5.116   6.983  10.445  0.4578 -0.2823  0.3629
   73SLPC   C32 6418   5.060   6.974  10.207 -0.0530 -0.5032 -0.1344
   73SLPC   H2X 6419   5.089   7.081  10.219  3.8317 -1.3293 -0.7470
   73SLPC   H2Y 6420   4.950   6.972  10.192  0.0926  2.0202 -2.2401
   73SLPC   C23 6421   4.926   6.567  10.097 -0.5446  0.0621 -0.0831
   73SLPC   H3R 6422   5.014   6.507  10.128  0.0267  0.3548 -1.0955
   73SLPC   H3S 6423   4.959   6.673  10.089 -2.7315  0.8540  0.4152
   73SLPC   C24 6424   4.876   6.509   9.961 -0.6100  0.2162 -0.0674
   73SLPC   H4R 6425   4.801   6.574   9.910 -1.5924 -0.1671  0.8472
   73SLPC   H4S 6426   4.834   6.408   9.945 -0.3846  0.1838 -0.4820
   73SLPC   C25 6427   4.998   6.519   9.865 -0.3058  0.1601 -0.1397
   73SLPC   H5R 6428   5.094   6.486   9.911 -0.1165  0.9705  0.0693
   73SLPC   H5S 6429   5.009   6.630   9.861  0.0013  0.3009  2.5334
   73SLPC   C26 6430   4.983   6.459   9.726 -0.2008 -0.1407  0.3347
   73SLPC   H6R 6431   4.895   6.505   9.677  0.5287  1.1882  0.2354
   73SLPC   H6S 6432   4.965   6.349   9.733  1.3036 -0.4912 -0.7172
   73SLPC   C27 6433   5.100   6.471   9.631 -0.0824  0.0037  0.4443
   73SLPC   H7R 6434   5.184   6.425   9.686 -0.5002 -0.9876  0.2714
   73SLPC   H7S 6435   5.125   6.579   9.623  2.0062 -0.2346  2.6145
   73SLPC   C28 6436   5.061   6.405   9.495 -0.8899 -0.5241  0.0533
   73SLPC   H8R 6437   4.967   6.458   9.466 -0.9232 -0.2624  0.6192
   73SLPC   H8S 6438   5.042   6.298   9.515 -0.7150 -0.7590 -0.9873
   73SLPC   C29 6439   5.174   6.424   9.396 -0.4844 -0.5913  0.4157
   73SLPC   H9R 6440   5.269   6.409   9.450 -0.8484 -0.8052  0.9996
   73SLPC  C210 6441   5.166   6.484   9.272 -0.1989  0.0939 -0.9019
   73SLPC  H10R 6442   5.259   6.498   9.214  0.0112  1.0795 -0.3410
   73SLPC  C211 6443   5.040   6.533   9.199  0.1937 -0.8847  0.3745
   73SLPC  H11R 6444   4.945   6.502   9.248 -1.6743 -0.9715 -3.0213
   73SLPC  H11S 6445   5.037   6.484   9.099 -2.6836 -1.1226  0.5023
   73SLPC  C212 6446   5.040   6.684   9.192  0.2728  0.9351 -0.5212
   73SLPC  H12R 6447   5.065   6.728   9.290  0.4018  0.7199 -0.4547
   73SLPC  C213 6448   4.997   6.761   9.087  1.0916  0.1257 -0.4229
   73SLPC  H13R 6449   5.012   6.870   9.092 -2.1994  0.6815 -0.3842
   73SLPC  C214 6450   4.933   6.701   8.968 -0.2209  0.5217 -0.1937
   73SLPC  H14R 6451   4.831   6.665   8.996  0.6810 -1.7026  0.4564
   73SLPC  H14S 6452   4.988   6.607   8.947 -0.3588  0.2549  0.6097
   73SLPC  C215 6453   4.949   6.793   8.850 -0.9677 -0.3118  0.5061
   73SLPC  H15R 6454   4.909   6.742   8.760 -3.1338 -2.1762  2.4147
   73SLPC  H15S 6455   5.055   6.806   8.820 -0.6873 -0.9745  1.1690
   73SLPC  C216 6456   4.884   6.930   8.857  0.3699 -0.1040 -0.3978
   73SLPC  H16R 6457   4.912   6.988   8.766  1.9297 -2.7157 -1.7239
   73SLPC  H16S 6458   4.934   6.979   8.943 -0.1776  1.3390 -0.8733
   73SLPC  C217 6459   4.736   6.914   8.876  0.2375 -0.3233 -0.0556
   73SLPC  H17R 6460   4.697   7.017   8.891  0.3860 -0.3394  0.4482
   73SLPC  H17S 6461   4.705   6.853   8.963 -4.8889  2.1797  0.2333
   73SLPC  C218 6462   4.664   6.865   8.747  0.2403  0.3449 -0.5227
   73SLPC  H18R 6463   4.678   6.936   8.663 -1.7956 -2.1263 -3.1742
   73SLPC  H18S 6464   4.554   6.854   8.754  0.2341 -0.8695 -1.9203
   73SLPC  H18T 6465   4.707   6.768   8.713 -1.1445 -0.4688 -0.0062
   73SLPC   C33 6466   5.145   6.922  10.086  0.4339  0.1013  0.0229
   73SLPC   H3X 6467   5.127   6.817  10.054  0.2212  0.4903 -1.1609
   73SLPC   H3Y 6468   5.245   6.924  10.135  0.8740  2.6366 -0.8135
   73SLPC   C34 6469   5.147   7.018   9.970 -0.4168  0.2058  0.0869
   73SLPC   H4X 6470   5.234   7.085   9.988 -0.5832  0.2555  0.7093
   73SLPC   H4Y 6471   5.048   7.067   9.974 -0.5132  0.0196  0.0095
   73SLPC   C35 6472   5.177   6.953   9.839  0.2048  0.9395 -0.6643
   73SLPC   H5X 6473   5.122   6.858   9.820  0.6045  0.5795 -0.0544
   73SLPC   H5Y 6474   5.284   6.925   9.830  0.4795  1.5162  0.5861
   73SLPC   C36 6475   5.148   7.043   9.722  0.8318 -0.0136 -0.1165
   73SLPC   H6X 6476   5.226   7.121   9.711 -0.1099  0.8263 -1.1886
   73SLPC   H6Y 6477   5.046   7.086   9.737  1.5122  1.3746  0.6726
   73SLPC   C37 6478   5.145   6.967   9.586  0.6028 -0.2452 -0.8771
   73SLPC   H7X 6479   5.074   6.881   9.594  1.8785 -1.3123 -0.5857
   73SLPC   H7Y 6480   5.246   6.921   9.584  1.4964  1.3911  1.6158
   73SLPC   C38 6481   5.113   7.062   9.472 -0.8846 -0.0531 -0.4081
   73SLPC   H8X 6482   5.153   7.003   9.387 -0.5005 -2.3150  1.2446
   73SLPC   H8Y 6483   5.170   7.156   9.459  0.0446 -0.2108  1.9146
   73SLPC   C39 6484   4.962   7.077   9.455 -0.2466  0.3349 -0.0075
   73SLPC   H9X 6485   4.911   7.135   9.536  2.5315  0.7716  1.5688
   73SLPC   H9Y 6486   4.917   6.976   9.445 -0.1441 -0.0491  2.6482
   73SLPC  C310 6487   4.936   7.163   9.326 -0.4290  0.6261 -0.7118
   73SLPC  H10X 6488   4.960   7.100   9.238  0.5405  1.2132 -0.8874
   73SLPC  H10Y 6489   5.004   7.251   9.332  0.4444 -0.0966  0.3342
   73SLPC  C311 6490   4.791   7.207   9.312 -0.3533 -0.1486  0.5105
   73SLPC  H11X 6491   4.778   7.280   9.229  0.8420  0.7418  1.0653
   73SLPC  H11Y 6492   4.751   7.259   9.401  0.7223  2.2272 -0.2981
   73SLPC  C312 6493   4.700   7.091   9.295  0.3337  0.7416 -0.4462
   73SLPC  H12X 6494   4.692   7.030   9.387 -0.0856  0.6452 -0.5451
   73SLPC  H12Y 6495   4.747   7.026   9.218  1.4102 -0.1181  0.8922
   73SLPC  C313 6496   4.559   7.122   9.244  0.5172  0.2814 -0.0338
   73SLPC  H13X 6497   4.566   7.170   9.145 -0.9597 -2.1594 -1.4303
   73SLPC  H13Y 6498   4.503   7.195   9.307  1.3066  2.8680 -2.1634
   73SLPC  C314 6499   4.480   6.991   9.219 -0.2287  0.5499 -0.0793
   73SLPC  H14X 6500   4.408   6.965   9.299 -0.7041 -0.6292 -0.8562
   73SLPC  H14Y 6501   4.565   6.919   9.218  0.8880  1.7685  1.4483
   73SLPC  C315 6502   4.398   7.001   9.090 -0.1673  0.0850 -0.3382
   73SLPC  H15X 6503   4.463   7.050   9.014 -0.8367  0.4824 -0.6565
   73SLPC  H15Y 6504   4.314   7.072   9.100  1.0812  1.5661  0.0569
   73SLPC  C316 6505   4.347   6.865   9.025  0.7510 -0.2395  0.8033
   73SLPC  H16X 6506   4.281   6.812   9.097 -1.4231 -0.4214 -1.1879
   73SLPC  H16Y 6507   4.432   6.795   9.008  0.4205 -1.2775  3.0585
   73SLPC  C317 6508   4.269   6.890   8.897 -0.2078 -0.8280  0.0804
   73SLPC  H17X 6509   4.324   6.970   8.843  0.4178 -1.5633 -0.3897
   73SLPC  H17Y 6510   4.164   6.922   8.918 -0.2050 -0.3169 -0.6364
   73SLPC  C318 6511   4.258   6.772   8.805 -0.3717 -0.3036  0.4321
   73SLPC  H18X 6512   4.361   6.737   8.781 -0.6949 -0.1730 -1.2558
   73SLPC  H18Y 6513   4.214   6.799   8.707 -0.2148  0.2253  0.4996
   73SLPC  H18Z 6514   4.193   6.697   8.854 -0.0923  1.0098  3.0293
   74SLPC     N 6515   5.534   3.187  10.770  0.0902 -0.5995 -0.1908
   74SLPC   C13 6516   5.429   3.080  10.775 -0.0265 -1.0930 -0.3511
   74SLPC  H13A 6517   5.410   3.067  10.669  1.6569 -1.1936 -0.6646
   74SLPC  H13B 6518   5.466   2.987  10.815 -1.0846 -0.7301  1.6225
   74SLPC  H13C 6519   5.342   3.105  10.834  0.2246 -0.8072 -0.0961
   74SLPC   C14 6520   5.653   3.130  10.709 -0.9188 -0.2004  0.7850
   74SLPC  H14A 6521   5.728   3.206  10.694 -2.5072  1.1443 -0.6811
   74SLPC  H14B 6522   5.696   3.051  10.769 -0.8500 -0.1997  0.7370
   74SLPC  H14C 6523   5.630   3.096  10.609  1.2091  0.9126 -0.1442
   74SLPC   C15 6524   5.563   3.223  10.913  0.4808  0.2226  0.3656
   74SLPC  H15A 6525   5.627   3.310  10.914 -1.6911  1.9601 -1.3726
   74SLPC  H15B 6526   5.468   3.239  10.962 -0.7236 -0.3035 -1.6740
   74SLPC  H15C 6527   5.620   3.146  10.963  0.9654 -0.3815 -1.0372
   74SLPC   C12 6528   5.494   3.312  10.691  0.0973  0.6449 -0.2264
   74SLPC  H12A 6529   5.567   3.390  10.702  2.3114 -1.3327  0.0094
   74SLPC  H12B 6530   5.404   3.348  10.738  0.1816 -1.1392  1.4414
   74SLPC   C11 6531   5.454   3.294  10.543  0.0020  0.2329 -0.5468
   74SLPC  H11A 6532   5.543   3.273  10.480 -0.7271  3.3419 -2.8431
   74SLPC  H11B 6533   5.420   3.388  10.495  0.0348 -0.3933 -1.8155
   74SLPC     P 6534   5.212   3.227  10.500 -0.0757 -0.3445 -0.1769
   74SLPC   O13 6535   5.129   3.111  10.538  0.1026 -0.2008  0.3573
   74SLPC   O14 6536   5.176   3.356  10.568 -0.1381 -0.0137 -0.0605
   74SLPC   O12 6537   5.358   3.185  10.523  0.3123  0.0388  0.1769
   74SLPC   O11 6538   5.216   3.246  10.343 -0.4385 -0.2801 -0.3097
   74SLPC    C1 6539   5.139   3.164  10.257  0.1982 -0.1921  0.8442
   74SLPC    HA 6540   5.153   3.055  10.277  2.6277  0.2331  1.7181
   74SLPC    HB 6541   5.030   3.182  10.270  0.3964  0.5771  1.4976
   74SLPC    C2 6542   5.185   3.186  10.106 -0.1373 -0.5173 -0.3163
   74SLPC    HS 6543   5.178   3.295  10.088  0.4949 -0.1223  1.5714
   74SLPC   O21 6544   5.103   3.109  10.023  0.1931 -0.2788  0.1629
   74SLPC   C21 6545   5.071   3.175   9.904  0.7054 -0.0048 -0.2213
   74SLPC   O22 6546   5.103   3.292   9.881  0.0166  0.0585 -0.8976
   74SLPC   C22 6547   5.002   3.078   9.806 -0.1135 -0.5039 -0.4130
   74SLPC   H2R 6548   5.082   3.016   9.760  1.4245  1.9217 -1.1395
   74SLPC   H2S 6549   4.927   3.023   9.868 -1.3159  1.0878 -0.3890
   74SLPC    C3 6550   5.334   3.147  10.066  0.6107 -0.0886 -0.1806
   74SLPC    HX 6551   5.332   3.041  10.100  0.5558 -0.3815 -1.0720
   74SLPC    HY 6552   5.405   3.205  10.129 -0.2311  2.8829 -1.7942
   74SLPC   O31 6553   5.365   3.138   9.923 -0.6973  0.1234 -0.2938
   74SLPC   C31 6554   5.453   3.224   9.880  0.4339  0.1961  0.3852
   74SLPC   O32 6555   5.504   3.312   9.953  0.0872  0.6862  0.0752
   74SLPC   C32 6556   5.482   3.208   9.737 -0.4508 -0.1034  0.8983
   74SLPC   H2X 6557   5.561   3.130   9.727 -0.8979 -0.5607  0.9212
   74SLPC   H2Y 6558   5.530   3.303   9.707 -0.3481 -1.0119 -2.1192
   74SLPC   C23 6559   4.936   3.141   9.681  0.1407  0.2355 -0.8664
   74SLPC   H3R 6560   4.997   3.226   9.643  0.3260  1.7490  2.4545
   74SLPC   H3S 6561   4.841   3.192   9.708 -0.1021 -1.2527  1.2674
   74SLPC   C24 6562   4.901   3.032   9.566  0.4275 -1.0787  0.2691
   74SLPC   H4R 6563   4.832   2.956   9.610  0.2057 -0.7960  0.4094
   74SLPC   H4S 6564   4.990   2.964   9.560 -0.6385 -2.6596  1.4509
   74SLPC   C25 6565   4.859   3.084   9.431 -0.1120 -0.2559  1.0895
   74SLPC   H5R 6566   4.933   3.156   9.392 -1.9204  1.3943  0.5452
   74SLPC   H5S 6567   4.764   3.140   9.442  0.3961  0.2883  3.1501
   74SLPC   C26 6568   4.845   2.974   9.320 -0.1095  0.0942 -0.0213
   74SLPC   H6R 6569   4.932   2.905   9.319  1.0436  1.4785  1.3533
   74SLPC   H6S 6570   4.859   3.018   9.219 -0.8132 -0.8312 -0.5450
   74SLPC   C27 6571   4.715   2.901   9.327 -0.1694  0.7147 -0.0739
   74SLPC   H7R 6572   4.625   2.966   9.323 -1.0708 -0.5519 -2.1354
   74SLPC   H7S 6573   4.708   2.836   9.417  1.0608 -1.6357 -1.5748
   74SLPC   C28 6574   4.689   2.798   9.212 -0.9610  1.0995 -0.8208
   74SLPC   H8R 6575   4.674   2.855   9.117 -3.1998  2.5250  0.2995
   74SLPC   H8S 6576   4.593   2.752   9.243  1.1375 -2.1050  1.5383
   74SLPC   C29 6577   4.787   2.683   9.203  0.4469  0.2764 -0.2915
   74SLPC   H9R 6578   4.787   2.611   9.286 -0.3679  0.2653 -0.2939
   74SLPC  C210 6579   4.870   2.663   9.102 -0.2787 -0.2740  0.3825
   74SLPC  H10R 6580   4.939   2.578   9.112 -1.0508 -0.8793  0.7258
   74SLPC  C211 6581   4.889   2.732   8.974 -0.0398 -0.9100 -0.5052
   74SLPC  H11R 6582   5.000   2.739   8.961 -0.0248 -1.4375 -0.6958
   74SLPC  H11S 6583   4.863   2.838   8.992  1.8003 -0.1991 -1.6844
   74SLPC  C212 6584   4.816   2.666   8.856 -0.1031  0.0922  0.0225
   74SLPC  H12R 6585   4.810   2.556   8.855 -2.7239  0.1593 -1.5218
   74SLPC  C213 6586   4.761   2.725   8.746  0.2862 -0.0394  0.0049
   74SLPC  H13R 6587   4.710   2.658   8.675  0.1679 -0.9429  0.9120
   74SLPC  C214 6588   4.756   2.878   8.724 -0.3831  0.3262  0.4969
   74SLPC  H14R 6589   4.734   2.921   8.824  1.2484  0.9779  0.6062
   74SLPC  H14S 6590   4.667   2.897   8.660  0.3589  1.8810 -0.1210
   74SLPC  C215 6591   4.883   2.933   8.672  0.2114 -0.7318  0.3571
   74SLPC  H15R 6592   4.902   2.904   8.566 -1.6939  1.3996 -0.6668
   74SLPC  H15S 6593   4.969   2.889   8.726  2.0730  2.4177  0.1740
   74SLPC  C216 6594   4.886   3.085   8.685  0.1096 -0.3508  0.8585
   74SLPC  H16R 6595   4.850   3.123   8.783  0.0096 -0.3933  0.8387
   74SLPC  H16S 6596   4.812   3.126   8.613 -2.1303 -0.2719  3.0742
   74SLPC  C217 6597   5.024   3.151   8.652  0.1317  1.1949 -0.4789
   74SLPC  H17R 6598   5.056   3.098   8.560 -1.2980  0.6854 -0.7031
   74SLPC  H17S 6599   5.104   3.117   8.721  1.5812  1.4078 -1.9920
   74SLPC  C218 6600   5.013   3.298   8.637 -0.4928 -0.2193  0.0610
   74SLPC  H18R 6601   4.926   3.339   8.582  0.9837  0.6978 -1.7302
   74SLPC  H18S 6602   5.091   3.344   8.572 -0.5713  1.1727  0.9064
   74SLPC  H18T 6603   5.018   3.337   8.741  2.3871  1.9121 -0.7524
   74SLPC   C33 6604   5.366   3.177   9.645  0.8388 -0.6451  0.0620
   74SLPC   H3X 6605   5.306   3.271   9.635  0.7189 -0.7098  0.1610
   74SLPC   H3Y 6606   5.289   3.111   9.690  0.5217 -0.2049  0.1759
   74SLPC   C34 6607   5.406   3.146   9.504 -0.3212 -0.0170  0.3455
   74SLPC   H4X 6608   5.473   3.058   9.504 -0.7763 -0.3989  1.6629
   74SLPC   H4Y 6609   5.459   3.238   9.473  1.7291 -1.1640  0.2866
   74SLPC   C35 6610   5.277   3.117   9.422 -0.1559  0.0861  1.1580
   74SLPC   H5X 6611   5.222   3.208   9.391 -1.7419 -1.3879 -0.6120
   74SLPC   H5Y 6612   5.208   3.054   9.482 -1.2875 -2.1723 -2.2313
   74SLPC   C36 6613   5.311   3.042   9.289 -0.6616 -0.3681 -0.5102
   74SLPC   H6X 6614   5.308   2.935   9.316  0.7396  0.1731  2.1567
   74SLPC   H6Y 6615   5.412   3.060   9.246 -0.3464  1.1046  0.7769
   74SLPC   C37 6616   5.201   3.065   9.183 -0.6283 -0.0327 -0.1123
   74SLPC   H7X 6617   5.146   3.160   9.202 -1.1512 -0.6390  1.5494
   74SLPC   H7Y 6618   5.127   2.982   9.182  1.3823 -1.9028  0.1837
   74SLPC   C38 6619   5.256   3.072   9.036 -0.3784 -0.0304 -0.3469
   74SLPC   H8X 6620   5.346   3.138   9.038 -2.9479  3.7444  0.3736
   74SLPC   H8Y 6621   5.178   3.110   8.966 -0.5352 -0.0277 -0.1683
   74SLPC   C39 6622   5.308   2.927   8.998  0.6149  0.3454  0.5434
   74SLPC   H9X 6623   5.231   2.867   9.051 -0.7217  0.2345 -1.4172
   74SLPC   H9Y 6624   5.410   2.896   9.028  0.4467 -0.8308 -0.0369
   74SLPC  C310 6625   5.284   2.909   8.843  0.3256  0.2791 -0.0174
   74SLPC  H10X 6626   5.355   2.963   8.777  0.1426  2.2692  1.3395
   74SLPC  H10Y 6627   5.179   2.944   8.832  0.6929  1.2025 -0.7282
   74SLPC  C311 6628   5.283   2.763   8.793  0.3853 -0.3143 -0.2787
   74SLPC  H11X 6629   5.213   2.744   8.708 -0.8111 -1.5704  0.9292
   74SLPC  H11Y 6630   5.245   2.699   8.876 -3.1857  3.0344  0.9807
   74SLPC  C312 6631   5.429   2.721   8.773 -0.4579  0.7994 -0.0121
   74SLPC  H12X 6632   5.443   2.611   8.774  1.2787  0.9829  1.2918
   74SLPC  H12Y 6633   5.486   2.748   8.865  0.6416 -1.1515 -0.0676
   74SLPC  C313 6634   5.501   2.782   8.652 -0.0781  0.3700 -0.0714
   74SLPC  H13X 6635   5.517   2.891   8.670  1.0277 -0.0087  1.3748
   74SLPC  H13Y 6636   5.440   2.764   8.561  2.6008 -0.7545 -1.7448
   74SLPC  C314 6637   5.634   2.704   8.620 -0.4210 -0.4338 -0.4803
   74SLPC  H14X 6638   5.657   2.750   8.522  0.7303  0.7389  0.3042
   74SLPC  H14Y 6639   5.618   2.594   8.617  3.2952 -1.0871 -3.4613
   74SLPC  C315 6640   5.754   2.753   8.705  0.9265  0.0162 -0.2482
   74SLPC  H15X 6641   5.726   2.734   8.811 -1.5436  2.3607 -0.3812
   74SLPC  H15Y 6642   5.775   2.860   8.682  3.0683 -0.2896  0.0540
   74SLPC  C316 6643   5.885   2.680   8.680 -0.6384 -0.3580  0.6293
   74SLPC  H16X 6644   5.916   2.706   8.576  2.5083 -1.9263  1.0702
   74SLPC  H16Y 6645   5.881   2.570   8.663 -1.0073  0.1748 -4.3349
   74SLPC  C317 6646   5.988   2.717   8.785 -0.7379  0.0134 -0.9395
   74SLPC  H17X 6647   5.946   2.674   8.878 -1.5583 -0.6394 -1.5991
   74SLPC  H17Y 6648   5.975   2.826   8.797  0.2678  0.0598 -0.0497
   74SLPC  C318 6649   6.129   2.681   8.764  1.3682  0.1037  0.0797
   74SLPC  H18X 6650   6.204   2.699   8.843  0.5653  0.2413  0.8211
   74SLPC  H18Y 6651   6.160   2.740   8.675  0.9180 -1.0233 -0.8654
   74SLPC  H18Z 6652   6.131   2.571   8.743 -0.3229  0.2502 -1.0826
   75SLPC     N 6653   3.046   4.360   6.533  0.4671  0.3702  0.1678
   75SLPC   C13 6654   2.958   4.333   6.650 -0.4698  0.2210  0.2867
   75SLPC  H13A 6655   2.871   4.275   6.624 -0.1016  0.2592 -1.1064
   75SLPC  H13B 6656   3.020   4.295   6.731  2.1280  2.6789 -0.3606
   75SLPC  H13C 6657   2.914   4.421   6.694 -0.1085  0.8668 -0.6063
   75SLPC   C14 6658   3.111   4.489   6.547 -0.8175 -0.3277 -0.5212
   75SLPC  H14A 6659   3.162   4.505   6.641  1.4917 -0.8798 -1.5973
   75SLPC  H14B 6660   3.187   4.498   6.471 -1.0852 -0.6963 -0.8329
   75SLPC  H14C 6661   3.031   4.561   6.542 -2.2170 -1.8432 -0.3547
   75SLPC   C15 6662   2.958   4.363   6.410 -0.1228 -0.1764 -0.0568
   75SLPC  H15A 6663   2.907   4.269   6.416  0.1700 -0.5676 -2.5294
   75SLPC  H15B 6664   2.875   4.432   6.413 -1.6371 -1.9400  0.1568
   75SLPC  H15C 6665   3.008   4.381   6.316  0.8095  0.1627  0.4901
   75SLPC   C12 6666   3.158   4.263   6.517 -0.1862  0.2245 -0.1083
   75SLPC  H12A 6667   3.125   4.161   6.504  1.7064 -0.4663  0.3052
   75SLPC  H12B 6668   3.211   4.275   6.611 -1.7893 -0.9148  1.0080
   75SLPC   C11 6669   3.269   4.279   6.413 -0.4541 -0.0391 -0.4080
   75SLPC  H11A 6670   3.208   4.318   6.329 -1.5279  0.1581  0.4477
   75SLPC  H11B 6671   3.311   4.184   6.373 -1.4613  0.0854 -1.8344
   75SLPC     P 6672   3.474   4.340   6.573 -0.1267  0.0284 -0.4123
   75SLPC   O13 6673   3.579   4.446   6.569 -0.0217  0.0280  0.3422
   75SLPC   O14 6674   3.405   4.328   6.703  0.6494  0.0801 -0.4753
   75SLPC   O12 6675   3.371   4.374   6.459  0.1588 -0.1998  0.2357
   75SLPC   O11 6676   3.536   4.195   6.550  0.8401 -0.2049 -0.3988
   75SLPC    C1 6677   3.465   4.077   6.590 -0.1095  0.7514 -0.3088
   75SLPC    HA 6678   3.359   4.091   6.619  0.0038  2.9394 -0.7393
   75SLPC    HB 6679   3.443   4.015   6.500 -0.0898 -0.5283  0.5478
   75SLPC    C2 6680   3.547   3.999   6.703  0.2271  0.3025  0.0992
   75SLPC    HS 6681   3.479   3.919   6.737  1.3075 -2.2826 -3.3168
   75SLPC   O21 6682   3.589   4.094   6.799  0.0957  0.3492  0.0247
   75SLPC   C21 6683   3.505   4.118   6.900 -0.2345 -0.1336 -0.3875
   75SLPC   O22 6684   3.407   4.055   6.924 -0.0949  0.4816 -0.8197
   75SLPC   C22 6685   3.554   4.237   6.982  0.2429  0.2059 -0.4173
   75SLPC   H2R 6686   3.649   4.210   7.033 -0.2204 -2.4136 -0.8187
   75SLPC   H2S 6687   3.574   4.319   6.910 -0.9141 -0.4360 -1.5021
   75SLPC    C3 6688   3.677   3.926   6.661  0.7834  0.7575  0.2965
   75SLPC    HX 6689   3.736   4.007   6.614  2.9900 -0.5572  0.6686
   75SLPC    HY 6690   3.645   3.862   6.576  0.0507  0.5267  0.7358
   75SLPC   O31 6691   3.731   3.848   6.767  0.2190 -0.1481 -0.2090
   75SLPC   C31 6692   3.862   3.866   6.794 -0.0560 -0.1161  0.2159
   75SLPC   O32 6693   3.938   3.935   6.723 -0.0970  0.8778 -0.1204
   75SLPC   C32 6694   3.911   3.786   6.915  0.5265 -0.6223  0.3905
   75SLPC   H2X 6695   4.012   3.749   6.889 -0.1767 -0.9516 -2.1213
   75SLPC   H2Y 6696   3.853   3.692   6.922 -0.8964  0.2019  0.2064
   75SLPC   C23 6697   3.456   4.298   7.091  0.1485  0.3298 -0.3196
   75SLPC   H3R 6698   3.428   4.222   7.168 -0.4749 -0.1845 -1.0330
   75SLPC   H3S 6699   3.365   4.321   7.031 -0.4170  1.4478  0.9426
   75SLPC   C24 6700   3.513   4.418   7.159 -0.0626  0.0640  0.3344
   75SLPC   H4R 6701   3.433   4.481   7.202 -0.4321  0.2467 -0.6019
   75SLPC   H4S 6702   3.564   4.481   7.082  1.9035 -1.1792  0.5339
   75SLPC   C25 6703   3.604   4.393   7.285 -0.0131 -0.6838  0.4362
   75SLPC   H5R 6704   3.669   4.483   7.294 -0.5226 -0.0125 -1.8739
   75SLPC   H5S 6705   3.668   4.304   7.270  0.2534 -0.5853  0.9516
   75SLPC   C26 6706   3.528   4.370   7.417  0.3159  0.3489  0.0167
   75SLPC   H6R 6707   3.455   4.286   7.416  0.1258  0.4697 -2.6820
   75SLPC   H6S 6708   3.463   4.457   7.439  1.6501  1.5460 -0.5944
   75SLPC   C27 6709   3.624   4.353   7.539  0.6686  0.8659  0.1560
   75SLPC   H7R 6710   3.681   4.447   7.547 -1.2233  1.9272  3.0663
   75SLPC   H7S 6711   3.691   4.269   7.509  0.2168  0.1785  1.0088
   75SLPC   C28 6712   3.551   4.324   7.676 -0.3481 -0.0286 -0.2783
   75SLPC   H8R 6713   3.461   4.265   7.647 -0.8742 -1.5537  3.8466
   75SLPC   H8S 6714   3.539   4.425   7.720  2.2096 -0.1325  0.8395
   75SLPC   C29 6715   3.646   4.239   7.758  0.4686 -0.4426 -1.0105
   75SLPC   H9R 6716   3.635   4.131   7.743 -1.6729 -0.4391  0.0869
   75SLPC  C210 6717   3.739   4.273   7.854 -0.5055 -0.7151  0.2617
   75SLPC  H10R 6718   3.797   4.192   7.902  0.5849  0.0937  0.3450
   75SLPC  C211 6719   3.774   4.415   7.899  0.4051  0.2649 -0.5710
   75SLPC  H11R 6720   3.677   4.468   7.908 -0.6562 -1.5577 -0.7551
   75SLPC  H11S 6721   3.835   4.473   7.826 -2.3240  3.4120 -0.5495
   75SLPC  C212 6722   3.834   4.408   8.034 -0.3117 -0.1496 -0.6201
   75SLPC  H12R 6723   3.806   4.322   8.096  1.8330  0.2721  1.0718
   75SLPC  C213 6724   3.920   4.505   8.084 -0.3478  0.1183  0.6190
   75SLPC  H13R 6725   3.964   4.491   8.183 -2.6136 -1.3283  1.4999
   75SLPC  C214 6726   3.964   4.630   8.013 -0.4757 -0.2364 -0.4380
   75SLPC  H14R 6727   3.922   4.651   7.912  1.5194 -2.3762 -1.8220
   75SLPC  H14S 6728   4.074   4.636   8.000 -0.6449 -0.0890 -2.0188
   75SLPC  C215 6729   3.914   4.749   8.102 -0.1738 -0.2053 -0.2372
   75SLPC  H15R 6730   3.803   4.749   8.107 -0.2016  2.9361  1.6909
   75SLPC  H15S 6731   3.933   4.831   8.030  0.5244 -2.0069 -2.2084
   75SLPC  C216 6732   3.978   4.783   8.233 -0.2274 -0.0386 -0.1351
   75SLPC  H16R 6733   4.085   4.811   8.224 -0.6006  0.8701 -2.5349
   75SLPC  H16S 6734   3.968   4.695   8.300  0.4034  0.7398  1.0147
   75SLPC  C217 6735   3.918   4.910   8.294 -0.3486 -0.2226  0.1532
   75SLPC  H17R 6736   3.807   4.907   8.303 -0.1579 -2.3366  4.1880
   75SLPC  H17S 6737   3.947   4.986   8.219 -1.1895 -0.5856 -0.5516
   75SLPC  C218 6738   3.970   4.938   8.434 -0.0885 -0.5798 -0.2205
   75SLPC  H18R 6739   3.955   5.041   8.474 -0.0373 -1.6480  2.8070
   75SLPC  H18S 6740   4.076   4.905   8.435 -0.5740 -2.4756 -2.0204
   75SLPC  H18T 6741   3.923   4.876   8.513 -0.6020  0.6945  0.5064
   75SLPC   C33 6742   3.894   3.876   7.048 -0.2831  0.7127 -0.0351
   75SLPC   H3X 6743   3.962   3.822   7.118  2.5310  0.9059 -2.4135
   75SLPC   H3Y 6744   3.942   3.975   7.030  1.6476 -0.0020  0.8723
   75SLPC   C34 6745   3.754   3.874   7.100  0.7430 -0.2732  0.7048
   75SLPC   H4X 6746   3.736   3.770   7.134  0.0009 -0.3391  0.1374
   75SLPC   H4Y 6747   3.688   3.898   7.014  0.4000 -4.8997 -0.5774
   75SLPC   C35 6748   3.743   3.967   7.220 -0.9381 -0.9387  0.5459
   75SLPC   H5X 6749   3.644   4.016   7.230  0.0187  1.2306  0.1290
   75SLPC   H5Y 6750   3.810   4.052   7.192 -0.0125 -2.5262 -2.4935
   75SLPC   C36 6751   3.790   3.897   7.341  0.0978  0.2635 -0.4948
   75SLPC   H6X 6752   3.899   3.880   7.332  0.3697  2.0521 -0.9991
   75SLPC   H6Y 6753   3.734   3.801   7.350  2.5136 -1.3862 -1.8498
   75SLPC   C37 6754   3.763   3.979   7.466  0.6667 -0.0669  0.1270
   75SLPC   H7X 6755   3.654   3.992   7.483  0.9257  0.2251  1.6587
   75SLPC   H7Y 6756   3.812   4.076   7.440  2.1450 -0.9724 -0.5970
   75SLPC   C38 6757   3.829   3.924   7.600  0.3468 -0.3934  0.0103
   75SLPC   H8X 6758   3.850   4.013   7.662  2.9856  0.5555 -2.0928
   75SLPC   H8Y 6759   3.924   3.875   7.570  1.2252  1.0208  0.4241
   75SLPC   C39 6760   3.737   3.828   7.689 -0.1530 -0.1012  0.3282
   75SLPC   H9X 6761   3.699   3.751   7.619  0.3029  0.3768 -0.4639
   75SLPC   H9Y 6762   3.646   3.888   7.710 -0.8383 -1.2403  0.6673
   75SLPC  C310 6763   3.804   3.790   7.818  0.3865 -0.6416  0.1143
   75SLPC  H10X 6764   3.813   3.887   7.872  1.3407 -0.9953  0.6206
   75SLPC  H10Y 6765   3.893   3.733   7.782 -1.3029 -4.0963  0.9795
   75SLPC  C311 6766   3.719   3.696   7.910 -0.2895 -0.2686 -0.0017
   75SLPC  H11X 6767   3.736   3.597   7.861  0.5628 -0.4168  0.5820
   75SLPC  H11Y 6768   3.612   3.725   7.918  0.1114  0.6955  2.9777
   75SLPC  C312 6769   3.772   3.691   8.056  0.8148  0.6175 -0.6500
   75SLPC  H12X 6770   3.767   3.792   8.102  0.0254  0.7639 -1.0456
   75SLPC  H12Y 6771   3.878   3.658   8.062  0.8045  0.7857  0.9048
   75SLPC  C313 6772   3.694   3.595   8.150 -0.4345 -0.2185  0.0613
   75SLPC  H13X 6773   3.663   3.499   8.102 -0.6292  0.0823 -0.4286
   75SLPC  H13Y 6774   3.603   3.647   8.187 -0.6153  0.1290 -0.8394
   75SLPC  C314 6775   3.762   3.554   8.283 -0.2343  0.5702  0.3619
   75SLPC  H14X 6776   3.853   3.501   8.247 -0.4503  0.0568  0.5604
   75SLPC  H14Y 6777   3.690   3.489   8.336 -0.4989 -0.6271 -1.3695
   75SLPC  C315 6778   3.790   3.678   8.357  0.0459 -0.3032 -0.0840
   75SLPC  H15X 6779   3.706   3.751   8.355  0.2707  0.0182 -3.0693
   75SLPC  H15Y 6780   3.875   3.736   8.316  0.8226 -1.7566 -0.6164
   75SLPC  C316 6781   3.828   3.649   8.510  0.6325 -0.1293  0.7856
   75SLPC  H16X 6782   3.923   3.592   8.508  1.6056  1.4435  0.4769
   75SLPC  H16Y 6783   3.744   3.590   8.553 -1.1598 -0.4106 -2.7530
   75SLPC  C317 6784   3.849   3.781   8.590  0.8034  0.3286  1.0173
   75SLPC  H17X 6785   3.747   3.823   8.593  1.0849  0.9889  2.4510
   75SLPC  H17Y 6786   3.926   3.848   8.546  2.5111 -0.7803  2.1863
   75SLPC  C318 6787   3.889   3.752   8.727 -0.9691  0.0260 -0.6134
   75SLPC  H18X 6788   3.795   3.720   8.777 -1.0437 -0.7049 -1.2099
   75SLPC  H18Y 6789   3.932   3.840   8.780  1.8389 -1.7282  0.1909
   75SLPC  H18Z 6790   3.964   3.671   8.741 -0.8733 -0.1164 -1.8786
   76SLPC     N 6791   6.361   2.212   5.769 -0.6480 -0.0714 -0.8554
   76SLPC   C13 6792   6.259   2.253   5.677 -0.5300  0.1801  0.6992
   76SLPC  H13A 6793   6.179   2.300   5.734 -0.3768 -0.0502  1.1112
   76SLPC  H13B 6794   6.303   2.323   5.608  0.4125 -2.2605 -1.3213
   76SLPC  H13C 6795   6.216   2.172   5.619  0.5266 -0.2797  0.5464
   76SLPC   C14 6796   6.426   2.325   5.825 -0.3966 -0.3752 -0.1618
   76SLPC  H14A 6797   6.366   2.388   5.889 -0.3461  0.5905 -1.0380
   76SLPC  H14B 6798   6.508   2.293   5.887 -1.2072  0.3943  1.3727
   76SLPC  H14C 6799   6.470   2.385   5.747  0.8422 -1.1197 -0.0536
   76SLPC   C15 6800   6.469   2.135   5.690  0.0822  0.2872 -0.1729
   76SLPC  H15A 6801   6.560   2.104   5.738 -1.0183 -1.7928  0.6982
   76SLPC  H15B 6802   6.430   2.043   5.648  0.8862 -0.4409  0.6445
   76SLPC  H15C 6803   6.490   2.200   5.606  0.4057 -0.4572 -0.6763
   76SLPC   C12 6804   6.305   2.123   5.879 -0.5003 -0.2175 -0.7555
   76SLPC  H12A 6805   6.381   2.091   5.949 -2.6589  0.8067  2.2777
   76SLPC  H12B 6806   6.247   2.046   5.830 -0.9293 -0.1315 -0.3859
   76SLPC   C11 6807   6.200   2.189   5.978  0.3217  0.3436 -0.0598
   76SLPC  H11A 6808   6.157   2.107   6.039  3.5054 -1.4866 -0.0888
   76SLPC  H11B 6809   6.118   2.243   5.926 -0.3973 -0.9925 -0.3526
   76SLPC     P 6810   6.182   2.365   6.178 -0.1541 -0.1237  0.3099
   76SLPC   O13 6811   6.267   2.457   6.260 -0.8909 -0.1124 -0.3476
   76SLPC   O14 6812   6.063   2.413   6.104  0.9817  0.2000  0.3954
   76SLPC   O12 6813   6.265   2.266   6.083  0.7634 -0.1480 -0.1945
   76SLPC   O11 6814   6.128   2.254   6.278  0.1982 -0.3135  0.2115
   76SLPC    C1 6815   6.218   2.158   6.337 -0.4495 -0.0778 -0.1313
   76SLPC    HA 6816   6.183   2.064   6.290 -0.3926 -0.3012  0.2680
   76SLPC    HB 6817   6.325   2.190   6.328 -0.4897  0.1892  0.3122
   76SLPC    C2 6818   6.199   2.148   6.486 -0.2665  0.5895 -0.2999
   76SLPC    HS 6819   6.275   2.076   6.524 -0.0899 -0.3373 -2.2750
   76SLPC   O21 6820   6.064   2.112   6.516 -0.4889 -0.5992 -0.0852
   76SLPC   C21 6821   6.038   1.978   6.483  0.3277 -0.3762 -0.2022
   76SLPC   O22 6822   6.119   1.899   6.448 -1.0233 -0.0054 -0.1087
   76SLPC   C22 6823   5.894   1.938   6.524 -0.0301 -0.0275 -0.1642
   76SLPC   H2R 6824   5.819   1.989   6.460 -0.3930  3.3454  2.6230
   76SLPC   H2S 6825   5.890   1.827   6.513  1.3214 -0.2047  0.9455
   76SLPC    C3 6826   6.224   2.286   6.548  0.0900 -0.0325 -0.2154
   76SLPC    HX 6827   6.144   2.346   6.499 -1.0899 -2.3459 -1.2821
   76SLPC    HY 6828   6.313   2.337   6.505  0.2055  0.6269  0.7862
   76SLPC   O31 6829   6.235   2.294   6.693  0.0737 -0.9412  0.5738
   76SLPC   C31 6830   6.125   2.354   6.750 -0.7969 -0.3350  0.9960
   76SLPC   O32 6831   6.047   2.422   6.693  0.3103  0.5919  0.3781
   76SLPC   C32 6832   6.130   2.310   6.896  0.5431  0.5649 -0.0403
   76SLPC   H2X 6833   6.226   2.354   6.932  2.8709 -1.0186 -3.6802
   76SLPC   H2Y 6834   6.132   2.199   6.898 -1.0945  0.5196  0.6546
   76SLPC   C23 6835   5.849   1.972   6.667  0.6710  0.1046  0.7263
   76SLPC   H3R 6836   5.741   1.950   6.675  0.6915  0.3072  1.5664
   76SLPC   H3S 6837   5.874   2.080   6.677 -2.4478  1.1015 -0.9689
   76SLPC   C24 6838   5.930   1.897   6.774 -0.4087  0.4760 -0.2126
   76SLPC   H4R 6839   6.038   1.918   6.759  0.0435 -1.8956 -0.7156
   76SLPC   H4S 6840   5.915   1.788   6.761  0.6137  0.1746  0.9485
   76SLPC   C25 6841   5.890   1.927   6.917  1.1854 -0.1796  1.3163
   76SLPC   H5R 6842   5.783   1.904   6.936  0.5867  1.7164  0.4561
   76SLPC   H5S 6843   5.877   2.035   6.936  1.0560 -0.0283  0.4142
   76SLPC   C26 6844   5.999   1.878   7.021  0.3687 -0.1584  0.2567
   76SLPC   H6R 6845   6.091   1.925   6.980 -0.8079  0.7866 -1.4292
   76SLPC   H6S 6846   6.001   1.767   7.016 -1.5398 -0.2492  1.0796
   76SLPC   C27 6847   5.968   1.923   7.156  0.4822  0.3777 -0.5435
   76SLPC   H7R 6848   5.869   1.884   7.189  1.4314 -1.9450 -0.2048
   76SLPC   H7S 6849   5.954   2.033   7.153  1.1907  0.5116  0.4722
   76SLPC   C28 6850   6.081   1.889   7.261 -0.3749  0.0913  0.4073
   76SLPC   H8R 6851   6.097   1.780   7.277  0.8637 -0.1596 -2.0522
   76SLPC   H8S 6852   6.174   1.939   7.228  0.7303 -2.1347  0.0054
   76SLPC   C29 6853   6.049   1.965   7.391  0.2105 -0.0979 -0.2977
   76SLPC   H9R 6854   6.060   2.074   7.393  0.5320 -0.1397  0.6271
   76SLPC  C210 6855   6.011   1.899   7.507  0.5563 -0.8516 -0.2328
   76SLPC  H10R 6856   6.000   1.957   7.600 -1.4042 -0.0064 -0.9199
   76SLPC  C211 6857   5.995   1.751   7.517 -0.0079  0.0715  0.8235
   76SLPC  H11R 6858   5.961   1.711   7.419 -4.5796  0.6450  1.9739
   76SLPC  H11S 6859   5.903   1.740   7.578 -1.1585  2.5414 -0.3188
   76SLPC  C212 6860   6.106   1.662   7.577  0.3030 -0.6976  0.3000
   76SLPC  H12R 6861   6.189   1.650   7.505  0.8777  0.2901  0.7759
   76SLPC  C213 6862   6.106   1.596   7.691 -0.2466  0.8306  0.2802
   76SLPC  H13R 6863   6.193   1.534   7.718  0.2149  1.2551 -0.2045
   76SLPC  C214 6864   5.991   1.603   7.783 -0.0603  0.1578 -0.1740
   76SLPC  H14R 6865   5.908   1.549   7.733 -1.0322  0.7235  0.7745
   76SLPC  H14S 6866   5.959   1.709   7.797  1.6232  0.8659 -1.3304
   76SLPC  C215 6867   6.033   1.547   7.922  0.2346 -0.1758 -0.2626
   76SLPC  H15R 6868   6.094   1.631   7.962 -2.1865  1.3349  0.4124
   76SLPC  H15S 6869   6.103   1.460   7.924 -0.9758 -1.1788  1.0361
   76SLPC  C216 6870   5.916   1.513   8.017 -0.6701  0.4011 -0.1966
   76SLPC  H16R 6871   5.848   1.439   7.970 -0.2446  0.6043 -1.1541
   76SLPC  H16S 6872   5.852   1.603   8.022 -0.8526  0.2986 -0.6771
   76SLPC  C217 6873   5.958   1.464   8.153  0.3735 -0.4755  0.7429
   76SLPC  H17R 6874   6.028   1.378   8.161  0.7612 -0.2385  0.0268
   76SLPC  H17S 6875   5.864   1.415   8.185 -0.3960 -0.3708 -1.2348
   76SLPC  C218 6876   6.006   1.576   8.247 -0.0379  0.4452  0.4852
   76SLPC  H18R 6877   5.946   1.669   8.243 -3.2926 -1.4489  1.4393
   76SLPC  H18S 6878   6.105   1.608   8.208 -1.3011  2.9765 -0.8497
   76SLPC  H18T 6879   6.001   1.541   8.352  2.7905  2.0376  1.2421
   76SLPC   C33 6880   5.999   2.354   6.974  0.3993  0.3987 -0.1225
   76SLPC   H3X 6881   5.997   2.285   7.061 -0.9444  1.4044  0.6863
   76SLPC   H3Y 6882   5.905   2.328   6.922 -0.5542 -1.7647  2.4416
   76SLPC   C34 6883   5.988   2.500   7.012  0.6286  0.1574 -0.2445
   76SLPC   H4X 6884   5.984   2.561   6.920 -1.5724 -0.9589 -0.9617
   76SLPC   H4Y 6885   6.081   2.516   7.071  1.5920 -1.1710 -1.3057
   76SLPC   C35 6886   5.865   2.518   7.089 -0.6520 -0.0683  0.5143
   76SLPC   H5X 6887   5.771   2.508   7.031 -0.2171  3.8302 -1.1449
   76SLPC   H5Y 6888   5.869   2.617   7.138 -0.7126 -0.2641  0.9199
   76SLPC   C36 6889   5.832   2.431   7.217  0.4476  0.0738 -0.5051
   76SLPC   H6X 6890   5.810   2.334   7.166  1.6374 -0.7431  0.4658
   76SLPC   H6Y 6891   5.735   2.463   7.261  0.4362  1.8485 -1.7381
   76SLPC   C37 6892   5.930   2.413   7.334 -0.3060  0.3009  0.3547
   76SLPC   H7X 6893   5.957   2.511   7.379 -0.9368  0.7256 -0.1758
   76SLPC   H7Y 6894   6.023   2.363   7.300  0.0719 -0.3136  2.1919
   76SLPC   C38 6895   5.867   2.336   7.452  0.4606  0.3166 -0.1131
   76SLPC   H8X 6896   5.825   2.241   7.412  0.8584 -0.0533  0.3341
   76SLPC   H8Y 6897   5.791   2.395   7.508 -0.3101 -1.9931  1.4345
   76SLPC   C39 6898   5.976   2.300   7.559  0.0351 -0.5349 -0.4782
   76SLPC   H9X 6899   6.014   2.392   7.609  0.5560 -1.2725  0.5260
   76SLPC   H9Y 6900   6.069   2.257   7.516  0.6679 -0.1766  0.4953
   76SLPC  C310 6901   5.913   2.228   7.676 -0.1712  0.1321 -0.6281
   76SLPC  H10X 6902   5.919   2.117   7.664  3.0402 -0.2453  2.4949
   76SLPC  H10Y 6903   5.806   2.258   7.676  0.0019  0.7670 -0.3405
   76SLPC  C311 6904   5.974   2.268   7.815 -0.3630  0.4443 -0.1209
   76SLPC  H11X 6905   5.915   2.211   7.890  1.1537 -0.7017  0.2333
   76SLPC  H11Y 6906   5.946   2.372   7.846 -1.8071 -0.2915  1.2270
   76SLPC  C312 6907   6.127   2.251   7.826 -0.1133  0.5338 -0.1544
   76SLPC  H12X 6908   6.192   2.312   7.760  0.5955  1.9322  1.7208
   76SLPC  H12Y 6909   6.143   2.143   7.802 -1.2140  0.9206 -3.0104
   76SLPC  C313 6910   6.181   2.264   7.966 -0.7173 -0.2251 -0.6256
   76SLPC  H13X 6911   6.291   2.257   7.949 -0.0785  2.5255  1.5875
   76SLPC  H13Y 6912   6.159   2.175   8.029  1.1531 -0.1995  0.1458
   76SLPC  C314 6913   6.145   2.388   8.051 -0.6530 -0.0717  0.2756
   76SLPC  H14X 6914   6.039   2.397   8.083 -0.6728  0.1962  0.1385
   76SLPC  H14Y 6915   6.156   2.466   7.973  0.4896 -0.0649  0.4334
   76SLPC  C315 6916   6.241   2.412   8.165 -0.3014 -0.5411  0.2966
   76SLPC  H15X 6917   6.222   2.515   8.202  0.9434  0.7921 -2.5292
   76SLPC  H15Y 6918   6.347   2.390   8.140  0.1629 -0.4450  2.0533
   76SLPC  C316 6919   6.215   2.312   8.277 -0.7211 -0.6344 -0.6948
   76SLPC  H16X 6920   6.271   2.218   8.262  0.1246 -0.1120 -0.8475
   76SLPC  H16Y 6921   6.107   2.289   8.267 -1.0986 -0.1349  1.5975
   76SLPC  C317 6922   6.250   2.371   8.416 -0.1750  0.5702  0.6336
   76SLPC  H17X 6923   6.188   2.461   8.438  0.4071  0.3540  3.4900
   76SLPC  H17Y 6924   6.358   2.396   8.424  0.1842 -0.8559  0.3687
   76SLPC  C318 6925   6.216   2.274   8.515  0.1380  0.3458 -0.7854
   76SLPC  H18X 6926   6.259   2.175   8.488  2.1922  0.4767  1.6964
   76SLPC  H18Y 6927   6.105   2.275   8.526  0.1073  1.0269 -1.1059
   76SLPC  H18Z 6928   6.265   2.300   8.611  0.8393 -0.2516 -0.9759
   77SLPC     N 6929   0.527   3.573   6.295  0.0184 -0.3507  0.1663
   77SLPC   C13 6930   0.430   3.647   6.383  0.5035 -0.1271  0.2408
   77SLPC  H13A 6931   0.399   3.596   6.473  0.3312 -3.2313 -1.4255
   77SLPC  H13B 6932   0.470   3.742   6.414  0.4417  0.8662 -2.4549
   77SLPC  H13C 6933   0.334   3.657   6.335  1.4860 -1.3499 -2.1621
   77SLPC   C14 6934   0.524   3.638   6.163  0.0033 -0.0099  0.3807
   77SLPC  H14A 6935   0.546   3.744   6.169 -1.3216  0.4554 -1.9934
   77SLPC  H14B 6936   0.573   3.585   6.082 -0.7911  0.1132 -0.1862
   77SLPC  H14C 6937   0.420   3.648   6.139  0.2158  3.1314  0.3145
   77SLPC   C15 6938   0.488   3.429   6.287 -0.3890 -0.0047 -0.3545
   77SLPC  H15A 6939   0.488   3.387   6.387  0.7050  0.5505 -0.0998
   77SLPC  H15B 6940   0.388   3.421   6.249 -0.5419  1.0993 -0.2190
   77SLPC  H15C 6941   0.554   3.373   6.223 -0.8428  1.0445 -1.7945
   77SLPC   C12 6942   0.661   3.591   6.360 -0.4836  0.5676 -0.4483
   77SLPC  H12A 6943   0.678   3.524   6.443  3.7810  3.5086  1.3719
   77SLPC  H12B 6944   0.676   3.692   6.396  0.5166 -0.7148  3.1391
   77SLPC   C11 6945   0.780   3.562   6.263  0.5854  0.2860 -0.1919
   77SLPC  H11A 6946   0.868   3.600   6.319  1.5073 -1.5989 -0.2537
   77SLPC  H11B 6947   0.771   3.617   6.167  1.0559 -1.1986 -1.1228
   77SLPC     P 6948   0.839   3.319   6.359  0.1254 -0.0019 -0.0229
   77SLPC   O13 6949   0.793   3.183   6.325  0.2141 -0.1879 -0.3333
   77SLPC   O14 6950   0.982   3.346   6.382  0.3498  0.1059  0.1092
   77SLPC   O12 6951   0.802   3.419   6.241 -0.0357  0.1396 -0.5389
   77SLPC   O11 6952   0.751   3.375   6.482  0.2322 -0.2238 -0.0684
   77SLPC    C1 6953   0.820   3.437   6.591 -0.2885 -0.4595  0.3750
   77SLPC    HA 6954   0.922   3.476   6.572 -0.0573 -1.0990  0.2789
   77SLPC    HB 6955   0.751   3.519   6.622 -0.5745 -0.5554 -0.0061
   77SLPC    C2 6956   0.848   3.338   6.712 -0.4495  0.0914  0.2255
   77SLPC    HS 6957   0.933   3.276   6.676 -0.1893  0.3529  0.3867
   77SLPC   O21 6958   0.736   3.241   6.734 -0.6257 -0.3895  0.2874
   77SLPC   C21 6959   0.770   3.121   6.779  0.0215 -0.0616  0.2250
   77SLPC   O22 6960   0.886   3.079   6.786  0.4444  0.4772 -0.2934
   77SLPC   C22 6961   0.646   3.038   6.810 -0.2256 -0.6844  0.2657
   77SLPC   H2R 6962   0.580   3.114   6.856  0.7345  0.2226  0.1821
   77SLPC   H2S 6963   0.592   3.018   6.716 -0.1574 -0.7351  0.2362
   77SLPC    C3 6964   0.894   3.421   6.841 -0.1538 -0.4624  0.5377
   77SLPC    HX 6965   0.801   3.480   6.856 -0.2469  0.3792 -2.6509
   77SLPC    HY 6966   0.978   3.491   6.823 -0.0940 -0.1408  1.9219
   77SLPC   O31 6967   0.913   3.352   6.961 -0.7392 -0.2714 -0.1526
   77SLPC   C31 6968   1.031   3.287   6.959 -0.2508  0.0636  0.3926
   77SLPC   O32 6969   1.109   3.280   6.869 -0.2113  0.2060  0.4547
   77SLPC   C32 6970   1.046   3.219   7.102  0.0017 -0.2705  0.2457
   77SLPC   H2X 6971   1.151   3.185   7.113  0.4608  0.3612 -1.7810
   77SLPC   H2Y 6972   0.982   3.129   7.102  0.0453 -0.3170 -0.9212
   77SLPC   C23 6973   0.669   2.912   6.897  0.2496 -1.1261 -0.2899
   77SLPC   H3R 6974   0.689   2.931   7.005  1.5730 -1.4742 -0.4692
   77SLPC   H3S 6975   0.760   2.865   6.856  0.5045  0.2617 -1.3932
   77SLPC   C24 6976   0.535   2.829   6.902  0.2240 -0.6900  0.2506
   77SLPC   H4R 6977   0.557   2.732   6.952 -1.4573 -0.8423  0.7604
   77SLPC   H4S 6978   0.505   2.805   6.798 -1.0582 -1.0608  0.6863
   77SLPC   C25 6979   0.418   2.894   6.974  0.5834 -0.0480  0.3869
   77SLPC   H5R 6980   0.397   2.986   6.916 -1.0558 -0.6225  0.0244
   77SLPC   H5S 6981   0.457   2.917   7.076 -0.8811 -0.5855  1.1023
   77SLPC   C26 6982   0.302   2.796   6.975  0.2582  0.9990 -0.2804
   77SLPC   H6R 6983   0.328   2.714   7.045  0.7876 -0.2215 -1.8373
   77SLPC   H6S 6984   0.302   2.760   6.869  1.0245  0.8926 -0.2524
   77SLPC   C27 6985   0.161   2.859   7.002 -0.2040 -0.0969 -0.2798
   77SLPC   H7R 6986   0.091   2.805   6.935  1.9133 -1.5221 -1.4862
   77SLPC   H7S 6987   0.159   2.967   6.975 -4.2874  0.0299 -0.0706
   77SLPC   C28 6988   0.116   2.851   7.148 -0.3943  0.0065  0.4187
   77SLPC   H8R 6989   0.101   2.743   7.166 -3.3702 -0.0364 -1.6865
   77SLPC   H8S 6990   0.018   2.903   7.152  0.0925  0.9197  1.2091
   77SLPC   C29 6991   0.228   2.908   7.240 -0.0972  0.1165  0.2440
   77SLPC   H9R 6992   0.323   2.854   7.247 -0.9333 -1.4936 -0.4354
   77SLPC  C210 6993   0.218   3.028   7.318  0.2502  0.2777  0.0336
   77SLPC  H10R 6994   0.310   3.055   7.371  0.4667 -0.5566  0.0925
   77SLPC  C211 6995   0.094   3.114   7.327 -0.0320 -0.1613 -0.5310
   77SLPC  H11R 6996   0.108   3.171   7.422 -3.4126 -1.2182  0.7414
   77SLPC  H11S 6997   0.007   3.047   7.343 -2.7700  2.7788 -2.0136
   77SLPC  C212 6998   0.079   3.189   7.200  0.6768 -0.2957 -0.4941
   77SLPC  H12R 6999   0.079   3.134   7.104  3.4391 -0.4892 -0.4727
   77SLPC  C213 7000   0.058   3.319   7.195 -0.0750 -0.2081  1.0888
   77SLPC  H13R 7001   0.041   3.365   7.097  1.8519  1.5445  1.5046
   77SLPC  C214 7002   0.054   3.410   7.309 -0.0986  0.0079  0.1305
   77SLPC  H14R 7003   0.050   3.352   7.403 -3.0318  0.8557  0.6267
   77SLPC  H14S 7004  -0.037   3.473   7.309  0.5355  0.9686  1.1801
   77SLPC  C215 7005   0.175   3.500   7.299 -0.2050  0.7217  0.4751
   77SLPC  H15R 7006   0.178   3.560   7.206  1.1589  0.3626  0.2552
   77SLPC  H15S 7007   0.266   3.436   7.293  0.4310  1.7191 -1.3196
   77SLPC  C216 7008   0.177   3.595   7.422  0.4004  0.1452  0.2404
   77SLPC  H16R 7009   0.080   3.649   7.433  0.3836  0.0161  0.7464
   77SLPC  H16S 7010   0.258   3.670   7.415  0.9812 -0.2953  1.8158
   77SLPC  C217 7011   0.188   3.517   7.556  0.2504 -1.1237  0.5278
   77SLPC  H17R 7012   0.256   3.429   7.552  0.0455 -1.2500 -0.2090
   77SLPC  H17S 7013   0.092   3.471   7.585  0.5706 -1.0704  1.7263
   77SLPC  C218 7014   0.229   3.606   7.674 -0.4575 -0.2129  0.1186
   77SLPC  H18R 7015   0.272   3.533   7.746  0.0761  0.3200  0.3447
   77SLPC  H18S 7016   0.143   3.652   7.728  0.9178  0.4526  1.8570
   77SLPC  H18T 7017   0.304   3.683   7.648 -1.3457  0.8235  0.5173
   77SLPC   C33 7018   1.007   3.311   7.221 -1.0002  0.4374 -0.4443
   77SLPC   H3X 7019   1.010   3.253   7.315  0.3888 -3.9948 -2.9152
   77SLPC   H3Y 7020   0.913   3.370   7.223  0.2556  2.5800 -0.7735
   77SLPC   C34 7021   1.114   3.420   7.235  0.4427  0.1035  0.2363
   77SLPC   H4X 7022   1.140   3.462   7.135 -0.8518 -0.3162 -0.3011
   77SLPC   H4Y 7023   1.210   3.375   7.269  0.3112  0.8244  1.6211
   77SLPC   C35 7024   1.057   3.538   7.306 -0.4298  0.4512  0.1232
   77SLPC   H5X 7025   0.974   3.592   7.256 -0.3521 -0.7459 -1.3613
   77SLPC   H5Y 7026   1.138   3.612   7.325 -1.4838  1.1748  2.1176
   77SLPC   C36 7027   1.016   3.488   7.451 -0.6397 -0.3238 -0.0791
   77SLPC   H6X 7028   1.074   3.399   7.484 -0.4161  1.2121  4.1737
   77SLPC   H6Y 7029   0.914   3.444   7.441  0.0667 -2.2116  0.5838
   77SLPC   C37 7030   1.033   3.602   7.555  0.0225  0.0524 -0.1925
   77SLPC   H7X 7031   0.968   3.687   7.526  1.8380  1.9552  1.0257
   77SLPC   H7Y 7032   1.140   3.632   7.550  0.0680 -0.0057  0.3648
   77SLPC   C38 7033   0.981   3.552   7.693  0.0662 -0.2228  0.5208
   77SLPC   H8X 7034   1.035   3.459   7.720 -2.5040 -1.4497  1.7581
   77SLPC   H8Y 7035   0.875   3.527   7.671 -0.1539 -1.3335  2.5681
   77SLPC   C39 7036   1.010   3.658   7.802  0.6232  0.6965 -0.7285
   77SLPC   H9X 7037   0.955   3.752   7.780  2.6794  2.3615  0.8973
   77SLPC   H9Y 7038   1.119   3.678   7.803  0.3910  2.3537 -2.3690
   77SLPC  C310 7039   0.946   3.616   7.937 -0.6370  0.2043 -0.2126
   77SLPC  H10X 7040   0.991   3.520   7.970  0.6040  0.4522 -1.1187
   77SLPC  H10Y 7041   0.836   3.602   7.923 -0.2935 -1.4045 -1.5933
   77SLPC  C311 7042   0.956   3.718   8.054 -0.4540  0.5476 -0.5377
   77SLPC  H11X 7043   0.894   3.804   8.019 -2.5154 -0.1695  1.1377
   77SLPC  H11Y 7044   1.058   3.762   8.057  0.0190 -0.4989 -0.9483
   77SLPC  C312 7045   0.901   3.665   8.185  0.2623  0.6492  0.0991
   77SLPC  H12X 7046   0.935   3.563   8.215  0.1561  0.6749  0.3081
   77SLPC  H12Y 7047   0.792   3.647   8.175  0.5736 -1.8498  0.6494
   77SLPC  C313 7048   0.922   3.759   8.311  0.1912 -0.3966 -0.0199
   77SLPC  H13X 7049   0.859   3.844   8.277 -0.5725 -2.2443 -3.7936
   77SLPC  H13Y 7050   1.031   3.776   8.325 -0.0534 -0.3340  2.1114
   77SLPC  C314 7051   0.869   3.700   8.442  0.3060 -0.3372 -0.2635
   77SLPC  H14X 7052   0.763   3.674   8.421  0.5979 -0.9503 -1.0089
   77SLPC  H14Y 7053   0.869   3.783   8.517 -0.2203 -1.3717  0.9261
   77SLPC  C315 7054   0.941   3.579   8.497  0.4877  0.8207  0.3990
   77SLPC  H15X 7055   1.046   3.610   8.515  0.8213  1.5725 -2.3041
   77SLPC  H15Y 7056   0.943   3.500   8.418  0.2546 -0.7196  1.8844
   77SLPC  C316 7057   0.873   3.522   8.622 -0.4495  0.5272 -0.6142
   77SLPC  H16X 7058   0.765   3.514   8.602 -0.2749 -2.1568 -0.7885
   77SLPC  H16Y 7059   0.884   3.593   8.707  0.7751  2.4670 -2.2850
   77SLPC  C317 7060   0.921   3.381   8.648 -0.0647  0.2303 -0.6786
   77SLPC  H17X 7061   1.032   3.378   8.658 -0.2494 -1.4848  1.4000
   77SLPC  H17Y 7062   0.903   3.319   8.557  1.4808  0.1898 -0.9824
   77SLPC  C318 7063   0.857   3.299   8.760  0.1769  0.3325  0.1563
   77SLPC  H18X 7064   0.747   3.307   8.755  0.1945  0.1945 -0.5262
   77SLPC  H18Y 7065   0.903   3.341   8.852  0.3965 -3.7756  2.1767
   77SLPC  H18Z 7066   0.885   3.191   8.756 -4.8428 -1.2374  0.9354
   78SLPC     N 7067   2.444   4.521   6.309 -0.0434 -0.1928  0.7141
   78SLPC   C13 7068   2.307   4.584   6.294  0.5035  0.1518  0.2151
   78SLPC  H13A 7069   2.257   4.553   6.204 -0.8368 -1.0728  1.3206
   78SLPC  H13B 7070   2.245   4.581   6.383  0.3316 -0.9970  0.0647
   78SLPC  H13C 7071   2.321   4.691   6.284 -0.7669  0.3012 -0.2172
   78SLPC   C14 7072   2.517   4.533   6.178 -0.1422  0.0260 -0.4533
   78SLPC  H14A 7073   2.501   4.632   6.137  2.1622 -0.3748 -2.4795
   78SLPC  H14B 7074   2.623   4.528   6.197 -0.5220  0.8979  2.4072
   78SLPC  H14C 7075   2.488   4.462   6.102  0.5215 -1.5699  0.7275
   78SLPC   C15 7076   2.427   4.377   6.340  0.3574  0.1294 -0.5140
   78SLPC  H15A 7077   2.518   4.318   6.341 -0.0282 -0.4796 -0.4671
   78SLPC  H15B 7078   2.390   4.364   6.441  0.0888  2.8684 -0.1943
   78SLPC  H15C 7079   2.368   4.334   6.261  2.9257 -1.4654 -1.6886
   78SLPC   C12 7080   2.527   4.599   6.412 -0.0724  0.3878  0.3700
   78SLPC  H12A 7081   2.465   4.621   6.498  0.6953 -0.9613  1.3076
   78SLPC  H12B 7082   2.560   4.696   6.379  1.5538  0.3672  1.8229
   78SLPC   C11 7083   2.661   4.542   6.455  0.1398 -0.2051 -0.4419
   78SLPC  H11A 7084   2.656   4.432   6.447  0.5758 -0.3717  1.2689
   78SLPC  H11B 7085   2.675   4.567   6.562 -2.3898 -1.4309  0.2493
   78SLPC     P 7086   2.815   4.725   6.347 -0.2291 -0.4417 -0.2186
   78SLPC   O13 7087   2.956   4.724   6.304 -0.4347  0.2497  0.6532
   78SLPC   O14 7088   2.722   4.783   6.248 -0.1023  0.6076  0.0195
   78SLPC   O12 7089   2.766   4.582   6.369 -0.1073 -0.0757  0.2532
   78SLPC   O11 7090   2.801   4.791   6.487 -0.1629  0.2645 -0.0963
   78SLPC    C1 7091   2.904   4.864   6.554  0.1078 -0.7521  0.2338
   78SLPC    HA 7092   2.999   4.878   6.498  0.8550 -4.8579  0.1987
   78SLPC    HB 7093   2.846   4.957   6.573 -3.0051 -3.0041  2.9265
   78SLPC    C2 7094   2.916   4.800   6.695 -0.1285 -0.4871  0.4103
   78SLPC    HS 7095   2.972   4.705   6.685  0.0785 -0.1750 -2.2501
   78SLPC   O21 7096   2.783   4.790   6.762 -0.2255 -0.1150  1.0587
   78SLPC   C21 7097   2.754   4.670   6.805 -0.1908  0.1992 -0.2221
   78SLPC   O22 7098   2.831   4.578   6.821 -0.5678 -0.4906 -0.0335
   78SLPC   C22 7099   2.605   4.662   6.836  0.3369  0.0703  0.5122
   78SLPC   H2R 7100   2.585   4.756   6.892  1.1888  0.6319 -0.1091
   78SLPC   H2S 7101   2.546   4.665   6.742 -1.1946  0.5612  1.4434
   78SLPC    C3 7102   3.009   4.888   6.783  0.2541 -0.3030 -0.0420
   78SLPC    HX 7103   2.957   4.978   6.820 -0.1388 -0.4030 -0.3428
   78SLPC    HY 7104   3.088   4.938   6.723 -1.5536  0.4556 -1.8894
   78SLPC   O31 7105   3.075   4.818   6.886  0.0589  0.6967 -0.0712
   78SLPC   C31 7106   2.999   4.805   6.998 -0.0048 -0.2778 -0.5705
   78SLPC   O32 7107   2.896   4.870   7.024  0.1677 -0.9125 -0.5335
   78SLPC   C32 7108   3.070   4.714   7.106  0.4462  0.1563 -0.1100
   78SLPC   H2X 7109   3.083   4.779   7.195 -0.6316 -0.0832  0.2406
   78SLPC   H2Y 7110   3.173   4.686   7.075  0.1960 -0.8377 -0.0747
   78SLPC   C23 7111   2.573   4.527   6.915 -0.3908 -0.2758  0.9391
   78SLPC   H3R 7112   2.613   4.445   6.852 -0.1479 -0.5910  1.4965
   78SLPC   H3S 7113   2.465   4.515   6.934 -0.1961  0.1195  2.3780
   78SLPC   C24 7114   2.639   4.530   7.053  0.8197  0.0916 -0.3732
   78SLPC   H4R 7115   2.635   4.631   7.098 -2.2207 -0.7209  1.5434
   78SLPC   H4S 7116   2.742   4.491   7.040  0.0032 -1.6173 -2.3385
   78SLPC   C25 7117   2.561   4.449   7.156 -0.4962  0.8186 -0.0554
   78SLPC   H5R 7118   2.564   4.344   7.121 -1.7121 -0.1442  2.4355
   78SLPC   H5S 7119   2.453   4.477   7.161 -1.1977 -0.9934 -2.6515
   78SLPC   C26 7120   2.617   4.477   7.297  0.1786  0.4854 -0.0123
   78SLPC   H6R 7121   2.573   4.567   7.345 -2.7370 -1.3788  1.0614
   78SLPC   H6S 7122   2.728   4.485   7.304  0.0842  0.9219  1.2259
   78SLPC   C27 7123   2.579   4.352   7.379  0.5342 -0.1043 -0.0561
   78SLPC   H7R 7124   2.619   4.261   7.331  1.7826  0.5665 -0.3409
   78SLPC   H7S 7125   2.468   4.341   7.385  0.6450 -2.6456 -1.3879
   78SLPC   C28 7126   2.625   4.363   7.528  0.1232 -0.3838  0.9418
   78SLPC   H8R 7127   2.723   4.415   7.526 -0.0048 -0.1227 -1.4904
   78SLPC   H8S 7128   2.637   4.266   7.581 -2.5264 -2.5981 -2.1072
   78SLPC   C29 7129   2.526   4.449   7.608  0.9917 -0.0353  0.4290
   78SLPC   H9R 7130   2.462   4.518   7.551 -0.0060 -1.3657 -0.1204
   78SLPC  C210 7131   2.505   4.447   7.739 -0.8516 -0.2561 -0.1702
   78SLPC  H10R 7132   2.435   4.517   7.787  2.1424  1.4140  2.0851
   78SLPC  C211 7133   2.589   4.369   7.837 -0.5741 -0.4696  0.9557
   78SLPC  H11R 7134   2.694   4.366   7.798  0.0947  0.0176  2.6426
   78SLPC  H11S 7135   2.562   4.261   7.834 -0.0505 -0.6801 -3.3367
   78SLPC  C212 7136   2.604   4.429   7.974  0.3042  0.0034 -0.5406
   78SLPC  H12R 7137   2.677   4.510   7.993  0.3239 -0.1982  0.2877
   78SLPC  C213 7138   2.518   4.396   8.071  0.1091  0.7962  0.0718
   78SLPC  H13R 7139   2.520   4.446   8.170  1.0721 -0.7031  0.8442
   78SLPC  C214 7140   2.404   4.296   8.062  0.1729  0.1906  0.9025
   78SLPC  H14R 7141   2.438   4.195   8.091 -1.6342 -0.9769 -0.7869
   78SLPC  H14S 7142   2.381   4.279   7.954 -0.1482 -0.3589  1.0563
   78SLPC  C215 7143   2.263   4.325   8.128 -0.8039  0.3980  0.1720
   78SLPC  H15R 7144   2.224   4.423   8.092 -1.0504  1.0216  2.0170
   78SLPC  H15S 7145   2.272   4.321   8.239  1.2605 -0.3671  0.0243
   78SLPC  C216 7146   2.162   4.219   8.073  0.3604 -0.2082 -0.3490
   78SLPC  H16R 7147   2.157   4.223   7.962  1.3949  2.3810 -0.3583
   78SLPC  H16S 7148   2.059   4.238   8.110  0.8378  0.5716  0.6268
   78SLPC  C217 7149   2.196   4.075   8.101 -0.0556  0.6313  0.3215
   78SLPC  H17R 7150   2.289   4.033   8.056  0.1969  0.1723  1.2437
   78SLPC  H17S 7151   2.113   4.013   8.061  2.4732 -1.8002 -1.5733
   78SLPC  C218 7152   2.198   4.040   8.247 -0.1997  0.1916  0.4619
   78SLPC  H18R 7153   2.294   4.075   8.291 -0.2926 -1.5207  2.1397
   78SLPC  H18S 7154   2.202   3.930   8.263 -0.1538 -0.3540 -2.5952
   78SLPC  H18T 7155   2.121   4.097   8.302  1.7925  3.4324  0.1434
   78SLPC   C33 7156   2.990   4.589   7.136 -0.3527 -0.2208 -0.0928
   78SLPC   H3X 7157   2.979   4.528   7.044 -0.6998  1.4132 -1.1732
   78SLPC   H3Y 7158   2.893   4.622   7.179 -0.4088  0.2174 -0.5407
   78SLPC   C34 7159   3.058   4.487   7.234  0.6032  0.5509 -0.1026
   78SLPC   H4X 7160   3.159   4.458   7.197  0.6858  1.9779 -1.0811
   78SLPC   H4Y 7161   2.992   4.398   7.226 -0.8491  1.6489 -0.7077
   78SLPC   C35 7162   3.073   4.546   7.375  1.0142  0.6450 -0.0111
   78SLPC   H5X 7163   2.975   4.589   7.404  0.3812 -2.0482  2.2621
   78SLPC   H5Y 7164   3.139   4.635   7.371  1.9216 -0.0335 -0.8118
   78SLPC   C36 7165   3.122   4.442   7.481  0.6189 -0.1828  0.0668
   78SLPC   H6X 7166   3.122   4.508   7.570  2.5714  1.0306 -0.7682
   78SLPC   H6Y 7167   3.230   4.425   7.459  0.5288  0.0609 -0.5977
   78SLPC   C37 7168   3.043   4.312   7.487 -0.6829  0.1693  0.2217
   78SLPC   H7X 7169   3.069   4.251   7.398  2.7196  1.5780  0.0927
   78SLPC   H7Y 7170   2.934   4.332   7.478 -0.1348  2.6747 -1.7762
   78SLPC   C38 7171   3.073   4.242   7.627  0.6500  0.2509 -0.1099
   78SLPC   H8X 7172   3.183   4.253   7.633  0.5950  2.3324 -1.7065
   78SLPC   H8Y 7173   3.049   4.134   7.616  0.2881  0.1421  1.5795
   78SLPC   C39 7174   3.009   4.319   7.747  0.0790  0.2338 -0.2401
   78SLPC   H9X 7175   2.898   4.325   7.744  0.0830  4.3087  1.1466
   78SLPC   H9Y 7176   3.033   4.420   7.708  2.2137 -0.7473 -1.6546
   78SLPC  C310 7177   3.064   4.281   7.889 -0.3107 -0.0068 -0.1642
   78SLPC  H10X 7178   3.170   4.306   7.907 -0.4579  1.1086 -0.7445
   78SLPC  H10Y 7179   3.038   4.180   7.925  1.1556 -0.3406  0.0223
   78SLPC  C311 7180   3.000   4.387   7.985  0.2411 -0.0818 -0.3090
   78SLPC  H11X 7181   2.890   4.375   7.983  0.1954  0.4162 -1.7575
   78SLPC  H11Y 7182   3.027   4.487   7.944  1.3883 -1.1215 -2.2542
   78SLPC  C312 7183   3.039   4.378   8.133  0.2182  0.3389 -0.3432
   78SLPC  H12X 7184   3.149   4.380   8.149 -0.0124  2.1649  1.3622
   78SLPC  H12Y 7185   3.012   4.274   8.162 -0.6931  1.4360  3.2088
   78SLPC  C313 7186   2.974   4.478   8.234 -0.1085 -0.1805  0.3697
   78SLPC  H13X 7187   2.865   4.457   8.244  0.1366 -1.2806  0.8452
   78SLPC  H13Y 7188   2.983   4.581   8.194 -1.0531 -0.3155 -0.2170
   78SLPC  C314 7189   3.038   4.450   8.371  0.1205 -0.3422 -0.5971
   78SLPC  H14X 7190   3.148   4.447   8.358  0.1515 -0.0392 -0.4123
   78SLPC  H14Y 7191   3.004   4.354   8.415 -1.5232 -0.1153 -1.2582
   78SLPC  C315 7192   3.005   4.562   8.469  0.2651  0.2536 -0.2272
   78SLPC  H15X 7193   2.896   4.579   8.476  0.3577  0.4524  0.9792
   78SLPC  H15Y 7194   3.053   4.653   8.427  1.0449 -0.5555 -1.1272
   78SLPC  C316 7195   3.058   4.550   8.615 -0.2847 -0.1971  0.0887
   78SLPC  H16X 7196   3.001   4.479   8.679 -0.7029  0.0876  0.0366
   78SLPC  H16Y 7197   3.040   4.650   8.659 -1.5383  0.5930 -2.0808
   78SLPC  C317 7198   3.209   4.525   8.616 -0.1199  0.1544 -0.4808
   78SLPC  H17X 7199   3.259   4.595   8.545 -2.0469  0.6423 -1.4260
   78SLPC  H17Y 7200   3.237   4.426   8.576 -1.1416  0.7037 -2.6854
   78SLPC  C318 7201   3.290   4.536   8.751 -1.0360  0.6517 -0.4215
   78SLPC  H18X 7202   3.233   4.471   8.821  2.3465  1.0425  3.0403
   78SLPC  H18Y 7203   3.271   4.635   8.798  1.8637  0.8888  0.4499
   78SLPC  H18Z 7204   3.398   4.513   8.746 -1.0314  0.6185 -0.1507
   79SLPC     N 7205   6.331   5.449   5.924 -0.7161  0.0807  0.7244
   79SLPC   C13 7206   6.302   5.377   5.795 -0.2055 -1.0872  0.1601
   79SLPC  H13A 7207   6.257   5.447   5.727 -0.9862 -2.6511 -0.9910
   79SLPC  H13B 7208   6.393   5.336   5.753  0.2011 -0.5763  0.5316
   79SLPC  H13C 7209   6.232   5.296   5.811 -1.3132 -0.1383  0.2226
   79SLPC   C14 7210   6.233   5.561   5.952  0.2698  0.7865 -0.3219
   79SLPC  H14A 7211   6.131   5.529   5.962  0.4329  0.3785  0.0785
   79SLPC  H14B 7212   6.262   5.588   6.052 -0.0251 -4.1610  1.3537
   79SLPC  H14C 7213   6.226   5.643   5.881 -1.4428  0.0390 -1.0692
   79SLPC   C15 7214   6.462   5.521   5.896  0.3185  0.4920 -0.7322
   79SLPC  H15A 7215   6.537   5.451   5.863  0.2825  1.1047 -2.2024
   79SLPC  H15B 7216   6.453   5.591   5.814  0.0147 -0.3344 -1.4146
   79SLPC  H15C 7217   6.491   5.572   5.987 -1.2505 -1.7757  1.1673
   79SLPC   C12 7218   6.344   5.353   6.031 -0.2899  0.1773  0.2171
   79SLPC  H12A 7219   6.383   5.398   6.121  0.7932  1.6263 -0.9212
   79SLPC  H12B 7220   6.431   5.297   5.998  1.3843  3.2944 -1.0628
   79SLPC   C11 7221   6.219   5.266   6.079 -0.1843 -0.1958 -0.2205
   79SLPC  H11A 7222   6.260   5.186   6.145  0.0286  0.1818  0.1130
   79SLPC  H11B 7223   6.168   5.222   5.992 -0.0145 -2.4336  0.7549
   79SLPC     P 7224   6.189   5.402   6.298  0.0772 -0.3706  0.3253
   79SLPC   O13 7225   6.304   5.492   6.282 -0.5187  0.1041  0.4554
   79SLPC   O14 7226   6.074   5.452   6.382  0.2138  0.2810  1.0793
   79SLPC   O12 7227   6.130   5.354   6.161  0.1520  0.6090 -0.1493
   79SLPC   O11 7228   6.247   5.263   6.363  0.1507  0.1602  0.2188
   79SLPC    C1 7229   6.152   5.191   6.446 -0.3526  0.0248  0.3998
   79SLPC    HA 7230   6.042   5.202   6.429 -0.0123  2.3614 -0.7123
   79SLPC    HB 7231   6.171   5.082   6.438 -1.3031 -0.1956  0.9808
   79SLPC    C2 7232   6.166   5.233   6.590  0.0839  0.1741 -0.1676
   79SLPC    HS 7233   6.168   5.344   6.602  0.5090  0.1744 -0.2088
   79SLPC   O21 7234   6.288   5.175   6.643  0.3983  0.4799 -0.1623
   79SLPC   C21 7235   6.398   5.257   6.642 -0.0696  0.2385  0.2975
   79SLPC   O22 7236   6.391   5.377   6.618 -0.3069 -0.2400 -0.1853
   79SLPC   C22 7237   6.528   5.183   6.673  0.3150 -0.1300  0.1159
   79SLPC   H2R 7238   6.543   5.101   6.599  2.6118 -1.5307  1.9796
   79SLPC   H2S 7239   6.616   5.250   6.667  1.3662 -1.5723 -1.7721
   79SLPC    C3 7240   6.040   5.175   6.663  0.4029  0.1250  0.6241
   79SLPC    HX 7241   6.021   5.072   6.627  0.1494  0.4065 -0.0651
   79SLPC    HY 7242   5.956   5.236   6.624  2.5915  1.0542 -3.1494
   79SLPC   O31 7243   6.058   5.160   6.804 -0.1661  0.1803  0.0728
   79SLPC   C31 7244   6.035   5.284   6.866 -0.3635 -0.0278  0.4820
   79SLPC   O32 7245   6.025   5.387   6.802  0.2434 -0.3321  0.6114
   79SLPC   C32 7246   6.021   5.266   7.016 -1.2657 -0.0845  0.1019
   79SLPC   H2X 7247   5.930   5.203   7.018 -0.2187 -1.6372  1.1020
   79SLPC   H2Y 7248   6.007   5.368   7.057 -2.6200  0.1324 -0.8292
   79SLPC   C23 7249   6.528   5.117   6.807 -0.1114  0.3161 -0.8174
   79SLPC   H3R 7250   6.592   5.026   6.810 -0.5640  0.0129  0.5371
   79SLPC   H3S 7251   6.424   5.082   6.824  0.2122 -1.2449 -1.8992
   79SLPC   C24 7252   6.583   5.219   6.916  0.9293  0.3381  0.5355
   79SLPC   H4R 7253   6.519   5.310   6.914  1.2943  0.7158  2.8293
   79SLPC   H4S 7254   6.685   5.257   6.896  0.8278  0.4978  0.3209
   79SLPC   C25 7255   6.565   5.163   7.058 -0.0966  0.5079  0.0736
   79SLPC   H5R 7256   6.458   5.161   7.087  0.1745  0.7599  1.1416
   79SLPC   H5S 7257   6.607   5.234   7.134 -1.1805  0.8530  0.3627
   79SLPC   C26 7258   6.635   5.024   7.086 -0.3646  0.6922  0.4344
   79SLPC   H6R 7259   6.718   5.005   7.014 -0.4947  0.4220  0.3570
   79SLPC   H6S 7260   6.564   4.943   7.060  1.4312 -0.6757 -0.4151
   79SLPC   C27 7261   6.701   4.995   7.221  0.6107 -0.6982  0.9029
   79SLPC   H7R 7262   6.776   5.075   7.235 -1.0242  0.5926  2.6924
   79SLPC   H7S 7263   6.754   4.899   7.202 -0.3593 -0.9856 -0.4764
   79SLPC   C28 7264   6.609   4.972   7.345  0.7862 -0.3386  1.5335
   79SLPC   H8R 7265   6.518   5.035   7.334  1.0649  0.0121  1.2052
   79SLPC   H8S 7266   6.655   5.018   7.435  1.4793  0.4577  0.7926
   79SLPC   C29 7267   6.560   4.833   7.371  0.7199  0.4759  0.0960
   79SLPC   H9R 7268   6.494   4.790   7.295 -0.4107  0.8956  0.8171
   79SLPC  C210 7269   6.595   4.755   7.472 -0.9485  0.4126 -0.3868
   79SLPC  H10R 7270   6.553   4.653   7.465 -0.2471  0.1678 -1.1107
   79SLPC  C211 7271   6.689   4.794   7.586 -0.2687 -0.3509 -0.3371
   79SLPC  H11R 7272   6.772   4.856   7.547 -0.9813 -0.0044 -1.3293
   79SLPC  H11S 7273   6.734   4.701   7.628  1.5676  0.2893 -0.8150
   79SLPC  C212 7274   6.621   4.889   7.692  0.1617  0.9182  0.1177
   79SLPC  H12R 7275   6.610   4.990   7.651  0.2762  1.3997  1.2502
   79SLPC  C213 7276   6.594   4.869   7.823 -0.2327  0.0667 -0.3990
   79SLPC  H13R 7277   6.554   4.954   7.879 -0.0656 -0.8958  1.2592
   79SLPC  C214 7278   6.628   4.747   7.906 -0.0793  0.0118  0.2805
   79SLPC  H14R 7279   6.714   4.767   7.973  1.7218  0.1646 -1.9669
   79SLPC  H14S 7280   6.658   4.666   7.836 -4.7291 -2.1562  0.3805
   79SLPC  C215 7281   6.525   4.699   8.014  0.0443  0.2105 -0.4739
   79SLPC  H15R 7282   6.517   4.772   8.097  1.8601  0.6370 -0.6316
   79SLPC  H15S 7283   6.575   4.611   8.058  1.0584  1.2947  0.6303
   79SLPC  C216 7284   6.390   4.662   7.956 -0.7186 -0.4020  0.3706
   79SLPC  H16R 7285   6.406   4.571   7.894 -2.8362 -1.6852  1.5775
   79SLPC  H16S 7286   6.348   4.750   7.902 -1.1778 -1.0761 -0.3869
   79SLPC  C217 7287   6.307   4.617   8.078  0.3766  0.1394  0.3375
   79SLPC  H17R 7288   6.371   4.540   8.125  0.1347 -2.4110 -3.1185
   79SLPC  H17S 7289   6.214   4.569   8.039  0.7418 -1.4081  1.2880
   79SLPC  C218 7290   6.262   4.726   8.174  0.1063 -0.0240 -1.0642
   79SLPC  H18R 7291   6.348   4.759   8.237 -0.0156  1.2001 -1.5200
   79SLPC  H18S 7292   6.191   4.676   8.243  1.5359 -0.4032  0.2014
   79SLPC  H18T 7293   6.223   4.808   8.111 -0.1508  0.8560  0.1965
   79SLPC   C33 7294   6.145   5.192   7.081 -0.5620  0.1998  0.0636
   79SLPC   H3X 7295   6.241   5.237   7.050 -0.9523  2.3934  1.7733
   79SLPC   H3Y 7296   6.148   5.086   7.048  1.3855 -0.7042  2.7277
   79SLPC   C34 7297   6.128   5.186   7.231  0.3531 -0.3461 -0.6926
   79SLPC   H4X 7298   6.048   5.111   7.253  2.0757 -1.8162  0.8644
   79SLPC   H4Y 7299   6.097   5.280   7.281 -1.1016 -1.0944 -0.1300
   79SLPC   C35 7300   6.246   5.129   7.314 -0.0934  0.1472  0.0731
   79SLPC   H5X 7301   6.319   5.210   7.334  0.9403 -0.4589 -1.1464
   79SLPC   H5Y 7302   6.283   5.033   7.271  0.1777 -0.9101  2.4926
   79SLPC   C36 7303   6.187   5.096   7.451  0.4110 -0.3667 -0.8744
   79SLPC   H6X 7304   6.127   5.003   7.447 -1.3574  0.6980 -0.2454
   79SLPC   H6Y 7305   6.113   5.173   7.480  0.9578 -1.0944  2.8885
   79SLPC   C37 7306   6.304   5.098   7.554  0.0633 -0.2221  0.1553
   79SLPC   H7X 7307   6.359   5.194   7.543  1.3097 -0.8905  0.5036
   79SLPC   H7Y 7308   6.368   5.015   7.518 -1.8098 -0.8342 -2.0542
   79SLPC   C38 7309   6.263   5.087   7.697 -0.0567 -0.1599  0.3126
   79SLPC   H8X 7310   6.186   5.165   7.715  1.0736  1.0996 -0.1194
   79SLPC   H8Y 7311   6.344   5.119   7.766  0.3978  0.0750 -0.3154
   79SLPC   C39 7312   6.208   4.944   7.727  0.7953 -0.7295 -0.0615
   79SLPC   H9X 7313   6.295   4.875   7.718  0.4611 -0.8838 -4.0674
   79SLPC   H9Y 7314   6.133   4.911   7.652  1.3272 -1.5185 -0.2624
   79SLPC  C310 7315   6.143   4.943   7.864 -0.1139  0.0759 -0.4861
   79SLPC  H10X 7316   6.186   5.011   7.940 -2.3944  0.3412  0.6497
   79SLPC  H10Y 7317   6.136   4.835   7.892  0.5013  0.2172  0.2168
   79SLPC  C311 7318   5.989   4.985   7.866  0.5395  0.0114 -0.5440
   79SLPC  H11X 7319   5.937   4.917   7.795 -1.7829  1.1279 -0.0301
   79SLPC  H11Y 7320   5.984   5.090   7.830 -1.6058  0.7274  1.5616
   79SLPC  C312 7321   5.912   4.975   8.001  0.2197 -0.4800  0.1910
   79SLPC  H12X 7322   5.900   4.870   8.037  3.6777 -1.4423 -1.0391
   79SLPC  H12Y 7323   5.815   5.024   7.977  0.2578 -2.3260 -4.7928
   79SLPC  C313 7324   5.988   5.043   8.113  0.7285  0.2013  1.0986
   79SLPC  H13X 7325   6.017   5.135   8.057  1.5132 -1.2318 -0.9467
   79SLPC  H13Y 7326   6.074   4.982   8.147  2.1629  1.4176 -0.2049
   79SLPC  C314 7327   5.901   5.068   8.239 -0.6648 -0.7521  0.8326
   79SLPC  H14X 7328   5.878   4.972   8.289  1.5323 -1.1719  1.1396
   79SLPC  H14Y 7329   5.811   5.118   8.197  0.3734  0.5816  0.1292
   79SLPC  C315 7330   5.972   5.159   8.342 -0.5288  0.5411 -0.2512
   79SLPC  H15X 7331   5.898   5.178   8.423  1.9262 -0.4934  2.3947
   79SLPC  H15Y 7332   5.995   5.260   8.302  4.9912  0.1873  1.2543
   79SLPC  C316 7333   6.099   5.095   8.404  0.0014  0.3845  0.1059
   79SLPC  H16X 7334   6.186   5.084   8.336  0.0752  0.1779  0.2335
   79SLPC  H16Y 7335   6.073   4.994   8.441 -2.1441  0.5275 -0.8528
   79SLPC  C317 7336   6.146   5.169   8.538  0.2897 -0.5882  0.4423
   79SLPC  H17X 7337   6.238   5.121   8.578  0.7389  1.5697  2.1651
   79SLPC  H17Y 7338   6.061   5.167   8.609  0.2192  2.2544  0.5156
   79SLPC  C318 7339   6.190   5.314   8.519  0.2114 -0.8936 -0.1361
   79SLPC  H18X 7340   6.273   5.332   8.448  2.3623  1.3464  2.6975
   79SLPC  H18Y 7341   6.225   5.354   8.617  2.0658 -2.1867 -0.2091
   79SLPC  H18Z 7342   6.099   5.369   8.489 -0.5241 -1.0743  1.5969
   80SLPC     N 7343   3.230   2.104   6.454  0.3752  0.0013  0.1080
   80SLPC   C13 7344   3.281   2.236   6.416  0.1024 -0.1033  0.9630
   80SLPC  H13A 7345   3.237   2.271   6.324  0.0076  0.6010  1.2731
   80SLPC  H13B 7346   3.267   2.300   6.502 -1.2521  0.0641  0.6355
   80SLPC  H13C 7347   3.387   2.221   6.398 -0.1754 -1.8281  0.5370
   80SLPC   C14 7348   3.311   2.054   6.570  0.8597 -0.1245 -0.3414
   80SLPC  H14A 7349   3.285   2.120   6.652  3.4039 -1.4991  1.7118
   80SLPC  H14B 7350   3.276   1.956   6.600  0.6951 -0.2173 -0.8273
   80SLPC  H14C 7351   3.417   2.057   6.550  1.2877 -0.0310  1.6937
   80SLPC   C15 7352   3.256   2.009   6.343 -0.2747  0.2427 -0.0112
   80SLPC  H15A 7353   3.359   2.015   6.310  0.6597  2.2251  2.9297
   80SLPC  H15B 7354   3.238   1.904   6.361 -0.4604  0.1058 -0.9552
   80SLPC  H15C 7355   3.192   2.035   6.260 -0.0553  1.7842  0.2660
   80SLPC   C12 7356   3.083   2.114   6.484  0.5433  1.2093  0.1531
   80SLPC  H12A 7357   3.026   2.165   6.408  0.0650  0.5622  0.0734
   80SLPC  H12B 7358   3.084   2.169   6.577  2.1149 -1.1753  1.6521
   80SLPC   C11 7359   2.999   1.989   6.518  0.1158 -0.1129  0.2674
   80SLPC  H11A 7360   2.904   2.029   6.560  0.1487  0.6838 -0.4056
   80SLPC  H11B 7361   3.055   1.927   6.592  1.1521  0.9499  0.4184
   80SLPC     P 7362   2.952   1.753   6.397  0.3574 -0.2449 -0.2367
   80SLPC   O13 7363   2.898   1.720   6.265 -0.5196 -0.1819 -0.0335
   80SLPC   O14 7364   3.085   1.693   6.429  0.4130 -0.4417  0.0452
   80SLPC   O12 7365   2.964   1.912   6.399  0.3324 -0.3604 -0.4517
   80SLPC   O11 7366   2.842   1.710   6.506  0.0622 -0.0678  0.2919
   80SLPC    C1 7367   2.716   1.775   6.518  0.6932  0.0024 -0.3218
   80SLPC    HA 7368   2.701   1.866   6.457  3.5197  1.5324  1.0317
   80SLPC    HB 7369   2.645   1.693   6.497  1.4261 -1.2412  1.6717
   80SLPC    C2 7370   2.681   1.807   6.671  0.0982 -0.3652 -0.1536
   80SLPC    HS 7371   2.711   1.909   6.702 -1.1830  0.4087 -1.3732
   80SLPC   O21 7372   2.734   1.705   6.758 -0.0881  0.1877  0.5127
   80SLPC   C21 7373   2.850   1.730   6.812  0.0354 -0.0530  0.0279
   80SLPC   O22 7374   2.903   1.839   6.805 -0.2024  0.0567  0.1721
   80SLPC   C22 7375   2.905   1.610   6.896  0.3879 -0.1860 -0.0278
   80SLPC   H2R 7376   2.961   1.536   6.836  2.3532  0.9793  0.2979
   80SLPC   H2S 7377   2.983   1.646   6.966  0.9296 -0.5917 -0.4248
   80SLPC    C3 7378   2.524   1.800   6.687 -0.1680 -0.5619 -0.1358
   80SLPC    HX 7379   2.492   1.694   6.671  0.2213 -0.7501  0.3013
   80SLPC    HY 7380   2.495   1.866   6.603  1.5254 -1.6696 -1.6659
   80SLPC   O31 7381   2.472   1.844   6.811 -0.7982 -0.3543  0.1510
   80SLPC   C31 7382   2.475   1.974   6.847 -0.1710 -0.1049  0.1941
   80SLPC   O32 7383   2.502   2.070   6.777 -0.3647 -0.1939 -0.4276
   80SLPC   C32 7384   2.440   1.975   6.999 -0.1846 -0.3521 -0.4844
   80SLPC   H2X 7385   2.478   1.880   7.042  0.6923  0.5789  0.8852
   80SLPC   H2Y 7386   2.329   1.973   7.003 -0.2875  0.5727 -2.1332
   80SLPC   C23 7387   2.788   1.544   6.973 -0.0050  0.7762  0.2170
   80SLPC   H3R 7388   2.839   1.450   7.003  1.6244  2.1025  1.8630
   80SLPC   H3S 7389   2.694   1.522   6.918  1.0511 -0.3082 -1.2447
   80SLPC   C24 7390   2.753   1.620   7.096 -0.4165  0.1928 -0.2853
   80SLPC   H4R 7391   2.714   1.716   7.055 -1.6301 -0.8774 -1.7279
   80SLPC   H4S 7392   2.851   1.637   7.145  1.8231  2.6931 -4.9666
   80SLPC   C25 7393   2.658   1.559   7.197 -0.4984  0.8153 -0.2744
   80SLPC   H5R 7394   2.693   1.456   7.221 -2.0684 -0.1507 -1.8968
   80SLPC   H5S 7395   2.558   1.556   7.150 -0.1078 -1.5555 -1.0733
   80SLPC   C26 7396   2.632   1.631   7.324 -0.3540 -0.8384 -0.5029
   80SLPC   H6R 7397   2.594   1.733   7.299  1.3268 -0.0530 -0.0209
   80SLPC   H6S 7398   2.721   1.666   7.381 -1.8409  3.1821 -0.2760
   80SLPC   C27 7399   2.528   1.577   7.419 -0.0510  0.1707 -0.2485
   80SLPC   H7R 7400   2.570   1.479   7.450  1.7407  0.7369 -0.7392
   80SLPC   H7S 7401   2.431   1.554   7.370  1.0466  0.5170 -2.7554
   80SLPC   C28 7402   2.493   1.667   7.541  0.6151  0.1572  0.3652
   80SLPC   H8R 7403   2.414   1.730   7.494 -0.4762 -0.5648  1.1599
   80SLPC   H8S 7404   2.572   1.734   7.583  0.0549 -1.1156  3.7577
   80SLPC   C29 7405   2.422   1.593   7.653 -0.3602  0.0022  0.1305
   80SLPC   H9R 7406   2.314   1.593   7.635 -0.6154  0.6636  1.5171
   80SLPC  C210 7407   2.472   1.515   7.751  0.8630 -0.3850  0.8452
   80SLPC  H10R 7408   2.398   1.479   7.823 -0.4667 -1.0279 -0.7690
   80SLPC  C211 7409   2.611   1.483   7.780  0.2326  0.4758 -0.0548
   80SLPC  H11R 7410   2.670   1.578   7.780 -1.4863  1.6414  2.3192
   80SLPC  H11S 7411   2.639   1.423   7.691  0.5052  0.0677  0.3035
   80SLPC  C212 7412   2.657   1.404   7.902  0.2727  0.5372 -0.2280
   80SLPC  H12R 7413   2.649   1.295   7.894  1.1576  0.3234  1.4859
   80SLPC  C213 7414   2.676   1.459   8.021 -0.5153  0.0661  0.2255
   80SLPC  H13R 7415   2.698   1.387   8.101 -1.5453 -2.0094 -1.2715
   80SLPC  C214 7416   2.664   1.603   8.052  0.0249  0.2257 -0.3553
   80SLPC  H14R 7417   2.573   1.644   8.003  0.1374 -0.2342 -0.9601
   80SLPC  H14S 7418   2.755   1.654   8.012  1.1559 -1.2241  0.3027
   80SLPC  C215 7419   2.657   1.641   8.197  0.5157 -0.0410  1.0316
   80SLPC  H15R 7420   2.754   1.619   8.246  0.2372 -1.0216  1.1570
   80SLPC  H15S 7421   2.589   1.563   8.237 -1.2339  0.2192 -1.2032
   80SLPC  C216 7422   2.589   1.781   8.219  0.4662 -0.3172  0.0574
   80SLPC  H16R 7423   2.499   1.785   8.154  0.8693 -0.2301 -0.5079
   80SLPC  H16S 7424   2.656   1.868   8.200 -0.0564  0.0737  0.0012
   80SLPC  C217 7425   2.540   1.786   8.362  0.1923 -0.3181 -0.3559
   80SLPC  H17R 7426   2.625   1.776   8.432 -0.3846 -2.2912  0.1331
   80SLPC  H17S 7427   2.473   1.702   8.387 -3.3927  2.0789 -1.1698
   80SLPC  C218 7428   2.454   1.911   8.392  0.0422  0.4545  0.0257
   80SLPC  H18R 7429   2.378   1.903   8.473  1.1065 -0.3211  0.9819
   80SLPC  H18S 7430   2.406   1.939   8.296  0.2266 -0.5639 -0.3832
   80SLPC  H18T 7431   2.518   2.000   8.408 -1.2018  1.0608  2.0142
   80SLPC   C33 7432   2.493   2.093   7.080 -0.0324 -0.0368  0.7351
   80SLPC   H3X 7433   2.468   2.193   7.040  0.3318  0.5766  1.9848
   80SLPC   H3Y 7434   2.604   2.095   7.084 -0.0316 -1.1474  2.0238
   80SLPC   C34 7435   2.430   2.111   7.224 -0.9841 -0.0738  0.0765
   80SLPC   H4X 7436   2.320   2.108   7.215 -0.8201 -2.0253 -2.1163
   80SLPC   H4Y 7437   2.475   2.202   7.272  0.6513 -1.1458  0.6854
   80SLPC   C35 7438   2.462   1.994   7.320  0.2210  0.1641 -0.6124
   80SLPC   H5X 7439   2.564   1.954   7.303  0.7820  0.7538  1.1398
   80SLPC   H5Y 7440   2.388   1.911   7.314  1.5802 -1.0267 -1.6267
   80SLPC   C36 7441   2.457   2.020   7.472 -0.1746 -0.4075 -0.1344
   80SLPC   H6X 7442   2.520   2.108   7.496  0.7840 -0.2103 -2.9338
   80SLPC   H6Y 7443   2.513   1.938   7.521 -2.5518 -0.6987  2.3272
   80SLPC   C37 7444   2.315   2.031   7.516 -0.0025  0.3606 -0.1962
   80SLPC   H7X 7445   2.276   1.928   7.498  1.0533 -0.1189  0.1689
   80SLPC   H7Y 7446   2.266   2.108   7.454  1.5357  0.2863 -1.5580
   80SLPC   C38 7447   2.297   2.065   7.659  0.5174 -0.3413 -0.2144
   80SLPC   H8X 7448   2.193   2.101   7.670  0.5915  0.3262 -1.4513
   80SLPC   H8Y 7449   2.358   2.154   7.686 -0.6450  0.6097 -0.6066
   80SLPC   C39 7450   2.325   1.941   7.759  0.0350 -0.1088 -0.3447
   80SLPC   H9X 7451   2.427   1.911   7.730  0.7587  0.6756  1.2291
   80SLPC   H9Y 7452   2.252   1.863   7.729 -0.4648 -0.4362  1.6004
   80SLPC  C310 7453   2.317   1.972   7.905  0.5120  0.2666 -0.6676
   80SLPC  H10X 7454   2.411   2.029   7.921  2.6191 -2.9238 -0.7397
   80SLPC  H10Y 7455   2.342   1.877   7.957 -1.2090 -0.3018 -0.8099
   80SLPC  C311 7456   2.187   2.030   7.964 -0.6348  0.2442  0.0853
   80SLPC  H11X 7457   2.109   1.957   7.934 -1.5085  0.5065  1.6110
   80SLPC  H11Y 7458   2.179   2.128   7.913 -2.7103  1.3629  2.3355
   80SLPC  C312 7459   2.183   2.036   8.114 -0.1335 -0.1843  0.2900
   80SLPC  H12X 7460   2.263   2.106   8.148 -0.9608  1.3382 -0.8041
   80SLPC  H12Y 7461   2.206   1.929   8.135 -2.6119 -0.5876  1.2580
   80SLPC  C313 7462   2.050   2.074   8.159  0.7573  0.0721 -0.2594
   80SLPC  H13X 7463   1.973   2.023   8.097 -0.6070 -0.5620  1.8427
   80SLPC  H13Y 7464   2.026   2.182   8.144 -2.2746 -0.3147  0.9154
   80SLPC  C314 7465   2.024   2.042   8.308  0.2393 -0.2525 -0.4243
   80SLPC  H14X 7466   2.078   2.126   8.357  2.2455 -2.0470  0.6292
   80SLPC  H14Y 7467   2.073   1.950   8.347 -0.8432 -0.4470  0.5357
   80SLPC  C315 7468   1.876   2.047   8.340  0.2204  0.1138 -0.1508
   80SLPC  H15X 7469   1.851   2.045   8.448 -0.7448  0.2189 -0.3649
   80SLPC  H15Y 7470   1.822   1.963   8.293  0.3260  1.2072 -2.3466
   80SLPC  C316 7471   1.797   2.169   8.288  1.0126 -0.5545 -0.0162
   80SLPC  H16X 7472   1.802   2.164   8.177 -1.0525 -0.3727 -0.1631
   80SLPC  H16Y 7473   1.859   2.256   8.320 -0.3638  1.1647 -1.7313
   80SLPC  C317 7474   1.652   2.188   8.339  0.3390  0.2735  0.1152
   80SLPC  H17X 7475   1.646   2.176   8.449  0.6644 -0.0737  0.0971
   80SLPC  H17Y 7476   1.599   2.101   8.292  1.9747 -0.4401 -0.4755
   80SLPC  C318 7477   1.573   2.318   8.320  0.3241 -0.6249 -0.2951
   80SLPC  H18X 7478   1.491   2.324   8.395 -0.4565 -2.4955 -0.9144
   80SLPC  H18Y 7479   1.519   2.332   8.224 -1.8052  2.4099  1.2082
   80SLPC  H18Z 7480   1.631   2.412   8.319  0.6390 -0.7546 -3.1875
   81SAPS     N 7481   1.756   6.540  10.923 -0.0721  0.6260  0.2046
   81SAPS   HN1 7482   1.765   6.508  10.825  0.2151  2.3951 -0.3771
   81SAPS   HN2 7483   1.782   6.640  10.935  0.0725  0.6716 -0.4624
   81SAPS   HN3 7484   1.827   6.479  10.969 -0.5825  0.3386  0.6154
   81SAPS   C12 7485   1.617   6.537  10.965  0.3477  0.0727  0.0900
   81SAPS  H12A 7486   1.587   6.434  10.951  2.0339 -0.6857  1.6113
   81SAPS   C13 7487   1.595   6.562  11.111  0.0824  0.4462  0.5019
   81SAPS  O13A 7488   1.687   6.586  11.190  0.2791  0.3592  0.2059
   81SAPS  O13B 7489   1.473   6.563  11.141  0.2245  0.2205 -0.7881
   81SAPS   C11 7490   1.526   6.646  10.884  0.5770 -0.6316 -0.1937
   81SAPS  H11A 7491   1.420   6.643  10.917  0.2185  1.9189 -0.8565
   81SAPS  H11B 7492   1.514   6.618  10.777  1.9215 -1.0261 -0.2562
   81SAPS     P 7493   1.696   6.854  10.877 -0.0898 -0.3469 -0.3882
   81SAPS   O13 7494   1.675   7.004  10.885  0.2494 -0.2965  0.0467
   81SAPS   O14 7495   1.802   6.798  10.962 -0.2745  0.8387  0.3093
   81SAPS   O12 7496   1.561   6.783  10.915  0.3295 -0.6493  0.3952
   81SAPS   O11 7497   1.722   6.818  10.732  0.2163 -0.1109 -0.2218
   81SAPS    C1 7498   1.644   6.831  10.619 -0.3570  0.2666 -0.0382
   81SAPS    HA 7499   1.578   6.742  10.627  1.6271 -1.4934 -2.0929
   81SAPS    HB 7500   1.575   6.918  10.626 -0.4369  0.0699  3.0261
   81SAPS    C2 7501   1.724   6.819  10.489 -0.0652  1.3229  0.1999
   81SAPS    HS 7502   1.773   6.722  10.512 -1.2857 -0.1889 -2.9821
   81SAPS   O21 7503   1.821   6.922  10.481 -0.9436  0.2383  0.4315
   81SAPS   C21 7504   1.936   6.886  10.413 -0.0442 -0.6636 -0.2479
   81SAPS   O22 7505   1.951   6.777  10.354  0.4095 -0.3919  0.2629
   81SAPS   C22 7506   2.042   6.994  10.405 -0.1282  0.3351  0.1441
   81SAPS   H2R 7507   2.028   7.074  10.480  2.1526  0.2777  0.7089
   81SAPS   H2S 7508   2.144   6.958  10.431 -0.5016 -1.1449 -0.3531
   81SAPS    C3 7509   1.623   6.811  10.366  0.4216  0.1632  0.3037
   81SAPS    HX 7510   1.568   6.907  10.363  0.9527  0.4515 -1.3546
   81SAPS    HY 7511   1.552   6.727  10.383  0.0664  0.4100  0.0498
   81SAPS   O31 7512   1.698   6.785  10.246 -0.2961  0.2525 -0.0227
   81SAPS   C31 7513   1.705   6.663  10.197  0.4418  0.1244  0.1024
   81SAPS   O32 7514   1.669   6.560  10.255 -0.1487  0.5575  0.0398
   81SAPS   C32 7515   1.766   6.658  10.062 -0.2841 -0.4560 -0.0999
   81SAPS   H2X 7516   1.874   6.638  10.078  0.2719  1.0219 -1.7548
   81SAPS   H2Y 7517   1.761   6.756  10.009  0.9061 -1.9623 -3.2439
   81SAPS   C23 7518   2.039   7.046  10.259 -0.3246 -0.0316 -1.0131
   81SAPS   H3R 7519   2.072   6.966  10.189 -0.1331 -1.7805  0.9669
   81SAPS   H3S 7520   2.116   7.126  10.262  0.1353 -0.4902  0.5373
   81SAPS   C24 7521   1.907   7.115  10.226 -0.0934 -0.4406  1.0189
   81SAPS   H4R 7522   1.857   7.152  10.318 -1.9031 -1.3589  0.4617
   81SAPS   H4S 7523   1.843   7.039  10.176 -0.3836  0.5295 -0.1518
   81SAPS   C25 7524   1.918   7.229  10.124  0.8607 -0.2257  0.4607
   81SAPS   H5R 7525   1.908   7.328  10.172  3.1559  0.2831  0.0231
   81SAPS   C26 7526   1.939   7.222   9.997  0.1315 -0.3801  0.4673
   81SAPS   H6R 7527   1.956   7.319   9.948 -0.3536 -0.4827  0.0809
   81SAPS   C27 7528   1.952   7.099   9.908 -0.2026  0.0091 -0.4575
   81SAPS   H7R 7529   1.967   7.002   9.960  2.9043  1.2192  1.1950
   81SAPS   H7S 7530   2.045   7.110   9.847  1.8921  3.1068  2.8734
   81SAPS   C28 7531   1.831   7.101   9.819 -0.0099 -0.2572  0.0403
   81SAPS   H8R 7532   1.742   7.130   9.876  0.5590 -0.0410  0.8400
   81SAPS   C29 7533   1.822   7.090   9.686  0.2134  0.2475  0.1379
   81SAPS   H9R 7534   1.722   7.084   9.640  0.5501 -1.0388 -0.4612
   81SAPS  C210 7535   1.931   7.065   9.586 -0.1790 -0.9911  0.4203
   81SAPS  H10R 7536   1.910   6.969   9.533 -0.6078 -0.5735 -0.1907
   81SAPS  H10S 7537   2.031   7.053   9.633 -0.2920 -1.0191  0.6533
   81SAPS  C211 7538   1.951   7.173   9.490 -0.0228  0.4394 -0.5631
   81SAPS  H11R 7539   2.020   7.245   9.537 -0.4593 -0.5061  1.6279
   81SAPS  C212 7540   1.899   7.179   9.369 -0.0004 -0.3482  0.3276
   81SAPS  H12R 7541   1.926   7.268   9.311 -1.2234 -0.8492 -1.1022
   81SAPS  C213 7542   1.795   7.101   9.304  0.1542  0.4139 -0.6588
   81SAPS  H13R 7543   1.750   7.171   9.231  0.5278  1.4848  0.1156
   81SAPS  H13S 7544   1.721   7.066   9.380  1.7406 -2.6804 -0.3520
   81SAPS  C214 7545   1.847   6.984   9.230  0.2510  0.2061  0.1839
   81SAPS  H14R 7546   1.956   6.971   9.231  0.1999 -0.8416 -1.8765
   81SAPS  C215 7547   1.780   6.887   9.164 -0.6745  0.1764 -0.1496
   81SAPS  H15R 7548   1.843   6.803   9.132  0.9850  0.5371  1.9505
   81SAPS  C216 7549   1.628   6.863   9.143 -0.5605 -0.2077 -0.2152
   81SAPS  H16R 7550   1.573   6.935   9.207  1.9770  0.9009  0.8751
   81SAPS  H16S 7551   1.606   6.756   9.166 -1.8658  0.2623  0.8372
   81SAPS  C217 7552   1.582   6.891   9.000  0.1062  1.0665 -1.0095
   81SAPS  H17R 7553   1.475   6.863   8.991 -0.0051  0.3605  1.6441
   81SAPS  H17S 7554   1.641   6.823   8.935 -1.0492 -0.9159 -0.0811
   81SAPS  C218 7555   1.588   7.037   8.945  0.3486 -0.3680 -0.3560
   81SAPS  H18R 7556   1.697   7.045   8.926  0.0166  0.9601 -2.0021
   81SAPS  H18S 7557   1.554   7.111   9.021 -0.7800 -0.0188 -1.1639
   81SAPS  C219 7558   1.501   7.051   8.818  0.2875 -0.5575 -0.1037
   81SAPS  H19R 7559   1.398   7.010   8.830 -0.4119  0.3402 -2.5149
   81SAPS  H19S 7560   1.538   6.977   8.743 -1.1335 -2.7186  1.1995
   81SAPS  C220 7561   1.496   7.189   8.760 -0.6657  0.5049 -0.1000
   81SAPS  H20R 7562   1.421   7.209   8.681 -1.5241  2.4822  1.1254
   81SAPS  H20S 7563   1.594   7.226   8.723  0.0232 -1.3664 -0.2165
   81SAPS  H20T 7564   1.451   7.254   8.839 -0.6019 -3.0062  3.1011
   81SAPS   C33 7565   1.717   6.549   9.965 -1.0638 -0.2613  0.4716
   81SAPS   H3X 7566   1.606   6.550   9.961 -1.0288  0.4599 -1.4620
   81SAPS   H3Y 7567   1.764   6.462  10.016  2.5213  1.7771  0.9728
   81SAPS   C34 7568   1.777   6.554   9.827  0.0865  0.7456 -0.3891
   81SAPS   H4X 7569   1.766   6.659   9.793 -5.4175 -0.0767 -2.0955
   81SAPS   H4Y 7570   1.723   6.499   9.748  2.2493  0.7174 -1.9473
   81SAPS   C35 7571   1.923   6.505   9.821  0.8484 -0.0239  0.1469
   81SAPS   H5X 7572   1.937   6.402   9.858 -1.2924  0.0420  1.3387
   81SAPS   H5Y 7573   1.996   6.571   9.872  2.8316 -1.0199 -1.2825
   81SAPS   C36 7574   1.971   6.497   9.682  0.1122 -0.5287 -0.1132
   81SAPS   H6X 7575   1.894   6.439   9.626 -1.3552  1.8148 -0.6417
   81SAPS   H6Y 7576   2.065   6.439   9.666  1.2646  1.2037  0.1718
   81SAPS   C37 7577   1.984   6.637   9.617  0.1904 -0.2903  0.1435
   81SAPS   H7X 7578   2.059   6.699   9.670  0.6696 -1.3743  0.7727
   81SAPS   H7Y 7579   1.891   6.697   9.610  1.0151  0.9722 -0.2687
   81SAPS   C38 7580   2.043   6.629   9.474 -1.0763  0.2283  0.4478
   81SAPS   H8X 7581   2.149   6.595   9.483 -0.7161 -0.2094 -3.4131
   81SAPS   H8Y 7582   2.053   6.730   9.427 -0.0377 -0.5045 -1.0128
   81SAPS   C39 7583   1.963   6.544   9.372 -0.6196 -0.3420 -1.0968
   81SAPS   H9X 7584   1.859   6.583   9.377  0.8165  3.8028  1.0568
   81SAPS   H9Y 7585   1.965   6.438   9.406 -1.1353 -0.1471 -0.4368
   81SAPS  C310 7586   2.030   6.534   9.234 -0.1370 -0.2127 -0.1027
   81SAPS  H10X 7587   2.131   6.489   9.249 -0.4950 -1.2709 -0.8067
   81SAPS  H10Y 7588   2.058   6.633   9.192 -2.9795  0.7175 -0.0342
   81SAPS  C311 7589   1.940   6.473   9.127 -1.5972 -0.5771  0.2991
   81SAPS  H11X 7590   1.850   6.538   9.118  0.2125  2.3335  1.7405
   81SAPS  H11Y 7591   1.924   6.369   9.163  0.6084 -1.2435 -0.4678
   81SAPS  C312 7592   2.008   6.454   8.984  0.6637 -0.4096 -0.1778
   81SAPS  H12X 7593   1.961   6.369   8.930  0.4137 -1.5865  1.8048
   81SAPS  H12Y 7594   2.113   6.420   8.994  0.3273 -3.0844 -3.7747
   81SAPS  C313 7595   2.013   6.578   8.889  0.4271  0.0029  0.0900
   81SAPS  H13X 7596   2.073   6.660   8.933  0.4816 -0.5303  1.0434
   81SAPS  H13Y 7597   1.913   6.624   8.876  0.2465 -0.2898  0.4097
   81SAPS  C314 7598   2.093   6.543   8.762 -0.4910  0.7422 -0.0376
   81SAPS  H14X 7599   2.047   6.452   8.718  0.0191  0.9363 -1.0031
   81SAPS  H14Y 7600   2.196   6.529   8.801 -0.7353  1.7551  1.0238
   81SAPS  C315 7601   2.101   6.657   8.663  0.1443  0.0477  0.0415
   81SAPS  H15X 7602   2.117   6.753   8.717 -2.0453  1.1072 -1.0823
   81SAPS  H15Y 7603   2.007   6.668   8.605  1.0111 -0.4786 -1.5063
   81SAPS  C316 7604   2.219   6.649   8.562 -0.0769 -0.3893 -1.1751
   81SAPS  H16X 7605   2.305   6.593   8.604 -0.8081 -2.2217 -2.0033
   81SAPS  H16Y 7606   2.262   6.751   8.547 -0.2174 -0.0090  0.8099
   81SAPS  C317 7607   2.173   6.593   8.423  0.1139  1.1486 -0.0970
   81SAPS  H17X 7608   2.104   6.670   8.382 -1.6036 -0.7644 -0.9577
   81SAPS  H17Y 7609   2.132   6.490   8.425  2.8458 -0.2946 -4.3767
   81SAPS  C318 7610   2.295   6.580   8.340 -0.4999  0.2603  0.2435
   81SAPS  H18X 7611   2.373   6.525   8.397 -0.2516 -1.5755 -1.7284
   81SAPS  H18Y 7612   2.350   6.676   8.328 -1.1131  0.7429  1.1686
   81SAPS  H18Z 7613   2.262   6.538   8.242 -0.3281 -0.0195  0.3031
   82SAPS     N 7614   6.572   4.740  11.099 -0.7476 -0.0010 -0.7389
   82SAPS   HN1 7615   6.571   4.843  11.114 -1.2211 -0.2364  1.0607
   82SAPS   HN2 7616   6.530   4.724  11.005  0.1738  2.2006 -1.5873
   82SAPS   HN3 7617   6.513   4.704  11.177  1.7124  1.2280  1.8710
   82SAPS   C12 7618   6.712   4.691  11.107  0.0638  0.2565  0.6090
   82SAPS  H12A 7619   6.758   4.749  11.185 -0.1030  0.9732  0.1816
   82SAPS   C13 7620   6.715   4.535  11.147  0.1312  0.4770 -1.0231
   82SAPS  O13A 7621   6.598   4.480  11.168 -0.7150 -0.5711  0.2712
   82SAPS  O13B 7622   6.825   4.471  11.161  0.0631  0.7303 -0.2646
   82SAPS   C11 7623   6.798   4.704  10.973  0.5298  0.0155 -0.1019
   82SAPS  H11A 7624   6.740   4.639  10.904 -4.7251  1.9554  1.9594
   82SAPS  H11B 7625   6.904   4.673  10.978 -0.0087 -1.8439  0.4066
   82SAPS     P 7626   6.841   4.894  10.804  0.1741  0.0678 -0.1174
   82SAPS   O13 7627   6.787   5.025  10.770  0.0578  0.3489  0.5436
   82SAPS   O14 7628   6.986   4.889  10.828  0.2664  0.2582 -0.1128
   82SAPS   O12 7629   6.772   4.841  10.937  0.0100 -0.2579  0.4067
   82SAPS   O11 7630   6.804   4.788  10.692 -0.1718 -0.4396 -0.4592
   82SAPS    C1 7631   6.663   4.768  10.649 -0.4428 -0.1051  0.0403
   82SAPS    HA 7632   6.632   4.671  10.693  0.3897 -0.3723  0.0353
   82SAPS    HB 7633   6.589   4.842  10.688 -1.1142 -1.3450  1.2318
   82SAPS    C2 7634   6.641   4.786  10.498 -0.4645  0.3620  0.9534
   82SAPS    HS 7635   6.534   4.811  10.480 -0.5219 -0.4901  0.0270
   82SAPS   O21 7636   6.681   4.663  10.429  0.6729 -0.5473 -0.0358
   82SAPS   C21 7637   6.626   4.546  10.447  0.3672 -0.1594  0.3831
   82SAPS   O22 7638   6.526   4.528  10.511  0.3314 -0.0332  0.2210
   82SAPS   C22 7639   6.704   4.439  10.375 -0.3912 -0.1945  0.1943
   82SAPS   H2R 7640   6.687   4.459  10.268  1.9613 -2.8738 -0.8197
   82SAPS   H2S 7641   6.813   4.456  10.392 -0.4546 -0.7231  1.2189
   82SAPS    C3 7642   6.714   4.910  10.440 -0.6696  0.2721 -0.4704
   82SAPS    HX 7643   6.825   4.922  10.447 -0.5647 -0.1296 -1.3678
   82SAPS    HY 7644   6.674   4.992  10.504 -0.6747 -0.2189  0.1669
   82SAPS   O31 7645   6.677   4.922  10.306 -0.2303 -0.3431  0.5168
   82SAPS   C31 7646   6.763   4.882  10.211 -0.2559 -0.1574  0.6407
   82SAPS   O32 7647   6.877   4.843  10.245  0.5279 -0.1528  0.1445
   82SAPS   C32 7648   6.695   4.864  10.075  0.1101  0.0149 -0.4212
   82SAPS   H2X 7649   6.649   4.963  10.053  0.5069  0.4359  0.5583
   82SAPS   H2Y 7650   6.605   4.800  10.089  0.6496 -0.8572 -0.8390
   82SAPS   C23 7651   6.658   4.300  10.408 -0.0843 -0.1818  0.0292
   82SAPS   H3R 7652   6.547   4.296  10.409 -0.1041 -0.0716  2.0214
   82SAPS   H3S 7653   6.689   4.277  10.512  0.5035 -1.9752 -0.5068
   82SAPS   C24 7654   6.723   4.203  10.307 -0.0407  0.8311 -0.1555
   82SAPS   H4R 7655   6.693   4.107  10.354  0.0660  1.4934  1.3010
   82SAPS   H4S 7656   6.828   4.227  10.336 -0.2855  0.5320  1.0457
   82SAPS   C25 7657   6.678   4.221  10.169 -0.1473  0.8517  0.3556
   82SAPS   H5R 7658   6.574   4.186  10.162  0.9470 -2.8857  0.5366
   82SAPS   C26 7659   6.743   4.262  10.059  0.0250  0.0583 -0.3725
   82SAPS   H6R 7660   6.684   4.262   9.967 -0.2459 -1.0988 -0.2174
   82SAPS   C27 7661   6.890   4.302  10.055  0.0859  0.3578 -1.1749
   82SAPS   H7R 7662   6.933   4.239   9.975 -0.3192 -1.1522 -0.2450
   82SAPS   H7S 7663   6.942   4.252  10.139 -1.0883  0.9911 -0.0208
   82SAPS   C28 7664   6.946   4.444  10.048  0.6382 -0.3160  0.4430
   82SAPS   H8R 7665   6.945   4.499  10.143  0.2297  1.0691 -0.3420
   82SAPS   C29 7666   7.001   4.508   9.945 -0.0824  0.2906  0.4773
   82SAPS   H9R 7667   7.014   4.617   9.946 -0.4960  0.3483 -0.2647
   82SAPS  C210 7668   7.001   4.452   9.805  0.0370 -0.0284  0.4547
   82SAPS  H10R 7669   6.961   4.534   9.742 -2.2320  0.3154  2.2241
   82SAPS  H10S 7670   6.936   4.363   9.790 -1.3109  0.6531  1.9409
   82SAPS  C211 7671   7.140   4.411   9.768  0.1917 -0.2057 -0.0048
   82SAPS  H11R 7672   7.185   4.334   9.833 -3.4493 -0.0449  3.0398
   82SAPS  C212 7673   7.192   4.443   9.652 -0.2769  0.4560 -0.1256
   82SAPS  H12R 7674   7.288   4.395   9.628 -0.1479  0.4258  0.4249
   82SAPS  C213 7675   7.131   4.520   9.539  0.0611  0.4671 -0.7368
   82SAPS  H13R 7676   7.210   4.539   9.463 -0.6890  3.1238 -0.9698
   82SAPS  H13S 7677   7.086   4.611   9.585 -0.4073 -0.8862  1.6130
   82SAPS  C214 7678   7.018   4.446   9.473 -0.1307  0.0989 -0.4196
   82SAPS  H14R 7679   6.987   4.356   9.528 -2.3904  2.3589  2.2944
   82SAPS  C215 7680   6.945   4.491   9.369 -0.3295  0.1583 -0.0428
   82SAPS  H15R 7681   6.869   4.425   9.325  0.8696 -1.2232 -0.1375
   82SAPS  C216 7682   6.982   4.619   9.291 -0.0296  0.2831 -0.5118
   82SAPS  H16R 7683   7.072   4.668   9.336  0.3012 -2.2687  1.8792
   82SAPS  H16S 7684   6.898   4.692   9.291  0.4575  0.8767 -1.5690
   82SAPS  C217 7685   7.026   4.595   9.142 -0.2592 -0.4158 -0.3625
   82SAPS  H17R 7686   6.947   4.526   9.105 -1.8129  1.4323 -0.6872
   82SAPS  H17S 7687   7.125   4.546   9.131 -0.1192 -0.0374 -0.8360
   82SAPS  C218 7688   7.025   4.724   9.071  0.6901 -0.4324  0.4646
   82SAPS  H18R 7689   7.117   4.777   9.103 -1.0103  3.5349 -0.6601
   82SAPS  H18S 7690   6.931   4.783   9.080  0.8293 -0.0201 -0.6584
   82SAPS  C219 7691   7.049   4.720   8.922  0.3705 -0.3869  0.0490
   82SAPS  H19R 7692   6.979   4.646   8.878 -1.2668  0.7076  0.6822
   82SAPS  H19S 7693   7.151   4.678   8.916  1.3607  1.6710  1.3742
   82SAPS  C220 7694   7.052   4.857   8.848 -0.7242  0.0293 -0.3543
   82SAPS  H20R 7695   7.136   4.903   8.903  1.4242 -3.3171 -0.5354
   82SAPS  H20S 7696   6.958   4.915   8.862  0.4444  1.7805  0.6136
   82SAPS  H20T 7697   7.072   4.850   8.739  0.4309  0.8160 -0.2044
   82SAPS   C33 7698   6.781   4.823   9.959  0.0341  0.2130  0.0042
   82SAPS   H3X 7699   6.722   4.791   9.870 -1.0246  0.4401  0.6099
   82SAPS   H3Y 7700   6.835   4.729   9.985 -1.9319 -0.8801  0.3217
   82SAPS   C34 7701   6.887   4.932   9.930 -0.0212  0.1215 -0.2273
   82SAPS   H4X 7702   6.962   4.938  10.012 -1.2426 -1.7163  1.0992
   82SAPS   H4Y 7703   6.834   5.030   9.928 -2.7132 -1.2549 -0.7532
   82SAPS   C35 7704   6.941   4.922   9.781 -0.2656 -0.3023 -0.5230
   82SAPS   H5X 7705   6.999   4.829   9.762 -0.5768 -0.3792 -1.1065
   82SAPS   H5Y 7706   7.016   5.003   9.770 -0.5745 -0.0144 -0.5180
   82SAPS   C36 7707   6.835   4.940   9.678 -0.0953  0.2478  0.7430
   82SAPS   H6X 7708   6.809   5.048   9.682  0.0943  0.3236  0.0431
   82SAPS   H6Y 7709   6.741   4.883   9.693  0.9252 -1.2382  1.7385
   82SAPS   C37 7710   6.877   4.902   9.536 -0.1983 -0.3834 -0.2831
   82SAPS   H7X 7711   6.889   4.792   9.522 -1.5618 -0.5975  0.1033
   82SAPS   H7Y 7712   6.977   4.947   9.525 -0.1397 -0.5724 -0.5346
   82SAPS   C38 7713   6.794   4.956   9.417  0.0516 -0.2437 -0.1230
   82SAPS   H8X 7714   6.741   5.044   9.458  0.5552 -0.7801  1.7764
   82SAPS   H8Y 7715   6.729   4.876   9.376  2.3364 -1.8390 -0.8864
   82SAPS   C39 7716   6.881   5.026   9.317  0.1803  0.5618 -0.0060
   82SAPS   H9X 7717   6.965   4.957   9.294  2.0228  2.2554  1.2466
   82SAPS   H9Y 7718   6.917   5.120   9.364 -0.1408  0.0353  1.3477
   82SAPS  C310 7719   6.799   5.072   9.195  0.0338  0.2877  0.6540
   82SAPS  H10X 7720   6.729   5.150   9.232  2.4073  2.8767 -0.0072
   82SAPS  H10Y 7721   6.747   4.986   9.146 -0.9989  1.1400  0.2159
   82SAPS  C311 7722   6.886   5.144   9.089 -0.2205  0.1393  0.0666
   82SAPS  H11X 7723   6.953   5.066   9.047 -1.8397 -1.7275  0.7447
   82SAPS  H11Y 7724   6.948   5.225   9.132  0.2824  0.8240 -1.8466
   82SAPS  C312 7725   6.802   5.213   8.975 -0.5339  0.0291  0.0503
   82SAPS  H12X 7726   6.731   5.288   9.015  0.4673  1.8134 -1.3701
   82SAPS  H12Y 7727   6.745   5.125   8.938 -0.8903  0.4022 -0.3057
   82SAPS  C313 7728   6.898   5.278   8.870 -0.1846  0.6278 -0.0791
   82SAPS  H13X 7729   6.999   5.233   8.884  0.3476  2.1640  1.4305
   82SAPS  H13Y 7730   6.911   5.385   8.899 -2.3553  0.5465  1.5115
   82SAPS  C314 7731   6.835   5.259   8.737 -0.0779  0.2482  0.9948
   82SAPS  H14X 7732   6.769   5.170   8.725 -2.1676  1.7740  0.6351
   82SAPS  H14Y 7733   6.927   5.250   8.674 -0.4265  4.2510 -0.3554
   82SAPS  C315 7734   6.781   5.385   8.680 -0.1384 -0.1827 -0.0638
   82SAPS  H15X 7735   6.743   5.366   8.577 -0.2289 -1.0152  0.1133
   82SAPS  H15Y 7736   6.865   5.457   8.685 -0.3689  0.2327 -1.7444
   82SAPS  C316 7737   6.655   5.444   8.755  0.0490  0.4909  0.5061
   82SAPS  H16X 7738   6.671   5.478   8.860 -0.2033  0.1636  0.6509
   82SAPS  H16Y 7739   6.581   5.361   8.755 -1.2145  1.5612 -0.8237
   82SAPS  C317 7740   6.586   5.565   8.695 -0.0459 -0.2572  0.3696
   82SAPS  H17X 7741   6.667   5.641   8.696 -0.3074  0.0541 -0.9038
   82SAPS  H17Y 7742   6.507   5.604   8.764 -0.8445 -0.9857 -0.1160
   82SAPS  C318 7743   6.529   5.532   8.558  0.0886  0.2655 -0.6268
   82SAPS  H18X 7744   6.508   5.627   8.504  1.5508  0.7927 -0.3188
   82SAPS  H18Y 7745   6.436   5.472   8.563 -0.3148  0.8609 -0.8867
   82SAPS  H18Z 7746   6.603   5.477   8.495  0.8506  0.3793  0.1550
   83SAPS     N 7747   1.506   0.434  10.920 -0.5687  0.3411 -0.0128
   83SAPS   HN1 7748   1.574   0.355  10.918  1.4682  1.8962  1.9688
   83SAPS   HN2 7749   1.417   0.402  10.877 -0.4690  0.3732 -0.2496
   83SAPS   HN3 7750   1.557   0.503  10.861  0.6118 -1.9520 -1.8578
   83SAPS   C12 7751   1.477   0.476  11.053  0.3973 -0.3920 -0.3025
   83SAPS  H12A 7752   1.410   0.560  11.045  0.2081 -0.6078 -1.0949
   83SAPS   C13 7753   1.410   0.371  11.142  0.1301 -0.1127 -0.3164
   83SAPS  O13A 7754   1.351   0.268  11.094 -0.0242 -0.0998 -0.1127
   83SAPS  O13B 7755   1.383   0.409  11.259  0.4368 -0.1670  0.1336
   83SAPS   C11 7756   1.609   0.521  11.127 -0.2682 -0.1743  1.0308
   83SAPS  H11A 7757   1.673   0.430  11.131  1.3013  0.8936  0.8874
   83SAPS  H11B 7758   1.592   0.548  11.234  3.2303 -0.3151  1.7331
   83SAPS     P 7759   1.702   0.763  11.086  0.5282  0.4449 -0.5743
   83SAPS   O13 7760   1.593   0.806  11.180 -0.1626 -0.3667  0.5531
   83SAPS   O14 7761   1.838   0.777  11.133  0.0468  0.9099 -0.2711
   83SAPS   O12 7762   1.680   0.616  11.044 -0.0664 -0.9283  0.2847
   83SAPS   O11 7763   1.696   0.844  10.954  0.0425  0.2167 -0.3190
   83SAPS    C1 7764   1.578   0.900  10.899 -1.1058  0.4118  0.2390
   83SAPS    HA 7765   1.491   0.834  10.920 -1.4975 -0.2134 -2.8981
   83SAPS    HB 7766   1.571   1.004  10.939  3.0954  1.4974 -1.2944
   83SAPS    C2 7767   1.589   0.901  10.746 -0.3690  0.7956 -0.0938
   83SAPS    HS 7768   1.577   0.797  10.707  1.5990  1.1309 -1.8177
   83SAPS   O21 7769   1.711   0.958  10.696 -0.1223  0.5690  0.5058
   83SAPS   C21 7770   1.792   0.869  10.633 -0.3036  0.5448 -0.1084
   83SAPS   O22 7771   1.775   0.752  10.613 -0.3151 -0.1664  0.1239
   83SAPS   C22 7772   1.935   0.938  10.607  0.4221  0.3848  0.2091
   83SAPS   H2R 7773   1.919   1.045  10.582 -1.7505 -0.4590 -2.5990
   83SAPS   H2S 7774   2.005   0.916  10.691  0.8553  1.0432  0.0211
   83SAPS    C3 7775   1.481   0.987  10.689  0.5371 -0.3760  0.0887
   83SAPS    HX 7776   1.516   1.092  10.697 -4.7877  1.7411 -0.6294
   83SAPS    HY 7777   1.391   0.979  10.753  1.2665 -1.6065  1.0186
   83SAPS   O31 7778   1.460   0.970  10.552 -0.3349 -0.1080 -0.1070
   83SAPS   C31 7779   1.362   0.883  10.527 -0.2455  0.1839  0.9046
   83SAPS   O32 7780   1.302   0.820  10.614  0.6041  0.9440 -0.2325
   83SAPS   C32 7781   1.335   0.867  10.378  0.6026 -0.4500  0.5769
   83SAPS   H2X 7782   1.415   0.825  10.313 -1.4315 -0.3016 -2.1826
   83SAPS   H2Y 7783   1.324   0.974  10.350 -1.7512 -0.3686  1.5898
   83SAPS   C23 7784   2.023   0.873  10.494 -0.0824 -0.1318 -0.6195
   83SAPS   H3R 7785   2.040   0.769  10.528 -3.6599 -0.4651  0.5142
   83SAPS   H3S 7786   2.112   0.940  10.498 -0.9102  0.9716 -0.2993
   83SAPS   C24 7787   1.969   0.876  10.353  0.5360 -0.3398  0.3912
   83SAPS   H4R 7788   2.058   0.867  10.287  1.6708 -1.6547  2.0218
   83SAPS   H4S 7789   1.939   0.983  10.340 -0.3022 -0.5136  0.8762
   83SAPS   C25 7790   1.868   0.766  10.319 -0.0269 -1.4062  0.2059
   83SAPS   H5R 7791   1.873   0.669  10.371 -0.8731 -0.9645  1.1544
   83SAPS   C26 7792   1.768   0.790  10.228  0.0182  0.3885  0.5867
   83SAPS   H6R 7793   1.697   0.706  10.224  0.3012  0.1894 -0.5325
   83SAPS   C27 7794   1.755   0.917  10.143 -0.5954 -0.2509 -0.2253
   83SAPS   H7R 7795   1.852   0.914  10.089 -0.4734 -0.4065 -0.0001
   83SAPS   H7S 7796   1.756   1.003  10.213  1.3815 -1.5625  1.5097
   83SAPS   C28 7797   1.637   0.900  10.047  0.2930 -0.0705 -0.5386
   83SAPS   H8R 7798   1.549   0.965  10.061 -0.4443 -0.8837 -1.2846
   83SAPS   C29 7799   1.631   0.849   9.919 -0.0623  0.7124 -0.0269
   83SAPS   H9R 7800   1.539   0.848   9.858  1.0535  1.7647 -1.8523
   83SAPS  C210 7801   1.750   0.782   9.854  0.0216  0.4657 -0.3092
   83SAPS  H10R 7802   1.815   0.735   9.930  0.1246 -1.4870 -1.5242
   83SAPS  H10S 7803   1.802   0.867   9.804 -0.1972  0.2110 -0.9903
   83SAPS  C211 7804   1.725   0.679   9.742 -0.7386  0.6174 -0.3963
   83SAPS  H11R 7805   1.771   0.583   9.769  1.8569  2.0581  0.7501
   83SAPS  C212 7806   1.673   0.694   9.617  0.5484 -0.2169  0.7684
   83SAPS  H12R 7807   1.654   0.609   9.551 -2.7212  1.3005 -0.4538
   83SAPS  C213 7808   1.630   0.825   9.547  0.4673 -0.1803  0.2009
   83SAPS  H13R 7809   1.558   0.880   9.610 -2.1971 -2.3415 -0.7751
   83SAPS  H13S 7810   1.570   0.806   9.455  0.7815 -0.1446 -0.0170
   83SAPS  C214 7811   1.746   0.909   9.524  0.6870  0.7788  0.9137
   83SAPS  H14R 7812   1.786   0.956   9.615  0.3566  1.9046  0.4953
   83SAPS  C215 7813   1.819   0.929   9.410  0.7908  0.2523  0.5663
   83SAPS  H15R 7814   1.907   0.994   9.405  2.6683 -2.2848 -2.8398
   83SAPS  C216 7815   1.785   0.875   9.270  0.2280 -0.8318  0.2433
   83SAPS  H16R 7816   1.808   0.961   9.203 -0.9774  0.0382  0.9151
   83SAPS  H16S 7817   1.677   0.855   9.254 -0.4160 -0.2380  3.2218
   83SAPS  C217 7818   1.880   0.761   9.244  0.6365 -0.5610  0.3131
   83SAPS  H17R 7819   1.855   0.675   9.309 -1.3980 -0.7987 -0.6862
   83SAPS  H17S 7820   1.987   0.790   9.244  0.7445 -0.9593  0.2957
   83SAPS  C218 7821   1.859   0.714   9.097  0.4105 -0.0791  0.3702
   83SAPS  H18R 7822   1.933   0.631   9.093  0.8545  0.3673 -1.7828
   83SAPS  H18S 7823   1.897   0.788   9.024 -0.4108  2.4460  2.3493
   83SAPS  C219 7824   1.722   0.655   9.070  0.9527  0.0917  0.2177
   83SAPS  H19R 7825   1.647   0.735   9.080  2.2893  1.3045  0.8876
   83SAPS  H19S 7826   1.691   0.570   9.135 -1.3616 -0.4313 -1.4529
   83SAPS  C220 7827   1.726   0.604   8.924  0.4165  0.2721 -0.2313
   83SAPS  H20R 7828   1.827   0.579   8.886  0.9734  0.4198  1.1186
   83SAPS  H20S 7829   1.674   0.669   8.849  1.9575  1.8867  0.0211
   83SAPS  H20T 7830   1.667   0.510   8.926  0.3241  0.2940 -1.2535
   83SAPS   C33 7831   1.204   0.793  10.351 -0.2391 -0.0729  0.0656
   83SAPS   H3X 7832   1.128   0.863  10.394  2.3576  2.5847  0.6550
   83SAPS   H3Y 7833   1.194   0.698  10.408 -1.5766 -1.5110 -2.4218
   83SAPS   C34 7834   1.182   0.763  10.204 -0.1967 -0.3766  0.7340
   83SAPS   H4X 7835   1.086   0.709  10.192  0.5941 -1.5454 -0.6719
   83SAPS   H4Y 7836   1.266   0.694  10.182  0.7203  0.7146  0.7530
   83SAPS   C35 7837   1.176   0.889  10.119  0.3538  0.1319  0.3834
   83SAPS   H5X 7838   1.278   0.930  10.100  0.8739 -1.7042 -1.2476
   83SAPS   H5Y 7839   1.111   0.975  10.145 -2.5656 -0.5558 -3.5800
   83SAPS   C36 7840   1.117   0.845   9.985  0.4531 -0.6113  0.3045
   83SAPS   H6X 7841   1.011   0.875   9.976 -0.4899 -3.1465  1.9351
   83SAPS   H6Y 7842   1.119   0.734   9.971  1.0808 -0.8193  1.8024
   83SAPS   C37 7843   1.190   0.900   9.857 -0.0477  0.0892  1.0819
   83SAPS   H7X 7844   1.293   0.860   9.858  0.3883  0.7255 -2.7255
   83SAPS   H7Y 7845   1.196   1.011   9.846 -0.8104  0.0487  0.1267
   83SAPS   C38 7846   1.123   0.860   9.723  0.1951  0.9912  0.0455
   83SAPS   H8X 7847   1.027   0.911   9.698  0.5474  0.5747 -2.4462
   83SAPS   H8Y 7848   1.092   0.753   9.727  0.6925  0.8720  1.0544
   83SAPS   C39 7849   1.210   0.884   9.601 -0.1797  0.1825  0.0649
   83SAPS   H9X 7850   1.295   0.813   9.611 -1.5671 -1.4828  0.3980
   83SAPS   H9Y 7851   1.244   0.990   9.608  0.0223  0.0900  0.5541
   83SAPS  C310 7852   1.139   0.866   9.469  0.9104  0.3998  0.2840
   83SAPS  H10X 7853   1.042   0.918   9.461  0.1698 -0.8787  0.5635
   83SAPS  H10Y 7854   1.127   0.757   9.450 -1.9532  0.6637  0.2065
   83SAPS  C311 7855   1.230   0.905   9.352 -0.2190  0.0702  0.2247
   83SAPS  H11X 7856   1.326   0.850   9.360  1.1064  2.3298  0.4868
   83SAPS  H11Y 7857   1.258   1.011   9.367 -2.1733  0.5412  0.8969
   83SAPS  C312 7858   1.173   0.876   9.214 -0.0312 -0.2939 -0.1867
   83SAPS  H12X 7859   1.072   0.921   9.203 -1.3993 -3.2869 -0.9328
   83SAPS  H12Y 7860   1.160   0.766   9.213  1.0394 -0.5535  2.9393
   83SAPS  C313 7861   1.269   0.921   9.098 -0.5001  0.4101 -0.1337
   83SAPS  H13X 7862   1.361   0.859   9.100  0.1750  1.3572  1.7688
   83SAPS  H13Y 7863   1.295   1.027   9.119 -1.4430  0.8527 -1.1310
   83SAPS  C314 7864   1.193   0.901   8.967 -0.0441  0.0780 -0.6409
   83SAPS  H14X 7865   1.095   0.952   8.969 -1.1238 -1.9341  0.7586
   83SAPS  H14Y 7866   1.174   0.792   8.968 -0.2003  0.0915  1.6712
   83SAPS  C315 7867   1.273   0.944   8.840  0.2049 -0.3763  0.6503
   83SAPS  H15X 7868   1.378   0.924   8.869  0.8600  0.8986 -0.6517
   83SAPS  H15Y 7869   1.261   1.052   8.816 -2.0546 -0.8419 -0.7110
   83SAPS  C316 7870   1.235   0.871   8.714 -0.0478  0.2215 -0.0812
   83SAPS  H16X 7871   1.276   0.769   8.729  1.1909  0.6237 -0.6982
   83SAPS  H16Y 7872   1.268   0.930   8.627 -1.1247  0.9751 -0.0074
   83SAPS  C317 7873   1.083   0.849   8.683  0.1671  0.3248 -0.0482
   83SAPS  H17X 7874   1.032   0.946   8.699 -0.5073 -0.0011 -0.1641
   83SAPS  H17Y 7875   1.037   0.780   8.757 -0.9741 -0.2588 -1.2509
   83SAPS  C318 7876   1.054   0.800   8.542 -0.1523 -0.1754 -0.5516
   83SAPS  H18X 7877   1.077   0.880   8.468  0.3904 -0.2703 -0.4949
   83SAPS  H18Y 7878   0.952   0.761   8.558  1.3092 -3.2997  2.4922
   83SAPS  H18Z 7879   1.097   0.704   8.505  0.6005 -0.0988  0.0969
   84SAPS     N 7880   3.440   0.977  11.278 -0.4409  0.0400 -0.3903
   84SAPS   HN1 7881   3.467   0.883  11.311  1.0789 -0.1034 -1.9079
   84SAPS   HN2 7882   3.401   1.034  11.355  1.9852  0.3987  0.6470
   84SAPS   HN3 7883   3.366   0.969  11.204  0.0505 -2.2992 -0.7086
   84SAPS   C12 7884   3.559   1.048  11.223 -0.5336  0.0953  0.6162
   84SAPS  H12A 7885   3.526   1.122  11.152  2.3017 -0.0110 -0.9769
   84SAPS   C13 7886   3.654   1.123  11.326  0.0474  0.2968 -0.1774
   84SAPS  O13A 7887   3.605   1.150  11.437  0.3964  0.3259 -0.7583
   84SAPS  O13B 7888   3.763   1.182  11.300 -0.0594 -0.2612 -0.3562
   84SAPS   C11 7889   3.650   0.959  11.142 -0.2436 -0.4458  0.0046
   84SAPS  H11A 7890   3.680   0.881  11.215 -3.8695 -0.8634  1.2458
   84SAPS  H11B 7891   3.738   1.012  11.101 -1.1032  0.8603 -0.2204
   84SAPS     P 7892   3.541   0.994  10.905 -0.2038 -0.0920  0.0887
   84SAPS   O13 7893   3.443   1.091  10.946  0.4260  0.0051  0.8684
   84SAPS   O14 7894   3.658   1.047  10.839 -0.2937 -0.6458 -0.1796
   84SAPS   O12 7895   3.585   0.903  11.027 -0.1912 -0.1975 -0.8876
   84SAPS   O11 7896   3.458   0.901  10.801 -0.4936 -0.1218 -0.5844
   84SAPS    C1 7897   3.536   0.808  10.726 -0.2514 -0.0201 -0.0494
   84SAPS    HA 7898   3.631   0.779  10.776 -0.4328 -0.9851 -0.2419
   84SAPS    HB 7899   3.471   0.719  10.712 -1.3746  0.8263 -0.3434
   84SAPS    C2 7900   3.579   0.859  10.589 -0.0215  0.3845 -0.1550
   84SAPS    HS 7901   3.636   0.950  10.619  0.4855 -0.4306  1.4754
   84SAPS   O21 7902   3.466   0.886  10.509  0.2952  0.2954 -0.3694
   84SAPS   C21 7903   3.475   0.993  10.422  0.3420  0.6825 -0.1875
   84SAPS   O22 7904   3.568   1.067  10.400 -0.0987  0.2400 -0.0803
   84SAPS   C22 7905   3.341   1.019  10.356 -0.8103  0.0413 -0.0160
   84SAPS   H2R 7906   3.280   0.929  10.377  0.6715 -1.6121 -2.3592
   84SAPS   H2S 7907   3.311   1.116  10.402 -0.2776  0.1463  0.1189
   84SAPS    C3 7908   3.663   0.753  10.521  0.9263  0.3350  0.0934
   84SAPS    HX 7909   3.595   0.665  10.524  1.5001 -0.1848 -1.3509
   84SAPS    HY 7910   3.749   0.721  10.583 -0.8291 -2.3132  1.3675
   84SAPS   O31 7911   3.708   0.782  10.386  0.6052  0.3249  0.3928
   84SAPS   C31 7912   3.792   0.881  10.377 -0.0806 -0.0669  0.3163
   84SAPS   O32 7913   3.851   0.923  10.473 -0.6658 -0.0152  0.1247
   84SAPS   C32 7914   3.834   0.916  10.231 -0.4721 -0.3485 -0.7752
   84SAPS   H2X 7915   3.836   0.820  10.174 -3.9462 -0.7332 -0.4662
   84SAPS   H2Y 7916   3.935   0.962  10.237 -1.4050  1.6500  0.6199
   84SAPS   C23 7917   3.348   1.033  10.208  0.3934 -0.4267  0.4939
   84SAPS   H3R 7918   3.370   0.934  10.162  0.6225 -0.4892  0.7376
   84SAPS   H3S 7919   3.431   1.097  10.174 -0.6365 -0.3639 -2.1648
   84SAPS   C24 7920   3.229   1.090  10.135  0.1015  0.1382  0.2131
   84SAPS   H4R 7921   3.143   1.020  10.139 -0.7902  1.1594 -0.2659
   84SAPS   H4S 7922   3.238   1.100  10.024  1.8756 -2.0588  0.1056
   84SAPS   C25 7923   3.175   1.223  10.185  0.0520  0.3925  0.0397
   84SAPS   H5R 7924   3.134   1.215  10.287  1.1534  0.4743  0.5060
   84SAPS   C26 7925   3.166   1.339  10.120  0.6267 -0.6949  0.4016
   84SAPS   H6R 7926   3.125   1.428  10.171  1.9708 -0.2824  0.7937
   84SAPS   C27 7927   3.212   1.358   9.973 -0.1603  0.1916  0.1181
   84SAPS   H7R 7928   3.309   1.307   9.956  0.2313  0.9716 -0.0430
   84SAPS   H7S 7929   3.233   1.467   9.962 -1.0257  1.0317  4.6234
   84SAPS   C28 7930   3.112   1.313   9.869 -0.6897  0.0772 -0.3877
   84SAPS   H8R 7931   3.037   1.244   9.911 -0.6601  0.3462  0.1296
   84SAPS   C29 7932   3.116   1.335   9.736 -0.6232  0.0605 -0.1085
   84SAPS   H9R 7933   3.030   1.293   9.682 -1.5744  1.2724  0.4129
   84SAPS  C210 7934   3.216   1.413   9.659 -0.9880  0.1388  0.3848
   84SAPS  H10R 7935   3.279   1.342   9.602 -0.4156  0.5943  0.4361
   84SAPS  H10S 7936   3.285   1.473   9.723  0.3690  2.6687 -3.1483
   84SAPS  C211 7937   3.144   1.507   9.566  0.1264 -0.0066  0.1960
   84SAPS  H11R 7938   3.119   1.610   9.594  0.0298  0.3593 -1.1580
   84SAPS  C212 7939   3.097   1.475   9.445 -0.1500  0.7770 -0.1155
   84SAPS  H12R 7940   3.028   1.543   9.393 -0.3910  1.4134  1.0007
   84SAPS  C213 7941   3.113   1.347   9.374 -0.7769  0.0958  0.5214
   84SAPS  H13R 7942   3.013   1.307   9.345  0.1244 -1.4597 -0.6159
   84SAPS  H13S 7943   3.159   1.269   9.438 -3.1384 -0.0070  2.2260
   84SAPS  C214 7944   3.185   1.368   9.246  0.2209  0.2030 -0.2663
   84SAPS  H14R 7945   3.280   1.421   9.257  0.2508 -0.3527  2.9826
   84SAPS  C215 7946   3.136   1.343   9.119  0.5759  0.9143  0.0145
   84SAPS  H15R 7947   3.206   1.371   9.039 -0.0580  1.7670 -0.2553
   84SAPS  C216 7948   3.004   1.275   9.083  0.7480  0.0917 -0.4662
   84SAPS  H16R 7949   2.923   1.306   9.152 -0.8751 -0.9081 -1.8282
   84SAPS  H16S 7950   3.019   1.165   9.072 -0.7419 -0.0691 -1.2069
   84SAPS  C217 7951   2.945   1.317   8.948 -0.1877 -0.3876  0.5603
   84SAPS  H17R 7952   3.021   1.318   8.867  1.5712  1.3365  2.1161
   84SAPS  H17S 7953   2.915   1.423   8.958  0.9710 -0.0015  0.0581
   84SAPS  C218 7954   2.822   1.225   8.896 -0.2671  0.4871 -0.0428
   84SAPS  H18R 7955   2.759   1.192   8.982 -1.9046 -0.0660 -1.3857
   84SAPS  H18S 7956   2.862   1.130   8.853  2.1074  1.2691  0.3361
   84SAPS  C219 7957   2.744   1.289   8.783  0.6685  0.0993 -0.9765
   84SAPS  H19R 7958   2.708   1.388   8.816  2.3578  0.3769  0.1500
   84SAPS  H19S 7959   2.660   1.219   8.760  1.8053 -1.9589  0.7037
   84SAPS  C220 7960   2.817   1.300   8.653  0.6285  0.5217  0.4474
   84SAPS  H20R 7961   2.773   1.369   8.578  1.1873  0.9068  0.4660
   84SAPS  H20S 7962   2.820   1.199   8.606  0.3916  0.9568 -0.5191
   84SAPS  H20T 7963   2.921   1.339   8.663  0.5559  1.2246 -1.2233
   84SAPS   C33 7964   3.726   0.998  10.165 -0.4989 -0.3837  0.2310
   84SAPS   H3X 7965   3.720   1.100  10.210 -1.3525 -1.3183  2.3643
   84SAPS   H3Y 7966   3.625   0.955  10.180 -0.2031 -0.5648  1.8695
   84SAPS   C34 7967   3.755   1.018  10.013  0.0519  0.5538  0.8630
   84SAPS   H4X 7968   3.741   0.912   9.980  1.0374 -0.2107  2.7368
   84SAPS   H4Y 7969   3.858   1.049   9.987 -0.0957 -1.4363 -2.8851
   84SAPS   C35 7970   3.661   1.114   9.946  0.8816 -0.4993 -0.0245
   84SAPS   H5X 7971   3.693   1.217   9.971 -2.3566  0.6710 -0.1988
   84SAPS   H5Y 7972   3.561   1.106   9.995 -0.0721  0.1398 -1.7732
   84SAPS   C36 7973   3.650   1.101   9.788  0.5497 -0.2709  0.1237
   84SAPS   H6X 7974   3.609   0.999   9.770 -2.4501  1.0566 -1.3142
   84SAPS   H6Y 7975   3.757   1.107   9.758  0.9554  1.7204  1.7386
   84SAPS   C37 7976   3.560   1.215   9.736 -0.4710  0.5061 -0.4398
   84SAPS   H7X 7977   3.584   1.313   9.782 -0.2280 -0.8174  2.4550
   84SAPS   H7Y 7978   3.454   1.205   9.770 -0.7150  2.0444 -0.6768
   84SAPS   C38 7979   3.577   1.235   9.588 -0.2181  0.0248 -0.0303
   84SAPS   H8X 7980   3.679   1.265   9.558 -0.9272  2.0311 -0.5777
   84SAPS   H8Y 7981   3.505   1.312   9.553 -0.8592 -0.3844  0.3624
   84SAPS   C39 7982   3.546   1.113   9.504 -0.1615 -0.2861 -1.0784
   84SAPS   H9X 7983   3.441   1.080   9.522  0.3238 -2.0211 -1.1758
   84SAPS   H9Y 7984   3.612   1.027   9.530 -1.0897 -0.7710 -0.2602
   84SAPS  C310 7985   3.538   1.136   9.354 -0.2739 -0.0451  0.1122
   84SAPS  H10X 7986   3.636   1.175   9.319  0.5420 -1.0048  1.2213
   84SAPS  H10Y 7987   3.462   1.216   9.342 -1.1542 -0.9052 -0.2199
   84SAPS  C311 7988   3.485   1.026   9.263 -0.0263 -0.1245  0.1624
   84SAPS  H11X 7989   3.392   0.981   9.306  0.6257 -2.1424 -0.4173
   84SAPS  H11Y 7990   3.551   0.938   9.247 -0.3483 -0.2538 -0.4691
   84SAPS  C312 7991   3.439   1.074   9.120  0.5856  0.1063  0.2661
   84SAPS  H12X 7992   3.532   1.091   9.061  0.2616  0.9538 -0.0321
   84SAPS  H12Y 7993   3.388   1.173   9.124  0.5636  0.0855  0.4961
   84SAPS  C313 7994   3.344   0.963   9.059  0.0397 -0.6269 -0.3741
   84SAPS  H13X 7995   3.259   0.950   9.130 -1.1366 -0.9661 -1.7879
   84SAPS  H13Y 7996   3.392   0.863   9.053 -0.5306 -1.1859  2.5203
   84SAPS  C314 7997   3.262   0.996   8.932  0.2446 -0.1391 -0.1863
   84SAPS  H14X 7998   3.196   1.082   8.954  0.5720  0.7975 -2.6359
   84SAPS  H14Y 7999   3.199   0.904   8.927  1.9675 -1.3036 -1.7150
   84SAPS  C315 8000   3.344   1.008   8.805 -0.1733 -0.4955  0.5553
   84SAPS  H15X 8001   3.443   0.960   8.819  0.4771  0.2936 -1.1154
   84SAPS  H15Y 8002   3.360   1.116   8.782 -3.2143 -0.0910 -0.1130
   84SAPS  C316 8003   3.284   0.942   8.684  0.3745  0.0358  0.2232
   84SAPS  H16X 8004   3.205   1.015   8.655 -0.1665 -0.4362  0.5129
   84SAPS  H16Y 8005   3.226   0.849   8.701  0.1193  0.0135 -0.6946
   84SAPS  C317 8006   3.385   0.908   8.575  0.0701  0.0092 -0.1142
   84SAPS  H17X 8007   3.327   0.893   8.482 -1.4592  2.1067  0.4157
   84SAPS  H17Y 8008   3.434   0.810   8.593 -0.6067  0.0140  2.0701
   84SAPS  C318 8009   3.487   1.018   8.552 -0.3386  0.8355 -0.6252
   84SAPS  H18X 8010   3.559   1.000   8.470  0.5056 -0.7173  0.4286
   84SAPS  H18Y 8011   3.546   1.025   8.646 -1.2224 -1.0439  0.1137
   84SAPS  H18Z 8012   3.448   1.119   8.526 -0.2801  1.0833  0.2272
   85SAPS     N 8013   5.831   0.450  11.126 -0.1119  0.1041 -0.2610
   85SAPS   HN1 8014   5.812   0.525  11.195  1.2451 -0.8959  1.2642
   85SAPS   HN2 8015   5.812   0.355  11.163 -0.0263  0.5891  1.0854
   85SAPS   HN3 8016   5.932   0.451  11.098 -0.3689  0.5531 -1.2428
   85SAPS   C12 8017   5.762   0.463  10.994  0.0532 -0.7206  0.7892
   85SAPS  H12A 8018   5.777   0.368  10.946 -1.2296 -1.0067  0.9188
   85SAPS   C13 8019   5.613   0.497  10.994  0.3136 -0.2265 -0.9788
   85SAPS  O13A 8020   5.563   0.532  11.104  0.0222  0.1167  0.0186
   85SAPS  O13B 8021   5.542   0.500  10.890 -0.3739 -0.0136 -0.2737
   85SAPS   C11 8022   5.826   0.575  10.907 -0.2612 -0.7502  0.4151
   85SAPS  H11A 8023   5.782   0.673  10.933  1.0247 -1.0203  4.3219
   85SAPS  H11B 8024   5.795   0.555  10.802 -0.5631 -2.0010  0.7190
   85SAPS     P 8025   6.067   0.630  10.798  0.3140  0.3233 -0.6414
   85SAPS   O13 8026   6.074   0.776  10.807  0.1490 -0.3707 -0.1896
   85SAPS   O14 8027   6.200   0.562  10.807 -0.1991  0.4364  0.4796
   85SAPS   O12 8028   5.967   0.580  10.919 -0.3738  0.6879 -0.1267
   85SAPS   O11 8029   5.990   0.588  10.666  0.1973 -0.2036  0.3749
   85SAPS    C1 8030   5.972   0.439  10.646  0.3620  0.1538  0.4041
   85SAPS    HA 8031   5.939   0.392  10.741 -0.7850 -0.0290 -0.0708
   85SAPS    HB 8032   5.891   0.428  10.571  1.0500 -0.5490 -0.2485
   85SAPS    C2 8033   6.092   0.364  10.583  0.2499 -0.0848 -0.6361
   85SAPS    HS 8034   6.174   0.387  10.654 -1.6633  1.0557  1.3350
   85SAPS   O21 8035   6.113   0.423  10.456  0.8691 -0.2424 -0.1619
   85SAPS   C21 8036   6.240   0.457  10.428  0.2422  0.6631  1.0745
   85SAPS   O22 8037   6.336   0.442  10.499  0.1027  0.2762 -0.5895
   85SAPS   C22 8038   6.239   0.514  10.289 -0.6385  0.2428 -0.1362
   85SAPS   H2R 8039   6.142   0.565  10.268  0.3911  2.0556 -0.7221
   85SAPS   H2S 8040   6.323   0.586  10.296  1.1505 -1.5461 -1.9888
   85SAPS    C3 8041   6.066   0.207  10.570 -0.2216 -0.5173  0.0030
   85SAPS    HX 8042   6.061   0.172  10.675  1.9465  1.7895  0.9845
   85SAPS    HY 8043   6.157   0.157  10.530  0.6139 -0.3825  1.6508
   85SAPS   O31 8044   5.948   0.186  10.493 -0.3614 -0.1210  0.2587
   85SAPS   C31 8045   5.956   0.151  10.362 -0.6564 -0.9310 -0.0900
   85SAPS   O32 8046   6.062   0.131  10.312 -0.7521 -0.2332  0.2928
   85SAPS   C32 8047   5.828   0.124  10.292  0.1999 -0.0821  0.0080
   85SAPS   H2X 8048   5.747   0.165  10.357  0.8048 -1.1748  1.5130
   85SAPS   H2Y 8049   5.805   0.017  10.273 -1.7517  0.2735  0.2044
   85SAPS   C23 8050   6.271   0.405  10.183  0.0625  0.0114  0.0715
   85SAPS   H3R 8051   6.192   0.327  10.174 -0.2139  0.3167 -0.1947
   85SAPS   H3S 8052   6.368   0.358  10.205  0.6494  1.2733  0.2742
   85SAPS   C24 8053   6.293   0.477  10.048  0.1224 -0.5523  0.0034
   85SAPS   H4R 8054   6.388   0.534  10.046 -0.7822  1.0440  0.7849
   85SAPS   H4S 8055   6.217   0.557  10.036  1.3403  0.7907  0.9903
   85SAPS   C25 8056   6.284   0.372   9.933 -0.4254 -0.3590  0.2472
   85SAPS   H5R 8057   6.204   0.299   9.952 -0.0777 -1.2981 -1.6960
   85SAPS   C26 8058   6.357   0.370   9.823  0.0629  0.3321  0.2658
   85SAPS   H6R 8059   6.337   0.281   9.761  0.7294 -0.6477  1.3931
   85SAPS   C27 8060   6.472   0.457   9.784  0.7701  0.5279 -0.4465
   85SAPS   H7R 8061   6.556   0.456   9.856  2.1615 -0.9854 -2.0171
   85SAPS   H7S 8062   6.431   0.560   9.782 -0.3264  0.4468  4.5235
   85SAPS   C28 8063   6.527   0.418   9.649  0.1174 -0.6408  0.4074
   85SAPS   H8R 8064   6.599   0.335   9.653 -0.5302 -1.3166 -1.2580
   85SAPS   C29 8065   6.485   0.450   9.522  0.0110  0.6086  0.1639
   85SAPS   H9R 8066   6.549   0.403   9.446  1.9607 -0.1954  2.1931
   85SAPS  C210 8067   6.366   0.532   9.473  0.0690  0.7525  0.0319
   85SAPS  H10R 8068   6.390   0.640   9.489  0.1593  0.4029  2.6711
   85SAPS  H10S 8069   6.276   0.509   9.534 -0.1677 -1.4559 -1.0536
   85SAPS  C211 8070   6.342   0.493   9.329  0.2947 -0.2223 -0.5424
   85SAPS  H11R 8071   6.337   0.384   9.314  1.5437 -0.4379  0.4457
   85SAPS  C212 8072   6.314   0.574   9.232 -0.2275 -0.2790  0.3735
   85SAPS  H12R 8073   6.276   0.534   9.136 -1.2401 -0.1379  0.6967
   85SAPS  C213 8074   6.293   0.720   9.236  0.6411 -0.5606 -0.1887
   85SAPS  H13R 8075   6.388   0.773   9.212 -0.1911 -0.1011 -2.7979
   85SAPS  H13S 8076   6.251   0.753   9.333 -1.0591 -1.1290 -0.7046
   85SAPS  C214 8077   6.185   0.758   9.135 -0.0724 -0.4900 -0.4516
   85SAPS  H14R 8078   6.086   0.779   9.178  0.7278  2.4599  0.1423
   85SAPS  C215 8079   6.196   0.757   9.000 -0.1553  0.7381 -0.5994
   85SAPS  H15R 8080   6.119   0.806   8.939  0.3994  3.3187  0.6351
   85SAPS  C216 8081   6.314   0.725   8.911  0.4003  0.6175  0.2847
   85SAPS  H16R 8082   6.414   0.730   8.958 -0.3309  0.5696  1.9136
   85SAPS  H16S 8083   6.315   0.797   8.826 -2.1370 -1.3770 -1.6051
   85SAPS  C217 8084   6.304   0.588   8.842  1.0307  0.6256 -0.0663
   85SAPS  H17R 8085   6.201   0.589   8.801 -0.8492  3.7548  3.9789
   85SAPS  H17S 8086   6.309   0.511   8.921  3.2112  0.8570  0.0842
   85SAPS  C218 8087   6.416   0.569   8.742  1.0223 -0.1901 -0.3970
   85SAPS  H18R 8088   6.508   0.587   8.802 -0.0553 -1.4486  1.7522
   85SAPS  H18S 8089   6.414   0.646   8.662 -0.2138  0.5923  0.3476
   85SAPS  C219 8090   6.440   0.425   8.704  0.1982 -0.5269  0.2112
   85SAPS  H19R 8091   6.341   0.374   8.699 -0.6038  1.0723 -0.9399
   85SAPS  H19S 8092   6.493   0.379   8.790  0.5297 -1.0674 -0.2762
   85SAPS  C220 8093   6.538   0.391   8.586 -0.0399 -0.2022 -0.2385
   85SAPS  H20R 8094   6.489   0.407   8.488 -2.3138 -1.3538  0.6386
   85SAPS  H20S 8095   6.573   0.285   8.589  1.0986  0.0669 -2.1075
   85SAPS  H20T 8096   6.626   0.459   8.590 -0.3295  0.1418  0.3404
   85SAPS   C33 8097   5.820   0.189  10.157 -0.9552  0.2917  0.2127
   85SAPS   H3X 8098   5.859   0.291  10.175  0.1691 -0.0214 -0.3531
   85SAPS   H3Y 8099   5.718   0.197  10.114 -1.0610 -0.1768  0.3673
   85SAPS   C34 8100   5.905   0.105  10.055  0.9441  0.7245  0.5592
   85SAPS   H4X 8101   5.869   0.000  10.050 -0.1962  1.1618 -1.1435
   85SAPS   H4Y 8102   6.014   0.105  10.079  1.9597 -0.6554 -3.3380
   85SAPS   C35 8103   5.891   0.170   9.919  0.2538  0.0881  0.2362
   85SAPS   H5X 8104   5.940   0.269   9.936  1.5149 -0.5838  0.6444
   85SAPS   H5Y 8105   5.784   0.182   9.893  0.0490  0.0395  1.0461
   85SAPS   C36 8106   5.961   0.107   9.800 -0.5689  1.1093 -0.3921
   85SAPS   H6X 8107   5.916   0.015   9.757  0.9880  0.8143 -1.4745
   85SAPS   H6Y 8108   6.061   0.077   9.838 -1.5297  1.2081  2.4089
   85SAPS   C37 8109   5.969   0.203   9.682  0.1775 -0.4472  1.1097
   85SAPS   H7X 8110   6.011   0.296   9.723  0.2220 -0.8819  2.0748
   85SAPS   H7Y 8111   5.871   0.209   9.630  0.5236 -1.1217  0.3414
   85SAPS   C38 8112   6.066   0.153   9.569 -0.2784 -0.1763 -0.2378
   85SAPS   H8X 8113   6.009   0.075   9.514 -0.7536  0.2110 -0.3035
   85SAPS   H8Y 8114   6.153   0.111   9.624 -1.8687 -0.8459  1.8971
   85SAPS   C39 8115   6.114   0.262   9.474 -0.4161 -0.5362  0.0248
   85SAPS   H9X 8116   6.191   0.220   9.405  0.2731  0.4959  0.1526
   85SAPS   H9Y 8117   6.169   0.339   9.532 -0.4019  1.6991 -2.7623
   85SAPS  C310 8118   6.009   0.342   9.397 -0.3628  0.0165  0.3757
   85SAPS  H10X 8119   6.058   0.425   9.341 -0.6345 -0.6778 -0.9234
   85SAPS  H10Y 8120   5.937   0.388   9.469  0.8463 -1.1102  2.4130
   85SAPS  C311 8121   5.936   0.260   9.294 -0.6122  0.5287 -0.1899
   85SAPS  H11X 8122   5.850   0.205   9.339  0.3710 -1.5491 -0.7588
   85SAPS  H11Y 8123   6.012   0.189   9.256 -1.6200 -1.1743  0.8176
   85SAPS  C312 8124   5.893   0.337   9.174  0.4352  0.4004  0.0734
   85SAPS  H12X 8125   5.983   0.353   9.111  1.2797  0.3111  1.2081
   85SAPS  H12Y 8126   5.840   0.431   9.201  1.6207  1.0369  0.2879
   85SAPS  C313 8127   5.793   0.257   9.091 -0.2085 -0.6391 -0.3906
   85SAPS  H13X 8128   5.692   0.245   9.134 -0.8240  0.4872 -1.4510
   85SAPS  H13Y 8129   5.831   0.154   9.075 -0.7307 -0.6139 -2.0021
   85SAPS  C314 8130   5.775   0.313   8.951 -0.0742 -0.5543  0.2010
   85SAPS  H14X 8131   5.873   0.324   8.900 -0.1170  0.4401  0.3281
   85SAPS  H14Y 8132   5.742   0.418   8.963  1.9618  0.1489 -0.0196
   85SAPS  C315 8133   5.691   0.225   8.864 -0.6687 -0.1065  0.9346
   85SAPS  H15X 8134   5.684   0.123   8.908  2.6696 -0.8379  0.0076
   85SAPS  H15Y 8135   5.755   0.205   8.775 -0.9685 -1.4886  1.0054
   85SAPS  C316 8136   5.548   0.267   8.833 -0.4234 -0.3420 -1.5004
   85SAPS  H16X 8137   5.537   0.374   8.803 -0.6358 -0.5204 -2.0732
   85SAPS  H16Y 8138   5.493   0.268   8.930  2.0030 -0.7356 -0.0484
   85SAPS  C317 8139   5.483   0.180   8.727  0.0152  0.3161 -0.4388
   85SAPS  H17X 8140   5.505   0.072   8.742 -2.8342 -0.2258  0.5247
   85SAPS  H17Y 8141   5.529   0.211   8.631  1.2111 -0.6261 -0.2013
   85SAPS  C318 8142   5.328   0.202   8.734 -0.1540  0.3393  0.1827
   85SAPS  H18X 8143   5.299   0.307   8.711 -1.4917  0.0639  0.5314
   85SAPS  H18Y 8144   5.295   0.156   8.829 -0.7547 -2.8459 -1.4322
   85SAPS  H18Z 8145   5.278   0.141   8.655  0.0321  0.9500 -0.4245
   86SAPS     N 8146   4.198   2.090  10.516  0.0918 -0.5510  0.0750
   86SAPS   HN1 8147   4.162   1.993  10.504  2.3904 -1.7520  2.2103
   86SAPS   HN2 8148   4.154   2.155  10.447  2.5296  0.5488 -0.5403
   86SAPS   HN3 8149   4.301   2.087  10.503  0.1965  0.0066  0.7818
   86SAPS   C12 8150   4.176   2.132  10.649  0.2018  0.3735 -0.1624
   86SAPS  H12A 8151   4.237   2.068  10.710  0.1012 -0.1598 -0.6226
   86SAPS   C13 8152   4.232   2.274  10.686  0.4935  0.8150  0.1808
   86SAPS  O13A 8153   4.333   2.320  10.624 -0.0122  0.1735 -0.1906
   86SAPS  O13B 8154   4.203   2.323  10.796  0.5164 -0.0919 -0.0599
   86SAPS   C11 8155   4.024   2.115  10.685 -0.0147 -0.0647 -0.8202
   86SAPS  H11A 8156   3.966   2.185  10.621 -1.3941  0.6004  1.0537
   86SAPS  H11B 8157   4.022   2.136  10.795 -1.3355  2.2388 -1.2116
   86SAPS     P 8158   3.873   1.908  10.744  0.0648 -0.2359 -0.3222
   86SAPS   O13 8159   3.922   1.769  10.755 -0.0837  0.2844  0.1668
   86SAPS   O14 8160   3.837   1.976  10.869 -0.2682 -0.3789 -0.4044
   86SAPS   O12 8161   3.983   1.985  10.658 -0.5825 -0.4476 -0.2202
   86SAPS   O11 8162   3.750   1.904  10.645  0.3438  1.2492 -0.5258
   86SAPS    C1 8163   3.738   1.850  10.511  0.6831 -0.0106 -0.7381
   86SAPS    HA 8164   3.820   1.777  10.496  0.3361 -0.8069  0.9982
   86SAPS    HB 8165   3.646   1.791  10.489 -0.6717  1.3212  1.0388
   86SAPS    C2 8166   3.754   1.967  10.410  0.1294 -0.4094  0.3274
   86SAPS    HS 8167   3.829   2.040  10.446  0.7583  0.1503 -1.9435
   86SAPS   O21 8168   3.617   2.018  10.379 -0.5978  0.0986 -0.2812
   86SAPS   C21 8169   3.609   2.147  10.357 -0.1662  0.2244  0.1946
   86SAPS   O22 8170   3.705   2.220  10.348 -0.5042  0.1391  0.0640
   86SAPS   C22 8171   3.455   2.177  10.361 -0.3241 -0.5419  0.4579
   86SAPS   H2R 8172   3.421   2.122  10.270  0.1227  2.4510 -1.6786
   86SAPS   H2S 8173   3.407   2.140  10.454 -0.6477 -0.6607  0.2446
   86SAPS    C3 8174   3.817   1.910  10.277 -0.6302  0.5187 -0.0056
   86SAPS    HX 8175   3.740   1.832  10.260 -1.1722  0.6777  1.5809
   86SAPS    HY 8176   3.909   1.852  10.300 -0.4134  1.0694  0.5252
   86SAPS   O31 8177   3.841   2.005  10.175 -0.1827 -0.1371 -0.2419
   86SAPS   C31 8178   3.947   2.084  10.183  0.3670 -0.4028  0.2932
   86SAPS   O32 8179   4.024   2.089  10.278 -0.2230  0.1712 -1.2556
   86SAPS   C32 8180   3.945   2.165  10.049 -0.3910  0.1647  0.5483
   86SAPS   H2X 8181   3.846   2.158   9.998 -1.9436  0.9175  3.2848
   86SAPS   H2Y 8182   4.022   2.108   9.992 -1.5326 -1.7391  0.8231
   86SAPS   C23 8183   3.427   2.332  10.360 -0.2943  0.0830 -0.0468
   86SAPS   H3R 8184   3.490   2.376  10.440  0.4459 -2.2676  0.7484
   86SAPS   H3S 8185   3.320   2.348  10.386 -0.3198  0.1692 -0.2036
   86SAPS   C24 8186   3.452   2.413  10.229  0.2689 -0.2224  0.1072
   86SAPS   H4R 8187   3.560   2.391  10.215  0.9112  2.3388  0.4285
   86SAPS   H4S 8188   3.455   2.521  10.255  0.9835 -0.4651  1.0631
   86SAPS   C25 8189   3.354   2.369  10.123  0.2681  0.5869  0.1127
   86SAPS   H5R 8190   3.249   2.398  10.144  0.1627  0.7453 -0.6271
   86SAPS   C26 8191   3.385   2.290  10.023  0.3136  0.2882  0.7604
   86SAPS   H6R 8192   3.311   2.265   9.945  1.3696 -2.4643  0.5352
   86SAPS   C27 8193   3.529   2.236   9.997  0.1270 -0.7240  0.0258
   86SAPS   H7R 8194   3.589   2.219  10.088 -0.8157  0.7193  0.9514
   86SAPS   H7S 8195   3.585   2.322   9.954  1.4144 -2.2856 -1.5830
   86SAPS   C28 8196   3.549   2.105   9.912  0.4858  0.1297  0.5084
   86SAPS   H8R 8197   3.510   2.012   9.958  2.3304 -0.9505  0.0031
   86SAPS   C29 8198   3.608   2.104   9.793  0.1575  0.8006 -0.1002
   86SAPS   H9R 8199   3.612   2.005   9.744  0.0625  0.4044  0.6766
   86SAPS  C210 8200   3.666   2.225   9.719  0.7977 -0.3625  0.1207
   86SAPS  H10R 8201   3.734   2.276   9.789  2.4754 -0.3159 -1.4748
   86SAPS  H10S 8202   3.583   2.294   9.693  0.1755 -2.1565 -3.4025
   86SAPS  C211 8203   3.746   2.205   9.595 -0.0025  0.0912  0.2746
   86SAPS  H11R 8204   3.855   2.224   9.601 -0.3394  2.3544  0.1322
   86SAPS  C212 8205   3.703   2.193   9.469  0.2507 -0.4983 -0.2232
   86SAPS  H12R 8206   3.775   2.165   9.392  0.5822 -1.0698  0.2824
   86SAPS  C213 8207   3.558   2.184   9.435 -0.7859  0.5396 -0.4680
   86SAPS  H13R 8208   3.501   2.181   9.530  1.5826  2.1617  1.1057
   86SAPS  H13S 8209   3.534   2.081   9.401 -0.4442 -1.2043  3.9101
   86SAPS  C214 8210   3.506   2.300   9.351 -0.1438  0.6620  0.7588
   86SAPS  H14R 8211   3.476   2.393   9.402 -0.9232  0.6721  0.2842
   86SAPS  C215 8212   3.506   2.294   9.219  0.3219 -0.1778  0.3501
   86SAPS  H15R 8213   3.468   2.381   9.163  0.5638  0.5676  1.3262
   86SAPS  C216 8214   3.550   2.183   9.124 -0.4637  0.2341 -0.2789
   86SAPS  H16R 8215   3.480   2.098   9.116  0.8078 -0.7701 -1.1340
   86SAPS  H16S 8216   3.652   2.153   9.158  0.4115  0.3698 -2.5979
   86SAPS  C217 8217   3.574   2.240   8.986 -0.3639 -0.2439  0.4116
   86SAPS  H17R 8218   3.484   2.285   8.938 -1.0152 -2.1059 -0.1878
   86SAPS  H17S 8219   3.603   2.158   8.917  1.6733  0.5696  0.2111
   86SAPS  C218 8220   3.687   2.346   8.970 -0.1424  0.7121  0.9918
   86SAPS  H18R 8221   3.778   2.292   9.004 -1.3845 -1.2605  1.3407
   86SAPS  H18S 8222   3.667   2.441   9.024  1.3700  1.2767  0.6195
   86SAPS  C219 8223   3.713   2.380   8.821  0.4321  1.1189 -0.0724
   86SAPS  H19R 8224   3.746   2.486   8.825 -1.2534  1.7344 -1.2359
   86SAPS  H19S 8225   3.623   2.394   8.758  0.2306 -1.1204 -0.3637
   86SAPS  C220 8226   3.814   2.284   8.770  0.1111 -0.0438 -0.2814
   86SAPS  H20R 8227   3.916   2.294   8.813 -0.6358 -0.6144  1.6914
   86SAPS  H20S 8228   3.819   2.313   8.662 -1.6297  1.3240 -0.0336
   86SAPS  H20T 8229   3.788   2.177   8.781  0.0474  0.1713  2.1458
   86SAPS   C33 8230   4.001   2.315  10.053  0.3711 -0.5631 -0.1185
   86SAPS   H3X 8231   4.102   2.323  10.098  0.6138 -0.4028 -0.6960
   86SAPS   H3Y 8232   3.933   2.387  10.104 -0.0324  0.8589 -2.5222
   86SAPS   C34 8233   4.027   2.376   9.913  0.5268  0.2082  0.2116
   86SAPS   H4X 8234   4.080   2.474   9.921 -0.3418  0.7738 -0.8172
   86SAPS   H4Y 8235   3.927   2.397   9.869  0.9793 -0.8030 -1.3757
   86SAPS   C35 8236   4.103   2.277   9.822  1.6438  0.5691  0.1142
   86SAPS   H5X 8237   4.048   2.182   9.801  3.8220 -0.5736 -0.7431
   86SAPS   H5Y 8238   4.194   2.247   9.878  1.1654 -1.2892 -0.0378
   86SAPS   C36 8239   4.139   2.334   9.687 -0.4394  0.1362 -0.0962
   86SAPS   H6X 8240   4.202   2.423   9.712 -1.2871  0.1308  2.3744
   86SAPS   H6Y 8241   4.043   2.350   9.634 -0.9713 -4.4754 -0.9720
   86SAPS   C37 8242   4.223   2.242   9.592 -0.2641  0.5715  0.6073
   86SAPS   H7X 8243   4.192   2.137   9.612  2.8269 -1.1374 -2.3568
   86SAPS   H7Y 8244   4.329   2.239   9.626 -0.2688 -3.2759  0.7728
   86SAPS   C38 8245   4.203   2.273   9.448 -0.6148 -0.1651  0.3989
   86SAPS   H8X 8246   4.289   2.230   9.392 -0.0096  0.3322  0.9372
   86SAPS   H8Y 8247   4.213   2.381   9.423 -1.4733  0.0188  0.8235
   86SAPS   C39 8248   4.077   2.208   9.383 -0.0421  0.2614  0.2412
   86SAPS   H9X 8249   3.987   2.251   9.431 -1.7396 -0.1653 -2.3354
   86SAPS   H9Y 8250   4.076   2.098   9.399 -1.0910  0.3970  1.2159
   86SAPS  C310 8251   4.072   2.238   9.231 -0.2345 -0.0951 -0.6847
   86SAPS  H10X 8252   4.067   2.349   9.224  0.4873 -0.0130  0.0952
   86SAPS  H10Y 8253   3.976   2.193   9.195  0.6911 -2.6538 -0.1385
   86SAPS  C311 8254   4.193   2.175   9.148 -0.2867 -0.2700  0.6128
   86SAPS  H11X 8255   4.237   2.085   9.195  2.1133 -0.6623 -2.1025
   86SAPS  H11Y 8256   4.271   2.254   9.149 -0.6714  0.1243  0.2846
   86SAPS  C312 8257   4.155   2.157   8.999  0.3817 -0.2774 -0.8372
   86SAPS  H12X 8258   4.249   2.137   8.944  1.6669 -1.1206  1.5061
   86SAPS  H12Y 8259   4.122   2.257   8.964  0.6793 -0.0684 -0.5278
   86SAPS  C313 8260   4.051   2.057   8.967  0.0351  0.8010 -0.6827
   86SAPS  H13X 8261   4.048   2.046   8.856 -3.8683  0.3554 -0.6664
   86SAPS  H13Y 8262   3.948   2.083   8.996  0.1485 -0.5114  1.0938
   86SAPS  C314 8263   4.064   1.910   9.021  0.2216  0.4347  0.0930
   86SAPS  H14X 8264   4.037   1.895   9.128  0.2756 -0.3776 -0.0050
   86SAPS  H14Y 8265   4.173   1.887   9.013  0.1081  0.2234 -1.0003
   86SAPS  C315 8266   3.990   1.810   8.930  0.2589  0.5355  0.7512
   86SAPS  H15X 8267   3.951   1.858   8.838  2.1570  0.6761 -0.0179
   86SAPS  H15Y 8268   3.909   1.758   8.985  1.6307 -0.8264  1.5589
   86SAPS  C316 8269   4.074   1.689   8.874 -0.1555  0.1656  0.6129
   86SAPS  H16X 8270   4.154   1.737   8.813 -0.8828  0.3595 -0.2051
   86SAPS  H16Y 8271   4.010   1.628   8.806  0.0791  0.5586  0.0292
   86SAPS  C317 8272   4.127   1.601   8.985  0.7193  0.2245  0.0568
   86SAPS  H17X 8273   4.037   1.593   9.050 -1.7229  0.3001 -3.0692
   86SAPS  H17Y 8274   4.208   1.654   9.039  0.7644  0.6463 -0.4120
   86SAPS  C318 8275   4.192   1.472   8.937 -0.0093  0.3955  0.0819
   86SAPS  H18X 8276   4.264   1.496   8.855 -0.0907  1.6622  0.3601
   86SAPS  H18Y 8277   4.121   1.400   8.892  1.9493 -0.0699 -2.5301
   86SAPS  H18Z 8278   4.252   1.430   9.020  1.6889  0.7950 -0.8897
   87SAPS     N 8279   3.179   1.028  10.879 -0.3215  0.0603  0.5658
   87SAPS   HN1 8280   3.165   0.939  10.829 -0.8664 -0.1254  1.0422
   87SAPS   HN2 8281   3.171   1.104  10.809  0.0979 -0.1757  0.2540
   87SAPS   HN3 8282   3.276   1.038  10.918 -0.4207  0.0894  0.8105
   87SAPS   C12 8283   3.076   1.058  10.978  0.1130  0.7179 -0.0726
   87SAPS  H12A 8284   2.995   0.992  10.949  1.1508 -0.8533  0.4959
   87SAPS   C13 8285   3.108   1.028  11.124 -0.0296  0.1543  0.1027
   87SAPS  O13A 8286   3.207   0.952  11.160 -0.1824 -0.0293  0.1278
   87SAPS  O13B 8287   3.031   1.062  11.217 -0.3046  0.2238 -0.1537
   87SAPS   C11 8288   3.034   1.206  10.968  0.2042  0.7907 -0.4941
   87SAPS  H11A 8289   3.119   1.273  10.993 -0.1647  0.3897  2.1644
   87SAPS  H11B 8290   2.957   1.227  11.046  0.1066  2.6046 -1.0262
   87SAPS     P 8291   2.878   1.352  10.814 -0.0478  0.1612  0.0037
   87SAPS   O13 8292   2.745   1.311  10.869  0.4183  0.2405 -0.2448
   87SAPS   O14 8293   2.932   1.483  10.868  0.0156  1.0078  0.4328
   87SAPS   O12 8294   2.978   1.231  10.839 -0.1217  0.3565 -0.2615
   87SAPS   O11 8295   2.872   1.373  10.652 -0.1787  0.4089 -0.3967
   87SAPS    C1 8296   2.755   1.318  10.585 -0.4158 -0.5203  0.1930
   87SAPS    HA 8297   2.713   1.230  10.638 -0.3143 -1.0851 -0.6328
   87SAPS    HB 8298   2.681   1.400  10.577  0.1452 -0.0636 -0.5470
   87SAPS    C2 8299   2.802   1.292  10.439 -0.1077  0.6100 -0.2523
   87SAPS    HS 8300   2.711   1.252  10.390 -0.6733  1.2891  0.2300
   87SAPS   O21 8301   2.909   1.195  10.430  0.1739  0.6601  0.4116
   87SAPS   C21 8302   2.884   1.076  10.480  0.6373 -0.4301 -0.3410
   87SAPS   O22 8303   2.769   1.042  10.519  0.8658  0.1394  0.3808
   87SAPS   C22 8304   3.000   0.980  10.495  0.3731 -0.8811  0.2486
   87SAPS   H2R 8305   3.092   1.034  10.465 -0.4116  0.3006 -0.0737
   87SAPS   H2S 8306   3.017   0.968  10.605 -0.1075 -1.4843  0.2622
   87SAPS    C3 8307   2.847   1.423  10.373  0.9226  0.1787  0.0837
   87SAPS    HX 8308   2.936   1.464  10.426  0.7041  1.9773 -0.8340
   87SAPS    HY 8309   2.768   1.501  10.387  0.2679 -0.5175  0.3279
   87SAPS   O31 8310   2.876   1.411  10.231 -0.3759 -0.3966  0.1365
   87SAPS   C31 8311   2.768   1.430  10.150 -0.5783  0.2820  0.1829
   87SAPS   O32 8312   2.657   1.462  10.194 -0.0538 -0.1621 -0.0012
   87SAPS   C32 8313   2.804   1.387  10.011  0.2813  0.3555 -0.5553
   87SAPS   H2X 8314   2.821   1.277  10.006 -1.5404  0.0864 -1.8635
   87SAPS   H2Y 8315   2.898   1.445  10.000 -0.0548  1.5165  1.9999
   87SAPS   C23 8316   2.976   0.840  10.442  0.6705 -0.0362 -0.1575
   87SAPS   H3R 8317   2.906   0.795  10.515  0.3508 -2.7933 -2.0101
   87SAPS   H3S 8318   3.068   0.778  10.442  0.5944 -0.1558  0.4912
   87SAPS   C24 8319   2.926   0.821  10.292  0.0986 -0.9470 -1.0872
   87SAPS   H4R 8320   2.953   0.718  10.259  3.2887 -0.3911 -0.5227
   87SAPS   H4S 8321   2.994   0.873  10.222  1.9623 -1.5142  0.2332
   87SAPS   C25 8322   2.781   0.856  10.281 -0.1649  0.6669 -0.3925
   87SAPS   H5R 8323   2.712   0.795  10.341 -0.3640 -0.5672 -1.8274
   87SAPS   C26 8324   2.722   0.940  10.205 -0.4990 -0.4502  0.0828
   87SAPS   H6R 8325   2.614   0.946  10.218 -0.4180 -1.5655  1.4906
   87SAPS   C27 8326   2.785   1.027  10.100 -0.3537  0.5793 -0.5792
   87SAPS   H7R 8327   2.865   1.085  10.151 -1.7129  1.5486  0.5130
   87SAPS   H7S 8328   2.715   1.108  10.072  0.6246  1.4685 -0.5074
   87SAPS   C28 8329   2.842   0.969   9.969 -0.0279  0.4827  0.1309
   87SAPS   H8R 8330   2.949   0.944   9.978 -0.3858 -0.4308  2.8672
   87SAPS   C29 8331   2.776   0.955   9.850  0.0874  0.0446 -0.6322
   87SAPS   H9R 8332   2.830   0.915   9.763 -0.2664 -0.6835 -0.5256
   87SAPS  C210 8333   2.632   0.989   9.821 -0.4971  0.3164  0.1221
   87SAPS  H10R 8334   2.608   1.097   9.817  0.6684  0.6017  0.5679
   87SAPS  H10S 8335   2.582   0.943   9.909 -1.0936  0.3128 -0.2108
   87SAPS  C211 8336   2.572   0.905   9.708 -0.4863 -0.8882  0.1041
   87SAPS  H11R 8337   2.501   0.830   9.747  1.7327 -1.8347  2.6061
   87SAPS  C212 8338   2.596   0.922   9.575  1.3565  0.5357 -0.2507
   87SAPS  H12R 8339   2.557   0.855   9.498  0.1982  0.2800  0.5329
   87SAPS  C213 8340   2.674   1.034   9.520 -0.2377  0.1010 -0.1893
   87SAPS  H13R 8341   2.732   1.092   9.595 -0.0622  1.5106 -1.3738
   87SAPS  H13S 8342   2.610   1.116   9.482  0.8490  1.6257  1.1428
   87SAPS  C214 8343   2.760   0.987   9.406 -0.2115 -0.6569  0.3315
   87SAPS  H14R 8344   2.861   0.952   9.432  0.4593  1.1940  0.3568
   87SAPS  C215 8345   2.726   0.992   9.272 -0.2201  0.6139 -0.0513
   87SAPS  H15R 8346   2.796   0.949   9.199  0.9608  0.2003  1.2837
   87SAPS  C216 8347   2.600   1.054   9.217 -0.3166  0.6268  0.0549
   87SAPS  H16R 8348   2.615   1.163   9.207 -4.5828  1.4693  1.1838
   87SAPS  H16S 8349   2.505   1.036   9.271 -1.7935  0.3644 -2.5141
   87SAPS  C217 8350   2.579   0.993   9.072  0.1718  0.1782  0.1979
   87SAPS  H17R 8351   2.553   0.887   9.093 -0.2134  0.4386  1.1154
   87SAPS  H17S 8352   2.672   1.001   9.012  0.7905 -0.4994  1.0402
   87SAPS  C218 8353   2.468   1.069   9.004  0.3413 -0.3122  0.0879
   87SAPS  H18R 8354   2.509   1.164   8.965 -1.8953 -0.8383 -4.2072
   87SAPS  H18S 8355   2.394   1.091   9.084  0.1120 -0.2337 -0.1426
   87SAPS  C219 8356   2.399   1.003   8.878 -0.6381  0.8085 -0.3129
   87SAPS  H19R 8357   2.458   1.021   8.785 -1.4287  0.2065 -0.9433
   87SAPS  H19S 8358   2.299   1.050   8.869 -0.8197  0.8766  1.6623
   87SAPS  C220 8359   2.368   0.854   8.895 -0.3134 -0.6577 -0.0303
   87SAPS  H20R 8360   2.452   0.782   8.885 -1.1195 -1.7993  1.0242
   87SAPS  H20S 8361   2.299   0.817   8.815  0.8638 -3.5864  0.1842
   87SAPS  H20T 8362   2.320   0.845   8.995  2.1423  0.9086  1.3914
   87SAPS   C33 8363   2.702   1.418   9.897 -0.0151 -0.4632 -0.6172
   87SAPS   H3X 8364   2.686   1.527   9.890  1.6578 -0.2863 -3.5541
   87SAPS   H3Y 8365   2.604   1.371   9.922 -0.2530  0.6630  0.6538
   87SAPS   C34 8366   2.761   1.377   9.756 -0.0400  0.2710 -0.3233
   87SAPS   H4X 8367   2.793   1.272   9.769  1.3334  0.6808 -0.2178
   87SAPS   H4Y 8368   2.857   1.433   9.763  0.5356 -0.8925  1.6172
   87SAPS   C35 8369   2.675   1.413   9.631  0.2773 -0.6833  0.0810
   87SAPS   H5X 8370   2.569   1.402   9.659  0.5692 -1.5701  0.9029
   87SAPS   H5Y 8371   2.697   1.325   9.567 -0.9617 -1.6047  0.8774
   87SAPS   C36 8372   2.736   1.533   9.559 -0.2217 -0.9820  0.4773
   87SAPS   H6X 8373   2.845   1.509   9.556  0.3127  0.9972  2.1952
   87SAPS   H6Y 8374   2.725   1.622   9.625  1.1407  0.5532 -1.2305
   87SAPS   C37 8375   2.692   1.559   9.417  0.5851 -0.4925  0.1315
   87SAPS   H7X 8376   2.757   1.632   9.363  0.3329  0.0831  0.5911
   87SAPS   H7Y 8377   2.589   1.599   9.421  0.8820  0.2060  1.3056
   87SAPS   C38 8378   2.704   1.441   9.323  0.6100 -0.1648  0.3161
   87SAPS   H8X 8379   2.663   1.348   9.367 -0.7611  0.5946  0.6817
   87SAPS   H8Y 8380   2.811   1.433   9.294  0.2026 -2.4154 -0.8233
   87SAPS   C39 8381   2.630   1.469   9.186  0.3347  0.3215 -0.4697
   87SAPS   H9X 8382   2.654   1.381   9.123 -1.6281  0.1132 -0.9859
   87SAPS   H9Y 8383   2.678   1.560   9.143  2.4458 -0.2089  0.6160
   87SAPS  C310 8384   2.477   1.480   9.199  0.4648  0.3832  0.5047
   87SAPS  H10X 8385   2.447   1.575   9.246 -1.4659 -0.7954  1.7598
   87SAPS  H10Y 8386   2.448   1.395   9.265 -1.6110  1.1931  0.6989
   87SAPS  C311 8387   2.406   1.463   9.062  1.0829  0.2045 -1.0202
   87SAPS  H11X 8388   2.295   1.458   9.064  1.1363 -2.9602  1.7175
   87SAPS  H11Y 8389   2.436   1.370   9.010  0.5515 -0.2899 -0.4578
   87SAPS  C312 8390   2.443   1.572   8.959 -0.1776  0.1617  0.7693
   87SAPS  H12X 8391   2.550   1.562   8.931 -0.4701 -0.3117 -0.2401
   87SAPS  H12Y 8392   2.432   1.675   8.999  2.1521  1.1195 -0.8102
   87SAPS  C313 8393   2.370   1.553   8.824  0.0777 -0.2056 -0.1645
   87SAPS  H13X 8394   2.408   1.622   8.746 -0.9091  1.1224  0.4848
   87SAPS  H13Y 8395   2.260   1.571   8.836 -0.5650 -1.3769 -3.4564
   87SAPS  C314 8396   2.384   1.404   8.767 -0.0973  0.1617  0.1412
   87SAPS  H14X 8397   2.322   1.331   8.823  1.9113 -2.2551 -0.6296
   87SAPS  H14Y 8398   2.492   1.379   8.763  0.3658  1.4823  2.6321
   87SAPS  C315 8399   2.342   1.393   8.618  0.1625  0.3518 -0.1132
   87SAPS  H15X 8400   2.406   1.451   8.548  1.2186 -0.9457 -0.2869
   87SAPS  H15Y 8401   2.240   1.436   8.614 -0.4069 -0.8937  0.2092
   87SAPS  C316 8402   2.326   1.251   8.570 -0.1771  0.6537  0.0415
   87SAPS  H16X 8403   2.249   1.197   8.629  2.4515 -2.0367  1.3252
   87SAPS  H16Y 8404   2.419   1.196   8.595 -0.4637  1.1551  2.3815
   87SAPS  C317 8405   2.307   1.228   8.421  0.2850 -0.3512  0.2995
   87SAPS  H17X 8406   2.216   1.271   8.372 -0.0005 -2.8857 -1.6124
   87SAPS  H17Y 8407   2.295   1.118   8.409  2.0072 -0.3841 -1.7923
   87SAPS  C318 8408   2.418   1.284   8.332  0.4333 -0.3858  1.0808
   87SAPS  H18X 8409   2.389   1.384   8.294 -2.6068 -1.2795  0.7485
   87SAPS  H18Y 8410   2.445   1.213   8.251  1.5590  0.3299  0.8084
   87SAPS  H18Z 8411   2.512   1.293   8.390  0.2724 -0.3891  1.3451
   88SAPS     N 8412   5.932   6.718  11.204  0.1652  0.4422  0.4659
   88SAPS   HN1 8413   6.031   6.730  11.175 -0.0495  1.6995  0.1907
   88SAPS   HN2 8414   5.931   6.751  11.303  5.3582  0.1468  0.8619
   88SAPS   HN3 8415   5.903   6.618  11.203 -0.9864  0.7473  0.8552
   88SAPS   C12 8416   5.830   6.787  11.110  0.1049  0.3543  0.6611
   88SAPS  H12A 8417   5.736   6.738  11.130 -0.8481  1.2022 -1.4683
   88SAPS   C13 8418   5.808   6.928  11.153  0.0292  0.2589 -0.1792
   88SAPS  O13A 8419   5.878   6.984  11.247  0.3088 -0.5369  0.1813
   88SAPS  O13B 8420   5.716   6.987  11.103 -0.4020 -0.1566  0.1552
   88SAPS   C11 8421   5.871   6.782  10.967 -0.1447  1.1236  0.1507
   88SAPS  H11A 8422   5.946   6.860  10.943 -1.3933  1.8210 -1.7841
   88SAPS  H11B 8423   5.787   6.814  10.902  0.6750  0.8705 -1.0838
   88SAPS     P 8424   5.841   6.528  10.882 -0.2990  0.0918 -0.5646
   88SAPS   O13 8425   5.928   6.417  10.840  0.2959 -0.4174  0.0553
   88SAPS   O14 8426   5.756   6.501  11.001 -0.3807  0.2926  0.2863
   88SAPS   O12 8427   5.932   6.653  10.920  0.0552  0.0363  0.1638
   88SAPS   O11 8428   5.748   6.575  10.766  0.1858  0.5882 -0.1082
   88SAPS    C1 8429   5.807   6.608  10.632 -0.0745 -0.3860  0.8335
   88SAPS    HA 8430   5.742   6.677  10.575  0.7632 -0.5649 -0.3688
   88SAPS    HB 8431   5.905   6.659  10.644 -0.3133  0.0270  1.0646
   88SAPS    C2 8432   5.836   6.487  10.539  0.3361  0.0425  0.4808
   88SAPS    HS 8433   5.884   6.407  10.600  1.1235  0.5724  0.5698
   88SAPS   O21 8434   5.916   6.528  10.429  0.1647 -0.0034  0.0137
   88SAPS   C21 8435   6.024   6.457  10.401  0.0393 -0.1052  0.9897
   88SAPS   O22 8436   6.056   6.359  10.456  0.0058 -0.4208 -0.2379
   88SAPS   C22 8437   6.095   6.529  10.294  0.1896  0.1948 -0.4529
   88SAPS   H2R 8438   6.111   6.637  10.318  0.5398  0.1142 -0.3236
   88SAPS   H2S 8439   6.197   6.488  10.274  1.1590  2.6554 -1.0464
   88SAPS    C3 8440   5.707   6.413  10.490  0.4192  0.8436 -0.1617
   88SAPS    HX 8441   5.640   6.493  10.452 -1.0659 -1.3891 -2.5791
   88SAPS    HY 8442   5.648   6.370  10.573  1.9061 -1.0692 -0.0209
   88SAPS   O31 8443   5.725   6.322  10.380 -0.3963  0.1149  0.1143
   88SAPS   C31 8444   5.740   6.200  10.408 -0.5040  0.4826  1.2551
   88SAPS   O32 8445   5.752   6.147  10.517 -0.7301  0.2261 -0.0346
   88SAPS   C32 8446   5.729   6.127  10.281  0.0579 -0.3262  1.0841
   88SAPS   H2X 8447   5.789   6.181  10.204 -0.5943 -0.4824  0.4559
   88SAPS   H2Y 8448   5.622   6.134  10.252 -0.1821 -1.5785  1.6205
   88SAPS   C23 8449   6.003   6.513  10.162  0.0833  0.1886 -0.2085
   88SAPS   H3R 8450   6.042   6.592  10.094  2.1434 -1.3131 -0.8909
   88SAPS   H3S 8451   5.899   6.545  10.183 -0.0083 -0.0348 -0.3292
   88SAPS   C24 8452   6.004   6.376  10.102 -0.2861  0.1599 -0.1122
   88SAPS   H4R 8453   5.942   6.371  10.010 -0.9103 -2.7552  0.3624
   88SAPS   H4S 8454   5.966   6.296  10.170 -1.9034  0.4613 -0.6172
   88SAPS   C25 8455   6.145   6.356  10.056  0.0518 -0.3379  0.0039
   88SAPS   H5R 8456   6.218   6.331  10.134  1.2579  2.2387 -0.1906
   88SAPS   C26 8457   6.195   6.354   9.925  0.3200 -0.5674  0.3413
   88SAPS   H6R 8458   6.302   6.345   9.899  0.3299  2.0146 -0.7794
   88SAPS   C27 8459   6.115   6.374   9.803 -0.0475 -0.4599 -0.3062
   88SAPS   H7R 8460   6.012   6.342   9.829 -0.3521  0.8951  0.2671
   88SAPS   H7S 8461   6.143   6.293   9.733 -1.9513 -1.4824  0.0562
   88SAPS   C28 8462   6.113   6.519   9.763 -0.6730  0.0575  0.2931
   88SAPS   H8R 8463   6.070   6.590   9.835 -1.1264 -1.8226  1.9898
   88SAPS   C29 8464   6.169   6.563   9.647  0.9125 -0.3693  0.4954
   88SAPS   H9R 8465   6.171   6.671   9.627 -1.7461 -0.0163  1.6978
   88SAPS  C210 8466   6.231   6.471   9.544  0.6988 -0.6733  1.0843
   88SAPS  H10R 8467   6.283   6.382   9.586 -1.7813 -1.9777  1.5878
   88SAPS  H10S 8468   6.308   6.531   9.491  0.3209  0.8579  2.2161
   88SAPS  C211 8469   6.132   6.425   9.440 -0.8319 -0.1671  0.4887
   88SAPS  H11R 8470   6.079   6.332   9.466  2.4351 -2.8378 -1.5476
   88SAPS  C212 8471   6.125   6.476   9.314  0.2179  1.2731 -0.3391
   88SAPS  H12R 8472   6.048   6.429   9.251 -0.7400 -0.5719  2.0434
   88SAPS  C213 8473   6.209   6.575   9.232  0.9538 -0.1543 -0.3095
   88SAPS  H13R 8474   6.269   6.517   9.158 -0.7720 -1.7597 -0.5508
   88SAPS  H13S 8475   6.297   6.610   9.290  0.4791  0.6643 -0.0687
   88SAPS  C214 8476   6.117   6.689   9.180  0.3292  0.0984  0.3039
   88SAPS  H14R 8477   6.081   6.761   9.255 -0.3417 -1.3853  1.4698
   88SAPS  C215 8478   6.047   6.688   9.060 -0.0902 -0.4105 -0.0830
   88SAPS  H15R 8479   5.980   6.772   9.041 -0.7226 -0.6534  0.9731
   88SAPS  C216 8480   6.059   6.570   8.962  0.5714 -0.1560 -0.0654
   88SAPS  H16R 8481   5.957   6.530   8.946  0.4304 -2.2300  4.5252
   88SAPS  H16S 8482   6.123   6.488   9.001  1.5255  0.5766 -0.0299
   88SAPS  C217 8483   6.111   6.606   8.826  0.0930 -0.4294  0.3844
   88SAPS  H17R 8484   6.117   6.510   8.771 -1.8349 -0.1925 -0.2890
   88SAPS  H17S 8485   6.216   6.644   8.831  0.0471 -0.4552  2.8117
   88SAPS  C218 8486   6.017   6.696   8.731 -1.2118  0.1621 -0.3275
   88SAPS  H18R 8487   6.077   6.700   8.638 -1.8022 -0.5793 -0.7511
   88SAPS  H18S 8488   6.013   6.799   8.773 -2.4507 -0.0223  0.0514
   88SAPS  C219 8489   5.880   6.634   8.717 -0.0313  0.6628  0.1036
   88SAPS  H19R 8490   5.811   6.639   8.803  0.3538  1.0551  0.3931
   88SAPS  H19S 8491   5.898   6.527   8.691  3.6772  1.6995 -2.5336
   88SAPS  C220 8492   5.795   6.696   8.609 -0.2839 -0.0130 -0.0513
   88SAPS  H20R 8493   5.697   6.646   8.600  0.1112 -0.8163  0.0296
   88SAPS  H20S 8494   5.828   6.678   8.504  0.2224 -4.4277  0.6728
   88SAPS  H20T 8495   5.779   6.803   8.634 -2.0785 -0.9873  3.6835
   88SAPS   C33 8496   5.781   5.986  10.283 -0.1406  0.3132  0.3139
   88SAPS   H3X 8497   5.723   5.926  10.356 -0.4597  1.3809  0.9562
   88SAPS   H3Y 8498   5.886   5.984  10.320  0.1185 -1.2489 -0.4255
   88SAPS   C34 8499   5.757   5.921  10.145  0.3488 -0.0922 -0.0780
   88SAPS   H4X 8500   5.649   5.929  10.120  0.5150 -2.5030 -1.8625
   88SAPS   H4Y 8501   5.774   5.811  10.151 -0.1523 -0.0933  2.8212
   88SAPS   C35 8502   5.855   5.966  10.032 -0.7284  0.6022  0.4116
   88SAPS   H5X 8503   5.960   5.959  10.065 -1.0725  0.5345  1.5495
   88SAPS   H5Y 8504   5.840   6.074  10.009  0.2874  0.1851 -2.7160
   88SAPS   C36 8505   5.823   5.888   9.904  0.1805 -0.2157 -0.2550
   88SAPS   H6X 8506   5.722   5.913   9.864  0.0035 -0.9583 -0.2802
   88SAPS   H6Y 8507   5.812   5.781   9.931 -1.8826 -0.1934 -0.7806
   88SAPS   C37 8508   5.926   5.924   9.797 -0.8285 -1.1707  0.0686
   88SAPS   H7X 8509   5.926   5.850   9.714 -0.8735 -0.2204 -0.8042
   88SAPS   H7Y 8510   6.032   5.918   9.829 -0.5334  1.6558 -0.0940
   88SAPS   C38 8511   5.885   6.058   9.732 -1.3099 -0.3347 -0.4502
   88SAPS   H8X 8512   5.902   6.141   9.804 -1.2472 -0.6083 -0.1496
   88SAPS   H8Y 8513   5.777   6.065   9.708 -1.1138  0.9106 -1.0530
   88SAPS   C39 8514   5.972   6.090   9.609  0.7242  0.0953 -0.2767
   88SAPS   H9X 8515   6.078   6.063   9.625  0.6682  0.2653  0.4317
   88SAPS   H9Y 8516   5.967   6.197   9.580 -2.4595 -0.4623 -2.2720
   88SAPS  C310 8517   5.907   6.017   9.486 -0.4843 -0.3083  0.0015
   88SAPS  H10X 8518   5.802   6.049   9.469  0.1510  1.3333 -1.0100
   88SAPS  H10Y 8519   5.913   5.908   9.509  1.7238 -0.0942  0.6522
   88SAPS  C311 8520   5.984   6.036   9.355 -0.1543  0.9884  0.3892
   88SAPS  H11X 8521   6.087   6.003   9.377  0.2050  1.4579 -0.5169
   88SAPS  H11Y 8522   5.985   6.143   9.325  0.6383  0.9526  0.2683
   88SAPS  C312 8523   5.944   5.945   9.241 -0.7596 -0.1990 -0.7388
   88SAPS  H12X 8524   5.959   5.846   9.288 -1.8225  0.6886  1.6024
   88SAPS  H12Y 8525   6.017   5.954   9.157 -0.2448 -0.2872 -0.3038
   88SAPS  C313 8526   5.810   5.983   9.179  0.0304 -0.8276 -0.4811
   88SAPS  H13X 8527   5.731   5.971   9.257  1.5959  1.2968  1.5871
   88SAPS  H13Y 8528   5.784   5.909   9.101 -2.2360 -0.0691 -0.5202
   88SAPS  C314 8529   5.791   6.118   9.101  0.1492 -0.8985  0.0991
   88SAPS  H14X 8530   5.765   6.193   9.179  1.7075 -0.2162  0.0173
   88SAPS  H14Y 8531   5.702   6.123   9.035  0.4919 -3.4483 -0.6539
   88SAPS  C315 8532   5.904   6.164   9.015 -0.6845 -0.5460 -0.3728
   88SAPS  H15X 8533   5.998   6.193   9.066 -1.5986  0.6161  0.7136
   88SAPS  H15Y 8534   5.861   6.257   8.972  0.9035  0.2888 -0.2342
   88SAPS  C316 8535   5.943   6.065   8.902 -0.5426 -0.1559 -0.2269
   88SAPS  H16X 8536   5.854   6.047   8.838  0.1596  0.2662 -1.3619
   88SAPS  H16Y 8537   5.979   5.971   8.948  0.2697  0.4062  0.3140
   88SAPS  C317 8538   6.067   6.101   8.817 -0.3417 -0.1181  0.0357
   88SAPS  H17X 8539   6.106   6.003   8.781 -1.1957 -0.0494 -1.1188
   88SAPS  H17Y 8540   6.140   6.144   8.889  0.0206 -1.2189  0.3507
   88SAPS  C318 8541   6.053   6.197   8.703  0.4804 -0.2342 -0.1576
   88SAPS  H18X 8542   6.139   6.193   8.634  1.0668  1.7388  0.4091
   88SAPS  H18Y 8543   6.050   6.303   8.736  3.0631  0.2966 -1.4456
   88SAPS  H18Z 8544   5.964   6.174   8.640 -0.3211  1.5667  0.2570
   89SAPS     N 8545   3.763   3.697  11.104 -0.7131  0.0098 -0.2790
   89SAPS   HN1 8546   3.765   3.754  11.192 -1.7841 -1.3959  0.6981
   89SAPS   HN2 8547   3.857   3.689  11.059  0.8158  1.5809  2.3091
   89SAPS   HN3 8548   3.696   3.739  11.037  0.0630 -1.9599 -2.4196
   89SAPS   C12 8549   3.718   3.559  11.145 -0.7097 -0.0564 -0.3986
   89SAPS  H12A 8550   3.786   3.522  11.220  0.7392  2.0313 -0.6007
   89SAPS   C13 8551   3.577   3.578  11.204  0.2765  0.7127 -0.2735
   89SAPS  O13A 8552   3.539   3.685  11.254 -0.3017  0.2564  0.5118
   89SAPS  O13B 8553   3.520   3.471  11.231  0.3702  0.3529 -0.1684
   89SAPS   C11 8554   3.710   3.464  11.024 -0.4426 -0.0801 -0.1104
   89SAPS  H11A 8555   3.624   3.494  10.961 -0.9718  0.6558  0.9448
   89SAPS  H11B 8556   3.693   3.361  11.062 -0.5875 -0.5061 -1.2761
   89SAPS     P 8557   3.849   3.435  10.796  0.1729 -0.1692 -0.0067
   89SAPS   O13 8558   3.997   3.443  10.761  0.1294 -0.3608 -0.4897
   89SAPS   O14 8559   3.785   3.309  10.765  0.0604  0.4064 -0.1341
   89SAPS   O12 8560   3.840   3.457  10.958  0.4171  0.1903 -0.4700
   89SAPS   O11 8561   3.775   3.557  10.725 -1.0059 -0.1331 -0.5331
   89SAPS    C1 8562   3.633   3.549  10.686  0.1954  0.2180 -0.1944
   89SAPS    HA 8563   3.571   3.480  10.746  0.6744  1.1848  1.4573
   89SAPS    HB 8564   3.586   3.650  10.682  0.0939  0.1749 -0.1110
   89SAPS    C2 8565   3.626   3.496  10.537  0.5542  0.3128  0.1734
   89SAPS    HS 8566   3.671   3.395  10.528 -0.4932 -0.0203 -2.1653
   89SAPS   O21 8567   3.682   3.588  10.449  0.2338 -0.2282 -0.6133
   89SAPS   C21 8568   3.805   3.586  10.420 -0.4581 -0.1781  0.1709
   89SAPS   O22 8569   3.894   3.510  10.460 -0.0218  0.2151 -0.1635
   89SAPS   C22 8570   3.835   3.682  10.304 -0.0260 -0.3856 -0.6642
   89SAPS   H2R 8571   3.769   3.644  10.224  1.1268  1.3680 -2.5353
   89SAPS   H2S 8572   3.809   3.787  10.331  0.7057 -0.2165 -0.5769
   89SAPS    C3 8573   3.475   3.470  10.488 -0.8298  0.2444 -1.1189
   89SAPS    HX 8574   3.420   3.564  10.512  0.7372  1.6002 -2.6026
   89SAPS    HY 8575   3.423   3.390  10.545 -0.9247 -0.1999 -1.8268
   89SAPS   O31 8576   3.469   3.460  10.348 -0.1073  0.4798 -0.8501
   89SAPS   C31 8577   3.502   3.335  10.297 -0.4683 -0.0338  0.1103
   89SAPS   O32 8578   3.507   3.232  10.361 -0.0516  0.0721  0.2324
   89SAPS   C32 8579   3.521   3.349  10.146  0.3460 -0.6960  0.1547
   89SAPS   H2X 8580   3.597   3.428  10.135 -0.3719 -0.1716 -1.1990
   89SAPS   H2Y 8581   3.423   3.385  10.107 -0.1786 -1.3237  0.8270
   89SAPS   C23 8582   3.990   3.677  10.251  0.0053 -0.3679  1.0172
   89SAPS   H3R 8583   4.039   3.578  10.261  0.2328 -0.0595  3.5910
   89SAPS   H3S 8584   4.048   3.759  10.299  1.6808 -1.4068  0.8385
   89SAPS   C24 8585   3.978   3.701  10.091  0.1785 -0.7244 -0.6260
   89SAPS   H4R 8586   3.927   3.799  10.093  1.2578 -0.1548  0.2911
   89SAPS   H4S 8587   3.910   3.625  10.046  0.0980 -1.1676  0.2154
   89SAPS   C25 8588   4.107   3.712  10.015  0.4355 -0.0853  0.2560
   89SAPS   H5R 8589   4.182   3.631  10.016  1.6275  0.9887  0.4655
   89SAPS   C26 8590   4.153   3.814   9.946  0.6845 -0.2743 -0.3321
   89SAPS   H6R 8591   4.256   3.810   9.908  0.8823 -4.2582  0.1140
   89SAPS   C27 8592   4.069   3.935   9.916 -0.2770 -1.0408 -0.2917
   89SAPS   H7R 8593   4.134   4.010   9.866  0.3013 -1.6220 -0.4270
   89SAPS   H7S 8594   4.045   3.976  10.016 -1.6576  0.2607 -1.1261
   89SAPS   C28 8595   3.948   3.920   9.827 -0.3335  0.3022 -0.1742
   89SAPS   H8R 8596   3.874   3.848   9.863  0.7679 -0.1491  1.3055
   89SAPS   C29 8597   3.925   3.988   9.714 -0.3906  0.9885 -0.0757
   89SAPS   H9R 8598   3.853   3.934   9.651 -0.2475  1.6984 -0.8561
   89SAPS  C210 8599   4.010   4.090   9.646  0.0770 -0.2459 -0.1241
   89SAPS  H10R 8600   4.040   4.158   9.729  1.7257 -0.8393 -0.2114
   89SAPS  H10S 8601   3.955   4.159   9.578 -1.3099 -0.4282  0.7789
   89SAPS  C211 8602   4.124   4.025   9.570 -0.2452 -0.3612  0.4917
   89SAPS  H11R 8603   4.212   4.000   9.632 -1.1064 -2.0138  1.1011
   89SAPS  C212 8604   4.126   3.983   9.442 -0.3049  0.4236  0.2700
   89SAPS  H12R 8605   4.223   3.953   9.399  0.0311  0.2247  1.1353
   89SAPS  C213 8606   4.016   4.007   9.340 -0.0303  0.5828 -0.0599
   89SAPS  H13R 8607   4.023   4.108   9.294 -0.8887 -0.3024 -2.2728
   89SAPS  H13S 8608   3.919   4.011   9.393  0.2271 -3.9502  1.0902
   89SAPS  C214 8609   3.990   3.918   9.222 -0.3860  0.5505 -0.1065
   89SAPS  H14R 8610   4.058   3.831   9.222 -1.7312 -0.5394  0.7168
   89SAPS  C215 8611   3.908   3.952   9.116  0.3911  0.7597 -0.6852
   89SAPS  H15R 8612   3.902   3.878   9.034  0.3267  2.8127 -2.6406
   89SAPS  C216 8613   3.835   4.079   9.083  0.8006  0.3334  0.5502
   89SAPS  H16R 8614   3.845   4.156   9.162 -0.9352  1.4155 -0.2354
   89SAPS  H16S 8615   3.726   4.058   9.081  0.7563  0.6102 -1.0489
   89SAPS  C217 8616   3.864   4.133   8.942  0.2222  0.7847 -1.1226
   89SAPS  H17R 8617   3.804   4.225   8.932  1.8379  1.8003 -1.9547
   89SAPS  H17S 8618   3.810   4.067   8.871 -1.2294  0.5442  0.1561
   89SAPS  C218 8619   4.015   4.133   8.913  0.2376  0.1561  0.7720
   89SAPS  H18R 8620   4.051   4.033   8.884 -0.6989 -0.5844  2.0504
   89SAPS  H18S 8621   4.070   4.168   9.003  2.1437 -2.0772  0.5642
   89SAPS  C219 8622   4.046   4.224   8.793 -0.9939  0.0386 -0.3811
   89SAPS  H19R 8623   4.156   4.227   8.777 -0.5915  0.1998  2.0420
   89SAPS  H19S 8624   4.012   4.327   8.814 -0.5522 -0.1607  1.4338
   89SAPS  C220 8625   3.986   4.161   8.668  0.4287 -0.9906 -0.8147
   89SAPS  H20R 8626   4.001   4.051   8.676 -1.0464 -1.2048 -0.8686
   89SAPS  H20S 8627   4.015   4.198   8.567  1.6209 -1.2464 -0.5810
   89SAPS  H20T 8628   3.876   4.154   8.677  0.4468 -0.6531 -0.2681
   89SAPS   C33 8629   3.548   3.225  10.064 -0.3347  0.1216  0.8180
   89SAPS   H3X 8630   3.472   3.149  10.096  0.4351 -0.8514  0.3907
   89SAPS   H3Y 8631   3.654   3.199  10.084 -0.3891  0.2492  1.2751
   89SAPS   C34 8632   3.537   3.259   9.912  0.2509 -0.2446  0.1834
   89SAPS   H4X 8633   3.599   3.349   9.896  1.1001 -0.4415  2.0062
   89SAPS   H4Y 8634   3.430   3.267   9.883 -0.5567 -0.8085  2.7068
   89SAPS   C35 8635   3.602   3.151   9.822 -0.4251 -0.8984 -0.0622
   89SAPS   H5X 8636   3.555   3.055   9.853 -3.4961  0.1270 -1.1843
   89SAPS   H5Y 8637   3.708   3.138   9.852 -0.9525 -2.5257  1.2906
   89SAPS   C36 8638   3.582   3.193   9.676 -0.4642 -0.5658  1.2666
   89SAPS   H6X 8639   3.631   3.291   9.659 -0.1271 -1.1172 -1.4140
   89SAPS   H6Y 8640   3.475   3.205   9.647  0.1267 -0.6202 -1.1475
   89SAPS   C37 8641   3.644   3.101   9.567  0.4451 -0.0679 -0.3636
   89SAPS   H7X 8642   3.591   3.004   9.560 -1.4057  0.8318  0.4305
   89SAPS   H7Y 8643   3.746   3.088   9.609  0.4672 -0.7113 -0.6082
   89SAPS   C38 8644   3.670   3.176   9.430 -0.7609  0.2013 -0.9167
   89SAPS   H8X 8645   3.738   3.262   9.448  0.3487 -0.8739  0.3230
   89SAPS   H8Y 8646   3.573   3.213   9.392 -1.3842  1.8123  1.9427
   89SAPS   C39 8647   3.732   3.083   9.330 -0.0682 -0.1897 -0.1777
   89SAPS   H9X 8648   3.680   2.985   9.338  0.7610 -0.5522  1.0574
   89SAPS   H9Y 8649   3.835   3.063   9.364  1.4161  1.5265 -3.2909
   89SAPS  C310 8650   3.723   3.140   9.192  0.0178 -0.3922 -0.2358
   89SAPS  H10X 8651   3.759   3.244   9.187 -1.2112  0.0708  0.0597
   89SAPS  H10Y 8652   3.615   3.138   9.164  0.0266  0.3189 -0.3228
   89SAPS  C311 8653   3.811   3.058   9.089  0.0748  0.2161  0.9706
   89SAPS  H11X 8654   3.913   3.040   9.130  1.4195 -0.2084 -2.2035
   89SAPS  H11Y 8655   3.833   3.112   8.994 -3.5580  0.3626  0.0529
   89SAPS  C312 8656   3.742   2.934   9.032 -0.3825 -0.0968  0.0279
   89SAPS  H12X 8657   3.654   2.971   8.976  1.1284  0.3786 -2.1634
   89SAPS  H12Y 8658   3.710   2.884   9.126  1.0222  1.6184  1.5008
   89SAPS  C313 8659   3.830   2.839   8.954 -0.1038  0.6926  0.7198
   89SAPS  H13X 8660   3.898   2.795   9.030  0.3236  1.6526  0.9117
   89SAPS  H13Y 8661   3.889   2.897   8.880 -0.1412 -1.1624 -0.8625
   89SAPS  C314 8662   3.765   2.730   8.868  0.6578  0.1763  0.3099
   89SAPS  H14X 8663   3.697   2.664   8.926  0.2977 -0.4669 -0.8097
   89SAPS  H14Y 8664   3.836   2.663   8.816 -0.7439 -1.1047 -0.0341
   89SAPS  C315 8665   3.671   2.802   8.766  0.1530 -0.3870 -0.0290
   89SAPS  H15X 8666   3.728   2.892   8.733  0.5875 -0.6075  0.1044
   89SAPS  H15Y 8667   3.571   2.822   8.809 -0.0666  2.1933 -1.5095
   89SAPS  C316 8668   3.647   2.719   8.640 -0.2998 -0.4174  0.0452
   89SAPS  H16X 8669   3.605   2.619   8.664 -2.7606  0.5026 -0.0959
   89SAPS  H16Y 8670   3.747   2.700   8.594 -0.3617  1.6879 -1.0500
   89SAPS  C317 8671   3.554   2.790   8.536  1.5486  0.0050 -0.4841
   89SAPS  H17X 8672   3.598   2.888   8.507 -0.7735  1.6094  1.0340
   89SAPS  H17Y 8673   3.457   2.818   8.582  1.2499 -1.4233 -0.1957
   89SAPS  C318 8674   3.529   2.702   8.415 -0.6438 -0.4854  0.1136
   89SAPS  H18X 8675   3.463   2.747   8.338 -2.2476  0.0004  1.7113
   89SAPS  H18Y 8676   3.463   2.614   8.432 -1.3492 -0.4426 -2.1718
   89SAPS  H18Z 8677   3.620   2.672   8.359 -0.7413  1.1055 -0.9557
   90SAPS     N 8678   6.176   1.688  10.970  0.2596  0.7181  0.2858
   90SAPS   HN1 8679   6.195   1.634  11.057  2.2133  0.6174 -0.1717
   90SAPS   HN2 8680   6.072   1.697  10.969  0.3530  2.8724  1.7258
   90SAPS   HN3 8681   6.210   1.636  10.887 -0.1318  0.5070  0.2537
   90SAPS   C12 8682   6.231   1.818  10.967  0.3490 -0.5396  0.0092
   90SAPS  H12A 8683   6.167   1.871  10.897  1.4341  3.1999  1.5769
   90SAPS   C13 8684   6.220   1.909  11.091  0.3952  0.2254 -0.2328
   90SAPS  O13A 8685   6.143   1.871  11.179  0.1981 -0.2339  0.2993
   90SAPS  O13B 8686   6.251   2.031  11.073 -0.2066  0.8251 -0.0832
   90SAPS   C11 8687   6.378   1.807  10.920  0.1714 -0.0290  0.1431
   90SAPS  H11A 8688   6.440   1.767  11.002  0.7559 -1.1206 -0.8081
   90SAPS  H11B 8689   6.407   1.913  10.903 -1.8007  0.8173  1.6724
   90SAPS     P 8690   6.518   1.761  10.704 -0.0934  0.3005  0.1611
   90SAPS   O13 8691   6.637   1.785  10.790  1.2606 -0.2789 -0.0141
   90SAPS   O14 8692   6.528   1.656  10.600 -0.2089  0.3748 -0.1419
   90SAPS   O12 8693   6.387   1.734  10.796 -0.1418 -0.0753 -0.4165
   90SAPS   O11 8694   6.495   1.897  10.622 -0.1704  0.4575 -0.4636
   90SAPS    C1 8695   6.362   1.958  10.603 -0.5778  0.8478 -0.0608
   90SAPS    HA 8696   6.284   1.922  10.673  0.7338 -2.8680 -0.3296
   90SAPS    HB 8697   6.376   2.067  10.620  2.9598  0.1554  2.4300
   90SAPS    C2 8698   6.302   1.938  10.462  0.3475  0.0115  0.2622
   90SAPS    HS 8699   6.272   1.832  10.450 -0.5340  0.1232  1.3609
   90SAPS   O21 8700   6.410   1.977  10.373 -0.1326 -0.4154 -0.0826
   90SAPS   C21 8701   6.440   1.899  10.273  0.2282  0.0007 -0.5866
   90SAPS   O22 8702   6.382   1.791  10.249  0.3577 -0.3762  0.2869
   90SAPS   C22 8703   6.534   1.966  10.177  0.4537 -0.2094  0.5623
   90SAPS   H2R 8704   6.476   2.000  10.089  0.5615  0.6097  0.7975
   90SAPS   H2S 8705   6.579   2.050  10.233  1.6455 -1.6795  1.8925
   90SAPS    C3 8706   6.169   2.015  10.434  0.2674 -0.0886  0.1747
   90SAPS    HX 8707   6.189   2.121  10.460 -2.0826  0.5970 -0.5813
   90SAPS    HY 8708   6.087   1.977  10.497 -0.7162  1.4466 -0.1314
   90SAPS   O31 8709   6.133   2.001  10.298 -0.5618  0.1875  0.4211
   90SAPS   C31 8710   6.061   1.891  10.262 -0.6127  0.1457  0.8834
   90SAPS   O32 8711   6.053   1.788  10.322 -0.0455  0.3242  0.3851
   90SAPS   C32 8712   5.991   1.927  10.132 -0.1582  0.1906 -0.5479
   90SAPS   H2X 8713   5.942   2.027  10.142 -0.6154 -0.2111  1.8757
   90SAPS   H2Y 8714   5.909   1.854  10.116 -1.4895  1.6446 -0.6038
   90SAPS   C23 8715   6.640   1.873  10.119  0.1982 -0.0381 -0.3532
   90SAPS   H3R 8716   6.591   1.818  10.036  0.9835 -1.0138 -0.1835
   90SAPS   H3S 8717   6.686   1.806  10.194 -1.5337 -0.7886  0.0769
   90SAPS   C24 8718   6.763   1.961  10.071  0.4824  0.2996  0.3679
   90SAPS   H4R 8719   6.802   2.027  10.152  3.2146 -0.9161  0.1594
   90SAPS   H4S 8720   6.728   2.041  10.002 -0.7138  0.9691  1.7053
   90SAPS   C25 8721   6.876   1.870  10.020 -0.3731 -0.1740  0.9055
   90SAPS   H5R 8722   6.913   1.813  10.106 -1.6146  0.1342  1.6706
   90SAPS   C26 8723   6.935   1.856   9.899  0.9305  0.2271 -0.0006
   90SAPS   H6R 8724   7.023   1.790   9.902  1.7172  1.2525  2.6332
   90SAPS   C27 8725   6.891   1.930   9.772 -0.2607 -0.2235  0.2075
   90SAPS   H7R 8726   6.948   2.024   9.760 -1.1790  0.2837 -0.3329
   90SAPS   H7S 8727   6.792   1.969   9.805  0.4048  0.6854  1.1779
   90SAPS   C28 8728   6.890   1.843   9.648 -0.8757 -0.1402 -0.1704
   90SAPS   H8R 8729   6.861   1.740   9.671  0.8524 -0.2866  1.6218
   90SAPS   C29 8730   6.918   1.881   9.521  0.2071 -0.4464  0.1199
   90SAPS   H9R 8731   6.914   1.795   9.452  1.5231 -2.1156  2.0179
   90SAPS  C210 8732   6.957   2.014   9.464 -0.4455 -0.4645  0.5361
   90SAPS  H10R 8733   7.068   2.016   9.458 -0.5073  1.3654 -1.3469
   90SAPS  H10S 8734   6.922   2.091   9.536  0.8086  0.0191  0.6402
   90SAPS  C211 8735   6.908   2.035   9.323  0.2513  0.1015  0.6309
   90SAPS  H11R 8736   6.882   1.942   9.270  1.3281 -0.2220  0.6438
   90SAPS  C212 8737   6.895   2.151   9.251  0.1850  0.6735  0.1833
   90SAPS  H12R 8738   6.863   2.140   9.146  0.3244 -1.3555  0.3145
   90SAPS  C213 8739   6.917   2.288   9.299 -0.2327  0.1974 -0.1290
   90SAPS  H13R 8740   6.957   2.289   9.402  0.4339  0.0939 -0.3805
   90SAPS  H13S 8741   6.817   2.333   9.316 -0.0252  0.3675  0.6607
   90SAPS  C214 8742   7.005   2.374   9.208  0.3763 -0.0393 -0.6735
   90SAPS  H14R 8743   7.113   2.381   9.227  0.3753 -1.1865 -0.2026
   90SAPS  C215 8744   6.958   2.432   9.098 -0.3240  0.1936 -0.4788
   90SAPS  H15R 8745   7.023   2.502   9.043 -0.0813 -0.4866 -1.0781
   90SAPS  C216 8746   6.815   2.421   9.046 -0.3815 -0.3442  0.1891
   90SAPS  H16R 8747   6.781   2.526   9.037 -0.9174 -0.4854  0.5674
   90SAPS  H16S 8748   6.745   2.373   9.117 -0.0479  0.0189  0.7662
   90SAPS  C217 8749   6.792   2.364   8.903 -0.2465  0.2224 -0.3562
   90SAPS  H17R 8750   6.682   2.361   8.886 -0.0762 -1.9741 -1.4312
   90SAPS  H17S 8751   6.808   2.255   8.893 -0.3792  0.2381 -0.8099
   90SAPS  C218 8752   6.862   2.425   8.781  0.0148 -0.6918  0.2008
   90SAPS  H18R 8753   6.970   2.405   8.791 -0.0804 -0.4401  2.0986
   90SAPS  H18S 8754   6.839   2.533   8.771 -0.5187 -0.8647 -0.5806
   90SAPS  C219 8755   6.820   2.359   8.652  0.2624  0.0034  0.3070
   90SAPS  H19R 8756   6.818   2.248   8.661 -0.5948  0.1597  3.0720
   90SAPS  H19S 8757   6.892   2.392   8.575 -1.3494  2.1967 -0.3593
   90SAPS  C220 8758   6.680   2.407   8.605  0.0735  0.3394  0.3242
   90SAPS  H20R 8759   6.701   2.513   8.579  0.1836  0.4626  0.9046
   90SAPS  H20S 8760   6.615   2.411   8.695 -0.9786  1.4223 -0.4431
   90SAPS  H20T 8761   6.633   2.346   8.525 -0.4720  0.6486  0.4061
   90SAPS   C33 8762   6.103   1.934  10.015  0.3659 -1.0171  0.4868
   90SAPS   H3X 8763   6.179   1.853  10.012  0.2596 -1.1672 -2.9319
   90SAPS   H3Y 8764   6.167   2.023  10.029  1.7885 -2.2374  2.0751
   90SAPS   C34 8765   6.034   1.928   9.877 -0.3345 -0.2939  0.4534
   90SAPS   H4X 8766   5.981   2.025   9.866 -0.0707 -0.0763  1.0652
   90SAPS   H4Y 8767   5.954   1.851   9.871 -0.6657  0.0519  0.3394
   90SAPS   C35 8768   6.127   1.912   9.756  0.2960  1.4071 -0.2563
   90SAPS   H5X 8769   6.189   1.825   9.786 -2.1051  0.1728  1.4354
   90SAPS   H5Y 8770   6.186   2.004   9.742  0.7038  0.8262 -2.8040
   90SAPS   C36 8771   6.059   1.876   9.625  0.3421 -0.0790 -0.1743
   90SAPS   H6X 8772   5.986   1.951   9.586 -1.2635 -0.4541  1.9153
   90SAPS   H6Y 8773   6.011   1.781   9.656 -0.0193  0.2572  0.3180
   90SAPS   C37 8774   6.149   1.855   9.500  0.6120  0.5603 -0.2693
   90SAPS   H7X 8775   6.209   1.765   9.527 -0.6209 -0.5427 -1.0948
   90SAPS   H7Y 8776   6.200   1.950   9.473  1.7519  0.5496  1.6777
   90SAPS   C38 8777   6.058   1.801   9.383 -1.0578  0.0912  0.5313
   90SAPS   H8X 8778   5.977   1.868   9.348  0.8369  0.8364 -2.8908
   90SAPS   H8Y 8779   6.015   1.707   9.424 -0.4950  0.2787  1.6094
   90SAPS   C39 8780   6.145   1.781   9.254  1.1118 -0.3947 -0.3110
   90SAPS   H9X 8781   6.243   1.736   9.282  1.7694  0.0823 -1.8084
   90SAPS   H9Y 8782   6.167   1.883   9.217 -0.6732 -0.2045 -0.9230
   90SAPS  C310 8783   6.076   1.689   9.149 -0.0076 -0.2107 -0.4957
   90SAPS  H10X 8784   5.974   1.729   9.134 -0.7884 -2.2151 -0.8646
   90SAPS  H10Y 8785   6.061   1.583   9.178 -0.7861 -0.5038 -1.9056
   90SAPS  C311 8786   6.151   1.683   9.017 -0.4377 -0.0962  0.3136
   90SAPS  H11X 8787   6.242   1.622   9.037 -1.1972 -0.8194  1.7027
   90SAPS  H11Y 8788   6.169   1.783   8.972 -0.9209 -0.1730 -0.0589
   90SAPS  C312 8789   6.063   1.607   8.914  0.2881 -1.0861 -1.2616
   90SAPS  H12X 8790   5.980   1.677   8.889  2.8297  1.5828 -2.8937
   90SAPS  H12Y 8791   6.017   1.518   8.963 -1.8796  0.8903  0.5927
   90SAPS  C313 8792   6.137   1.573   8.784  0.0289  0.1861 -0.0740
   90SAPS  H13X 8793   6.220   1.501   8.801  3.2454  3.6143  0.0072
   90SAPS  H13Y 8794   6.190   1.659   8.737  2.0026 -0.9021  0.0066
   90SAPS  C314 8795   6.043   1.510   8.675 -0.7024  0.4631  0.1938
   90SAPS  H14X 8796   6.101   1.479   8.585  0.4606 -0.2079  1.1643
   90SAPS  H14Y 8797   5.975   1.593   8.643 -0.0461  1.3851  1.1179
   90SAPS  C315 8798   5.965   1.383   8.708 -0.3233 -0.3876 -0.9817
   90SAPS  H15X 8799   5.888   1.396   8.786  0.0043  0.6129 -0.8135
   90SAPS  H15Y 8800   6.044   1.313   8.744  0.1091  0.4715 -0.2374
   90SAPS  C316 8801   5.902   1.311   8.586  0.1839 -0.2743  0.0787
   90SAPS  H16X 8802   5.981   1.276   8.517  2.5375 -1.5146  3.1381
   90SAPS  H16Y 8803   5.848   1.394   8.535  1.0459  0.4357  0.2777
   90SAPS  C317 8804   5.804   1.197   8.621 -0.0184 -0.1845 -0.7391
   90SAPS  H17X 8805   5.767   1.162   8.522  0.8708 -0.4220 -1.0012
   90SAPS  H17Y 8806   5.725   1.251   8.677  2.6089  1.5374  1.6022
   90SAPS  C318 8807   5.864   1.073   8.687 -0.3097  0.1320  0.2946
   90SAPS  H18X 8808   5.823   0.974   8.657  1.6469 -0.7186  0.2646
   90SAPS  H18Y 8809   5.833   1.077   8.794 -1.2513 -0.0257  0.0379
   90SAPS  H18Z 8810   5.973   1.062   8.667 -0.3956 -1.5948  0.6163
   91SAPS     N 8811   4.690   5.201   6.125  1.3789 -0.1675 -0.4989
   91SAPS   HN1 8812   4.787   5.173   6.150  1.5877  1.2398  0.3778
   91SAPS   HN2 8813   4.647   5.223   6.217  1.5250 -0.7516 -0.2870
   91SAPS   HN3 8814   4.633   5.128   6.078 -1.1447  1.3734  0.0098
   91SAPS   C12 8815   4.690   5.326   6.054 -0.7867 -0.0146 -0.0839
   91SAPS  H12A 8816   4.756   5.309   5.970  2.4541  3.7559  1.3899
   91SAPS   C13 8817   4.558   5.370   5.991  0.1234 -0.0488 -0.8196
   91SAPS  O13A 8818   4.456   5.294   5.999 -0.8077  0.0645 -0.5890
   91SAPS  O13B 8819   4.564   5.484   5.945  0.1058 -0.0295  0.0124
   91SAPS   C11 8820   4.744   5.436   6.145 -0.0618  0.1271 -0.9369
   91SAPS  H11A 8821   4.667   5.465   6.219 -0.8406  2.1959 -2.4757
   91SAPS  H11B 8822   4.762   5.530   6.089  0.4224 -0.0992 -1.1657
   91SAPS     P 8823   5.004   5.446   6.166  0.1651 -0.3494 -0.1164
   91SAPS   O13 8824   5.019   5.379   6.035 -1.2773  0.6127 -0.0223
   91SAPS   O14 8825   5.013   5.597   6.161 -0.1870 -0.2677 -0.1584
   91SAPS   O12 8826   4.858   5.396   6.226 -0.5574  0.5623 -0.3827
   91SAPS   O11 8827   5.107   5.382   6.274  0.0619 -0.6127  0.2653
   91SAPS    C1 8828   5.063   5.319   6.391 -0.0004  0.4464  0.5597
   91SAPS    HA 8829   4.980   5.247   6.374 -0.6081  1.0973  0.7540
   91SAPS    HB 8830   5.143   5.253   6.433  0.5361  1.6094  1.4096
   91SAPS    C2 8831   5.027   5.412   6.512  0.6135 -0.0578  0.1648
   91SAPS    HS 8832   4.932   5.465   6.486  0.5364 -1.2394 -2.2400
   91SAPS   O21 8833   5.129   5.507   6.517 -0.1332 -0.1976  0.1178
   91SAPS   C21 8834   5.103   5.621   6.583 -0.0511 -0.6357 -0.4524
   91SAPS   O22 8835   4.996   5.674   6.602 -0.0136  0.3413  0.4028
   91SAPS   C22 8836   5.228   5.692   6.635 -0.6784 -0.1194  0.7531
   91SAPS   H2R 8837   5.289   5.732   6.552 -0.4742 -1.3740  0.2689
   91SAPS   H2S 8838   5.190   5.773   6.701  0.3309 -1.1244  2.6778
   91SAPS    C3 8839   4.995   5.342   6.655 -0.8314 -0.1986 -0.4300
   91SAPS    HX 8840   5.089   5.345   6.714 -0.7749 -1.1912 -0.4652
   91SAPS    HY 8841   4.979   5.234   6.635  0.2769 -0.4222 -0.1958
   91SAPS   O31 8842   4.883   5.396   6.741  0.3068  0.6707 -0.0016
   91SAPS   C31 8843   4.769   5.331   6.715 -0.0410 -0.0021 -0.4857
   91SAPS   O32 8844   4.748   5.250   6.629  0.1276  0.4020 -0.1931
   91SAPS   C32 8845   4.658   5.399   6.803 -0.4078  0.2370  0.2280
   91SAPS   H2X 8846   4.641   5.493   6.746  0.5644 -0.3707 -1.1329
   91SAPS   H2Y 8847   4.704   5.433   6.898  0.1887  1.3573 -0.4457
   91SAPS   C23 8848   5.330   5.602   6.706 -0.2678 -0.6147  0.4865
   91SAPS   H3R 8849   5.369   5.545   6.619 -2.2773  0.4692 -1.2120
   91SAPS   H3S 8850   5.290   5.531   6.782  1.8579 -0.9778  1.3283
   91SAPS   C24 8851   5.445   5.683   6.765  0.1715 -0.5222 -0.1280
   91SAPS   H4R 8852   5.492   5.734   6.678  0.2734 -0.6806 -0.1666
   91SAPS   H4S 8853   5.521   5.612   6.806 -0.6312 -0.4663  1.5690
   91SAPS   C25 8854   5.399   5.776   6.878 -0.1095  0.0243 -0.3734
   91SAPS   H5R 8855   5.324   5.855   6.862 -1.4910 -0.7972  1.5854
   91SAPS   C26 8856   5.431   5.754   7.010  0.6449 -0.1685  0.3297
   91SAPS   H6R 8857   5.385   5.830   7.074 -2.3220 -0.8794 -0.7799
   91SAPS   C27 8858   5.508   5.646   7.086 -0.2383 -0.5031 -0.0568
   91SAPS   H7R 8859   5.503   5.547   7.035  1.9205 -1.5775  1.6496
   91SAPS   H7S 8860   5.461   5.644   7.187  1.0055  0.8109  0.5727
   91SAPS   C28 8861   5.652   5.666   7.098  0.0828  0.4554  0.2424
   91SAPS   H8R 8862   5.705   5.700   7.008 -1.1268  0.0789 -0.6494
   91SAPS   C29 8863   5.723   5.644   7.214  0.8788 -0.2678  0.6320
   91SAPS   H9R 8864   5.832   5.651   7.214  0.7972  1.6713 -0.0317
   91SAPS  C210 8865   5.669   5.602   7.353 -0.1783  0.0613 -0.0484
   91SAPS  H10R 8866   5.581   5.660   7.389 -0.9004  0.2587 -2.0018
   91SAPS  H10S 8867   5.753   5.613   7.425 -0.5137  1.7967  0.1236
   91SAPS  C211 8868   5.632   5.457   7.350  0.5925 -0.5295  0.2693
   91SAPS  H11R 8869   5.534   5.438   7.303  0.3612 -0.7004  0.8163
   91SAPS  C212 8870   5.690   5.354   7.423 -0.1554 -0.3419 -0.0549
   91SAPS  H12R 8871   5.646   5.253   7.417 -2.8308  0.7725 -1.2687
   91SAPS  C213 8872   5.813   5.359   7.512 -0.3387 -0.3424  0.2831
   91SAPS  H13R 8873   5.852   5.463   7.516  0.2647 -0.4503 -1.7366
   91SAPS  H13S 8874   5.893   5.298   7.464  0.9364 -0.4675  2.4399
   91SAPS  C214 8875   5.816   5.300   7.650  0.3282  0.1666  0.1557
   91SAPS  H14R 8876   5.905   5.239   7.669  0.2409 -1.4115 -3.5619
   91SAPS  C215 8877   5.736   5.324   7.755 -0.9470 -0.0184 -0.9359
   91SAPS  H15R 8878   5.757   5.279   7.853  2.0353  1.7369 -0.6501
   91SAPS  C216 8879   5.631   5.421   7.764 -0.0253  0.5810 -0.4571
   91SAPS  H16R 8880   5.544   5.365   7.805 -1.3754  2.3119 -0.8121
   91SAPS  H16S 8881   5.601   5.457   7.663  0.3431  2.1140 -0.0545
   91SAPS  C217 8882   5.654   5.543   7.855  0.0074  0.1655  0.0435
   91SAPS  H17R 8883   5.565   5.607   7.841 -0.2637 -0.5150 -1.5220
   91SAPS  H17S 8884   5.740   5.603   7.819 -0.9992  2.1036  0.7379
   91SAPS  C218 8885   5.673   5.511   8.005  0.0282  0.7214  0.0532
   91SAPS  H18R 8886   5.689   5.601   8.069  1.1794  0.2457  0.4478
   91SAPS  H18S 8887   5.767   5.454   8.013  0.0991  0.7794 -0.3241
   91SAPS  C219 8888   5.552   5.434   8.083  0.2640  0.4245 -0.5039
   91SAPS  H19R 8889   5.582   5.409   8.187 -2.7345  1.8353  0.7898
   91SAPS  H19S 8890   5.529   5.335   8.037  2.4302 -1.0464  1.3715
   91SAPS  C220 8891   5.424   5.521   8.080  0.6253  0.6279  0.5509
   91SAPS  H20R 8892   5.337   5.492   8.143 -1.3709  2.3966 -1.2159
   91SAPS  H20S 8893   5.397   5.529   7.973  0.7206 -1.3540  0.3482
   91SAPS  H20T 8894   5.465   5.616   8.121  1.3416 -0.3760  2.2624
   91SAPS   C33 8895   4.524   5.320   6.808 -0.0278 -0.5020  0.2509
   91SAPS   H3X 8896   4.498   5.292   6.704 -0.3742 -1.0256  0.4776
   91SAPS   H3Y 8897   4.441   5.387   6.840 -0.0185 -1.1310  1.6090
   91SAPS   C34 8898   4.534   5.209   6.903 -0.2808  0.1956 -0.0600
   91SAPS   H4X 8899   4.607   5.137   6.859 -0.0196 -0.5496  1.5057
   91SAPS   H4Y 8900   4.449   5.138   6.917 -1.3540  1.6299  0.9637
   91SAPS   C35 8901   4.573   5.257   7.043  0.0195 -0.0733  0.1291
   91SAPS   H5X 8902   4.676   5.299   7.036 -1.0219  2.4697 -1.0953
   91SAPS   H5Y 8903   4.569   5.164   7.103 -2.4792 -0.2305 -0.2000
   91SAPS   C36 8904   4.482   5.364   7.110  0.2862  0.6826  0.5003
   91SAPS   H6X 8905   4.376   5.345   7.084  0.5703  0.2203 -0.3684
   91SAPS   H6Y 8906   4.494   5.467   7.068  1.4641  0.2628 -0.2463
   91SAPS   C37 8907   4.515   5.379   7.257  0.3839  0.0162 -0.3615
   91SAPS   H7X 8908   4.523   5.280   7.309 -1.0756  0.1916  0.2364
   91SAPS   H7Y 8909   4.430   5.427   7.309 -1.6571 -4.1506  0.6171
   91SAPS   C38 8910   4.644   5.460   7.285 -0.2283  0.3561 -0.0443
   91SAPS   H8X 8911   4.631   5.567   7.260  0.9540  0.5530  0.1182
   91SAPS   H8Y 8912   4.731   5.423   7.226  0.4831  1.2069  0.4592
   91SAPS   C39 8913   4.676   5.467   7.436  0.1617  1.0511 -0.4311
   91SAPS   H9X 8914   4.594   5.482   7.510 -0.0686  0.1605 -0.4918
   91SAPS   H9Y 8915   4.737   5.559   7.450  2.0292  0.2798 -2.9051
   91SAPS  C310 8916   4.764   5.348   7.490 -0.0015  0.7647 -0.0160
   91SAPS  H10X 8917   4.860   5.362   7.437  1.0072  0.1792  1.5827
   91SAPS  H10Y 8918   4.727   5.249   7.456  0.1861  0.9842 -0.8806
   91SAPS  C311 8919   4.802   5.353   7.636  0.3789 -0.0113 -0.1644
   91SAPS  H11X 8920   4.812   5.462   7.654  0.0934  0.2750 -1.6207
   91SAPS  H11Y 8921   4.907   5.321   7.651  0.5928  1.3049  1.3336
   91SAPS  C312 8922   4.705   5.276   7.720 -1.2375 -0.1203  0.0901
   91SAPS  H12X 8923   4.601   5.300   7.690 -1.7312  0.0448  1.8246
   91SAPS  H12Y 8924   4.717   5.310   7.825  3.2845  2.3346 -0.9875
   91SAPS  C313 8925   4.710   5.120   7.703 -0.0723  0.0955  0.4397
   91SAPS  H13X 8926   4.712   5.088   7.596 -0.9408 -1.1722  0.7846
   91SAPS  H13Y 8927   4.607   5.090   7.730 -1.9868  2.3581 -3.3788
   91SAPS  C314 8928   4.817   5.045   7.788 -0.0323  0.2114  0.0800
   91SAPS  H14X 8929   4.812   5.068   7.897 -0.0201  0.0956  0.1059
   91SAPS  H14Y 8930   4.917   5.074   7.749 -1.0875 -0.0735 -3.1410
   91SAPS  C315 8931   4.816   4.897   7.756 -0.4263 -0.3477  0.4707
   91SAPS  H15X 8932   4.844   4.867   7.653 -2.4666  0.3607 -0.3515
   91SAPS  H15Y 8933   4.719   4.850   7.782 -0.1897 -0.6277  0.8493
   91SAPS  C316 8934   4.922   4.832   7.841 -0.9856  0.8515 -0.2354
   91SAPS  H16X 8935   5.022   4.879   7.837 -0.7797  0.5827  1.2236
   91SAPS  H16Y 8936   4.926   4.725   7.811 -0.0848  0.7528  0.2178
   91SAPS  C317 8937   4.889   4.823   7.988  0.4776 -0.2951  0.0835
   91SAPS  H17X 8938   4.798   4.761   8.005  0.1906  0.1661  0.2358
   91SAPS  H17Y 8939   4.893   4.917   8.047 -1.5846 -1.7979  2.8784
   91SAPS  C318 8940   5.013   4.754   8.056 -0.0943 -0.1624  0.0464
   91SAPS  H18X 8941   5.046   4.665   7.997 -2.0284 -1.0262  0.2036
   91SAPS  H18Y 8942   4.985   4.715   8.156  3.3705 -0.1931  1.1665
   91SAPS  H18Z 8943   5.099   4.824   8.062  0.3900 -0.6105 -1.1346
   92SAPS     N 8944   5.033   4.560   6.130 -0.9315 -0.6007  0.0011
   92SAPS   HN1 8945   5.025   4.466   6.085  0.5628 -0.4889 -0.5445
   92SAPS   HN2 8946   5.131   4.591   6.147 -1.1514 -0.1471  0.4419
   92SAPS   HN3 8947   4.989   4.562   6.224 -0.8190 -1.6260  0.0956
   92SAPS   C12 8948   4.968   4.649   6.038  0.5151  0.0622 -0.4902
   92SAPS  H12A 8949   5.006   4.637   5.937 -0.1487 -0.9959 -0.6253
   92SAPS   C13 8950   4.816   4.636   6.019  0.3447  0.2430  0.3370
   92SAPS  O13A 8951   4.748   4.551   6.081  0.3243  0.5236 -0.3578
   92SAPS  O13B 8952   4.760   4.718   5.942 -0.2889 -0.2936  0.5246
   92SAPS   C11 8953   4.990   4.794   6.104  0.6646  0.1881  0.7749
   92SAPS  H11A 8954   4.952   4.869   6.032  0.1797  0.0549  0.8931
   92SAPS  H11B 8955   5.100   4.814   6.108  1.2094 -0.8416 -3.5857
   92SAPS     P 8956   4.887   4.940   6.300 -0.0295 -0.4266  0.0235
   92SAPS   O13 8957   4.926   5.048   6.206  0.2731  0.0038 -0.2627
   92SAPS   O14 8958   4.745   4.926   6.338  0.1546 -0.1830 -0.2059
   92SAPS   O12 8959   4.924   4.799   6.232  0.5502  0.6759  0.0956
   92SAPS   O11 8960   4.972   4.937   6.431  0.5282 -0.2862  0.1338
   92SAPS    C1 8961   5.022   4.820   6.484 -0.1428 -0.0089  0.7322
   92SAPS    HA 8962   4.938   4.750   6.504 -1.0697  0.5309 -1.0290
   92SAPS    HB 8963   5.094   4.777   6.412 -2.0599  1.1663 -2.0594
   92SAPS    C2 8964   5.102   4.841   6.613 -0.1743  0.2034 -0.0011
   92SAPS    HS 8965   5.122   4.737   6.647 -1.8377 -0.8595 -1.9807
   92SAPS   O21 8966   5.020   4.924   6.695 -0.3510  0.3972  0.2494
   92SAPS   C21 8967   5.048   4.916   6.824  0.3310 -0.0868 -0.1148
   92SAPS   O22 8968   5.085   4.820   6.888 -0.5639 -0.1502  0.1140
   92SAPS   C22 8969   5.007   5.041   6.886 -0.0487  0.8170  0.6109
   92SAPS   H2R 8970   5.084   5.117   6.861 -0.4948  0.8270 -0.8693
   92SAPS   H2S 8971   4.912   5.070   6.837  0.5189  0.1012 -0.9992
   92SAPS    C3 8972   5.235   4.908   6.577 -0.8989  0.1178 -0.1424
   92SAPS    HX 8973   5.206   5.003   6.529  0.4940  0.4961 -0.2707
   92SAPS    HY 8974   5.288   4.841   6.506 -0.6696  1.1410 -0.9605
   92SAPS   O31 8975   5.322   4.921   6.689  0.1259 -0.9077  0.0764
   92SAPS   C31 8976   5.425   5.009   6.668 -0.5933  0.2298  0.4904
   92SAPS   O32 8977   5.451   5.057   6.560 -0.0025 -0.4196  0.0571
   92SAPS   C32 8978   5.503   5.020   6.798  0.5247  0.7829 -0.2498
   92SAPS   H2X 8979   5.610   5.000   6.776  0.6226  0.3793  0.5578
   92SAPS   H2Y 8980   5.470   4.938   6.866 -0.9090  1.9662  0.5277
   92SAPS   C23 8981   4.999   5.040   7.041  0.1522  0.4301 -0.4667
   92SAPS   H3R 8982   5.001   5.146   7.074  0.5587  0.5119 -0.7549
   92SAPS   H3S 8983   5.078   4.980   7.091 -0.7416  2.3636  3.7267
   92SAPS   C24 8984   4.849   4.999   7.083 -0.7753  0.4148  0.6031
   92SAPS   H4R 8985   4.826   4.897   7.045  1.1314 -0.4166  1.5636
   92SAPS   H4S 8986   4.806   5.084   7.025 -1.2165  0.5041  1.0594
   92SAPS   C25 8987   4.833   5.003   7.234  0.1579 -0.1252  0.1411
   92SAPS   H5R 8988   4.803   5.101   7.275  0.8783  0.1514  0.0309
   92SAPS   C26 8989   4.845   4.898   7.323  0.1733  0.2622 -0.3913
   92SAPS   H6R 8990   4.822   4.917   7.429  1.5278  0.4953 -0.1244
   92SAPS   C27 8991   4.883   4.757   7.301 -0.3535 -0.7757  0.3450
   92SAPS   H7R 8992   4.967   4.749   7.228  1.0261  0.8939  1.6676
   92SAPS   H7S 8993   4.793   4.718   7.249 -0.4968  2.1961 -1.8683
   92SAPS   C28 8994   4.897   4.665   7.421  0.0817  0.1781 -0.3214
   92SAPS   H8R 8995   4.815   4.685   7.491  0.1704  0.0072 -0.1694
   92SAPS   C29 8996   4.987   4.567   7.437  0.0811 -0.4868 -0.8434
   92SAPS   H9R 8997   4.991   4.508   7.530  0.5905 -0.8929 -1.1155
   92SAPS  C210 8998   5.097   4.534   7.337  0.1496 -0.4159 -0.8296
   92SAPS  H10R 8999   5.167   4.613   7.369 -0.3732  0.0917 -0.9275
   92SAPS  H10S 9000   5.074   4.566   7.234 -0.9004 -0.8439 -0.7451
   92SAPS  C211 9001   5.169   4.404   7.344  0.2793  0.3192  0.1278
   92SAPS  H11R 9002   5.277   4.419   7.358  0.3343 -0.0584  0.1184
   92SAPS  C212 9003   5.113   4.284   7.352 -0.4524 -0.9355  0.1010
   92SAPS  H12R 9004   5.167   4.189   7.340 -0.5928 -0.9031 -0.8698
   92SAPS  C213 9005   4.964   4.265   7.342 -0.6239 -0.0895  0.0047
   92SAPS  H13R 9006   4.921   4.336   7.269  0.5165 -0.2075 -0.8110
   92SAPS  H13S 9007   4.926   4.289   7.443 -2.2308 -1.1317 -0.3111
   92SAPS  C214 9008   4.911   4.125   7.309  1.2066  0.7841  0.3696
   92SAPS  H14R 9009   4.880   4.108   7.205  0.3932  1.9019  0.4084
   92SAPS  C215 9010   4.890   4.023   7.394  0.1408 -0.4813  0.1693
   92SAPS  H15R 9011   4.838   3.933   7.359 -0.5864 -0.3408  0.8539
   92SAPS  C216 9012   4.929   4.018   7.536 -0.4185 -0.3699 -0.3037
   92SAPS  H16R 9013   4.847   4.026   7.611 -0.5220  1.8288 -0.5763
   92SAPS  H16S 9014   4.998   4.100   7.564 -2.0708  0.5469  1.2965
   92SAPS  C217 9015   5.006   3.884   7.556 -0.3031 -0.1194 -0.3840
   92SAPS  H17R 9016   5.094   3.884   7.488 -1.6955  1.8620 -2.3233
   92SAPS  H17S 9017   4.948   3.790   7.542  1.0022 -1.1503  0.8392
   92SAPS  C218 9018   5.051   3.878   7.706 -0.2334  0.3654  0.1507
   92SAPS  H18R 9019   5.088   3.976   7.743 -0.0804  0.3030  0.1626
   92SAPS  H18S 9020   5.140   3.812   7.707  0.8110  1.7551  1.0274
   92SAPS  C219 9021   4.940   3.830   7.805  0.3922 -0.2334  0.9742
   92SAPS  H19R 9022   4.896   3.740   7.758  2.5783  0.3114 -2.5209
   92SAPS  H19S 9023   4.873   3.917   7.820  1.1848  0.3737  1.0472
   92SAPS  C220 9024   4.999   3.799   7.944  0.3567 -0.0841  0.5650
   92SAPS  H20R 9025   4.919   3.764   8.012 -0.3992  0.2266 -0.1475
   92SAPS  H20S 9026   5.035   3.896   7.985 -1.5980  0.1379  1.8784
   92SAPS  H20T 9027   5.081   3.724   7.940  0.5102  0.1012  0.2110
   92SAPS   C33 9028   5.492   5.157   6.867 -1.3866  0.4053 -0.1840
   92SAPS   H3X 9029   5.537   5.232   6.799  1.6953 -0.0546  1.1726
   92SAPS   H3Y 9030   5.558   5.166   6.956 -2.5666 -0.1076  0.7696
   92SAPS   C34 9031   5.355   5.190   6.913 -0.4119  0.2661 -0.4375
   92SAPS   H4X 9032   5.319   5.096   6.958  2.5225 -1.6911 -1.7991
   92SAPS   H4Y 9033   5.294   5.199   6.821 -0.4470 -0.6522 -0.5049
   92SAPS   C35 9034   5.343   5.317   6.991 -0.1075  0.1794 -0.0363
   92SAPS   H5X 9035   5.355   5.414   6.936  0.6100  1.0072  1.5070
   92SAPS   H5Y 9036   5.420   5.318   7.071 -0.3470  0.3644  0.1920
   92SAPS   C36 9037   5.207   5.344   7.064 -0.0643 -0.0915 -0.4173
   92SAPS   H6X 9038   5.189   5.263   7.138  1.1257 -0.6422 -0.6960
   92SAPS   H6Y 9039   5.116   5.350   7.001  0.3494 -0.0986 -1.0309
   92SAPS   C37 9040   5.219   5.476   7.143  0.2651 -0.3111 -0.4296
   92SAPS   H7X 9041   5.234   5.571   7.088  1.7596  0.7023  1.5939
   92SAPS   H7Y 9042   5.312   5.469   7.204 -1.0021  0.0849  1.6494
   92SAPS   C38 9043   5.099   5.491   7.245 -0.1608 -0.0920  0.1059
   92SAPS   H8X 9044   5.093   5.389   7.289 -1.2642  0.2469  0.7828
   92SAPS   H8Y 9045   5.010   5.510   7.183 -1.0468 -0.9892  1.0601
   92SAPS   C39 9046   5.113   5.594   7.359 -0.6540  0.1618 -0.9357
   92SAPS   H9X 9047   5.025   5.578   7.425  0.0250 -1.0711 -0.2824
   92SAPS   H9Y 9048   5.111   5.698   7.321 -2.6740  1.6347  2.7110
   92SAPS  C310 9049   5.237   5.569   7.454  0.4073 -0.1754  0.2153
   92SAPS  H10X 9050   5.326   5.572   7.387 -0.4926  1.3249 -0.9775
   92SAPS  H10Y 9051   5.236   5.463   7.485 -1.1573 -0.5562 -1.0135
   92SAPS  C311 9052   5.254   5.654   7.578 -0.2052 -0.0459  0.1086
   92SAPS  H11X 9053   5.271   5.762   7.555  1.6826 -0.0186  1.4350
   92SAPS  H11Y 9054   5.339   5.610   7.634 -0.2321 -1.3270 -0.8171
   92SAPS  C312 9055   5.139   5.645   7.678 -0.7652 -0.4357  0.3948
   92SAPS  H12X 9056   5.127   5.537   7.705 -1.4766 -0.6407 -0.6826
   92SAPS  H12Y 9057   5.040   5.682   7.645 -1.1001 -0.4112  1.3688
   92SAPS  C313 9058   5.174   5.719   7.813  0.0816  0.0347  0.3687
   92SAPS  H13X 9059   5.216   5.822   7.804  0.4685 -0.1680 -0.2562
   92SAPS  H13Y 9060   5.261   5.665   7.855 -1.0984 -1.9184  0.3973
   92SAPS  C314 9061   5.059   5.731   7.910  0.0189  0.1948  0.7401
   92SAPS  H14X 9062   4.990   5.647   7.890  3.0586 -2.4727  0.7883
   92SAPS  H14Y 9063   5.000   5.826   7.910  0.4053  0.4368  0.9439
   92SAPS  C315 9064   5.111   5.715   8.049  0.7336  0.4767 -0.1603
   92SAPS  H15X 9065   5.176   5.799   8.081 -1.0024  1.0176  2.1665
   92SAPS  H15Y 9066   5.162   5.616   8.055  0.5337  0.0895 -3.2119
   92SAPS  C316 9067   5.001   5.711   8.158  0.0967 -0.2794 -0.3183
   92SAPS  H16X 9068   4.945   5.620   8.128  0.8228 -0.3117 -1.6186
   92SAPS  H16Y 9069   4.939   5.803   8.159  2.3883  1.3423  0.4531
   92SAPS  C317 9070   5.074   5.696   8.290  0.1033  0.1815  0.8332
   92SAPS  H17X 9071   5.177   5.738   8.290  1.1308 -2.1093 -1.1693
   92SAPS  H17Y 9072   5.093   5.587   8.305 -0.7896 -0.3288 -1.3508
   92SAPS  C318 9073   4.986   5.751   8.402  0.0673 -0.0889  0.3958
   92SAPS  H18X 9074   4.954   5.857   8.395  1.5590  0.6159  2.8886
   92SAPS  H18Y 9075   5.052   5.753   8.492  3.2457 -1.1918 -1.7175
   92SAPS  H18Z 9076   4.899   5.684   8.416 -0.1012  0.0444 -0.0038
   93SAPS     N 9077   5.057   3.996   6.218  0.2347 -0.5055 -0.3705
   93SAPS   HN1 9078   5.160   3.991   6.204  0.2161 -0.8792 -0.3982
   93SAPS   HN2 9079   5.031   3.956   6.311 -2.0088  2.0002  0.1883
   93SAPS   HN3 9080   5.016   3.934   6.145 -0.1655 -0.1671 -0.4393
   93SAPS   C12 9081   5.001   4.133   6.198 -0.0709  0.1343  0.7262
   93SAPS  H12A 9082   5.050   4.194   6.273 -2.3326  0.0362  2.3885
   93SAPS   C13 9083   5.028   4.191   6.054  0.4712 -0.5020 -0.2188
   93SAPS  O13A 9084   5.123   4.134   5.998  0.5535  0.2849  0.2932
   93SAPS  O13B 9085   4.983   4.302   6.024  0.6538 -0.4568  0.5375
   93SAPS   C11 9086   4.849   4.136   6.218 -0.0606  0.6030  0.7819
   93SAPS  H11A 9087   4.797   4.068   6.146 -0.8459 -1.0872  2.8428
   93SAPS  H11B 9088   4.813   4.240   6.201 -1.1066  0.5290  2.3352
   93SAPS     P 9089   4.669   4.070   6.399 -0.6313 -0.0332 -0.4645
   93SAPS   O13 9090   4.579   4.160   6.327 -0.2502 -0.4918  0.9474
   93SAPS   O14 9091   4.627   3.928   6.386  0.1377  1.1399 -0.3395
   93SAPS   O12 9092   4.815   4.083   6.348  0.0562 -0.5298  0.1977
   93SAPS   O11 9093   4.670   4.115   6.555  0.0339  0.2783  0.4975
   93SAPS    C1 9094   4.781   4.169   6.617 -0.4747  0.2963 -0.0449
   93SAPS    HA 9095   4.869   4.101   6.615 -1.0890 -0.4987 -0.4898
   93SAPS    HB 9096   4.807   4.268   6.573 -1.5707  0.8230  0.4454
   93SAPS    C2 9097   4.755   4.186   6.768  0.5286  0.2949  0.8267
   93SAPS    HS 9098   4.841   4.228   6.823 -0.0972 -0.4606  2.4361
   93SAPS   O21 9099   4.714   4.063   6.823  0.1942 -0.4970 -0.6025
   93SAPS   C21 9100   4.804   3.975   6.840 -0.0286  0.3121  0.3202
   93SAPS   O22 9101   4.924   3.990   6.830 -0.2629  0.1191 -0.0099
   93SAPS   C22 9102   4.746   3.843   6.872  0.2183  0.4696 -0.3300
   93SAPS   H2R 9103   4.678   3.809   6.791 -2.8365  1.4336  1.6185
   93SAPS   H2S 9104   4.829   3.770   6.871  0.6252  0.9320 -1.0214
   93SAPS    C3 9105   4.645   4.296   6.792 -0.1868  0.0160  0.2060
   93SAPS    HX 9106   4.543   4.262   6.764  0.1486 -1.1476  0.3278
   93SAPS    HY 9107   4.655   4.389   6.732 -1.4437  0.7931  1.1573
   93SAPS   O31 9108   4.642   4.343   6.930 -0.3067  0.5276  0.3869
   93SAPS   C31 9109   4.565   4.285   7.018  0.6969  1.1513  0.0803
   93SAPS   O32 9110   4.485   4.195   6.992  0.2706  0.1547  0.5127
   93SAPS   C32 9111   4.604   4.343   7.158  0.1348 -0.3784  0.0054
   93SAPS   H2X 9112   4.599   4.454   7.148  1.3134 -0.3651 -0.6034
   93SAPS   H2Y 9113   4.710   4.312   7.169 -0.0896 -1.0583  0.3414
   93SAPS   C23 9114   4.659   3.843   7.000  0.7911 -0.0838  0.2390
   93SAPS   H3R 9115   4.595   3.934   7.000  0.8041 -0.0726 -0.3174
   93SAPS   H3S 9116   4.726   3.856   7.088  0.3555  2.7801  0.2572
   93SAPS   C24 9117   4.588   3.705   7.015  0.5102  0.1628 -0.7312
   93SAPS   H4R 9118   4.663   3.631   7.049  0.0794 -0.8063 -1.8435
   93SAPS   H4S 9119   4.546   3.669   6.919 -1.9909  2.2775 -0.5471
   93SAPS   C25 9120   4.478   3.717   7.116 -0.1934  0.0174  0.1009
   93SAPS   H5R 9121   4.394   3.775   7.076  0.6807  1.0941 -0.2135
   93SAPS   C26 9122   4.473   3.670   7.242 -0.0520  0.1045 -0.7300
   93SAPS   H6R 9123   4.387   3.704   7.302 -0.4636 -1.2747 -0.5042
   93SAPS   C27 9124   4.590   3.593   7.312  0.2728 -0.7688  0.0486
   93SAPS   H7R 9125   4.665   3.546   7.244  1.1000 -1.7125  1.5491
   93SAPS   H7S 9126   4.545   3.512   7.374 -1.5452 -0.3850 -0.7330
   93SAPS   C28 9127   4.681   3.685   7.395  0.3701  0.2699 -0.1360
   93SAPS   H8R 9128   4.747   3.747   7.332  0.8087 -0.2610 -0.2114
   93SAPS   C29 9129   4.693   3.688   7.535  0.4132  0.1734 -0.3708
   93SAPS   H9R 9130   4.752   3.770   7.578 -0.8633  0.6892  0.4451
   93SAPS  C210 9131   4.617   3.595   7.635 -0.1078 -0.9293  0.0178
   93SAPS  H10R 9132   4.522   3.562   7.587 -0.0226  0.3124 -1.0458
   93SAPS  H10S 9133   4.582   3.661   7.717  0.7277  0.2052 -0.5257
   93SAPS  C211 9134   4.690   3.474   7.691 -0.1507 -0.2330 -0.7247
   93SAPS  H11R 9135   4.717   3.398   7.616  1.9774  0.1162 -0.3770
   93SAPS  C212 9136   4.737   3.461   7.818 -0.2760  0.4843 -0.3673
   93SAPS  H12R 9137   4.805   3.377   7.835  0.3148  0.8015 -1.0980
   93SAPS  C213 9138   4.730   3.561   7.935 -0.1579  0.8802 -0.2420
   93SAPS  H13R 9139   4.764   3.665   7.915  4.6321 -0.9420 -3.2391
   93SAPS  H13S 9140   4.794   3.522   8.017 -0.3733  0.2280 -0.3756
   93SAPS  C214 9141   4.588   3.571   7.976  0.1052 -0.4535 -0.7104
   93SAPS  H14R 9142   4.533   3.476   7.969 -0.6210 -0.3585  2.2269
   93SAPS  C215 9143   4.532   3.682   8.025  0.0647 -0.5980 -0.3733
   93SAPS  H15R 9144   4.428   3.679   8.062  0.7975 -1.6240  1.7210
   93SAPS  C216 9145   4.593   3.825   8.045 -0.4509  1.0526  0.4614
   93SAPS  H16R 9146   4.520   3.892   7.994  0.1163  0.7142 -0.8336
   93SAPS  H16S 9147   4.690   3.839   7.992 -2.5748  3.0238 -3.3216
   93SAPS  C217 9148   4.604   3.863   8.196  0.2530 -0.3453  0.0141
   93SAPS  H17R 9149   4.674   3.795   8.248  0.0604 -0.1994  0.4736
   93SAPS  H17S 9150   4.501   3.853   8.237  0.1181  1.3388  0.1541
   93SAPS  C218 9151   4.661   4.000   8.217 -0.2350 -0.9949  0.3432
   93SAPS  H18R 9152   4.606   4.075   8.157  0.3361  0.6700  1.8120
   93SAPS  H18S 9153   4.766   4.010   8.182  0.0480 -0.9318  1.1869
   93SAPS  C219 9154   4.633   4.048   8.360  0.2990  0.4149 -1.0258
   93SAPS  H19R 9155   4.678   3.975   8.431  1.9206  0.5745 -1.8447
   93SAPS  H19S 9156   4.523   4.047   8.370  0.0024 -0.2203 -3.7174
   93SAPS  C220 9157   4.685   4.190   8.396  0.0391  0.3418 -0.2060
   93SAPS  H20R 9158   4.663   4.207   8.503  1.1576  0.3160  0.0413
   93SAPS  H20S 9159   4.633   4.274   8.345 -1.4877  1.0764  2.4075
   93SAPS  H20T 9160   4.795   4.193   8.380 -0.0052 -0.0927 -0.6039
   93SAPS   C33 9161   4.520   4.299   7.286 -0.5286  0.7291 -0.5997
   93SAPS   H3X 9162   4.491   4.193   7.266 -0.7341  0.7667 -0.5088
   93SAPS   H3Y 9163   4.428   4.361   7.285 -1.1245 -0.0988  0.1631
   93SAPS   C34 9164   4.590   4.301   7.424 -0.2242  0.9643 -0.3459
   93SAPS   H4X 9165   4.676   4.232   7.407 -0.2517  1.0573 -0.8690
   93SAPS   H4Y 9166   4.514   4.247   7.484  0.8230  0.5626  0.6653
   93SAPS   C35 9167   4.633   4.431   7.487  0.1872  0.0097 -0.5726
   93SAPS   H5X 9168   4.558   4.511   7.471 -0.8789  0.2753  4.2495
   93SAPS   H5Y 9169   4.731   4.467   7.448  1.6689 -1.9334  1.0814
   93SAPS   C36 9170   4.659   4.425   7.638  0.3899 -0.4986  0.4875
   93SAPS   H6X 9171   4.561   4.396   7.681 -0.9952 -0.0088 -2.1614
   93SAPS   H6Y 9172   4.681   4.524   7.682 -1.9548  0.6616 -0.7813
   93SAPS   C37 9173   4.777   4.340   7.692  0.6264  0.5351  0.3436
   93SAPS   H7X 9174   4.868   4.384   7.646  0.8099 -0.3501 -0.1652
   93SAPS   H7Y 9175   4.756   4.237   7.655  1.7940  0.3999  0.0275
   93SAPS   C38 9176   4.790   4.323   7.849  0.5584  0.2635  0.1031
   93SAPS   H8X 9177   4.698   4.270   7.882  1.5785 -1.5690  0.0964
   93SAPS   H8Y 9178   4.790   4.421   7.901  2.0954 -0.3348  1.2974
   93SAPS   C39 9179   4.907   4.247   7.902 -0.4288  0.2851 -0.7292
   93SAPS   H9X 9180   5.003   4.290   7.868  0.1792 -0.5783 -0.1575
   93SAPS   H9Y 9181   4.903   4.147   7.853  0.6241 -0.4883  0.6874
   93SAPS  C310 9182   4.899   4.232   8.049  0.0686 -0.6119  0.6879
   93SAPS  H10X 9183   4.941   4.134   8.080 -1.4005 -1.2862  0.6407
   93SAPS  H10Y 9184   4.796   4.230   8.089  0.2565 -2.3017  1.1906
   93SAPS  C311 9185   4.973   4.352   8.125  0.7780 -0.1496 -0.6313
   93SAPS  H11X 9186   4.895   4.408   8.180  0.1929 -1.3178 -0.2557
   93SAPS  H11Y 9187   5.021   4.422   8.053  0.3616  1.1055  0.2768
   93SAPS  C312 9188   5.080   4.302   8.222 -0.2147 -0.0811 -0.0959
   93SAPS  H12X 9189   5.153   4.239   8.168 -0.8226 -0.7413 -0.1608
   93SAPS  H12Y 9190   5.021   4.228   8.281 -1.0198 -1.0662 -2.0462
   93SAPS  C313 9191   5.138   4.408   8.314 -0.8692  0.8595  0.4247
   93SAPS  H13X 9192   5.209   4.357   8.382  0.3904 -2.4242 -3.0442
   93SAPS  H13Y 9193   5.066   4.464   8.378 -1.5514  0.1353  0.2937
   93SAPS  C314 9194   5.239   4.507   8.248 -0.5812  0.0247  0.1291
   93SAPS  H14X 9195   5.175   4.564   8.177  0.2198  0.2905 -0.3886
   93SAPS  H14Y 9196   5.311   4.449   8.187  1.7765  3.6051 -0.8020
   93SAPS  C315 9197   5.312   4.598   8.347 -0.0804  0.2840 -0.8182
   93SAPS  H15X 9198   5.233   4.622   8.422  0.5930 -1.2126  0.4325
   93SAPS  H15Y 9199   5.330   4.694   8.294 -2.8590  1.9007  0.9032
   93SAPS  C316 9200   5.437   4.536   8.413  0.3959  0.5222  0.0688
   93SAPS  H16X 9201   5.496   4.482   8.336 -1.2599  0.0526 -0.9159
   93SAPS  H16Y 9202   5.397   4.457   8.481 -0.4575 -0.5489 -1.5991
   93SAPS  C317 9203   5.535   4.624   8.494 -0.8262  0.0099  0.2053
   93SAPS  H17X 9204   5.559   4.720   8.444 -1.2878  0.2873  0.5011
   93SAPS  H17Y 9205   5.637   4.580   8.494 -0.5587  0.6264  0.1727
   93SAPS  C318 9206   5.481   4.648   8.635 -0.5738  0.5142 -0.1295
   93SAPS  H18X 9207   5.544   4.735   8.663 -1.1999  0.5327  1.3264
   93SAPS  H18Y 9208   5.502   4.561   8.701  2.4364  2.4340  1.7014
   93SAPS  H18Z 9209   5.372   4.668   8.639 -1.0965 -1.6255 -1.8000
   94SAPS     N 9210   6.711   0.928   5.731 -0.2234  0.8762 -0.5493
   94SAPS   HN1 9211   6.649   0.966   5.656 -1.0215  1.2792  0.2922
   94SAPS   HN2 9212   6.736   0.996   5.806  1.7225 -0.6098  0.2264
   94SAPS   HN3 9213   6.800   0.889   5.694  1.0097  0.8162  2.2105
   94SAPS   C12 9214   6.625   0.826   5.797  0.2811  0.2027  0.1319
   94SAPS  H12A 9215   6.568   0.874   5.875  1.0219 -2.2719  2.3105
   94SAPS   C13 9216   6.532   0.742   5.698  0.5817  0.0282 -0.5058
   94SAPS  O13A 9217   6.523   0.764   5.573 -0.1362 -0.7972 -1.1542
   94SAPS  O13B 9218   6.450   0.664   5.755  0.2979  0.2131  0.0656
   94SAPS   C11 9219   6.716   0.726   5.871  0.2550 -0.2432  0.4230
   94SAPS  H11A 9220   6.759   0.656   5.797 -0.6508 -1.0982  0.6782
   94SAPS  H11B 9221   6.651   0.663   5.936 -1.7299 -0.1642 -1.3847
   94SAPS     P 9222   6.929   0.699   6.015  0.1855  0.2402  0.1215
   94SAPS   O13 9223   6.951   0.582   5.934  0.6120 -0.1706 -0.5658
   94SAPS   O14 9224   7.050   0.778   6.047  0.0140  0.4526 -0.7338
   94SAPS   O12 9225   6.822   0.792   5.945  0.0164 -0.1004 -0.2310
   94SAPS   O11 9226   6.856   0.652   6.143  0.1053 -0.0304 -0.1595
   94SAPS    C1 9227   6.794   0.748   6.233 -0.0197 -0.2628  0.6210
   94SAPS    HA 9228   6.769   0.842   6.179 -0.6200 -1.8094 -1.9666
   94SAPS    HB 9229   6.702   0.705   6.277 -1.1653  0.3642 -1.0933
   94SAPS    C2 9230   6.891   0.790   6.352  0.5512 -0.2168  0.9733
   94SAPS    HS 9231   6.977   0.837   6.300 -0.1921 -0.7535 -0.8177
   94SAPS   O21 9232   6.932   0.672   6.426  0.1675 -0.7774 -0.7277
   94SAPS   C21 9233   7.045   0.660   6.485  0.4893  0.5523  0.2511
   94SAPS   O22 9234   7.136   0.742   6.469  0.3128 -0.0534  0.2443
   94SAPS   C22 9235   7.032   0.549   6.585  0.1629  0.4341 -0.0336
   94SAPS   H2R 9236   6.977   0.589   6.672 -0.2319  2.3706 -1.1240
   94SAPS   H2S 9237   6.972   0.468   6.538  0.1937  0.0567  0.5677
   94SAPS    C3 9238   6.824   0.900   6.445  0.0069 -0.0137  1.1046
   94SAPS    HX 9239   6.735   0.851   6.490  0.1358 -1.3122  0.0199
   94SAPS    HY 9240   6.784   0.981   6.381 -1.3738 -2.3157 -1.1165
   94SAPS   O31 9241   6.913   0.959   6.544 -0.3092  0.0189  0.4355
   94SAPS   C31 9242   6.910   0.907   6.671  0.0876  0.3811  0.2840
   94SAPS   O32 9243   6.848   0.811   6.708  0.6380  0.1590 -0.0840
   94SAPS   C32 9244   6.988   0.988   6.773 -0.3286 -0.3791  0.6018
   94SAPS   H2X 9245   6.947   1.091   6.768  0.3710 -0.1396 -0.3900
   94SAPS   H2Y 9246   7.090   0.993   6.730 -0.1444 -1.0347  0.9435
   94SAPS   C23 9247   7.167   0.492   6.635  0.2389 -0.3097  0.0839
   94SAPS   H3R 9248   7.233   0.581   6.636 -1.1638  0.8724 -2.6068
   94SAPS   H3S 9249   7.205   0.421   6.559  0.6011  0.4304 -0.4373
   94SAPS   C24 9250   7.162   0.431   6.774 -0.0810 -0.4012  0.6148
   94SAPS   H4R 9251   7.152   0.521   6.838  1.2741  0.5245 -0.3983
   94SAPS   H4S 9252   7.267   0.395   6.781  0.4061  0.8231 -0.0176
   94SAPS   C25 9253   7.058   0.335   6.819  0.4843 -0.5805  0.7991
   94SAPS   H5R 9254   7.015   0.272   6.741  0.2240  0.4369  0.1083
   94SAPS   C26 9255   6.997   0.320   6.937 -0.0407 -0.6633 -0.5605
   94SAPS   H6R 9256   6.935   0.231   6.955 -2.0874  0.9378  0.7365
   94SAPS   C27 9257   7.013   0.399   7.057 -0.8442 -0.6345 -0.1545
   94SAPS   H7R 9258   7.087   0.479   7.035  3.2828 -3.5119  1.9119
   94SAPS   H7S 9259   7.054   0.339   7.142 -3.7675  0.0125  1.8465
   94SAPS   C28 9260   6.879   0.448   7.108 -0.4295  0.0736  0.1386
   94SAPS   H8R 9261   6.794   0.423   7.042  0.8506 -0.1719 -1.4897
   94SAPS   C29 9262   6.851   0.519   7.222 -0.0606  0.2858  0.0488
   94SAPS   H9R 9263   6.751   0.541   7.260  0.1314 -0.8234  1.2675
   94SAPS  C210 9264   6.958   0.561   7.324 -0.1229 -0.2657  0.0568
   94SAPS  H10R 9265   6.920   0.644   7.388  1.0232  0.4354 -0.1471
   94SAPS  H10S 9266   7.043   0.609   7.272 -1.4246  4.4641  1.7659
   94SAPS  C211 9267   6.998   0.442   7.410 -0.1975  0.4776 -0.4448
   94SAPS  H11R 9268   7.049   0.359   7.361  1.6181  1.9741 -1.2208
   94SAPS  C212 9269   6.976   0.429   7.547  0.8025 -0.0766  0.5054
   94SAPS  H12R 9270   6.993   0.332   7.594 -1.6686 -0.3507  0.9728
   94SAPS  C213 9271   6.911   0.536   7.639 -0.3610 -0.0545 -0.7355
   94SAPS  H13R 9272   6.931   0.636   7.597 -0.0787 -0.0465 -0.5804
   94SAPS  H13S 9273   6.963   0.529   7.737  1.3474  1.7225 -1.4754
   94SAPS  C214 9274   6.761   0.524   7.650 -0.3345  0.2637 -0.2583
   94SAPS  H14R 9275   6.708   0.521   7.554  1.1848 -0.5104 -1.1120
   94SAPS  C215 9276   6.694   0.516   7.766  0.1299  0.9286 -0.1852
   94SAPS  H15R 9277   6.585   0.507   7.768  0.2093 -1.3304 -1.7400
   94SAPS  C216 9278   6.757   0.505   7.903  0.3999 -0.3248  0.1429
   94SAPS  H16R 9279   6.843   0.435   7.901 -1.0347 -2.2540  1.7951
   94SAPS  H16S 9280   6.686   0.463   7.978  0.2836 -0.9256 -0.2964
   94SAPS  C217 9281   6.816   0.628   7.971  0.3635 -0.1994 -0.1043
   94SAPS  H17R 9282   6.744   0.710   7.994  0.0758  0.1283 -1.9689
   94SAPS  H17S 9283   6.894   0.673   7.906  0.1045  1.0881  0.4428
   94SAPS  C218 9284   6.888   0.577   8.097  0.8034  0.4799 -0.4996
   94SAPS  H18R 9285   6.922   0.473   8.076  1.7665  0.1130  2.4224
   94SAPS  H18S 9286   6.820   0.564   8.185  1.9960 -0.6167  0.2921
   94SAPS  C219 9287   7.016   0.650   8.141  0.6433 -0.7498  0.0544
   94SAPS  H19R 9288   7.078   0.666   8.050 -0.4209  2.9867 -0.2084
   94SAPS  H19S 9289   7.079   0.602   8.218  1.7430 -1.7402 -1.4165
   94SAPS  C220 9290   6.995   0.792   8.200  0.1588 -0.6893  0.4711
   94SAPS  H20R 9291   6.989   0.778   8.310  3.6239 -0.6072  0.8065
   94SAPS  H20S 9292   6.900   0.841   8.172  0.1889 -1.3807 -0.9251
   94SAPS  H20T 9293   7.077   0.863   8.173 -0.3016  0.2720  1.5530
   94SAPS   C33 9294   6.986   0.941   6.922  0.4169  0.1381  0.2798
   94SAPS   H3X 9295   7.016   0.835   6.934  0.0457  0.0068  0.0483
   94SAPS   H3Y 9296   6.886   0.936   6.970 -0.2778 -0.5419 -1.1818
   94SAPS   C34 9297   7.081   1.028   6.992 -0.8982 -0.1964 -0.1694
   94SAPS   H4X 9298   7.037   1.128   7.010 -0.6059 -0.0548 -0.2354
   94SAPS   H4Y 9299   7.174   1.040   6.932 -0.1902 -0.1878  0.9121
   94SAPS   C35 9300   7.138   0.975   7.126 -0.1281 -0.7701 -0.3622
   94SAPS   H5X 9301   7.241   1.015   7.130 -0.0618 -0.8663 -1.0640
   94SAPS   H5Y 9302   7.154   0.866   7.118  2.3906 -0.3578 -2.1058
   94SAPS   C36 9303   7.059   1.003   7.253  0.1376 -0.5522  0.2585
   94SAPS   H6X 9304   6.954   0.971   7.235  0.0857 -1.0134  1.2985
   94SAPS   H6Y 9305   7.050   1.109   7.285 -3.8854 -0.1480 -1.6957
   94SAPS   C37 9306   7.106   0.924   7.372  0.1760  0.7439  0.0159
   94SAPS   H7X 9307   7.209   0.956   7.396 -0.3174  1.0010  2.0462
   94SAPS   H7Y 9308   7.107   0.815   7.349  0.9763  0.3281  1.8032
   94SAPS   C38 9309   7.020   0.945   7.494 -1.6652 -0.3204 -0.2004
   94SAPS   H8X 9310   6.946   0.863   7.493  0.6223 -2.5278  1.0809
   94SAPS   H8Y 9311   6.974   1.047   7.491 -1.3483 -0.1756 -0.1666
   94SAPS   C39 9312   7.106   0.930   7.624  0.9544 -0.2461 -0.3990
   94SAPS   H9X 9313   7.171   1.019   7.630  0.1615  0.3687 -0.7654
   94SAPS   H9Y 9314   7.176   0.844   7.619 -0.4286 -1.6975  2.6796
   94SAPS  C310 9315   7.024   0.926   7.756 -0.3357  0.0718  0.0704
   94SAPS  H10X 9316   7.003   0.825   7.797 -0.0301  0.8548  2.2893
   94SAPS  H10Y 9317   6.927   0.972   7.729  0.5625  0.4226 -2.8913
   94SAPS  C311 9318   7.080   1.010   7.878  0.6172 -0.1334  0.1793
   94SAPS  H11X 9319   7.144   1.094   7.842 -0.9047  0.7863 -0.5033
   94SAPS  H11Y 9320   7.143   0.949   7.945 -0.7404 -2.3440 -0.4644
   94SAPS  C312 9321   6.962   1.067   7.962 -0.5595  0.3794 -0.0164
   94SAPS  H12X 9322   6.894   0.991   8.006 -0.9336  0.5569 -0.2834
   94SAPS  H12Y 9323   6.915   1.134   7.887 -2.6546  0.7204  1.5224
   94SAPS  C313 9324   7.009   1.159   8.077  0.5158  0.2998  0.2276
   94SAPS  H13X 9325   7.106   1.121   8.116  0.9111  2.2272  1.1969
   94SAPS  H13Y 9326   6.936   1.154   8.161  0.4470 -1.9840  0.1050
   94SAPS  C314 9327   7.041   1.311   8.051  0.4336 -0.3460  0.7160
   94SAPS  H14X 9328   6.981   1.350   7.965  0.6802 -0.7466  0.3575
   94SAPS  H14Y 9329   7.149   1.325   8.028  0.3851 -1.5205 -0.3000
   94SAPS  C315 9330   7.012   1.407   8.168 -0.8368 -0.3465  0.2711
   94SAPS  H15X 9331   7.071   1.369   8.253 -0.0048 -0.2689 -0.2641
   94SAPS  H15Y 9332   6.904   1.402   8.195 -0.9252 -1.9421 -0.3157
   94SAPS  C316 9333   7.057   1.548   8.148 -0.4399 -0.2013  0.7080
   94SAPS  H16X 9334   6.999   1.585   8.061  0.8440 -1.2190 -0.6563
   94SAPS  H16Y 9335   7.163   1.549   8.115 -0.3033 -0.5559  1.1200
   94SAPS  C317 9336   7.036   1.635   8.271 -0.5106  0.1417 -0.5195
   94SAPS  H17X 9337   7.053   1.573   8.362 -1.0993 -1.1749 -1.2867
   94SAPS  H17Y 9338   6.933   1.677   8.271  0.1012  1.7122  0.4001
   94SAPS  C318 9339   7.128   1.759   8.270  0.4718 -0.4106 -0.1992
   94SAPS  H18X 9340   7.086   1.843   8.330  4.2454  0.2095  1.8956
   94SAPS  H18Y 9341   7.149   1.804   8.170 -2.1837  1.7186  0.0766
   94SAPS  H18Z 9342   7.227   1.745   8.319  0.9028  0.4252 -0.7886
   95SAPS     N 9343   1.022   5.070   6.006 -0.2638 -0.0710 -0.5056
   95SAPS   HN1 9344   0.966   5.145   5.961  0.7889  0.5183 -0.8607
   95SAPS   HN2 9345   0.972   4.980   5.994 -1.3102  0.2160  1.2908
   95SAPS   HN3 9346   1.028   5.101   6.105  1.6064 -0.7464 -0.3633
   95SAPS   C12 9347   1.156   5.079   5.937 -0.3708  0.1644  0.0427
   95SAPS  H12A 9348   1.232   5.036   6.001 -0.3920  2.3857  1.7042
   95SAPS   C13 9349   1.165   5.013   5.803  0.3620 -0.0068 -0.5104
   95SAPS  O13A 9350   1.061   4.969   5.744  0.7522  0.3967 -0.0317
   95SAPS  O13B 9351   1.279   4.984   5.761  0.0081  0.0148 -0.1019
   95SAPS   C11 9352   1.202   5.224   5.909 -0.0644 -0.0797 -0.4562
   95SAPS  H11A 9353   1.130   5.260   5.833 -0.0210  0.3158 -0.3113
   95SAPS  H11B 9354   1.293   5.225   5.845 -0.2888  0.0723 -0.7753
   95SAPS     P 9355   1.335   5.341   6.102  0.2990 -0.3869  0.5175
   95SAPS   O13 9356   1.439   5.387   6.004 -0.3328  0.5309  0.3415
   95SAPS   O14 9357   1.304   5.438   6.212  0.0562  0.3010 -0.2173
   95SAPS   O12 9358   1.198   5.304   6.028 -0.1462 -0.2595  0.0504
   95SAPS   O11 9359   1.368   5.195   6.142 -0.3746 -0.3154 -0.1259
   95SAPS    C1 9360   1.359   5.153   6.282  0.4470  0.1035  0.0169
   95SAPS    HA 9361   1.266   5.183   6.335 -1.0488 -1.6272 -1.4824
   95SAPS    HB 9362   1.356   5.043   6.275 -1.3424  0.1844 -1.0128
   95SAPS    C2 9363   1.488   5.204   6.364  0.2047  0.3186  0.3909
   95SAPS    HS 9364   1.518   5.303   6.324 -0.5099  0.1888 -0.4986
   95SAPS   O21 9365   1.588   5.107   6.347  0.0998  0.2269  0.4304
   95SAPS   C21 9366   1.698   5.136   6.263 -0.2120  0.1727  0.0063
   95SAPS   O22 9367   1.701   5.235   6.195 -0.5118 -1.1617  0.1006
   95SAPS   C22 9368   1.794   5.023   6.273  0.0055 -0.0761 -0.3482
   95SAPS   H2R 9369   1.804   5.005   6.382  2.3794  2.1206 -0.1081
   95SAPS   H2S 9370   1.755   4.935   6.218 -1.9156  0.6371 -0.2126
   95SAPS    C3 9371   1.457   5.213   6.509  0.4105  0.1220  0.1566
   95SAPS    HX 9372   1.406   5.118   6.535 -1.3097 -0.3461 -4.1634
   95SAPS    HY 9373   1.378   5.290   6.524 -0.6255 -1.0695  1.0839
   95SAPS   O31 9374   1.568   5.243   6.600 -0.8570 -0.1311  0.3068
   95SAPS   C31 9375   1.591   5.377   6.605  0.5677  0.2962  0.2506
   95SAPS   O32 9376   1.538   5.462   6.532 -0.3105  0.4325  0.3122
   95SAPS   C32 9377   1.683   5.407   6.722 -0.2016  0.9122 -0.1568
   95SAPS   H2X 9378   1.778   5.432   6.670 -1.1162  0.8270 -1.9484
   95SAPS   H2Y 9379   1.697   5.315   6.784 -0.0312  0.1513 -1.2963
   95SAPS   C23 9380   1.932   5.071   6.221  0.0774  1.0797  0.7601
   95SAPS   H3R 9381   1.951   5.176   6.253  1.9908  1.0542 -0.1354
   95SAPS   H3S 9382   1.937   5.060   6.111 -0.7800  1.1346  0.7085
   95SAPS   C24 9383   2.039   4.982   6.293 -0.6847  0.0864  0.2455
   95SAPS   H4R 9384   2.036   5.007   6.401  1.5841 -3.4683  1.3031
   95SAPS   H4S 9385   2.139   5.020   6.262 -1.9590  1.2016 -2.8768
   95SAPS   C25 9386   2.034   4.834   6.266  0.6375  0.0843 -0.0358
   95SAPS   H5R 9387   2.046   4.814   6.158 -0.8663 -0.7157 -0.0870
   95SAPS   C26 9388   2.014   4.734   6.351 -0.0803  0.4932  0.2404
   95SAPS   H6R 9389   2.001   4.631   6.315  2.0695 -0.5912  2.3154
   95SAPS   C27 9390   2.005   4.756   6.503 -0.7141  0.1778  0.1170
   95SAPS   H7R 9391   1.952   4.673   6.554 -0.3562  0.1879  0.5116
   95SAPS   H7S 9392   1.943   4.845   6.529  2.1688  2.2830  0.2455
   95SAPS   C28 9393   2.140   4.783   6.566 -1.0069  0.2071  0.0291
   95SAPS   H8R 9394   2.194   4.865   6.517 -0.3758  0.6276  1.3788
   95SAPS   C29 9395   2.202   4.718   6.672  0.0111  0.6545  0.4241
   95SAPS   H9R 9396   2.304   4.749   6.699  0.6965  0.9623 -2.2265
   95SAPS  C210 9397   2.145   4.595   6.735 -0.4201  0.4014  0.7940
   95SAPS  H10R 9398   2.234   4.533   6.762 -0.5930 -1.0042 -1.5544
   95SAPS  H10S 9399   2.087   4.546   6.654  1.4922 -0.6255 -0.0406
   95SAPS  C211 9400   2.054   4.632   6.850  0.0604 -0.7788  0.3065
   95SAPS  H11R 9401   1.959   4.676   6.815 -0.5903 -1.2200  1.4606
   95SAPS  C212 9402   2.071   4.614   6.978 -0.0713  0.2755 -0.0698
   95SAPS  H12R 9403   1.982   4.638   7.039 -0.7505 -1.1940 -0.4341
   95SAPS  C213 9404   2.183   4.551   7.045 -0.3401  0.2689 -0.6238
   95SAPS  H13R 9405   2.254   4.629   7.079  1.4530 -0.2337 -2.9210
   95SAPS  H13S 9406   2.250   4.491   6.979  2.4538  0.8323  1.5258
   95SAPS  C214 9407   2.141   4.452   7.154  0.4410 -1.0424  0.5848
   95SAPS  H14R 9408   2.092   4.363   7.113 -0.6673 -1.5432  2.8212
   95SAPS  C215 9409   2.138   4.473   7.292  0.1173  0.5053  0.0281
   95SAPS  H15R 9410   2.120   4.391   7.363  1.4483 -0.5414 -0.7823
   95SAPS  C216 9411   2.170   4.605   7.361  0.1040  0.2205  0.2560
   95SAPS  H16R 9412   2.196   4.686   7.290  3.1798 -0.8901 -0.0251
   95SAPS  H16S 9413   2.259   4.589   7.426 -0.5240  1.8547  1.6079
   95SAPS  C217 9414   2.060   4.654   7.458 -0.3833  0.1738  0.5125
   95SAPS  H17R 9415   2.030   4.576   7.531  0.2119  0.5058  1.1167
   95SAPS  H17S 9416   1.969   4.672   7.398  1.1129 -1.9417 -2.6952
   95SAPS  C218 9417   2.113   4.768   7.543  0.1484  0.1712 -0.0573
   95SAPS  H18R 9418   2.027   4.818   7.592 -1.1639 -0.4854 -1.5928
   95SAPS  H18S 9419   2.164   4.834   7.470 -0.8282  1.8408  0.7146
   95SAPS  C219 9420   2.228   4.737   7.643  0.4493  0.5197  0.3800
   95SAPS  H19R 9421   2.323   4.700   7.597  0.6360 -0.7602  1.7207
   95SAPS  H19S 9422   2.193   4.655   7.709  0.5664  0.4950  0.4123
   95SAPS  C220 9423   2.255   4.862   7.732 -0.0762 -0.3843 -0.3815
   95SAPS  H20R 9424   2.165   4.888   7.791  0.4121  1.1547 -0.2795
   95SAPS  H20S 9425   2.270   4.953   7.670  1.1656 -0.2330  0.1082
   95SAPS  H20T 9426   2.342   4.854   7.799  0.3745  0.1417 -0.8909
   95SAPS   C33 9427   1.646   5.532   6.803 -0.1239 -0.1061  0.0955
   95SAPS   H3X 9428   1.631   5.628   6.749  0.1830 -0.4459 -0.6135
   95SAPS   H3Y 9429   1.730   5.542   6.875 -0.0945 -1.8553  0.3474
   95SAPS   C34 9430   1.516   5.522   6.892 -0.2751  0.7163  0.0872
   95SAPS   H4X 9431   1.441   5.464   6.835 -0.7235  0.3769  1.0022
   95SAPS   H4Y 9432   1.470   5.622   6.908  0.5606  1.2501 -0.7636
   95SAPS   C35 9433   1.522   5.461   7.034  0.7748 -0.0044 -0.5332
   95SAPS   H5X 9434   1.423   5.485   7.078  0.3465  1.3654 -2.1460
   95SAPS   H5Y 9435   1.590   5.527   7.092 -0.1888 -0.1682  0.8389
   95SAPS   C36 9436   1.563   5.314   7.049 -0.3921 -0.2210 -0.2602
   95SAPS   H6X 9437   1.673   5.300   7.036 -0.2644  0.3169  0.2102
   95SAPS   H6Y 9438   1.516   5.258   6.966  1.0842 -1.1494 -0.5183
   95SAPS   C37 9439   1.520   5.240   7.183 -0.2887 -0.6272  0.0471
   95SAPS   H7X 9440   1.546   5.133   7.169 -0.1130 -0.6571  0.6151
   95SAPS   H7Y 9441   1.410   5.255   7.187 -0.2559  0.1911 -1.4006
   95SAPS   C38 9442   1.581   5.295   7.308 -0.1399 -0.4604  0.1385
   95SAPS   H8X 9443   1.597   5.405   7.295  4.0173 -0.9003  0.0284
   95SAPS   H8Y 9444   1.688   5.268   7.319  0.2871  0.3030 -1.6384
   95SAPS   C39 9445   1.514   5.273   7.443  0.3351  0.3575 -0.2216
   95SAPS   H9X 9446   1.491   5.165   7.440  2.6070 -0.2909  2.5566
   95SAPS   H9Y 9447   1.417   5.328   7.448  0.4320  0.4472  0.9488
   95SAPS  C310 9448   1.594   5.316   7.568 -0.3230  0.1498 -0.9634
   95SAPS  H10X 9449   1.572   5.421   7.597  0.0758  0.2213 -0.9095
   95SAPS  H10Y 9450   1.703   5.315   7.549 -0.0954  0.0240  0.2374
   95SAPS  C311 9451   1.563   5.236   7.689 -0.4605  0.0080 -0.2328
   95SAPS  H11X 9452   1.598   5.132   7.670 -0.3801 -0.2126  1.0004
   95SAPS  H11Y 9453   1.454   5.229   7.706 -0.5821  1.7569 -0.1787
   95SAPS  C312 9454   1.629   5.286   7.824 -0.6026  0.7339 -0.0319
   95SAPS  H12X 9455   1.561   5.348   7.885  0.0252  0.8077  0.6074
   95SAPS  H12Y 9456   1.711   5.360   7.807  0.5646 -0.6310 -0.5925
   95SAPS  C313 9457   1.698   5.172   7.904  0.4396 -0.0717 -0.6381
   95SAPS  H13X 9458   1.786   5.143   7.843  0.7586  0.1768 -0.2972
   95SAPS  H13Y 9459   1.633   5.084   7.925  0.3060  0.1907  0.0744
   95SAPS  C314 9460   1.758   5.222   8.039  1.0128  0.6635 -0.1273
   95SAPS  H14X 9461   1.836   5.296   8.010  1.1041  0.4730 -0.3636
   95SAPS  H14Y 9462   1.803   5.135   8.092  1.2724  0.3679 -0.8307
   95SAPS  C315 9463   1.655   5.270   8.134 -0.1967  0.1274 -0.1280
   95SAPS  H15X 9464   1.576   5.196   8.159  0.5985 -0.2316  1.4782
   95SAPS  H15Y 9465   1.606   5.360   8.090 -1.4663  0.1017  1.1391
   95SAPS  C316 9466   1.720   5.313   8.267  0.0765  0.3440 -0.0183
   95SAPS  H16X 9467   1.789   5.398   8.252 -0.7734  0.5169 -3.9709
   95SAPS  H16Y 9468   1.780   5.227   8.303 -0.2853 -0.6271 -1.6418
   95SAPS  C317 9469   1.620   5.340   8.381  0.1483  0.2647  0.5361
   95SAPS  H17X 9470   1.566   5.247   8.406 -0.3298  0.3395 -0.1862
   95SAPS  H17Y 9471   1.548   5.416   8.344 -0.2698 -0.6133 -0.5220
   95SAPS  C318 9472   1.704   5.387   8.500 -0.9201  0.4412  0.3170
   95SAPS  H18X 9473   1.634   5.423   8.579 -2.3154  1.5729 -1.3440
   95SAPS  H18Y 9474   1.769   5.473   8.474  1.0619 -0.6396  1.4477
   95SAPS  H18Z 9475   1.777   5.309   8.529  0.3142  1.7064  0.7029
   96SAPS     N 9476   6.537   6.327   5.823 -0.9387 -0.3631  0.6180
   96SAPS   HN1 9477   6.516   6.252   5.754  0.1513  0.2294 -0.3930
   96SAPS   HN2 9478   6.639   6.332   5.839 -0.6798  3.7933 -1.0606
   96SAPS   HN3 9479   6.498   6.300   5.916 -0.1688  1.8023  1.6390
   96SAPS   C12 9480   6.492   6.458   5.781  0.2319  0.2035 -0.9668
   96SAPS  H12A 9481   6.554   6.532   5.830  0.3299 -0.0342 -0.7285
   96SAPS   C13 9482   6.499   6.468   5.630 -0.1704 -0.7198 -0.0774
   96SAPS  O13A 9483   6.510   6.374   5.552 -0.6918  0.6518 -0.2364
   96SAPS  O13B 9484   6.501   6.590   5.585  0.2359  0.0364 -0.0680
   96SAPS   C11 9485   6.347   6.466   5.828 -0.2595 -1.3629  0.4474
   96SAPS  H11A 9486   6.291   6.384   5.776 -2.9879  0.8817 -0.4236
   96SAPS  H11B 9487   6.307   6.563   5.791  2.2188 -0.2844  0.4112
   96SAPS     P 9488   6.362   6.575   6.061  0.3571  0.3062 -0.2966
   96SAPS   O13 9489   6.501   6.623   6.051  0.2053  0.1268  0.0726
   96SAPS   O14 9490   6.249   6.667   6.037  0.2881 -0.2190 -0.2514
   96SAPS   O12 9491   6.341   6.453   5.968  0.4978  0.3235 -0.3568
   96SAPS   O11 9492   6.339   6.517   6.202 -0.1384  0.2787  0.3501
   96SAPS    C1 9493   6.328   6.380   6.242 -0.0915 -0.4108 -0.2766
   96SAPS    HA 9494   6.224   6.349   6.266 -0.2361 -0.2492 -0.6908
   96SAPS    HB 9495   6.371   6.306   6.172 -0.1636  0.3589 -1.1561
   96SAPS    C2 9496   6.410   6.351   6.378 -0.0474  0.0325 -0.0442
   96SAPS    HS 9497   6.426   6.241   6.384 -0.3182 -0.0806 -1.1704
   96SAPS   O21 9498   6.335   6.403   6.482  0.1438 -0.8652 -0.2600
   96SAPS   C21 9499   6.287   6.316   6.569 -0.0474 -0.3127  0.0989
   96SAPS   O22 9500   6.318   6.198   6.578 -0.3983 -0.2012 -0.6926
   96SAPS   C22 9501   6.177   6.379   6.651  0.5241 -0.2169  0.0951
   96SAPS   H2R 9502   6.127   6.465   6.602  1.1919  1.1705  1.7326
   96SAPS   H2S 9503   6.091   6.311   6.665  1.1231 -0.9557  0.2355
   96SAPS    C3 9504   6.551   6.421   6.376 -0.1704  0.1823  0.1637
   96SAPS    HX 9505   6.532   6.530   6.382 -1.1677 -0.0457  1.7810
   96SAPS    HY 9506   6.578   6.400   6.271  0.5789 -1.1085  0.5859
   96SAPS   O31 9507   6.650   6.377   6.468 -0.0656  0.0788  0.1915
   96SAPS   C31 9508   6.775   6.421   6.445 -0.0875  0.8006 -0.2853
   96SAPS   O32 9509   6.804   6.495   6.354 -0.0337  0.1955  0.5756
   96SAPS   C32 9510   6.871   6.349   6.541  0.1545  0.3034 -0.1343
   96SAPS   H2X 9511   6.870   6.239   6.531  2.4143  0.1436  0.8734
   96SAPS   H2Y 9512   6.841   6.368   6.646 -1.0929 -1.7118 -0.0702
   96SAPS   C23 9513   6.231   6.412   6.785 -0.2931 -0.1917  0.3935
   96SAPS   H3R 9514   6.315   6.485   6.778 -1.1141  0.6872 -0.5482
   96SAPS   H3S 9515   6.266   6.323   6.842  1.6837 -1.2263 -2.2109
   96SAPS   C24 9516   6.115   6.483   6.863  0.0161  0.5848 -0.3746
   96SAPS   H4R 9517   6.066   6.559   6.799 -1.4348  1.5216  1.7223
   96SAPS   H4S 9518   6.152   6.521   6.961  0.3019 -0.0295 -0.2413
   96SAPS   C25 9519   6.010   6.383   6.902  0.3019 -0.6901  0.9468
   96SAPS   H5R 9520   5.948   6.352   6.816  1.3094 -1.6715  0.5534
   96SAPS   C26 9521   5.988   6.337   7.024  0.5849  0.2905 -0.0021
   96SAPS   H6R 9522   5.902   6.270   7.036 -0.1501  1.4317  1.3647
   96SAPS   C27 9523   6.067   6.374   7.148  0.4785  0.4773  0.8048
   96SAPS   H7R 9524   6.010   6.364   7.242  0.0744  1.8930  0.7391
   96SAPS   H7S 9525   6.090   6.482   7.161 -1.6117  1.1369 -0.5191
   96SAPS   C28 9526   6.193   6.295   7.158  0.0976  0.5055  0.3793
   96SAPS   H8R 9527   6.259   6.300   7.070 -1.5877 -2.0638 -1.1454
   96SAPS   C29 9528   6.241   6.218   7.256  0.2770  1.0770 -0.7505
   96SAPS   H9R 9529   6.330   6.161   7.227  0.4518  1.9155 -1.9560
   96SAPS  C210 9530   6.173   6.185   7.390 -0.3919  0.2598  0.0766
   96SAPS  H10R 9531   6.162   6.280   7.445  2.2295  0.4260  0.4298
   96SAPS  H10S 9532   6.255   6.132   7.443 -1.4592 -0.2643  1.2595
   96SAPS  C211 9533   6.044   6.109   7.393  0.9555  0.6194 -0.2886
   96SAPS  H11R 9534   6.016   6.055   7.302  0.3484 -1.2311  0.9448
   96SAPS  C212 9535   5.968   6.084   7.505  0.1779  0.2440  0.1996
   96SAPS  H12R 9536   5.870   6.035   7.492 -0.0495  0.8292 -0.3706
   96SAPS  C213 9537   5.997   6.138   7.646  0.1717  0.3912 -0.1389
   96SAPS  H13R 9538   5.903   6.171   7.694 -0.9873 -3.5738  0.6754
   96SAPS  H13S 9539   6.057   6.232   7.652 -0.3548  0.6238  2.6791
   96SAPS  C214 9540   6.057   6.032   7.742 -0.2262  0.6422 -0.1628
   96SAPS  H14R 9541   6.098   5.944   7.690  1.4127  2.1169 -1.4899
   96SAPS  C215 9542   6.061   6.038   7.878 -0.9738  0.5675 -0.0118
   96SAPS  H15R 9543   6.104   5.952   7.932 -0.3101 -0.0723 -1.5153
   96SAPS  C216 9544   6.012   6.151   7.965  0.2864  0.7517  0.7447
   96SAPS  H16R 9545   5.901   6.155   7.974  0.3162 -0.8865  2.2594
   96SAPS  H16S 9546   6.056   6.246   7.927  0.1921  1.6427  2.7559
   96SAPS  C217 9547   6.070   6.140   8.111 -0.5968 -0.0249  0.4589
   96SAPS  H17R 9548   6.045   6.047   8.166 -1.3533 -1.0263 -1.4637
   96SAPS  H17S 9549   6.022   6.224   8.165 -0.7744  0.6863 -0.7682
   96SAPS  C218 9550   6.223   6.160   8.122  0.5946 -0.4085 -0.4174
   96SAPS  H18R 9551   6.244   6.258   8.075  1.1043  0.0302  0.6657
   96SAPS  H18S 9552   6.280   6.081   8.070  0.9773  0.9504 -2.1426
   96SAPS  C219 9553   6.279   6.178   8.265 -0.5138 -0.0786 -0.0222
   96SAPS  H19R 9554   6.236   6.273   8.304 -0.0145  0.2259 -0.2050
   96SAPS  H19S 9555   6.388   6.201   8.261 -0.6677  1.1883  1.6315
   96SAPS  C220 9556   6.245   6.067   8.357  0.3604 -0.3428 -0.6838
   96SAPS  H20R 9557   6.326   6.034   8.426 -0.1291  1.0203  0.5984
   96SAPS  H20S 9558   6.228   5.977   8.294  1.0928 -2.3457  1.8170
   96SAPS  H20T 9559   6.146   6.078   8.406 -0.4654 -0.0476 -2.3454
   96SAPS   C33 9560   7.020   6.386   6.528 -0.0400 -0.5864  1.0190
   96SAPS   H3X 9561   7.043   6.492   6.550 -0.8476 -0.1664 -0.0594
   96SAPS   H3Y 9562   7.033   6.383   6.417 -0.9851  0.2662  0.8694
   96SAPS   C34 9563   7.121   6.290   6.592  0.5543 -0.2452  0.6817
   96SAPS   H4X 9564   7.220   6.318   6.551  0.6100  0.3709  1.2199
   96SAPS   H4Y 9565   7.099   6.184   6.565  0.9563  0.1146 -1.2295
   96SAPS   C35 9566   7.121   6.311   6.741 -0.0812 -0.2690  0.5802
   96SAPS   H5X 9567   7.037   6.265   6.797  1.2826 -2.0248  1.2957
   96SAPS   H5Y 9568   7.105   6.420   6.754 -0.7390 -0.4288  1.2127
   96SAPS   C36 9569   7.251   6.267   6.816 -0.5454 -0.3842  0.4152
   96SAPS   H6X 9570   7.336   6.305   6.755  0.1204 -0.9865  0.9576
   96SAPS   H6Y 9571   7.250   6.158   6.794 -1.2696 -0.1022 -1.1404
   96SAPS   C37 9572   7.264   6.329   6.955 -0.2974  0.1392  0.2796
   96SAPS   H7X 9573   7.232   6.435   6.956 -0.4329  0.1154  1.9537
   96SAPS   H7Y 9574   7.371   6.307   6.975 -0.4875 -0.4237  0.7194
   96SAPS   C38 9575   7.180   6.262   7.062  0.8275 -0.0256 -0.4828
   96SAPS   H8X 9576   7.202   6.154   7.061  0.9869  0.0048 -0.2985
   96SAPS   H8Y 9577   7.074   6.279   7.032  1.0634  2.6494 -0.0424
   96SAPS   C39 9578   7.206   6.325   7.212  0.4129 -0.6645  0.7897
   96SAPS   H9X 9579   7.174   6.431   7.205  3.2098  0.2129 -0.0663
   96SAPS   H9Y 9580   7.312   6.307   7.238  1.0531 -0.4272 -1.4289
   96SAPS  C310 9581   7.127   6.271   7.331 -0.3075 -0.2516  0.3661
   96SAPS  H10X 9582   7.108   6.161   7.329 -0.0044 -0.3167  0.8943
   96SAPS  H10Y 9583   7.024   6.312   7.331 -0.3953 -0.4588 -0.2388
   96SAPS  C311 9584   7.191   6.319   7.461  0.2634  0.6003 -0.2909
   96SAPS  H11X 9585   7.244   6.416   7.447  0.8961  0.8984  3.3004
   96SAPS  H11Y 9586   7.277   6.253   7.483 -0.0836  0.9208  2.3843
   96SAPS  C312 9587   7.097   6.344   7.578  0.0608  0.7706  0.3512
   96SAPS  H12X 9588   7.026   6.423   7.545 -1.1429  0.1390  1.3302
   96SAPS  H12Y 9589   7.149   6.397   7.660 -1.5889  1.1904  1.1720
   96SAPS  C313 9590   7.017   6.220   7.634  0.0402  0.0595 -0.0069
   96SAPS  H13X 9591   6.957   6.176   7.552  0.9752 -2.1330  0.4069
   96SAPS  H13Y 9592   6.938   6.246   7.708  0.4888  1.4127  0.0125
   96SAPS  C314 9593   7.114   6.106   7.675  0.4797  0.1275 -0.2648
   96SAPS  H14X 9594   7.152   6.136   7.775  0.0730 -1.0901  0.2733
   96SAPS  H14Y 9595   7.197   6.104   7.602 -0.7643 -1.6609 -1.7071
   96SAPS  C315 9596   7.049   5.965   7.696 -0.4178  0.0242 -0.0010
   96SAPS  H15X 9597   7.135   5.897   7.710  1.2281  2.3137  1.9035
   96SAPS  H15Y 9598   6.995   5.931   7.605  1.7070  0.3180 -1.4335
   96SAPS  C316 9599   6.942   5.953   7.812 -0.5040  0.3660 -0.2374
   96SAPS  H16X 9600   6.910   5.847   7.821 -1.1116  0.6898  1.7492
   96SAPS  H16Y 9601   6.859   6.017   7.775 -0.8455 -0.2803 -0.6041
   96SAPS  C317 9602   6.996   5.996   7.949  0.0795  0.1893  0.5425
   96SAPS  H17X 9603   6.914   5.967   8.018  0.1298  0.2584  0.6314
   96SAPS  H17Y 9604   7.015   6.105   7.956  0.5386  0.1896 -0.4969
   96SAPS  C318 9605   7.120   5.914   7.994  0.2963  0.6199  0.2251
   96SAPS  H18X 9606   7.133   5.921   8.104 -0.3768 -0.1966  0.3651
   96SAPS  H18Y 9607   7.210   5.946   7.937  0.6352 -0.2206  0.2859
   96SAPS  H18Z 9608   7.093   5.807   7.993  0.6466  0.5126  1.1459
   97SAPS     N 9609   3.535   6.618   6.259  0.3243  0.3528  0.3181
   97SAPS   HN1 9610   3.484   6.596   6.347 -0.3393 -1.6914 -0.5174
   97SAPS   HN2 9611   3.601   6.542   6.236 -1.3878 -0.9908 -0.3982
   97SAPS   HN3 9612   3.588   6.705   6.282 -1.0301  0.7934  1.9841
   97SAPS   C12 9613   3.443   6.658   6.147 -0.5627 -0.4900 -0.7007
   97SAPS  H12A 9614   3.427   6.764   6.148  2.6048  0.0909 -0.7360
   97SAPS   C13 9615   3.493   6.627   6.005  0.6722  0.5276 -0.0152
   97SAPS  O13A 9616   3.615   6.589   5.996 -0.3398  0.6557 -0.8036
   97SAPS  O13B 9617   3.434   6.674   5.907 -0.2248 -0.2157 -0.1856
   97SAPS   C11 9618   3.309   6.585   6.175 -0.2419  0.1937  0.6928
   97SAPS  H11A 9619   3.323   6.476   6.158 -1.3633  0.3208 -1.3355
   97SAPS  H11B 9620   3.239   6.608   6.092  2.2101 -0.0851 -1.5878
   97SAPS     P 9621   3.131   6.527   6.353  0.3286 -0.2282 -0.2740
   97SAPS   O13 9622   3.010   6.618   6.360 -0.0219  0.0567  0.2899
   97SAPS   O14 9623   3.114   6.408   6.266 -0.2911 -0.5360  0.2588
   97SAPS   O12 9624   3.259   6.613   6.305 -0.4308 -0.0213  0.1807
   97SAPS   O11 9625   3.176   6.490   6.500  0.3339  0.3658 -0.0706
   97SAPS    C1 9626   3.100   6.535   6.609  0.2864 -0.3268 -0.7439
   97SAPS    HA 9627   3.066   6.640   6.615  1.5620  0.0717 -0.3429
   97SAPS    HB 9628   3.006   6.474   6.609  0.4663 -0.6086 -1.2414
   97SAPS    C2 9629   3.173   6.505   6.739  0.1871  0.5020  0.5458
   97SAPS    HS 9630   3.095   6.509   6.818 -2.2018  2.1152 -1.7456
   97SAPS   O21 9631   3.277   6.602   6.764  0.1157 -0.2584  0.5576
   97SAPS   C21 9632   3.244   6.705   6.840  0.3115  0.8476 -0.5904
   97SAPS   O22 9633   3.129   6.732   6.868 -0.5781 -0.1954  0.0781
   97SAPS   C22 9634   3.360   6.780   6.877  0.3363 -0.0325 -0.3231
   97SAPS   H2R 9635   3.448   6.718   6.852 -1.0995 -1.7776 -1.3154
   97SAPS   H2S 9636   3.369   6.867   6.808 -1.5738 -0.7783 -1.6060
   97SAPS    C3 9637   3.237   6.363   6.731 -0.0263 -0.5385  0.0424
   97SAPS    HX 9638   3.309   6.378   6.648 -0.9448  1.7510 -0.4216
   97SAPS    HY 9639   3.170   6.293   6.676  0.2657  0.9227 -2.3458
   97SAPS   O31 9640   3.297   6.333   6.856  0.1764  0.9011 -0.7006
   97SAPS   C31 9641   3.361   6.216   6.841  0.3124 -0.6337 -0.0601
   97SAPS   O32 9642   3.356   6.145   6.740  0.7344 -0.1833 -0.0478
   97SAPS   C32 9643   3.436   6.186   6.971 -0.6534 -0.6461  0.4345
   97SAPS   H2X 9644   3.487   6.090   6.949 -1.6680 -1.1749  0.3405
   97SAPS   H2Y 9645   3.359   6.175   7.049 -1.5217  0.6177 -0.2094
   97SAPS   C23 9646   3.360   6.813   7.028  0.1000  0.3615 -0.0350
   97SAPS   H3R 9647   3.287   6.891   7.057 -0.8911 -0.4245 -0.3563
   97SAPS   H3S 9648   3.464   6.846   7.050  1.0428 -2.9761  1.1466
   97SAPS   C24 9649   3.349   6.683   7.110 -0.3270  0.8557 -0.0408
   97SAPS   H4R 9650   3.421   6.610   7.068 -0.5265  0.5028  0.2312
   97SAPS   H4S 9651   3.247   6.642   7.096 -0.0665 -0.1225  0.8411
   97SAPS   C25 9652   3.363   6.707   7.258  0.2272 -0.3502 -0.2142
   97SAPS   H5R 9653   3.445   6.778   7.280  0.0262 -0.9282  2.7593
   97SAPS   C26 9654   3.295   6.649   7.359 -0.1463  0.0032  0.6540
   97SAPS   H6R 9655   3.328   6.671   7.462  1.2460  0.1965  0.1848
   97SAPS   C27 9656   3.179   6.554   7.340  0.1181  0.6245 -0.1410
   97SAPS   H7R 9657   3.155   6.524   7.236 -0.1733 -3.1564  0.8823
   97SAPS   H7S 9658   3.082   6.594   7.377 -1.3527 -0.8844 -2.1403
   97SAPS   C28 9659   3.206   6.430   7.428  0.1798  0.0858 -0.4256
   97SAPS   H8R 9660   3.265   6.355   7.373  1.0688  1.7069 -1.7489
   97SAPS   C29 9661   3.166   6.411   7.556  0.4895  0.2409  0.1077
   97SAPS   H9R 9662   3.199   6.318   7.606  0.1367  0.7318  1.2781
   97SAPS  C210 9663   3.088   6.494   7.649 -0.7506 -0.0462 -0.3117
   97SAPS  H10R 9664   2.997   6.445   7.692  0.6174 -0.2137  2.6688
   97SAPS  H10S 9665   3.053   6.587   7.601  1.0682  0.1820 -1.2754
   97SAPS  C211 9666   3.171   6.518   7.781 -0.5727 -0.2700 -0.9226
   97SAPS  H11R 9667   3.265   6.573   7.770 -0.6717 -0.2222 -1.5537
   97SAPS  C212 9668   3.129   6.492   7.913  0.8372 -0.8530  0.3017
   97SAPS  H12R 9669   3.182   6.543   7.995 -1.3093  2.0844  0.0019
   97SAPS  C213 9670   2.992   6.441   7.949  0.3490 -0.2278 -0.4045
   97SAPS  H13R 9671   2.935   6.396   7.865 -1.7022  0.8690  0.3178
   97SAPS  H13S 9672   2.926   6.530   7.962 -0.5952 -0.4048 -3.3806
   97SAPS  C214 9673   2.990   6.362   8.075 -0.1343  0.0709 -0.0539
   97SAPS  H14R 9674   3.053   6.396   8.158  1.1644 -1.2069 -0.4659
   97SAPS  C215 9675   2.919   6.250   8.108  0.0748 -0.2438  0.2068
   97SAPS  H15R 9676   2.930   6.203   8.207  1.2701  1.2023  0.8119
   97SAPS  C216 9677   2.820   6.176   8.018 -0.3941 -0.6721 -0.7881
   97SAPS  H16R 9678   2.789   6.239   7.931 -1.5043  1.2923  0.9546
   97SAPS  H16S 9679   2.726   6.158   8.073 -0.6670 -0.6565 -1.2423
   97SAPS  C217 9680   2.866   6.041   7.962 -0.0855  0.1957  0.4181
   97SAPS  H17R 9681   2.785   5.981   7.915  1.7668 -3.2150  1.2029
   97SAPS  H17S 9682   2.897   5.986   8.054 -0.1747  1.0799  0.9838
   97SAPS  C218 9683   2.983   6.054   7.870 -0.0229 -0.7181  0.6608
   97SAPS  H18R 9684   3.068   6.100   7.925 -0.1615  0.2892  0.0629
   97SAPS  H18S 9685   2.975   6.136   7.796  0.7601 -1.0137  0.2254
   97SAPS  C219 9686   3.044   5.917   7.821  0.9367 -0.5522 -0.5404
   97SAPS  H19R 9687   3.117   5.943   7.741  0.8806 -0.9722 -0.7278
   97SAPS  H19S 9688   2.973   5.848   7.772 -0.1052  0.2332 -0.1758
   97SAPS  C220 9689   3.110   5.840   7.936 -0.4731  0.6013 -0.8036
   97SAPS  H20R 9690   3.186   5.772   7.892  0.0246  0.0244  0.8796
   97SAPS  H20S 9691   3.041   5.791   8.008  0.6707  3.8974  2.8667
   97SAPS  H20T 9692   3.166   5.912   7.999 -1.6156  0.9295 -0.1368
   97SAPS   C33 9693   3.543   6.292   7.010 -0.1967  0.1781  0.2386
   97SAPS   H3X 9694   3.513   6.381   6.950 -0.6098 -0.5304 -0.6346
   97SAPS   H3Y 9695   3.637   6.254   6.965 -1.7954 -3.0531 -0.7201
   97SAPS   C34 9696   3.561   6.323   7.165 -0.3417 -0.5926 -0.1516
   97SAPS   H4X 9697   3.492   6.389   7.221  0.2372 -0.1564  0.0653
   97SAPS   H4Y 9698   3.646   6.394   7.179 -0.1523 -1.0862  1.3827
   97SAPS   C35 9699   3.587   6.192   7.241  0.2561 -0.2994  0.5179
   97SAPS   H5X 9700   3.667   6.132   7.192 -1.4374 -2.4249  0.1806
   97SAPS   H5Y 9701   3.497   6.126   7.247 -0.3057  0.4514  0.4540
   97SAPS   C36 9702   3.641   6.219   7.381  0.0706  0.1774 -0.2947
   97SAPS   H6X 9703   3.721   6.294   7.362  1.0598 -1.0668 -1.2357
   97SAPS   H6Y 9704   3.688   6.135   7.435  2.5283  0.6153 -1.6188
   97SAPS   C37 9705   3.538   6.274   7.477  0.9477 -0.8036 -0.1638
   97SAPS   H7X 9706   3.457   6.198   7.479  0.3078 -0.1280  0.2233
   97SAPS   H7Y 9707   3.489   6.366   7.439 -0.8034 -1.8559 -0.5650
   97SAPS   C38 9708   3.594   6.301   7.615 -0.2234  0.5764 -0.4500
   97SAPS   H8X 9709   3.679   6.372   7.609  0.2974 -0.0208 -0.1509
   97SAPS   H8Y 9710   3.638   6.209   7.659  1.0751  1.1738 -0.4711
   97SAPS   C39 9711   3.481   6.372   7.693 -0.1849  0.2705 -0.3886
   97SAPS   H9X 9712   3.411   6.287   7.707  0.5158 -0.6474 -2.0821
   97SAPS   H9Y 9713   3.446   6.454   7.627  2.2803  0.9726 -0.9576
   97SAPS  C310 9714   3.526   6.418   7.833  0.2742  0.7802  0.4517
   97SAPS  H10X 9715   3.436   6.458   7.884  1.0341  0.6578  1.9491
   97SAPS  H10Y 9716   3.600   6.499   7.811  1.2649 -0.3024 -0.2762
   97SAPS  C311 9717   3.576   6.303   7.924  0.0528  0.2176 -0.4236
   97SAPS  H11X 9718   3.621   6.344   8.016  0.2520 -3.8328  1.4899
   97SAPS  H11Y 9719   3.659   6.247   7.875 -0.5255 -0.5636 -0.5244
   97SAPS  C312 9720   3.465   6.216   7.981  0.3778 -0.2406  0.0598
   97SAPS  H12X 9721   3.395   6.185   7.900 -0.2682  1.1481  0.0640
   97SAPS  H12Y 9722   3.404   6.281   8.047 -0.3771  0.2986 -1.1351
   97SAPS  C313 9723   3.519   6.088   8.055  0.4636  0.0372  0.0506
   97SAPS  H13X 9724   3.577   6.127   8.142  3.5406 -2.9863 -0.4448
   97SAPS  H13Y 9725   3.593   6.040   7.988 -0.4465 -0.3230 -0.7057
   97SAPS  C314 9726   3.413   5.985   8.084  0.0167  0.2261  0.6377
   97SAPS  H14X 9727   3.401   5.928   7.990 -0.2393  1.4963 -0.1208
   97SAPS  H14Y 9728   3.329   6.043   8.128  0.0713 -1.7802  3.7237
   97SAPS  C315 9729   3.455   5.883   8.194  0.4113 -0.0682  0.1675
   97SAPS  H15X 9730   3.362   5.828   8.222  0.1707  0.9170  1.3906
   97SAPS  H15Y 9731   3.493   5.941   8.281 -1.0441  1.0421  0.0931
   97SAPS  C316 9732   3.569   5.789   8.149 -0.7453  0.4113  0.2806
   97SAPS  H16X 9733   3.667   5.838   8.130 -0.9527  1.5031  1.8682
   97SAPS  H16Y 9734   3.528   5.742   8.056  2.0647 -0.8688 -0.4326
   97SAPS  C317 9735   3.591   5.673   8.240  0.2797  0.5987 -0.4649
   97SAPS  H17X 9736   3.612   5.591   8.168 -0.1371  1.5044 -1.6388
   97SAPS  H17Y 9737   3.505   5.639   8.302  2.0626 -0.4224  1.6229
   97SAPS  C318 9738   3.704   5.686   8.343 -0.9286 -0.0080  0.0845
   97SAPS  H18X 9739   3.797   5.641   8.301 -1.4986 -1.4627  0.3068
   97SAPS  H18Y 9740   3.679   5.633   8.437 -2.1225 -1.2828 -0.9091
   97SAPS  H18Z 9741   3.720   5.792   8.371  0.4902  0.5712 -2.5625
   98SAPS     N 9742   1.491   4.789   5.743  0.5038  0.6955  0.3317
   98SAPS   HN1 9743   1.579   4.817   5.792 -0.1665  4.1780 -0.1821
   98SAPS   HN2 9744   1.504   4.803   5.641  1.9477  0.2650  0.4370
   98SAPS   HN3 9745   1.420   4.858   5.774  0.8703  1.9555 -1.4734
   98SAPS   C12 9746   1.431   4.659   5.770 -0.1164  0.3408 -0.1610
   98SAPS  H12A 9747   1.337   4.658   5.717 -1.1996  1.3653  1.6831
   98SAPS   C13 9748   1.517   4.534   5.729 -0.3796 -0.6752 -0.7206
   98SAPS  O13A 9749   1.634   4.546   5.688 -0.4825 -0.2711  0.0317
   98SAPS  O13B 9750   1.468   4.420   5.754  0.3069  0.0526  0.4943
   98SAPS   C11 9751   1.395   4.644   5.919 -0.2160 -0.1224 -0.2129
   98SAPS  H11A 9752   1.492   4.643   5.973  0.5191  0.7493 -1.4738
   98SAPS  H11B 9753   1.340   4.548   5.924  2.0250 -1.5179 -1.0048
   98SAPS     P 9754   1.210   4.729   6.071 -0.6845  0.2463 -0.1951
   98SAPS   O13 9755   1.167   4.856   6.135  0.3215 -0.3475 -0.3616
   98SAPS   O14 9756   1.098   4.660   6.003  0.4585 -0.2019  0.7978
   98SAPS   O12 9757   1.329   4.758   5.967  0.0862 -0.1454  0.3979
   98SAPS   O11 9758   1.290   4.634   6.175  0.0389 -0.2693 -0.0955
   98SAPS    C1 9759   1.395   4.685   6.247 -0.2060 -0.0373  0.1783
   98SAPS    HA 9760   1.477   4.732   6.191  0.9742 -1.3441  0.7364
   98SAPS    HB 9761   1.365   4.768   6.314 -0.3194  1.4798 -1.6732
   98SAPS    C2 9762   1.467   4.574   6.333 -0.5440 -0.1603  0.4206
   98SAPS    HS 9763   1.459   4.479   6.276  1.4764 -0.7017  0.9788
   98SAPS   O21 9764   1.389   4.571   6.453  0.1964 -0.0601 -0.6886
   98SAPS   C21 9765   1.403   4.451   6.514 -0.8821  0.2307  0.0512
   98SAPS   O22 9766   1.481   4.367   6.475 -0.0175  0.3240 -0.2982
   98SAPS   C22 9767   1.311   4.442   6.633  0.8773  0.3646  0.5650
   98SAPS   H2R 9768   1.286   4.547   6.660  0.1053  0.7582 -1.4761
   98SAPS   H2S 9769   1.214   4.406   6.592  2.0043 -0.5794 -1.4229
   98SAPS    C3 9770   1.616   4.614   6.364  0.3180 -0.3269  0.0089
   98SAPS    HX 9771   1.674   4.614   6.269 -0.4284  0.2723 -0.4563
   98SAPS    HY 9772   1.670   4.537   6.424 -0.6172  1.3012  3.1752
   98SAPS   O31 9773   1.617   4.750   6.416  0.0364 -0.0017 -0.3637
   98SAPS   C31 9774   1.639   4.759   6.549  0.0720  0.2824  0.4231
   98SAPS   O32 9775   1.695   4.675   6.616 -0.2412 -0.4228  0.4354
   98SAPS   C32 9776   1.581   4.892   6.599 -0.0253 -0.9592 -0.3823
   98SAPS   H2X 9777   1.501   4.919   6.526  1.4250  0.4203 -1.5437
   98SAPS   H2Y 9778   1.669   4.959   6.592  0.4285 -1.6693 -2.0698
   98SAPS   C23 9779   1.359   4.352   6.746  0.3329  0.5107  0.0355
   98SAPS   H3R 9780   1.406   4.260   6.703 -2.0476 -0.6800 -0.1826
   98SAPS   H3S 9781   1.266   4.316   6.794 -0.3678  2.6108  0.3537
   98SAPS   C24 9782   1.435   4.413   6.864  0.2875  1.0363  0.5218
   98SAPS   H4R 9783   1.435   4.339   6.947  0.3289  0.8280  0.3358
   98SAPS   H4S 9784   1.390   4.509   6.898 -0.6542  0.5718  0.6229
   98SAPS   C25 9785   1.573   4.446   6.820 -0.2685 -0.3642 -0.4461
   98SAPS   H5R 9786   1.594   4.460   6.713 -0.2857  0.1219 -0.3870
   98SAPS   C26 9787   1.679   4.462   6.908  0.0790  0.0767  0.6880
   98SAPS   H6R 9788   1.773   4.488   6.856 -0.3946 -1.0668 -0.8304
   98SAPS   C27 9789   1.687   4.449   7.062 -0.2842 -0.0255  0.5221
   98SAPS   H7R 9790   1.587   4.432   7.107 -0.6518 -1.5412 -0.7494
   98SAPS   H7S 9791   1.735   4.541   7.101 -2.1214  1.5508 -0.7437
   98SAPS   C28 9792   1.776   4.328   7.106  0.4676 -0.0944  0.2144
   98SAPS   H8R 9793   1.839   4.290   7.024 -1.3536  1.7367 -2.1821
   98SAPS   C29 9794   1.773   4.255   7.222 -0.5861 -0.3491 -0.0487
   98SAPS   H9R 9795   1.848   4.176   7.238 -0.7067 -1.0890 -2.6460
   98SAPS  C210 9796   1.683   4.281   7.344 -0.2741 -0.0821 -0.4859
   98SAPS  H10R 9797   1.606   4.356   7.313 -0.6164 -1.4927 -3.3924
   98SAPS  H10S 9798   1.743   4.327   7.425  1.7115  0.0710 -1.9646
   98SAPS  C211 9799   1.614   4.158   7.386  0.4870  0.3419 -0.2161
   98SAPS  H11R 9800   1.609   4.081   7.308  1.1574  0.9220 -0.8425
   98SAPS  C212 9801   1.572   4.130   7.515 -0.7082  0.1998 -0.3998
   98SAPS  H12R 9802   1.514   4.038   7.532  1.1647 -1.1291 -0.8523
   98SAPS  C213 9803   1.597   4.226   7.632 -0.4966 -0.1007  0.5407
   98SAPS  H13R 9804   1.587   4.330   7.596 -1.0075 -0.3323  0.0024
   98SAPS  H13S 9805   1.699   4.229   7.677  0.4276  0.7480 -1.4760
   98SAPS  C214 9806   1.507   4.205   7.739  1.2042  0.3908 -0.4108
   98SAPS  H14R 9807   1.401   4.215   7.709  1.2384  2.5080  0.0027
   98SAPS  C215 9808   1.520   4.177   7.870 -0.5216  0.6069  0.7750
   98SAPS  H15R 9809   1.429   4.163   7.930  0.8838  1.7449  3.3162
   98SAPS  C216 9810   1.652   4.165   7.943 -0.1633  0.5558 -0.1509
   98SAPS  H16R 9811   1.665   4.256   8.006  0.0552 -0.4471  1.3182
   98SAPS  H16S 9812   1.732   4.164   7.866 -0.3592  1.7330 -0.3933
   98SAPS  C217 9813   1.654   4.036   8.036 -0.2738 -0.1328 -0.1731
   98SAPS  H17R 9814   1.672   3.938   7.987 -0.1800  0.6818 -1.8290
   98SAPS  H17S 9815   1.563   4.034   8.099 -0.9547 -2.4227 -1.1365
   98SAPS  C218 9816   1.763   4.045   8.147 -0.8963 -0.7089  0.5831
   98SAPS  H18R 9817   1.739   4.143   8.193  0.3160  1.5120 -3.0554
   98SAPS  H18S 9818   1.861   4.045   8.094 -1.0322 -0.6090  0.3290
   98SAPS  C219 9819   1.746   3.935   8.262 -0.3556 -0.2194 -0.3821
   98SAPS  H19R 9820   1.750   3.843   8.199  1.3541  1.3217 -2.7289
   98SAPS  H19S 9821   1.645   3.952   8.305  0.7202  1.6830  1.5839
   98SAPS  C220 9822   1.829   3.928   8.386  0.4407  0.0426  0.1591
   98SAPS  H20R 9823   1.804   4.016   8.450 -1.5184  0.9140 -1.6928
   98SAPS  H20S 9824   1.940   3.923   8.382  0.4798 -2.4623  2.0537
   98SAPS  H20T 9825   1.802   3.836   8.441  0.2068 -0.0943 -0.1802
   98SAPS   C33 9826   1.524   4.880   6.737  0.7075 -0.4237 -0.1258
   98SAPS   H3X 9827   1.441   4.809   6.757 -1.5473  2.1074  0.0917
   98SAPS   H3Y 9828   1.466   4.973   6.755 -1.4091 -1.8849  1.0274
   98SAPS   C34 9829   1.633   4.877   6.851 -0.2573  0.0957  1.3179
   98SAPS   H4X 9830   1.720   4.942   6.830 -0.9235  0.6039  0.0734
   98SAPS   H4Y 9831   1.676   4.774   6.851  2.4036  1.1011 -0.5626
   98SAPS   C35 9832   1.567   4.894   6.985  0.2868 -0.4374  0.7883
   98SAPS   H5X 9833   1.465   4.849   6.989  0.1792 -0.2395  0.3483
   98SAPS   H5Y 9834   1.547   5.002   7.003 -0.7749 -0.8835  2.5628
   98SAPS   C36 9835   1.638   4.837   7.104 -0.7805 -0.1161 -0.8422
   98SAPS   H6X 9836   1.709   4.917   7.135  1.4240 -2.2258 -0.1725
   98SAPS   H6Y 9837   1.708   4.752   7.089 -0.5606 -0.1288  0.1472
   98SAPS   C37 9838   1.549   4.821   7.227  0.4229 -0.3123 -0.5907
   98SAPS   H7X 9839   1.485   4.733   7.205 -0.8497 -0.1561  2.0943
   98SAPS   H7Y 9840   1.490   4.916   7.231  2.7606  1.2406 -0.9816
   98SAPS   C38 9841   1.630   4.811   7.360 -0.4871 -0.0798 -0.2953
   98SAPS   H8X 9842   1.700   4.896   7.370 -1.4509  0.6692  0.2086
   98SAPS   H8Y 9843   1.682   4.712   7.359 -0.4292 -0.0421 -1.0258
   98SAPS   C39 9844   1.531   4.815   7.479  0.0140 -0.5316  0.6008
   98SAPS   H9X 9845   1.453   4.738   7.465 -2.3732  1.6235  1.3901
   98SAPS   H9Y 9846   1.469   4.907   7.473 -0.9949 -1.1284  1.5710
   98SAPS  C310 9847   1.603   4.809   7.618 -0.5269  0.0499 -0.6612
   98SAPS  H10X 9848   1.520   4.807   7.691  0.1676 -0.8014  0.1271
   98SAPS  H10Y 9849   1.659   4.904   7.625 -2.6920  1.2939  0.9880
   98SAPS  C311 9850   1.715   4.702   7.636  0.0909 -0.7254 -0.0029
   98SAPS  H11X 9851   1.791   4.738   7.563  0.0820 -0.5987  0.0503
   98SAPS  H11Y 9852   1.670   4.605   7.607 -1.9166  0.3678 -0.7834
   98SAPS  C312 9853   1.757   4.696   7.782  0.1805 -0.1537  0.0105
   98SAPS  H12X 9854   1.823   4.607   7.791 -0.0507 -0.3948 -0.5924
   98SAPS  H12Y 9855   1.664   4.673   7.840 -1.2912 -1.7565 -2.7610
   98SAPS  C313 9856   1.829   4.825   7.832  0.2927 -0.1480 -0.8353
   98SAPS  H13X 9857   1.748   4.901   7.825  1.8019  1.5144 -1.2397
   98SAPS  H13Y 9858   1.911   4.851   7.761 -0.3604 -0.1686 -1.6117
   98SAPS  C314 9859   1.897   4.805   7.960 -0.3484 -0.1507  0.7535
   98SAPS  H14X 9860   1.990   4.866   7.963 -1.8334  2.4960 -1.8199
   98SAPS  H14Y 9861   1.934   4.700   7.964 -0.3330 -0.2715 -1.1815
   98SAPS  C315 9862   1.819   4.835   8.084 -0.3641 -0.1758 -0.4061
   98SAPS  H15X 9863   1.774   4.738   8.114 -0.7942  0.5941  1.6325
   98SAPS  H15Y 9864   1.741   4.911   8.062  1.1162  1.5857  0.2164
   98SAPS  C316 9865   1.904   4.878   8.205  0.2393  0.0324  0.2339
   98SAPS  H16X 9866   1.951   4.973   8.173  0.2060 -0.8144 -2.5875
   98SAPS  H16Y 9867   1.978   4.803   8.239  0.5794  0.3206  0.1390
   98SAPS  C317 9868   1.821   4.905   8.326  0.1379  0.1592 -0.0315
   98SAPS  H17X 9869   1.773   4.808   8.351  0.3627  0.0839  0.1162
   98SAPS  H17Y 9870   1.753   4.983   8.287 -0.2635  0.3943  1.0798
   98SAPS  C318 9871   1.901   4.954   8.444  0.3323  0.2406  0.1176
   98SAPS  H18X 9872   1.834   4.999   8.521  1.2618 -0.2760  1.2506
   98SAPS  H18Y 9873   1.978   5.025   8.408  0.3077  0.0571 -0.3004
   98SAPS  H18Z 9874   1.951   4.871   8.498  1.4955  1.0832  0.3649
   99SAPS     N 9875   0.301   2.062   5.872  0.5799  0.4964 -0.1133
   99SAPS   HN1 9876   0.366   2.021   5.942 -2.0632  1.2019  2.9690
   99SAPS   HN2 9877   0.232   2.117   5.926  0.1281 -1.0927  0.9974
   99SAPS   HN3 9878   0.256   1.981   5.825 -0.8706  1.8868 -1.2554
   99SAPS   C12 9879   0.375   2.171   5.800  0.1140  0.6248  0.6844
   99SAPS  H12A 9880   0.476   2.135   5.787 -0.6980 -1.4059 -0.5405
   99SAPS   C13 9881   0.323   2.210   5.665 -0.4019 -0.7230 -0.1531
   99SAPS  O13A 9882   0.249   2.132   5.595 -0.5043 -0.0847  0.1813
   99SAPS  O13B 9883   0.391   2.304   5.607 -0.0977  0.1026 -0.5707
   99SAPS   C11 9884   0.370   2.299   5.897 -0.5353  0.1048 -0.9549
   99SAPS  H11A 9885   0.416   2.386   5.847  0.1292  0.5070  0.3077
   99SAPS  H11B 9886   0.435   2.289   5.987  0.5810  1.8615 -1.5212
   99SAPS     P 9887   0.193   2.444   6.023  0.1254  0.3014  0.0312
   99SAPS   O13 9888   0.299   2.547   6.030 -0.8114  0.1648 -0.0587
   99SAPS   O14 9889   0.063   2.492   5.986 -1.0766 -0.0456 -0.0202
   99SAPS   O12 9890   0.231   2.323   5.931 -0.5072  0.0971 -0.0246
   99SAPS   O11 9891   0.192   2.383   6.170  0.1459  0.4729  0.1857
   99SAPS    C1 9892   0.180   2.476   6.276 -0.1974  0.4256 -0.2703
   99SAPS    HA 9893   0.278   2.526   6.289 -0.1392  0.1110  0.5561
   99SAPS    HB 9894   0.103   2.553   6.256 -1.4143 -0.8227 -0.6049
   99SAPS    C2 9895   0.131   2.418   6.411 -0.1732  0.4853 -0.8866
   99SAPS    HS 9896   0.099   2.493   6.487  1.0984 -2.6666  3.1123
   99SAPS   O21 9897   0.235   2.342   6.474 -0.5615  0.2405  0.9439
   99SAPS   C21 9898   0.310   2.410   6.562  0.3709 -0.6152 -0.5629
   99SAPS   O22 9899   0.302   2.532   6.577 -0.3932 -0.0524  0.3749
   99SAPS   C22 9900   0.395   2.318   6.649  0.4035  0.5159 -0.0588
   99SAPS   H2R 9901   0.335   2.246   6.709 -0.6386  2.6311  1.6116
   99SAPS   H2S 9902   0.464   2.260   6.584  0.8419  0.0231  0.8241
   99SAPS    C3 9903   0.000   2.334   6.407 -0.1002  0.0520  0.5173
   99SAPS    HX 9904   0.024   2.249   6.339  2.1208  0.5711  0.5645
   99SAPS    HY 9905  -0.070   2.406   6.359  0.5845  1.2116  1.2047
   99SAPS   O31 9906  -0.050   2.304   6.535  0.7280  0.7785  0.1569
   99SAPS   C31 9907  -0.167   2.249   6.539  0.1094 -0.6698 -0.1711
   99SAPS   O32 9908  -0.233   2.208   6.445  0.1326  0.1593 -1.0711
   99SAPS   C32 9909  -0.205   2.245   6.692 -0.2621  0.0879 -0.0701
   99SAPS   H2X 9910  -0.254   2.339   6.723  0.1621 -0.4187  2.3203
   99SAPS   H2Y 9911  -0.109   2.245   6.747  1.0927 -1.4180 -2.2724
   99SAPS   C23 9912   0.487   2.400   6.741  0.1345 -1.1062 -0.6390
   99SAPS   H3R 9913   0.518   2.490   6.684 -0.2649 -0.4713  0.1305
   99SAPS   H3S 9914   0.585   2.356   6.768  0.2065 -0.9121 -0.5843
   99SAPS   C24 9915   0.415   2.446   6.877  0.2934  0.1205 -0.7402
   99SAPS   H4R 9916   0.319   2.500   6.860  0.4307  0.2921 -0.9764
   99SAPS   H4S 9917   0.482   2.517   6.931 -0.3626 -0.2578  0.6305
   99SAPS   C25 9918   0.397   2.333   6.974 -0.0828 -0.1624 -0.1310
   99SAPS   H5R 9919   0.494   2.295   7.010 -1.0328 -2.8362 -0.1300
   99SAPS   C26 9920   0.289   2.279   7.033 -0.1207 -0.0137  0.1038
   99SAPS   H6R 9921   0.300   2.195   7.104 -0.8013 -0.1019  0.1097
   99SAPS   C27 9922   0.149   2.328   7.020  0.1251 -0.2630 -0.3591
   99SAPS   H7R 9923   0.100   2.272   6.937  0.5418 -0.8864 -0.1931
   99SAPS   H7S 9924   0.134   2.432   6.983 -2.1515 -0.1890  0.5735
   99SAPS   C28 9925   0.072   2.294   7.146  0.3413 -0.8823 -0.4080
   99SAPS   H8R 9926  -0.012   2.224   7.138  0.3357 -0.8085 -1.1150
   99SAPS   C29 9927   0.093   2.349   7.268 -0.2057  0.1530  0.1271
   99SAPS   H9R 9928   0.027   2.324   7.353 -0.1288 -1.3542 -0.2306
   99SAPS  C210 9929   0.191   2.450   7.306  0.2670  0.6938  0.5737
   99SAPS  H10R 9930   0.245   2.490   7.217 -1.3431 -0.5627 -1.0625
   99SAPS  H10S 9931   0.275   2.397   7.356  2.3519 -0.1578 -3.4028
   99SAPS  C211 9932   0.135   2.557   7.383  0.4653  0.3123 -1.2670
   99SAPS  H11R 9933   0.044   2.607   7.347 -0.1538 -0.5131 -0.8926
   99SAPS  C212 9934   0.179   2.599   7.504  0.9947  0.0075 -0.2118
   99SAPS  H12R 9935   0.118   2.672   7.560  1.8005 -0.7994  1.8072
   99SAPS  C213 9936   0.297   2.542   7.583 -0.4568 -0.1141 -0.2355
   99SAPS  H13R 9937   0.355   2.617   7.641  2.5186 -1.3665 -1.4193
   99SAPS  H13S 9938   0.385   2.508   7.525  1.6297  1.1121  1.9986
   99SAPS  C214 9939   0.257   2.444   7.693 -0.1729 -0.2636  0.4305
   99SAPS  H14R 9940   0.183   2.369   7.665  0.6508 -1.2296  0.7912
   99SAPS  C215 9941   0.302   2.442   7.821  0.4070  0.6920  0.2592
   99SAPS  H15R 9942   0.256   2.375   7.895 -0.8163  0.2560 -0.8571
   99SAPS  C216 9943   0.385   2.543   7.887  0.1304  0.6689 -0.2858
   99SAPS  H16R 9944   0.413   2.635   7.831  2.2422 -0.0494 -0.5157
   99SAPS  H16S 9945   0.489   2.505   7.899  0.0269  0.3251 -0.4513
   99SAPS  C217 9946   0.327   2.583   8.027 -0.4679 -0.3937 -0.3383
   99SAPS  H17R 9947   0.222   2.613   8.008 -1.1828 -2.9599 -0.8300
   99SAPS  H17S 9948   0.386   2.671   8.059  0.8276 -0.2981 -2.7068
   99SAPS  C218 9949   0.331   2.474   8.127  0.0882 -0.2734  1.1263
   99SAPS  H18R 9950   0.427   2.421   8.146  0.5438 -0.0568 -0.4880
   99SAPS  H18S 9951   0.260   2.394   8.096 -0.2211  0.7748 -1.0515
   99SAPS  C219 9952   0.304   2.518   8.273 -0.1315  0.2113  0.4911
   99SAPS  H19R 9953   0.209   2.575   8.276  0.6311  1.5036  0.8983
   99SAPS  H19S 9954   0.378   2.593   8.308 -0.8978  0.5239  1.5058
   99SAPS  C220 9955   0.287   2.400   8.364  0.1957  0.4891 -0.1299
   99SAPS  H20R 9956   0.272   2.434   8.468  1.6607 -2.7126  1.2623
   99SAPS  H20S 9957   0.377   2.336   8.358  0.3313  0.6278  0.3786
   99SAPS  H20T 9958   0.199   2.341   8.332 -0.7391  1.0364  1.3539
   99SAPS   C33 9959  -0.301   2.133   6.731  0.7215 -0.4686 -0.6218
   99SAPS   H3X 9960  -0.244   2.037   6.730 -0.8892 -1.7741  4.2947
   99SAPS   H3Y 9961  -0.386   2.128   6.659  0.4457 -0.3691 -0.3050
   99SAPS   C34 9962  -0.364   2.156   6.867  0.6317  0.0716 -0.5367
   99SAPS   H4X 9963  -0.453   2.090   6.860  0.8371 -0.5296  1.7701
   99SAPS   H4Y 9964  -0.409   2.257   6.873  0.1173 -0.0158 -2.2180
   99SAPS   C35 9965  -0.283   2.127   6.991  0.3811 -0.2131 -0.2014
   99SAPS   H5X 9966  -0.198   2.197   7.004  0.3617 -0.5446  2.1716
   99SAPS   H5Y 9967  -0.246   2.022   6.988 -1.3204 -0.9560  1.6126
   99SAPS   C36 9968  -0.373   2.132   7.113 -0.0854 -0.1031 -0.1822
   99SAPS   H6X 9969  -0.456   2.061   7.091 -0.4016  0.4899 -0.9174
   99SAPS   H6Y 9970  -0.414   2.234   7.120 -1.0432 -0.5182  0.3936
   99SAPS   C37 9971  -0.291   2.101   7.240 -0.7132 -0.0760 -0.0134
   99SAPS   H7X 9972  -0.223   2.187   7.259 -1.7392  0.9488 -0.8411
   99SAPS   H7Y 9973  -0.230   2.009   7.227  0.8528  1.0428 -1.0157
   99SAPS   C38 9974  -0.380   2.083   7.359 -0.0996 -0.9250  0.7619
   99SAPS   H8X 9975  -0.448   1.998   7.336  0.3555 -0.5166 -2.7139
   99SAPS   H8Y 9976  -0.439   2.175   7.378  2.7264  1.0815  0.5268
   99SAPS   C39 9977  -0.287   2.059   7.476 -0.1682  0.8145  0.1808
   99SAPS   H9X 9978  -0.235   2.157   7.479  0.3893  0.5339 -0.0450
   99SAPS   H9Y 9979  -0.199   1.993   7.461 -1.5193 -2.7170  5.2201
   99SAPS  C310 9980  -0.351   2.023   7.601  0.0994 -0.7005 -0.5026
   99SAPS  H10X 9981  -0.410   1.928   7.598  0.4672 -0.9257 -0.6922
   99SAPS  H10Y 9982  -0.423   2.100   7.635 -0.0462 -1.9275  2.2551
   99SAPS  C311 9983  -0.249   2.001   7.706 -0.5934  0.5910  1.2095
   99SAPS  H11X 9984  -0.179   2.086   7.719 -0.0987  0.0910  1.8989
   99SAPS  H11Y 9985  -0.181   1.916   7.683  0.6711  2.1091 -1.0922
   99SAPS  C312 9986  -0.319   1.993   7.839 -0.1650  0.6648 -0.2151
   99SAPS  H12X 9987  -0.398   1.915   7.846 -1.3051  1.3639 -3.3866
   99SAPS  H12Y 9988  -0.380   2.086   7.839  0.2145  0.9161 -0.2250
   99SAPS  C313 9989  -0.226   1.996   7.963 -0.1623 -0.3306  1.3179
   99SAPS  H13X 9990  -0.168   2.091   7.959  1.2535 -1.2087 -0.2748
   99SAPS  H13Y 9991  -0.156   1.910   7.956  1.2013  0.8607 -2.2659
   99SAPS  C314 9992  -0.299   1.987   8.092 -0.1502 -0.5346 -0.0306
   99SAPS  H14X 9993  -0.372   1.904   8.097  1.8223 -2.3974 -0.6131
   99SAPS  H14Y 9994  -0.359   2.078   8.113 -2.7170 -1.6315 -2.1117
   99SAPS  C315 9995  -0.198   1.967   8.202  0.5507  0.2776 -1.2657
   99SAPS  H15X 9996  -0.139   2.060   8.207  1.4125 -0.2756 -0.7890
   99SAPS  H15Y 9997  -0.139   1.875   8.182 -0.2212 -0.9322  1.4544
   99SAPS  C316 9998  -0.274   1.962   8.337  0.1644 -0.5648 -0.4265
   99SAPS  H16X 9999  -0.325   1.863   8.345 -0.6640  0.0260  2.7355
   99SAPS  H16Y10000  -0.349   2.043   8.351  0.6746 -0.1462 -0.0755
   99SAPS  C31710001  -0.177   1.968   8.460  0.0954 -0.4920 -0.1725
   99SAPS  H17X10002  -0.230   1.981   8.557  0.3443 -0.4643 -0.0387
   99SAPS  H17Y10003  -0.105   2.051   8.443 -0.6021  0.7248  2.3320
   99SAPS  C31810004  -0.083   1.850   8.478  0.2762  0.1707 -0.7236
   99SAPS  H18X10005   0.014   1.877   8.525 -1.9133  2.7807  2.7752
   99SAPS  H18Y10006  -0.056   1.793   8.386 -0.9238  0.7416 -1.4528
   99SAPS  H18Z10007  -0.137   1.782   8.548 -1.2864  0.8093 -1.2618
  100SAPS     N10008   3.658   5.839   6.088  0.6242 -0.5473 -0.5005
  100SAPS   HN110009   3.696   5.759   6.143  2.1566  0.4477 -0.0293
  100SAPS   HN210010   3.577   5.875   6.141 -0.3456 -3.8404  0.4923
  100SAPS   HN310011   3.621   5.809   5.996  0.5351  1.5380 -1.1888
  100SAPS   C1210012   3.767   5.939   6.061  0.4984  0.0301 -0.2406
  100SAPS  H12A10013   3.808   5.976   6.154 -2.8853  1.1992  0.9489
  100SAPS   C1310014   3.880   5.891   5.967 -0.1426 -0.2762  0.3214
  100SAPS  O13A10015   3.879   5.778   5.911  0.7462 -0.1378 -0.3226
  100SAPS  O13B10016   3.982   5.969   5.954 -0.0454  1.0035 -0.2153
  100SAPS   C1110017   3.707   6.069   5.999  0.6753  0.0985  0.3219
  100SAPS  H11A10018   3.641   6.035   5.916 -0.3301  1.1848  0.6522
  100SAPS  H11B10019   3.787   6.116   5.937  0.6213 -1.3691 -0.9325
  100SAPS     P10020   3.707   6.264   6.175 -0.3467  0.1447  0.4453
  100SAPS   O1310021   3.810   6.320   6.082  0.9102 -0.1892 -0.6940
  100SAPS   O1410022   3.603   6.357   6.227 -0.2907  0.2627 -0.7222
  100SAPS   O1210023   3.628   6.150   6.090  0.7903  0.7050  0.2354
  100SAPS   O1110024   3.779   6.177   6.286  0.4058 -0.4921 -0.3048
  100SAPS    C110025   3.704   6.094   6.374 -0.2855  0.8254 -0.2396
  100SAPS    HA10026   3.595   6.113   6.384 -0.0654  0.9915  2.5668
  100SAPS    HB10027   3.716   5.985   6.356  0.4742  0.6952  0.9296
  100SAPS    C210028   3.743   6.127   6.522 -0.4209  0.2392  0.1057
  100SAPS    HS10029   3.647   6.099   6.572  0.0941  1.0544  1.6215
  100SAPS   O2110030   3.759   6.269   6.534  0.2473  0.1270  0.0265
  100SAPS   C2110031   3.716   6.326   6.647 -0.0671  0.4276  0.3913
  100SAPS   O2210032   3.659   6.267   6.737  0.1240  0.1081 -0.3779
  100SAPS   C2210033   3.755   6.474   6.642 -0.1667 -0.4325 -0.5672
  100SAPS   H2R10034   3.849   6.485   6.584  2.6569 -4.6403  2.6398
  100SAPS   H2S10035   3.670   6.513   6.581 -0.0410  0.0570 -0.4353
  100SAPS    C310036   3.867   6.033   6.578  0.0306 -0.7006 -0.0372
  100SAPS    HX10037   3.946   6.041   6.500  0.9018  0.7595  0.9277
  100SAPS    HY10038   3.842   5.925   6.576  0.0690 -0.7190  0.3759
  100SAPS   O3110039   3.917   6.078   6.711 -0.2459  0.0909  0.7286
  100SAPS   C3110040   3.849   6.018   6.810  0.2570  0.7298  0.1262
  100SAPS   O3210041   3.750   5.951   6.796  0.1473  0.2208  0.2128
  100SAPS   C3210042   3.901   6.063   6.943  0.3337 -0.3120 -0.7857
  100SAPS   H2X10043   3.861   6.166   6.954 -1.0014 -0.9041  0.1833
  100SAPS   H2Y10044   4.009   6.086   6.931  0.9076 -0.7089  2.5738
  100SAPS   C2310045   3.762   6.535   6.782  0.3241 -0.2989  0.1099
  100SAPS   H3R10046   3.852   6.499   6.837  0.1697 -0.8967 -0.0174
  100SAPS   H3S10047   3.677   6.497   6.843  0.0502 -0.1238 -0.1633
  100SAPS   C2410048   3.731   6.694   6.791 -0.1396 -0.8578  0.0245
  100SAPS   H4R10049   3.727   6.706   6.902 -1.5150  0.2313 -0.1093
  100SAPS   H4S10050   3.629   6.714   6.753 -1.4716 -3.6248  1.8305
  100SAPS   C2510051   3.844   6.766   6.717 -0.1162 -0.5888  0.0363
  100SAPS   H5R10052   3.837   6.753   6.608  2.6697 -0.5402 -0.2324
  100SAPS   C2610053   3.956   6.821   6.768 -0.7951 -0.8316 -0.2955
  100SAPS   H6R10054   4.038   6.853   6.702 -0.0605 -1.2452  0.3888
  100SAPS   C2710055   3.989   6.828   6.916  0.0863 -0.1146 -0.5296
  100SAPS   H7R10056   4.094   6.790   6.921 -0.8517 -3.0216 -1.3485
  100SAPS   H7S10057   3.939   6.744   6.969  0.8138  0.3387  0.9160
  100SAPS   C2810058   3.975   6.962   6.977 -0.0569 -0.0270  0.1662
  100SAPS   H8R10059   3.959   7.049   6.911 -1.1636  1.6975  2.5780
  100SAPS   C2910060   3.977   6.982   7.104 -0.9852  0.5061  0.2738
  100SAPS   H9R10061   3.949   7.084   7.137 -2.1858  0.9705 -2.0005
  100SAPS  C21010062   3.999   6.873   7.208 -0.3388  0.1876  0.4056
  100SAPS  H10R10063   4.079   6.807   7.168 -0.7942  0.9966 -2.0662
  100SAPS  H10S10064   3.911   6.805   7.207  0.1000 -0.3876 -0.4165
  100SAPS  C21110065   4.008   6.921   7.347 -0.4225 -0.5142  0.2629
  100SAPS  H11R10066   4.111   6.931   7.384 -0.3952  0.6516 -0.0819
  100SAPS  C21210067   3.913   6.940   7.442  0.4257  0.0745 -0.5370
  100SAPS  H12R10068   3.942   6.978   7.541 -0.4654 -0.6697  0.0258
  100SAPS  C21310069   3.766   6.921   7.433  0.1446  0.2962  0.8583
  100SAPS  H13R10070   3.735   6.912   7.327 -3.2139 -2.2996  1.8656
  100SAPS  H13S10071   3.700   7.004   7.467  0.1627  0.0995  1.3911
  100SAPS  C21410072   3.713   6.793   7.485  0.7196  0.3976 -0.7825
  100SAPS  H14R10073   3.777   6.705   7.470  1.0645  0.4472  0.3316
  100SAPS  C21510074   3.609   6.779   7.570  0.0580 -0.0990  0.2609
  100SAPS  H15R10075   3.582   6.674   7.592  1.1728 -0.2085  1.2140
  100SAPS  C21610076   3.517   6.881   7.630 -0.4003 -0.0139 -0.3268
  100SAPS  H16R10077   3.415   6.836   7.639 -0.1243 -0.4139  0.9832
  100SAPS  H16S10078   3.502   6.976   7.574  2.0685  1.4189  1.2866
  100SAPS  C21710079   3.567   6.908   7.773 -0.6044  0.7271 -0.0857
  100SAPS  H17R10080   3.592   6.813   7.826  0.6303 -0.2054 -2.1961
  100SAPS  H17S10081   3.486   6.965   7.823 -2.6755 -1.0639 -1.2442
  100SAPS  C21810082   3.696   6.981   7.782  0.6923  0.0495  0.1987
  100SAPS  H18R10083   3.678   7.082   7.738 -4.3422 -0.3656  0.7143
  100SAPS  H18S10084   3.783   6.935   7.731 -0.2933  0.1746 -1.6510
  100SAPS  C21910085   3.746   7.004   7.928 -0.1021 -0.2372 -0.8451
  100SAPS  H19R10086   3.799   6.909   7.952 -0.2846 -0.7168 -2.2437
  100SAPS  H19S10087   3.667   7.023   8.004  0.5532  2.0302 -0.6657
  100SAPS  C22010088   3.835   7.125   7.944 -0.1386  0.1316 -0.5100
  100SAPS  H20R10089   3.767   7.211   7.930 -0.3593 -0.2912 -2.2704
  100SAPS  H20S10090   3.909   7.135   7.861  0.2757  0.1876 -0.1348
  100SAPS  H20T10091   3.880   7.141   8.044  0.7527  0.7054 -0.9867
  100SAPS   C3310092   3.871   5.974   7.069 -1.1095  0.9201  0.5312
  100SAPS   H3X10093   3.888   5.867   7.046 -0.0010  1.3851 -0.9272
  100SAPS   H3Y10094   3.761   5.976   7.086 -1.4135 -0.3375 -0.9749
  100SAPS   C3410095   3.963   6.011   7.185  1.1199 -0.3160 -0.7475
  100SAPS   H4X10096   3.934   6.115   7.209  0.4431 -0.3841 -1.2458
  100SAPS   H4Y10097   4.065   6.021   7.142  1.4475  0.9896  0.2886
  100SAPS   C3510098   3.946   5.924   7.309 -0.1133 -0.3133 -0.3484
  100SAPS   H5X10099   3.976   5.819   7.288 -0.5327 -0.6675  0.7170
  100SAPS   H5Y10100   3.841   5.908   7.342  0.3980 -0.3754  1.3453
  100SAPS   C3610101   4.025   5.960   7.437 -0.5336 -0.3395  0.0931
  100SAPS   H6X10102   4.131   5.986   7.416 -0.0062 -2.0633  0.4612
  100SAPS   H6Y10103   4.022   5.865   7.493  2.8785 -0.8901 -0.4289
  100SAPS   C3710104   3.961   6.065   7.522 -0.2365  0.0099 -0.3813
  100SAPS   H7X10105   3.865   6.016   7.550  1.0745 -1.1645  2.3370
  100SAPS   H7Y10106   3.942   6.164   7.475  2.2960  1.6735  1.8199
  100SAPS   C3810107   4.044   6.085   7.650  0.2079 -0.3840  0.1436
  100SAPS   H8X10108   4.128   6.153   7.624 -0.6353  0.5722 -0.1293
  100SAPS   H8Y10109   4.092   5.997   7.697  0.4425  0.4288  1.5075
  100SAPS   C3910110   3.961   6.157   7.757 -0.0553  0.4609 -0.3205
  100SAPS   H9X10111   3.881   6.091   7.797 -1.0105  0.2279 -2.4689
  100SAPS   H9Y10112   3.909   6.247   7.718 -0.5850  0.5658  0.5947
  100SAPS  C31010113   4.051   6.208   7.867 -0.4270 -0.3892  0.4264
  100SAPS  H10X10114   4.113   6.288   7.822  1.3998 -0.6736  2.3117
  100SAPS  H10Y10115   4.116   6.129   7.911  2.0376  2.3123  1.9344
  100SAPS  C31110116   3.975   6.265   7.986  0.4588  0.4955 -0.2286
  100SAPS  H11X10117   4.050   6.264   8.067  2.0973 -2.5925 -1.6226
  100SAPS  H11Y10118   3.894   6.202   8.027 -0.7254  1.3963 -1.0914
  100SAPS  C31210119   3.927   6.412   7.970  0.3274 -0.4955 -0.2373
  100SAPS  H12X10120   3.853   6.427   7.889 -1.0390  0.7122  1.1721
  100SAPS  H12Y10121   4.012   6.479   7.942  1.2142 -1.0730  0.9795
  100SAPS  C31310122   3.869   6.460   8.102  0.3389  0.1810 -0.0644
  100SAPS  H13X10123   3.935   6.446   8.190  0.9081  1.1911 -0.3167
  100SAPS  H13Y10124   3.773   6.407   8.119  1.4888 -2.2215 -0.6249
  100SAPS  C31410125   3.833   6.614   8.094 -0.1979  0.3055  1.1550
  100SAPS  H14X10126   3.753   6.620   8.017  0.0340  1.3877  0.9852
  100SAPS  H14Y10127   3.921   6.674   8.064  0.6250 -1.3943 -0.0294
  100SAPS  C31510128   3.778   6.659   8.233 -0.6883  0.1033  0.1108
  100SAPS  H15X10129   3.851   6.696   8.308  1.5001 -2.1066 -0.7533
  100SAPS  H15Y10130   3.726   6.571   8.276 -5.4664  2.8338  0.5394
  100SAPS  C31610131   3.680   6.779   8.212 -0.6434 -0.8779 -0.0325
  100SAPS  H16X10132   3.736   6.862   8.165  1.5181 -1.7877  0.8202
  100SAPS  H16Y10133   3.650   6.819   8.311  1.2262 -0.4624  0.4076
  100SAPS  C31710134   3.546   6.749   8.145 -0.0608 -0.3420  1.2683
  100SAPS  H17X10135   3.561   6.719   8.039 -1.6453  0.0750  0.8923
  100SAPS  H17Y10136   3.487   6.843   8.142  1.7932  0.8250 -0.4075
  100SAPS  C31810137   3.458   6.640   8.209  0.9501  0.0313 -0.2947
  100SAPS  H18X10138   3.353   6.660   8.177  0.5517 -1.7644 -0.2278
  100SAPS  H18Y10139   3.448   6.657   8.318  0.8807  1.5571 -0.5125
  100SAPS  H18Z10140   3.487   6.537   8.182  0.6685  0.1514 -1.0975
  101OSM      N10141   2.379   6.551  11.158 -0.3336 -0.0863  0.5191
  101OSM    C1510142   2.235   6.578  11.195 -0.2419 -0.7203  0.2604
  101OSM   H15A10143   2.198   6.505  11.266 -0.0608 -0.6932  0.3854
  101OSM   H15B10144   2.175   6.576  11.105  1.5534  1.5041 -1.1142
  101OSM   H15C10145   2.215   6.676  11.236 -1.7187 -0.3314 -1.2763
  101OSM    C1410146   2.433   6.666  11.073 -0.4639  0.3529  0.5476
  101OSM   H14A10147   2.387   6.678  10.976  2.7173 -1.4862 -1.3582
  101OSM   H14B10148   2.534   6.642  11.042 -0.6425 -1.1716  1.0774
  101OSM   H14C10149   2.433   6.757  11.132 -0.1082 -0.3600  1.6756
  101OSM    C1310150   2.463   6.547  11.279 -0.3449  0.3018 -0.8840
  101OSM   H13A10151   2.566   6.542  11.245 -0.2047  0.1603 -0.4465
  101OSM   H13B10152   2.441   6.457  11.334  2.7670 -1.0956 -1.6675
  101OSM   H13C10153   2.462   6.637  11.338  0.2304 -0.7841  0.8352
  101OSM    C1210154   2.398   6.425  11.084 -0.7014 -0.3494 -0.1352
  101OSM   H12A10155   2.369   6.340  11.144  0.2529 -0.8690 -0.3807
  101OSM   H12B10156   2.501   6.410  11.055 -0.0409  0.0470  1.8345
  101OSM    C1110157   2.329   6.427  10.942 -0.0050  0.5493  1.0690
  101OSM   H11A10158   2.346   6.327  10.896  0.0789  0.8714  0.3965
  101OSM   H11B10159   2.375   6.504  10.877  2.6536 -0.9692  0.9980
  101OSM      P10160   2.094   6.327  10.996 -0.1262  0.2136  0.2575
  101OSM    O1310161   2.165   6.249  11.098  0.3144 -0.0343  0.5655
  101OSM    O1410162   1.970   6.395  11.037  0.1171 -0.2482  0.1274
  101OSM    O1110163   2.063   6.232  10.878 -0.3604 -0.4091  0.0044
  101OSM    O1210164   2.184   6.445  10.943 -0.1558  0.1972  0.4270
  101OSM    C1S10165   2.032   6.283  10.744 -0.3911 -0.2014 -0.4411
  101OSM    H1S10166   2.128   6.313  10.698  1.5203 -1.4854  2.4182
  101OSM    H1T10167   1.978   6.379  10.737  1.2898  0.7248 -1.4196
  101OSM     NF10168   1.970   6.215  10.513 -0.0613  0.0442 -0.3730
  101OSM    HNF10169   1.901   6.279  10.481 -0.8582 -0.3381  0.5219
  101OSM    C2S10170   1.965   6.168  10.652 -0.0683 -0.1402 -0.1174
  101OSM    H2S10171   2.015   6.069  10.662 -1.7374 -1.0362 -0.2256
  101OSM    C3S10172   1.823   6.140  10.702 -0.4822 -0.3309  0.0003
  101OSM    H3S10173   1.764   6.233  10.717 -0.8151 -0.1778 -1.9724
  101OSM     O310174   1.817   6.088  10.838  0.4520 -1.1332 -0.2729
  101OSM    HO310175   1.904   6.113  10.868  0.0533  2.6496 -1.6852
  101OSM    C4S10176   1.765   6.033  10.620 -0.6011 -0.0611 -0.1153
  101OSM    H4S10177   1.810   5.937  10.651  4.6893  2.1712  0.0908
  101OSM    C5S10178   1.680   6.042  10.513  1.0081  0.9712 -0.5964
  101OSM    H5S10179   1.639   6.138  10.479 -1.8196 -0.5166 -1.7480
  101OSM    C6S10180   1.626   5.917  10.441 -0.2790  0.3638  0.1603
  101OSM    H6S10181   1.519   5.911  10.471 -0.7022  0.3924 -1.2458
  101OSM    H6T10182   1.657   5.817  10.479  0.7083  0.3974 -0.5079
  101OSM    C7S10183   1.648   5.911  10.288 -0.3986 -0.5174  0.1355
  101OSM    H7S10184   1.613   5.809  10.258  1.5960 -1.3164  0.3884
  101OSM    H7T10185   1.758   5.907  10.273 -0.0524  1.0439  1.9888
  101OSM    C8S10186   1.584   6.031  10.215 -0.6582 -0.4335  0.2864
  101OSM    H8S10187   1.638   6.125  10.239  0.7711 -0.7770 -1.3944
  101OSM    H8T10188   1.475   6.043  10.234 -0.7967 -1.0837 -0.0605
  101OSM    C9S10189   1.598   6.028  10.065  0.2442  0.4698  0.1709
  101OSM    H9S10190   1.537   6.105  10.013 -0.8108 -0.3021  0.2192
  101OSM    H9T10191   1.554   5.934  10.026  1.9566  0.0258 -0.7620
  101OSM   C10S10192   1.743   6.041  10.021 -0.3921 -0.2623 -0.1793
  101OSM   H10S10193   1.788   5.939  10.019 -0.4713 -0.2835 -1.5420
  101OSM   H10T10194   1.791   6.104  10.099 -0.6393 -2.6840  2.1085
  101OSM   C11S10195   1.767   6.081   9.876 -0.0297 -0.5659  0.4081
  101OSM   H11S10196   1.710   6.171   9.845  0.1324 -0.9263 -1.0291
  101OSM   H11T10197   1.725   6.005   9.806  1.8045  0.5485 -2.0462
  101OSM   C12S10198   1.914   6.074   9.823 -0.2358 -0.5790 -0.6304
  101OSM   H12S10199   1.939   5.969   9.847 -1.8974 -0.5852  1.4832
  101OSM   H12T10200   1.970   6.159   9.869 -0.6754 -0.0407 -1.0804
  101OSM   C13S10201   1.939   6.101   9.678  0.7199 -0.3629 -0.5603
  101OSM   H13S10202   1.891   6.198   9.655 -0.7339 -0.6037  1.2638
  101OSM   H13T10203   1.893   6.019   9.618  4.3340 -2.1363 -1.2260
  101OSM   C14S10204   2.090   6.086   9.641 -0.3625 -0.6255  0.3795
  101OSM   H14S10205   2.119   5.983   9.673 -1.8006 -0.8468  1.0820
  101OSM   H14T10206   2.148   6.165   9.693  0.5299 -1.6440  0.9823
  101OSM   C15S10207   2.118   6.100   9.489  0.1623  0.3527  0.2523
  101OSM   H15S10208   2.225   6.118   9.468  0.1123  0.8917  0.4420
  101OSM   H15T10209   2.066   6.188   9.447  0.7641  0.5520 -0.0854
  101OSM   C16S10210   2.061   5.979   9.418 -0.2951 -0.5315 -0.4176
  101OSM   H16S10211   1.950   5.975   9.423 -0.4091  0.1893 -1.8296
  101OSM   H16T10212   2.113   5.892   9.463  0.2320  0.8544  1.7788
  101OSM   C17S10213   2.105   5.962   9.272  0.6581  0.8346  0.2518
  101OSM   H17S10214   2.215   5.958   9.260  0.7245 -0.7311  1.1567
  101OSM   H17T10215   2.058   6.040   9.208 -2.0550 -0.4852  0.5133
  101OSM   C18S10216   2.066   5.823   9.221  0.6799 -0.7211 -0.4773
  101OSM   H18S10217   2.118   5.807   9.124  1.0961  1.0943 -0.5892
  101OSM   H18T10218   1.955   5.819   9.213  0.5005  2.6305 -1.0288
  101OSM   H18U10219   2.095   5.744   9.293 -1.7462  0.3700  1.8907
  101OSM    C1F10220   2.071   6.206  10.443 -0.3468 -0.0297  0.5433
  101OSM     OF10221   2.167   6.149  10.488 -0.3829 -0.0297  0.3809
  101OSM    C2F10222   2.061   6.269  10.308  0.4818 -0.2325  0.4040
  101OSM    H2F10223   1.993   6.356  10.306 -1.0033 -1.3623  0.6476
  101OSM    H2G10224   2.018   6.185  10.250  0.0424  0.7915 -0.8069
  101OSM    C3F10225   2.206   6.296  10.240  0.3243  1.1682 -0.8401
  101OSM    H3F10226   2.267   6.203  10.244 -3.3441 -1.4697 -1.2595
  101OSM    H3G10227   2.272   6.367  10.294  0.3566 -0.5733  1.5445
  101OSM    C4F10228   2.212   6.340  10.096  0.6257  0.4672 -0.6431
  101OSM    H4F10229   2.153   6.433  10.082  2.0704  2.1230  2.8862
  101OSM    H4G10230   2.179   6.261  10.025  2.5717 -0.7865 -0.2427
  101OSM    C5F10231   2.353   6.378  10.063 -0.1293  0.0871  0.0041
  101OSM    H5F10232   2.420   6.292  10.084  0.9209  1.3693  2.1598
  101OSM    H5G10233   2.404   6.452  10.128  1.2250 -1.8385  1.2432
  101OSM    C6F10234   2.378   6.415   9.915  0.5057  0.2762 -0.2896
  101OSM    H6F10235   2.320   6.503   9.880 -0.5896 -0.5599 -0.6030
  101OSM    H6G10236   2.364   6.324   9.854 -0.7582 -1.2092  2.0492
  101OSM    C7F10237   2.533   6.463   9.900 -0.1991 -0.0323 -0.3752
  101OSM    H7F10238   2.593   6.377   9.938 -0.8346 -0.0880  0.5453
  101OSM    H7G10239   2.540   6.552   9.966 -1.3959 -0.3408  0.1884
  101OSM    C8F10240   2.556   6.495   9.754 -0.5280  0.0637  0.3215
  101OSM    H8F10241   2.635   6.571   9.734 -1.4212  0.2333 -3.3671
  101OSM    H8G10242   2.468   6.542   9.706 -0.0584 -1.3568 -2.0860
  101OSM    C9F10243   2.595   6.371   9.682 -0.4014 -0.2735  0.0716
  101OSM    H9F10244   2.686   6.319   9.718 -1.8434 -2.6714  0.4537
  101OSM   C10F10245   2.533   6.310   9.576 -0.6785 -0.4096  0.0069
  101OSM   H10F10246   2.593   6.229   9.532  1.2247  0.1434  1.4109
  101OSM   C11F10247   2.405   6.358   9.515 -0.4751  0.0098  0.6887
  101OSM   H11F10248   2.368   6.447   9.571  0.2189  2.2338 -2.1293
  101OSM   H11G10249   2.331   6.277   9.501 -1.3705  1.2085 -2.2665
  101OSM   C12F10250   2.419   6.426   9.373  0.2345  0.4364 -0.0477
  101OSM   H12F10251   2.496   6.506   9.375  0.8834 -0.1538 -0.5593
  101OSM   H12G10252   2.325   6.480   9.351 -0.2842  1.3763  3.7803
  101OSM   C13F10253   2.463   6.323   9.267 -0.3764 -0.2375  0.1534
  101OSM   H13F10254   2.379   6.255   9.239 -0.8422  0.8033 -1.0391
  101OSM   H13G10255   2.547   6.263   9.308  0.5159  1.3211  0.6677
  101OSM   C14F10256   2.524   6.377   9.137 -0.0398  0.6088 -0.1978
  101OSM   H14F10257   2.579   6.469   9.168 -0.7562  1.2804 -0.8666
  101OSM   H14G10258   2.440   6.418   9.076 -0.6026 -1.2439 -0.7263
  101OSM   C15F10259   2.609   6.279   9.058  0.0127  0.2612 -0.0339
  101OSM   H15F10260   2.550   6.193   9.020 -1.5676  1.5789 -0.7087
  101OSM   H15G10261   2.674   6.224   9.129 -2.2405 -1.1544  1.0388
  101OSM   C16F10262   2.689   6.340   8.944 -0.6545 -0.6629 -0.1947
  101OSM   H16F10263   2.742   6.262   8.885 -1.6323  1.0541 -3.5906
  101OSM   H16G10264   2.763   6.414   8.982  0.1018 -1.5513  0.1265
  101OSM   C17F10265   2.603   6.412   8.836  0.1235  0.6588 -1.4109
  101OSM   H17F10266   2.521   6.467   8.888  0.6173  1.8429 -1.8387
  101OSM   H17G10267   2.550   6.334   8.779 -0.0437  0.8562 -1.5274
  101OSM   C18F10268   2.687   6.506   8.759  0.0374  0.3428  0.3916
  101OSM   H18F10269   2.722   6.591   8.821  1.3741 -0.6496  1.0497
  101OSM   H18G10270   2.629   6.551   8.675  3.1189 -0.8396 -2.5937
  101OSM   H18H10271   2.774   6.454   8.714 -0.6298  0.4714 -1.1318
  102OSM      N10272   1.952   4.067  10.958 -0.1046  0.4191 -0.1194
  102OSM    C1510273   2.027   4.070  11.094 -0.0052 -0.0857 -0.4213
  102OSM   H15A10274   2.023   4.166  11.142  1.8771 -0.4159  0.4721
  102OSM   H15B10275   2.134   4.059  11.092  0.0392  0.3530 -0.5718
  102OSM   H15C10276   1.993   3.999  11.168  2.2503 -1.4138 -0.5794
  102OSM    C1410277   1.960   3.923  10.908  0.5123 -0.2243  0.0516
  102OSM   H14A10278   2.063   3.898  10.887  0.3768  0.6200 -1.8292
  102OSM   H14B10279   1.900   3.904  10.820 -0.5457  2.6666  0.0325
  102OSM   H14C10280   1.932   3.850  10.981  2.3323 -0.1357  0.9088
  102OSM    C1310281   1.807   4.093  10.993 -0.2119 -0.2870 -0.2031
  102OSM   H13A10282   1.776   4.030  11.075  2.1275 -1.5719 -0.2133
  102OSM   H13B10283   1.751   4.066  10.905  1.1178 -1.4240 -0.7496
  102OSM   H13C10284   1.793   4.196  11.020  1.9966  0.0212 -0.0762
  102OSM    C1210285   2.014   4.161  10.861 -0.5149  0.0798 -0.2802
  102OSM   H12A10286   2.121   4.148  10.855 -0.4165  1.1059 -1.1117
  102OSM   H12B10287   2.005   4.262  10.899  1.1493  1.4123 -3.0719
  102OSM    C1110288   1.965   4.168  10.718 -0.7814 -0.2003  0.7212
  102OSM   H11A10289   1.969   4.072  10.661 -0.2881  0.7264 -0.8649
  102OSM   H11B10290   2.038   4.230  10.662  0.5683 -0.6469  1.9324
  102OSM      P10291   1.806   4.368  10.732  0.2524  0.2242  0.1677
  102OSM    O1310292   1.664   4.394  10.711 -0.2032 -0.4563 -0.4755
  102OSM    O1410293   1.866   4.421  10.856  0.2234  0.8391 -0.4577
  102OSM    O1110294   1.874   4.431  10.607  0.0762  0.5795  0.4048
  102OSM    O1210295   1.828   4.214  10.711  0.2635 -0.7142 -0.6805
  102OSM    C1S10296   1.853   4.373  10.479  0.5060  0.4360 -0.1745
  102OSM    H1S10297   1.770   4.300  10.470  1.8857 -1.1419 -0.5919
  102OSM    H1T10298   1.944   4.310  10.467  0.1080  0.1701 -2.2712
  102OSM     NF10299   1.824   4.421  10.231 -0.0069  0.4395  0.3077
  102OSM    HNF10300   1.897   4.420  10.163  0.3637  1.9362  0.6541
  102OSM    C2S10301   1.848   4.479  10.359  0.3177  0.2114 -0.6965
  102OSM    H2S10302   1.755   4.538  10.377 -1.0260 -1.8164 -0.6596
  102OSM    C3S10303   1.966   4.578  10.359  0.2871 -0.1419  0.6794
  102OSM    H3S10304   2.055   4.527  10.316 -0.8613 -0.0887 -1.9263
  102OSM     O310305   1.998   4.629  10.487  0.2422 -0.1573 -0.1338
  102OSM    HO310306   1.954   4.568  10.547  0.8657 -2.4615 -1.8612
  102OSM    C4S10307   1.934   4.702  10.279  0.6398 -0.0927  0.1526
  102OSM    H4S10308   1.853   4.761  10.322 -2.5291 -3.0082 -1.3414
  102OSM    C5S10309   1.996   4.728  10.159  0.4297 -0.2932 -0.4087
  102OSM    H5S10310   2.073   4.662  10.116  0.1417 -1.0721  0.2400
  102OSM    C6S10311   1.954   4.852  10.083  0.0380 -0.0296  0.5391
  102OSM    H6S10312   1.930   4.832   9.976 -0.1179  0.1070  0.5468
  102OSM    H6T10313   2.032   4.931  10.078 -0.1041  0.0564 -0.6081
  102OSM    C7S10314   1.826   4.922  10.119 -0.1036 -0.9961  0.5980
  102OSM    H7S10315   1.837   4.964  10.221 -0.8135 -2.7835  1.4599
  102OSM    H7T10316   1.744   4.848  10.135 -0.3766 -0.8743 -0.1699
  102OSM    C8S10317   1.783   5.037  10.019  0.0058 -0.0574 -0.0477
  102OSM    H8S10318   1.684   5.074  10.051 -0.6378 -1.2502 -0.5918
  102OSM    H8T10319   1.774   4.987   9.920 -2.3762  1.5142 -0.6941
  102OSM    C9S10320   1.873   5.157  10.000  0.2226  0.1752  0.0250
  102OSM    H9S10321   1.975   5.120   9.979  0.2848  0.4538 -0.1741
  102OSM    H9T10322   1.863   5.215  10.094  1.4514  0.2064  0.1515
  102OSM   C10S10323   1.819   5.248   9.894  0.0085  0.7267  0.6250
  102OSM   H10S10324   1.862   5.349   9.907 -0.9404  1.0806  1.1238
  102OSM   H10T10325   1.708   5.248   9.902 -0.1255 -0.0204 -0.8942
  102OSM   C11S10326   1.856   5.189   9.752  0.4098 -0.8436 -0.2847
  102OSM   H11S10327   1.811   5.087   9.747 -2.3304  0.3188 -1.3568
  102OSM   H11T10328   1.965   5.184   9.735  0.3836 -0.5225 -0.5453
  102OSM   C12S10329   1.795   5.286   9.638 -0.5960  0.1701 -0.7459
  102OSM   H12S10330   1.822   5.393   9.654 -2.3320  0.6237 -0.7113
  102OSM   H12T10331   1.686   5.276   9.657 -0.7441 -0.6556 -1.9548
  102OSM   C13S10332   1.845   5.246   9.498 -0.2907 -0.3352 -0.1812
  102OSM   H13S10333   1.824   5.137   9.488  0.0959 -0.3778 -0.5990
  102OSM   H13T10334   1.955   5.254   9.506 -0.3059 -0.9986  0.8567
  102OSM   C14S10335   1.788   5.328   9.381  0.0114  0.5062  0.7503
  102OSM   H14S10336   1.827   5.432   9.376  1.3898 -0.0544 -1.9338
  102OSM   H14T10337   1.679   5.321   9.401  0.0107 -1.4870  0.2094
  102OSM   C15S10338   1.822   5.264   9.248 -0.1223 -1.0234  0.6058
  102OSM   H15S10339   1.801   5.156   9.254 -0.3346 -0.9725  0.7860
  102OSM   H15T10340   1.928   5.286   9.224 -0.8718  2.5921 -0.0793
  102OSM   C16S10341   1.729   5.330   9.146 -0.9642 -0.4700 -0.4869
  102OSM   H16S10342   1.736   5.440   9.159 -1.7717 -0.2436 -1.7350
  102OSM   H16T10343   1.622   5.311   9.172 -0.9574  0.5637  0.3591
  102OSM   C17S10344   1.753   5.287   9.002 -0.0335 -0.0379 -0.5669
  102OSM   H17S10345   1.683   5.202   8.990  0.3711 -0.8864  2.2296
  102OSM   H17T10346   1.854   5.248   8.977 -0.5618 -2.0708  0.2635
  102OSM   C18S10347   1.719   5.401   8.905  1.3414 -0.1373 -0.5261
  102OSM   H18S10348   1.790   5.485   8.919  0.1440  0.5457  2.2776
  102OSM   H18T10349   1.624   5.451   8.936  1.7012  1.1506 -1.4276
  102OSM   H18U10350   1.711   5.368   8.799 -0.4804 -0.3979 -0.3458
  102OSM    C1F10351   1.712   4.356  10.196  0.1655 -0.2835 -0.4325
  102OSM     OF10352   1.619   4.353  10.278 -0.2535  0.2430  0.4974
  102OSM    C2F10353   1.726   4.275  10.070  0.7727 -0.6795 -0.1448
  102OSM    H2F10354   1.787   4.186  10.096  1.3834 -0.8254 -1.9392
  102OSM    H2G10355   1.778   4.333   9.991  3.3771 -3.1087 -0.3781
  102OSM    C3F10356   1.585   4.218  10.025  0.0800  0.6134 -0.0907
  102OSM    H3F10357   1.526   4.309  10.001 -0.0036  0.2167 -1.4939
  102OSM    H3G10358   1.545   4.169  10.117 -2.5132  0.0398 -1.4270
  102OSM    C4F10359   1.592   4.123   9.903  0.0514  0.3513  0.3600
  102OSM    H4F10360   1.496   4.128   9.848  1.2397  1.9724 -1.7219
  102OSM    H4G10361   1.600   4.020   9.942 -0.0851  1.0228  2.2592
  102OSM    C5F10362   1.709   4.141   9.800  0.0136  0.4691  0.6759
  102OSM    H5F10363   1.813   4.139   9.837  0.7065 -0.9819 -1.1846
  102OSM    H5G10364   1.697   4.243   9.757 -1.7293  0.4605  1.0556
  102OSM    C6F10365   1.695   4.046   9.676  0.5133 -0.0961 -1.0146
  102OSM    H6F10366   1.589   4.034   9.645  0.1854 -0.6884  0.2822
  102OSM    H6G10367   1.726   3.948   9.719  1.6413  1.2230  1.4338
  102OSM    C7F10368   1.785   4.096   9.564 -0.7012  0.4579 -0.5576
  102OSM    H7F10369   1.888   4.103   9.605 -0.2845 -3.0327 -0.7060
  102OSM    H7G10370   1.747   4.190   9.519  0.0888  0.6917 -0.7559
  102OSM    C8F10371   1.800   3.992   9.452  0.0224 -0.2372  0.1177
  102OSM    H8F10372   1.702   3.969   9.405 -0.9066 -0.3850  2.0504
  102OSM    H8G10373   1.829   3.896   9.500 -1.3345 -0.8047 -0.1656
  102OSM    C9F10374   1.904   4.040   9.349  0.2724  0.0117 -0.0572
  102OSM    H9F10375   2.006   4.002   9.367  1.1004  0.5215 -3.1046
  102OSM   C10F10376   1.877   4.107   9.236  0.0958  0.0108 -0.0662
  102OSM   H10F10377   1.961   4.136   9.171  0.8149  1.3881  1.4025
  102OSM   C11F10378   1.743   4.164   9.196  0.5173 -0.2459 -0.1749
  102OSM   H11F10379   1.670   4.145   9.277  0.7562  0.6910  0.2740
  102OSM   H11G10380   1.718   4.105   9.105  0.3930 -1.3960  0.5935
  102OSM   C12F10381   1.731   4.312   9.159  0.1332 -1.0481  0.1145
  102OSM   H12F10382   1.730   4.380   9.246  1.3041 -0.6474 -0.1616
  102OSM   H12G10383   1.637   4.331   9.103 -0.4578 -0.1997  1.3412
  102OSM   C13F10384   1.850   4.363   9.072  0.0302  0.2870 -0.0734
  102OSM   H13F10385   1.942   4.365   9.134  0.7972  0.5991 -1.2034
  102OSM   H13G10386   1.824   4.470   9.062  1.1494  0.4409 -1.5688
  102OSM   C14F10387   1.858   4.298   8.935 -0.2853 -0.5286 -0.3306
  102OSM   H14F10388   1.760   4.266   8.894 -0.8139  0.3479  0.2170
  102OSM   H14G10389   1.920   4.206   8.937 -2.0304 -1.7331  0.8008
  102OSM   C15F10390   1.913   4.391   8.828  0.4556 -0.4191  1.1137
  102OSM   H15F10391   1.996   4.450   8.872  2.0403 -1.8777  0.2433
  102OSM   H15G10392   1.833   4.462   8.800  0.9829 -0.8890 -1.9370
  102OSM   C16F10393   1.964   4.309   8.708 -0.7173  0.1137  0.2470
  102OSM   H16F10394   1.893   4.227   8.688  0.2190 -0.2994 -1.5792
  102OSM   H16G10395   2.049   4.246   8.740 -0.0527  0.2338 -1.2329
  102OSM   C17F10396   1.997   4.378   8.577  0.5063  0.4439 -0.3465
  102OSM   H17F10397   2.043   4.478   8.595  2.0437 -0.0482 -1.2947
  102OSM   H17G10398   1.903   4.403   8.523  0.2837 -0.9071 -0.6197
  102OSM   C18F10399   2.095   4.297   8.489 -1.1210 -0.6142 -0.6530
  102OSM   H18F10400   2.165   4.353   8.423  0.6682  0.2694  1.8449
  102OSM   H18G10401   2.034   4.223   8.434 -1.4127 -0.0106 -1.1583
  102OSM   H18H10402   2.165   4.244   8.556 -0.7045 -1.7274 -1.9076
  103OSM      N10403   2.004   0.447  10.926 -0.1763 -0.1497 -0.1769
  103OSM    C1510404   1.893   0.383  11.005 -0.0510  0.2693  0.2202
  103OSM   H15A10405   1.853   0.294  10.959  0.3689  0.7277 -1.0664
  103OSM   H15B10406   1.818   0.455  11.034 -0.7370 -0.9604  1.7048
  103OSM   H15C10407   1.939   0.348  11.097  3.5831  2.6827 -0.4943
  103OSM    C1410408   1.942   0.544  10.830 -0.1502 -0.3213 -0.1245
  103OSM   H14A10409   1.871   0.495  10.765  0.7034 -1.9288  0.1043
  103OSM   H14B10410   2.021   0.591  10.773  0.0382  0.1314  0.4987
  103OSM   H14C10411   1.890   0.623  10.882  0.8793 -0.0411  0.5043
  103OSM    C1310412   2.105   0.519  11.020 -0.2932  0.4925  0.1961
  103OSM   H13A10413   2.061   0.593  11.085  0.1235 -0.9461  2.2065
  103OSM   H13B10414   2.187   0.564  10.967  1.1456 -2.1556 -0.0159
  103OSM   H13C10415   2.148   0.448  11.089  0.2119 -0.3517 -0.9556
  103OSM    C1210416   2.077   0.331  10.857 -0.1044  0.6360  0.0018
  103OSM   H12A10417   2.016   0.261  10.802 -0.5073  2.4341 -1.9461
  103OSM   H12B10418   2.126   0.266  10.929 -2.2461 -1.1967 -0.0554
  103OSM    C1110419   2.184   0.365  10.750 -0.2601 -0.1010  0.2056
  103OSM   H11A10420   2.121   0.409  10.669  1.3396 -1.8056 -2.0780
  103OSM   H11B10421   2.227   0.276  10.700 -1.5559 -0.5924 -0.0695
  103OSM      P10422   2.407   0.387  10.865 -0.1032 -0.4312  0.3054
  103OSM    O1310423   2.485   0.472  10.959  0.0279  0.6501  0.0007
  103OSM    O1410424   2.354   0.264  10.922  0.5308 -0.1958 -0.3850
  103OSM    O1110425   2.495   0.359  10.742 -0.8957 -0.3380 -0.8175
  103OSM    O1210426   2.286   0.459  10.794 -0.3089 -0.0285  0.2077
  103OSM    C1S10427   2.491   0.413  10.613 -0.6657 -0.3982  0.4191
  103OSM    H1S10428   2.427   0.504  10.612 -0.0832  0.0846 -2.6372
  103OSM    H1T10429   2.433   0.351  10.542 -1.6671  0.5932  0.3355
  103OSM     NF10430   2.610   0.517  10.420 -0.1740  0.5518  0.2074
  103OSM    HNF10431   2.643   0.461  10.344  3.1651  1.4144  0.8843
  103OSM    C2S10432   2.631   0.460  10.560 -0.4050  0.0445  0.2484
  103OSM    H2S10433   2.660   0.533  10.639  1.3523 -0.9243  0.5486
  103OSM    C3S10434   2.743   0.355  10.571  0.3227 -1.1651  0.2587
  103OSM    H3S10435   2.714   0.271  10.504  0.8013  0.0309 -1.5375
  103OSM     O310436   2.753   0.296  10.704 -0.1037 -0.3611  0.6834
  103OSM    HO310437   2.665   0.309  10.740 -0.1969  0.2321  0.2513
  103OSM    C4S10438   2.877   0.417  10.529 -0.0590  0.0240  0.4718
  103OSM    H4S10439   2.888   0.412  10.420 -1.3950  0.5561  0.2970
  103OSM    C5S10440   2.979   0.469  10.608  0.3027 -0.2204 -0.0166
  103OSM    H5S10441   2.959   0.466  10.716  1.6968 -1.4587  0.2434
  103OSM    C6S10442   3.115   0.509  10.560 -0.2020 -0.0745  0.7375
  103OSM    H6S10443   3.182   0.456  10.631 -1.3178 -2.2489  0.2584
  103OSM    H6T10444   3.136   0.615  10.584  1.5293 -0.8474  2.9284
  103OSM    C7S10445   3.166   0.484  10.416  0.9477  0.6525 -0.1207
  103OSM    H7S10446   3.097   0.543  10.353 -0.6650 -0.8472  0.1453
  103OSM    H7T10447   3.159   0.378  10.381  0.4761  0.1456  1.4056
  103OSM    C8S10448   3.310   0.524  10.403 -0.0033 -0.2701  1.0233
  103OSM    H8S10449   3.352   0.442  10.466  2.3875 -0.9425 -1.2488
  103OSM    H8T10450   3.337   0.621  10.450  3.2739 -0.7959  0.5217
  103OSM    C9S10451   3.372   0.518  10.266  0.2112 -0.3922  0.6229
  103OSM    H9S10452   3.321   0.455  10.190  2.1584  1.4952 -2.4486
  103OSM    H9T10453   3.479   0.487  10.274  0.4728  0.0031 -1.0467
  103OSM   C10S10454   3.367   0.657  10.199  0.6158 -0.1235  0.3585
  103OSM   H10S10455   3.411   0.713  10.285 -1.7559 -0.8737  2.1554
  103OSM   H10T10456   3.262   0.690  10.187  0.3714 -0.7692  0.7190
  103OSM   C11S10457   3.457   0.653  10.074  0.0209  0.2923 -0.0734
  103OSM   H11S10458   3.549   0.596  10.097  1.8144  3.2142  0.5771
  103OSM   H11T10459   3.487   0.757  10.050  0.8342  0.6748  2.3016
  103OSM   C12S10460   3.379   0.598   9.953 -0.7933 -0.7668  0.5338
  103OSM   H12S10461   3.300   0.524   9.977 -1.5346 -0.8306 -1.8298
  103OSM   H12T10462   3.447   0.542   9.884 -0.4357 -1.9688  1.8063
  103OSM   C13S10463   3.313   0.705   9.860 -0.7352  0.2687 -0.8101
  103OSM   H13S10464   3.385   0.781   9.823  0.7173 -0.2207  0.8747
  103OSM   H13T10465   3.226   0.750   9.912  0.4762  1.6621  0.0712
  103OSM   C14S10466   3.259   0.632   9.736  0.4045 -0.7895 -0.4453
  103OSM   H14S10467   3.178   0.561   9.762  0.3819  0.0335  1.9039
  103OSM   H14T10468   3.344   0.576   9.690  0.4936 -0.1495 -1.0994
  103OSM   C15S10469   3.215   0.736   9.634  0.3956 -0.5631  0.2173
  103OSM   H15S10470   3.301   0.803   9.611  0.5286 -0.6054  0.5842
  103OSM   H15T10471   3.136   0.803   9.674  0.6407  0.3017 -0.7017
  103OSM   C16S10472   3.175   0.680   9.492  0.1136  0.3434 -0.7866
  103OSM   H16S10473   3.076   0.630   9.489  0.3076 -0.1571  0.3588
  103OSM   H16T10474   3.248   0.597   9.479 -0.8618 -0.4267 -1.4380
  103OSM   C17S10475   3.162   0.782   9.380 -0.4321 -0.0185 -0.1369
  103OSM   H17S10476   3.267   0.786   9.343 -0.1553 -1.3020  0.4585
  103OSM   H17T10477   3.125   0.877   9.425  0.1727 -0.4774  1.3677
  103OSM   C18S10478   3.066   0.727   9.272 -0.0229 -0.3174  0.0766
  103OSM   H18S10479   2.960   0.710   9.303 -0.8275  1.3273 -1.5150
  103OSM   H18T10480   3.103   0.629   9.235  1.8034  0.6202 -0.7144
  103OSM   H18U10481   3.057   0.792   9.182 -1.8949  3.3952  2.6577
  103OSM    C1F10482   2.523   0.615  10.398 -0.2747 -0.6062  0.2697
  103OSM     OF10483   2.491   0.691  10.484 -0.0632 -0.6828 -0.4727
  103OSM    C2F10484   2.486   0.623  10.259  0.2622  0.0423 -0.7023
  103OSM    H2F10485   2.490   0.522  10.212 -2.1751  0.0436 -1.0463
  103OSM    H2G10486   2.561   0.677  10.197 -1.1003  0.6426 -1.8863
  103OSM    C3F10487   2.338   0.675  10.234 -0.6388 -0.2739 -0.2488
  103OSM    H3F10488   2.326   0.769  10.291  1.5633 -1.1420  1.8166
  103OSM    H3G10489   2.265   0.605  10.280 -0.1847  0.4138  1.6132
  103OSM    C4F10490   2.307   0.711  10.089  0.1946 -1.2735  0.0175
  103OSM    H4F10491   2.384   0.788  10.065 -0.9147 -0.6194 -1.6225
  103OSM    H4G10492   2.212   0.768  10.094 -0.5955 -2.3832 -1.5413
  103OSM    C5F10493   2.293   0.598   9.994 -0.0659 -0.4680  0.0916
  103OSM    H5F10494   2.206   0.546  10.040 -1.2476  0.9563 -0.4611
  103OSM    H5G10495   2.384   0.535   9.982  0.5705  0.4208  0.1647
  103OSM    C6F10496   2.258   0.658   9.853  0.4393 -0.0516 -0.8373
  103OSM    H6F10497   2.346   0.713   9.813  1.1386  0.3461  1.1641
  103OSM    H6G10498   2.175   0.731   9.854 -1.1495 -1.7771 -1.1802
  103OSM    C7F10499   2.215   0.545   9.761  0.0971 -0.0603  0.5292
  103OSM    H7F10500   2.107   0.526   9.777 -0.1189  1.0072  0.4243
  103OSM    H7G10501   2.270   0.450   9.777  2.1290  0.8071 -0.7920
  103OSM    C8F10502   2.243   0.576   9.611 -0.5280 -0.0959 -0.2377
  103OSM    H8F10503   2.246   0.482   9.551 -1.1738 -0.1714 -0.1565
  103OSM    H8G10504   2.349   0.607   9.605 -0.3820 -0.5656 -0.1103
  103OSM    C9F10505   2.159   0.677   9.557  0.4616 -0.1269 -0.1151
  103OSM    H9F10506   2.071   0.702   9.619  1.5333  1.6760  0.7833
  103OSM   C10F10507   2.183   0.758   9.452 -0.1190 -0.1952  0.0093
  103OSM   H10F10508   2.111   0.833   9.416  0.8148  1.3371  1.2108
  103OSM   C11F10509   2.310   0.755   9.364  0.8128 -0.5632 -0.6264
  103OSM   H11F10510   2.390   0.703   9.421  1.7531 -0.2410 -1.6202
  103OSM   H11G10511   2.341   0.858   9.337 -1.2132  0.4118  0.5445
  103OSM   C12F10512   2.302   0.666   9.233  0.2929 -0.2426 -0.3969
  103OSM   H12F10513   2.397   0.679   9.176  0.0538 -0.4422 -0.8436
  103OSM   H12G10514   2.216   0.699   9.171  0.4992  1.8269  0.3329
  103OSM   C13F10515   2.284   0.515   9.267 -0.7054  0.2969 -0.4341
  103OSM   H13F10516   2.363   0.483   9.338 -0.1203 -1.4949 -1.8209
  103OSM   H13G10517   2.191   0.513   9.328  0.0058  0.3396  0.6794
  103OSM   C14F10518   2.293   0.434   9.132  0.7698 -0.6621 -0.0414
  103OSM   H14F10519   2.286   0.325   9.151 -1.6888 -0.5811 -0.1706
  103OSM   H14G10520   2.393   0.454   9.087  1.2968 -2.4774  0.2782
  103OSM   C15F10521   2.177   0.469   9.030 -0.3113  0.3710  0.3380
  103OSM   H15F10522   2.201   0.560   8.972 -0.4746  0.1206 -0.1247
  103OSM   H15G10523   2.083   0.491   9.086 -0.9483 -0.8766 -0.1998
  103OSM   C16F10524   2.154   0.361   8.922  0.5546 -0.3210 -0.1263
  103OSM   H16F10525   2.137   0.265   8.975  1.2938  0.3855  1.4445
  103OSM   H16G10526   2.249   0.342   8.867 -0.7456  0.3640 -2.7967
  103OSM   C17F10527   2.035   0.379   8.830  0.2611  0.6144  0.6651
  103OSM   H17F10528   1.944   0.371   8.894  0.3828  0.2209  0.7983
  103OSM   H17G10529   2.021   0.291   8.763  1.5748  0.8170  0.1060
  103OSM   C18F10530   2.031   0.511   8.755 -0.5098  0.2209  0.3359
  103OSM   H18F10531   1.960   0.508   8.669  0.7145 -3.3893 -0.7351
  103OSM   H18G10532   2.131   0.530   8.709 -0.0638 -2.0262  0.2346
  103OSM   H18H10533   2.014   0.598   8.822  1.6608  0.8704  0.1328
  104OSM      N10534   6.783   6.459  10.897 -0.6916 -0.5113 -0.9522
  104OSM    C1510535   6.899   6.514  10.975  0.6609  0.1622  0.6643
  104OSM   H15A10536   6.972   6.443  11.009 -0.0571 -0.1346  1.6384
  104OSM   H15B10537   6.871   6.555  11.071  1.1761  0.6240  0.6235
  104OSM   H15C10538   6.962   6.584  10.922  2.9489 -1.0362  1.6635
  104OSM    C1410539   6.717   6.362  10.987 -0.2629 -0.6977 -0.0306
  104OSM   H14A10540   6.653   6.289  10.939  2.2351 -3.4067  0.4409
  104OSM   H14B10541   6.668   6.401  11.075 -1.0808 -1.9501  0.0987
  104OSM   H14C10542   6.799   6.301  11.023  0.4324  0.9205  1.2653
  104OSM    C1310543   6.684   6.570  10.866  0.1500  1.0409  0.4506
  104OSM   H13A10544   6.589   6.522  10.853  0.7560 -1.0988  3.1130
  104OSM   H13B10545   6.709   6.630  10.779 -0.3021 -0.3758 -0.6918
  104OSM   H13C10546   6.676   6.638  10.950 -0.2911 -2.0272  3.0864
  104OSM    C1210547   6.826   6.382  10.775  0.0469  0.6397  0.7941
  104OSM   H12A10548   6.734   6.341  10.735 -1.0615  2.3674  1.4529
  104OSM   H12B10549   6.876   6.290  10.800 -1.0008  0.2529  1.5672
  104OSM    C1110550   6.895   6.454  10.662 -0.2219  0.2821  0.2363
  104OSM   H11A10551   6.834   6.540  10.626  1.2029  1.7454  1.1979
  104OSM   H11B10552   6.894   6.382  10.577 -1.1352 -0.4047  0.8068
  104OSM      P10553   7.135   6.365  10.688  0.3967 -0.2087  0.3636
  104OSM    O1310554   7.273   6.407  10.731  0.5024  0.0959  0.9901
  104OSM    O1410555   7.079   6.253  10.763  0.3121  0.0608 -0.2645
  104OSM    O1110556   7.134   6.337  10.531 -0.2636 -0.0972  0.4068
  104OSM    O1210557   7.032   6.490  10.701  0.2128  0.4662 -0.0924
  104OSM    C1S10558   7.130   6.449  10.445 -0.2090 -0.3332 -0.0152
  104OSM    H1S10559   7.210   6.522  10.472  1.1408 -0.5336 -3.0438
  104OSM    H1T10560   7.032   6.501  10.432  0.4222  0.9165  0.0532
  104OSM     NF10561   7.204   6.533  10.220 -0.1066  0.1976 -0.0224
  104OSM    HNF10562   7.122   6.561  10.170 -0.3575  1.0694  0.8382
  104OSM    C2S10563   7.171   6.411  10.303 -0.3573 -0.3153  0.2261
  104OSM    H2S10564   7.267   6.357  10.311 -0.1175  0.2448  1.2722
  104OSM    C3S10565   7.064   6.316  10.244 -0.6495 -0.5509 -0.1054
  104OSM    H3S10566   6.967   6.370  10.249 -2.3132 -3.3939  1.2165
  104OSM     O310567   7.045   6.196  10.326  0.1370  0.3644  0.2176
  104OSM    HO310568   7.079   6.219  10.413  2.3938  0.2888 -0.5823
  104OSM    C4S10569   7.092   6.281  10.096 -0.5502  0.0833  0.3570
  104OSM    H4S10570   7.045   6.353  10.028 -0.5264  2.3960  2.6345
  104OSM    C5S10571   7.153   6.173  10.043 -0.9678 -0.2505 -0.1074
  104OSM    H5S10572   7.193   6.096  10.111  1.6198  0.0444 -1.2023
  104OSM    C6S10573   7.165   6.144   9.896  0.3549 -0.4166  0.9717
  104OSM    H6S10574   7.137   6.037   9.883  0.0893 -0.2204 -0.2448
  104OSM    H6T10575   7.271   6.151   9.864  0.5610  0.0509  1.7410
  104OSM    C7S10576   7.065   6.213   9.801 -0.9440  0.1789  0.4543
  104OSM    H7S10577   7.079   6.322   9.786  0.3333  0.2656  1.9819
  104OSM    H7T10578   6.959   6.187   9.820 -0.3547 -1.3921  1.7893
  104OSM    C8S10579   7.104   6.175   9.652 -0.1034 -0.3568 -0.2446
  104OSM    H8S10580   7.098   6.065   9.634 -0.6364 -0.4987  0.6885
  104OSM    H8T10581   7.210   6.202   9.634  0.4277 -0.5571  2.2393
  104OSM    C9S10582   7.012   6.241   9.542 -0.4171 -0.1246 -0.5976
  104OSM    H9S10583   7.017   6.350   9.566 -0.1722 -0.5829  1.7116
  104OSM    H9T10584   6.906   6.211   9.556 -0.2151 -0.3663  0.4969
  104OSM   C10S10585   7.066   6.219   9.402  1.2388  0.3081  0.2862
  104OSM   H10S10586   7.125   6.125   9.394 -0.8087 -0.9775 -0.8746
  104OSM   H10T10587   7.132   6.302   9.371  1.7530 -0.3548 -0.4267
  104OSM   C11S10588   6.958   6.202   9.290 -0.3825  0.0281  0.0409
  104OSM   H11S10589   6.902   6.295   9.266  3.5297  3.0523  1.3554
  104OSM   H11T10590   6.894   6.117   9.322 -1.1631 -0.7826 -3.2876
  104OSM   C12S10591   7.018   6.151   9.156 -0.8322 -0.2250 -0.3768
  104OSM   H12S10592   7.066   6.051   9.165 -0.7064 -0.1733 -0.4581
  104OSM   H12T10593   7.102   6.212   9.117  0.2337 -0.6192  1.1959
  104OSM   C13S10594   6.915   6.155   9.048  0.8811  0.7064 -0.0694
  104OSM   H13S10595   6.869   6.257   9.045  1.2143  0.8517 -2.4101
  104OSM   H13T10596   6.832   6.081   9.052  1.0993  0.4426 -0.3645
  104OSM   C14S10597   6.982   6.151   8.909  0.2647  0.1512  0.2869
  104OSM   H14S10598   6.999   6.046   8.876 -0.1721  0.3433 -0.5530
  104OSM   H14T10599   7.071   6.216   8.900  0.3632 -0.0987 -0.6500
  104OSM   C15S10600   6.910   6.219   8.783  0.2758 -0.1239 -0.4433
  104OSM   H15S10601   6.899   6.328   8.803  0.2903 -0.6283  2.8362
  104OSM   H15T10602   6.812   6.170   8.801 -1.3444  3.4927  1.7684
  104OSM   C16S10603   6.958   6.174   8.648  0.0148 -0.0946 -0.0474
  104OSM   H16S10604   6.999   6.071   8.639  1.2451  0.4727 -1.1633
  104OSM   H16T10605   7.051   6.231   8.630 -1.2190  2.2364  0.5433
  104OSM   C17S10606   6.859   6.189   8.534 -0.6805  0.1886  0.1571
  104OSM   H17S10607   6.834   6.297   8.539  2.1836  0.9205  0.3429
  104OSM   H17T10608   6.771   6.121   8.538  0.9045 -1.8926  2.1034
  104OSM   C18S10609   6.941   6.150   8.407  0.8170  0.6702 -0.1159
  104OSM   H18S10610   7.032   6.214   8.402 -0.1388  2.1112  0.2314
  104OSM   H18T10611   6.870   6.154   8.321 -0.4065 -0.3794  0.8063
  104OSM   H18U10612   6.969   6.043   8.403  0.6818  0.5316  1.7079
  104OSM    C1F10613   7.321   6.599  10.216  0.0512  0.0393  0.3123
  104OSM     OF10614   7.416   6.569  10.284 -0.2895 -0.4413 -0.1821
  104OSM    C2F10615   7.330   6.695  10.107  0.5437 -0.2619  0.2844
  104OSM    H2F10616   7.247   6.769  10.113  2.3921  1.8429  1.9002
  104OSM    H2G10617   7.313   6.655  10.005 -1.6597 -0.3277  0.6360
  104OSM    C3F10618   7.464   6.775  10.108  0.0536 -0.2920 -0.8046
  104OSM    H3F10619   7.542   6.696  10.104 -1.6652 -2.1544  0.3165
  104OSM    H3G10620   7.483   6.836  10.198  0.2406  0.6696 -1.4746
  104OSM    C4F10621   7.462   6.880   9.990 -0.1157  0.2545 -0.4379
  104OSM    H4F10622   7.552   6.945   9.999 -0.5025  0.8863 -1.0413
  104OSM    H4G10623   7.369   6.938  10.005  0.3741  0.1599  4.3059
  104OSM    C5F10624   7.463   6.819   9.847 -0.5886 -1.0139  0.4671
  104OSM    H5F10625   7.368   6.769   9.818 -0.4040 -0.7848 -0.5809
  104OSM    H5G10626   7.544   6.745   9.869 -1.5491 -1.6908  1.8610
  104OSM    C6F10627   7.506   6.923   9.739 -0.2482 -0.3635  0.3252
  104OSM    H6F10628   7.602   6.971   9.769 -0.0784 -0.0018 -0.7531
  104OSM    H6G10629   7.444   7.007   9.704  1.1653  0.9108  0.7764
  104OSM    C7F10630   7.535   6.847   9.605 -0.6133  0.1143 -0.1329
  104OSM    H7F10631   7.446   6.799   9.558 -1.7814 -0.4974  2.5143
  104OSM    H7G10632   7.602   6.769   9.646 -1.7353 -1.0592 -0.4409
  104OSM    C8F10633   7.620   6.932   9.508 -0.6927 -0.5930  0.3850
  104OSM    H8F10634   7.685   6.869   9.444  1.5093  2.4604 -0.6103
  104OSM    H8G10635   7.689   7.000   9.563 -0.0495  0.7101 -1.8999
  104OSM    C9F10636   7.539   7.024   9.427  0.0428 -0.3435 -0.6584
  104OSM    H9F10637   7.542   7.132   9.447 -1.1140 -0.4876  0.4975
  104OSM   C10F10638   7.465   6.986   9.324 -0.3642  0.8473  0.9530
  104OSM   H10F10639   7.404   7.061   9.270 -3.1821 -1.2721  0.9755
  104OSM   C11F10640   7.452   6.843   9.266  0.0139 -0.4045  0.1691
  104OSM   H11F10641   7.348   6.804   9.270 -0.4180  0.3278 -2.2611
  104OSM   H11G10642   7.506   6.776   9.335 -2.2945 -3.9526 -1.1869
  104OSM   C12F10643   7.519   6.831   9.130 -0.1715  0.3850 -0.1713
  104OSM   H12F10644   7.530   6.723   9.107  0.0849  0.3847 -0.0482
  104OSM   H12G10645   7.622   6.873   9.129  0.0027 -0.0118  0.4293
  104OSM   C13F10646   7.455   6.910   9.020 -0.4722  0.0885  0.3128
  104OSM   H13F10647   7.454   7.017   9.051  0.9289 -0.5808  2.9880
  104OSM   H13G10648   7.351   6.876   8.999  0.1335 -0.7250 -1.5294
  104OSM   C14F10649   7.538   6.901   8.888 -0.3540  0.3064 -0.3264
  104OSM   H14F10650   7.513   6.801   8.847  2.3487 -0.5141 -0.1413
  104OSM   H14G10651   7.648   6.895   8.903 -0.4494  0.5465  0.5057
  104OSM   C15F10652   7.494   7.010   8.789 -0.2337  0.2329 -0.0399
  104OSM   H15F10653   7.501   7.113   8.829 -1.1747  0.9506 -1.5818
  104OSM   H15G10654   7.384   7.001   8.772 -0.4855  1.2128  1.0061
  104OSM   C16F10655   7.576   7.012   8.658 -0.3497  0.0258 -0.1141
  104OSM   H16F10656   7.593   6.903   8.646 -0.5208  0.0758 -0.8819
  104OSM   H16G10657   7.679   7.047   8.677  0.9887 -2.6915 -1.7008
  104OSM   C17F10658   7.506   7.071   8.538  0.4191  0.0498 -0.4529
  104OSM   H17F10659   7.562   7.038   8.448  0.0232 -1.9441 -0.0179
  104OSM   H17G10660   7.505   7.181   8.552  0.0464  0.0895 -0.7853
  104OSM   C18F10661   7.359   7.029   8.511 -0.3098 -0.2255 -0.4746
  104OSM   H18F10662   7.297   7.081   8.586  0.3271 -0.6902  0.4009
  104OSM   H18G10663   7.347   6.918   8.514 -0.0117 -0.2658 -0.7294
  104OSM   H18H10664   7.330   7.057   8.408  2.1282 -1.3985 -1.5718
  105OSM      N10665   1.099   0.035  10.958 -0.2096 -0.4273 -0.2361
  105OSM    C1510666   1.064   0.166  11.026 -0.1868 -0.4555  0.1046
  105OSM   H15A10667   1.046   0.238  10.948 -2.7391  0.9290  1.8104
  105OSM   H15B10668   1.148   0.210  11.076 -0.6714  4.0276 -2.5250
  105OSM   H15C10669   0.982   0.160  11.096  0.3808  1.4233  0.9925
  105OSM    C1410670   1.223   0.069  10.884  0.4968  0.4386  0.4199
  105OSM   H14A10671   1.243  -0.012  10.815  1.4149  1.2838 -0.3283
  105OSM   H14B10672   1.307   0.086  10.949 -0.7376  0.9150  1.9594
  105OSM   H14C10673   1.212   0.162  10.831 -2.0962 -0.3702 -0.6482
  105OSM    C1310674   1.138  -0.065  11.067  0.6091 -0.0631 -0.3264
  105OSM   H13A10675   1.061  -0.069  11.143 -0.6926  4.2537 -1.1528
  105OSM   H13B10676   1.228  -0.050  11.124 -1.0725  1.5529  2.0588
  105OSM   H13C10677   1.146  -0.156  11.009  0.4798 -0.0955 -0.2930
  105OSM    C1210678   0.996  -0.031  10.878  0.3834  0.2987 -0.6318
  105OSM   H12A10679   0.965   0.034  10.797 -1.5224  0.7167  0.3734
  105OSM   H12B10680   0.914  -0.044  10.948  0.3784  0.8747 -0.5321
  105OSM    C1110681   1.018  -0.173  10.824 -0.3976  0.5925  0.0632
  105OSM   H11A10682   0.926  -0.218  10.780 -0.6749  0.1409  1.0875
  105OSM   H11B10683   1.062  -0.236  10.905 -0.1282  2.4096  1.3835
  105OSM      P10684   1.188  -0.293  10.662  0.0225  0.0953 -0.1430
  105OSM    O1310685   1.287  -0.236  10.569 -0.3402  0.0645  0.0529
  105OSM    O1410686   1.243  -0.365  10.778 -0.0831  0.4862 -0.3137
  105OSM    O1110687   1.077  -0.380  10.596  0.5805 -0.4581  0.4037
  105OSM    O1210688   1.110  -0.165  10.712 -0.1428 -0.0006 -0.0212
  105OSM    C1S10689   1.006  -0.307  10.491 -0.1035  0.5147 -0.4263
  105OSM    H1S10690   1.076  -0.272  10.412  2.3762  0.6241  1.6909
  105OSM    H1T10691   0.935  -0.230  10.528 -0.0848  0.4190 -0.1892
  105OSM     NF10692   0.839  -0.370  10.298  0.0754  0.2340 -0.3170
  105OSM    HNF10693   0.764  -0.305  10.297  0.2495  0.4970  1.1900
  105OSM    C2S10694   0.893  -0.404  10.432  0.4136 -0.1841 -0.3955
  105OSM    H2S10695   0.938  -0.505  10.420 -0.9637 -1.7484  4.6920
  105OSM    C3S10696   0.774  -0.420  10.538  0.7643 -0.2873  0.5059
  105OSM    H3S10697   0.731  -0.317  10.547  0.8848 -0.0754 -1.0500
  105OSM     O310698   0.820  -0.447  10.667  0.0071  0.1309  0.2260
  105OSM    HO310699   0.916  -0.440  10.658  0.2725 -1.0848  1.7106
  105OSM    C4S10700   0.669  -0.519  10.502 -0.0320 -0.5516 -0.1705
  105OSM    H4S10701   0.569  -0.478  10.486  0.4786  0.8215 -0.0099
  105OSM    C5S10702   0.674  -0.651  10.509  0.1736 -0.0860 -0.3076
  105OSM    H5S10703   0.767  -0.702  10.539  0.3457  0.5650  0.2923
  105OSM    C6S10704   0.562  -0.738  10.466 -0.2186 -0.0986  0.2699
  105OSM    H6S10705   0.474  -0.690  10.515  1.3043  0.8261  2.2274
  105OSM    H6T10706   0.575  -0.832  10.524 -1.3202 -0.0986  0.5511
  105OSM    C7S10707   0.557  -0.757  10.315  0.3825 -0.4245  0.0284
  105OSM    H7S10708   0.536  -0.660  10.264  0.0369 -0.6631 -0.2914
  105OSM    H7T10709   0.460  -0.810  10.302  1.1982 -1.5691 -1.6679
  105OSM    C8S10710   0.682  -0.832  10.268 -0.3013  0.1886  0.4696
  105OSM    H8S10711   0.734  -0.887  10.349  0.8733  0.0967 -0.3212
  105OSM    H8T10712   0.751  -0.768  10.210  0.1964  2.3362  3.2362
  105OSM    C9S10713   0.649  -0.943  10.174 -0.0194  0.9355 -0.1083
  105OSM    H9S10714   0.603  -0.910  10.079 -0.1541 -2.2195 -1.2571
  105OSM    H9T10715   0.584  -1.018  10.225  1.5216  0.0720  0.6750
  105OSM   C10S10716   0.772  -1.029  10.134 -0.6261 -0.1055  0.1516
  105OSM   H10S10717   0.855  -0.967  10.094  0.5710 -1.7899 -0.0715
  105OSM   H10T10718   0.741  -1.089  10.046 -2.2816  1.5497 -0.4739
  105OSM   C11S10719   0.832  -1.125  10.237 -0.3275 -0.2616  0.1599
  105OSM   H11S10720   0.741  -1.183  10.266 -0.3568  0.6146  1.9606
  105OSM   H11T10721   0.872  -1.082  10.331  1.0120  0.3841 -0.6939
  105OSM   C12S10722   0.935  -1.220  10.168 -0.4471 -0.5381 -0.2106
  105OSM   H12S10723   0.991  -1.278  10.245  0.4180 -0.8225 -1.0276
  105OSM   H12T10724   1.012  -1.166  10.109  0.7994  1.1218  2.6872
  105OSM   C13S10725   0.875  -1.331  10.085 -0.0403 -0.3837 -0.3936
  105OSM   H13S10726   0.782  -1.303  10.031 -1.1294 -0.6546  1.2540
  105OSM   H13T10727   0.825  -1.394  10.161 -0.7950  0.4637 -0.1592
  105OSM   C14S10728   0.979  -1.411  10.011 -0.3160 -0.2545 -1.0588
  105OSM   H14S10729   0.930  -1.501   9.969 -2.2389  0.2214  0.0535
  105OSM   H14T10730   1.049  -1.451  10.088 -1.2156 -0.3895 -0.2897
  105OSM   C15S10731   1.054  -1.345   9.894 -0.0278 -0.4113 -0.3884
  105OSM   H15S10732   1.116  -1.419   9.840 -0.5814  0.0415 -1.6729
  105OSM   H15T10733   1.121  -1.268   9.939  0.6123 -1.1357 -0.0807
  105OSM   C16S10734   0.966  -1.278   9.790  0.6166 -0.3816 -0.1928
  105OSM   H16S10735   0.912  -1.188   9.828  1.6187  0.1034  0.1034
  105OSM   H16T10736   0.884  -1.350   9.769 -0.1878  0.5258 -0.2199
  105OSM   C17S10737   1.047  -1.231   9.665  0.3109  0.2422 -0.4368
  105OSM   H17S10738   1.133  -1.300   9.651  0.6625  0.4098  0.8080
  105OSM   H17T10739   1.096  -1.135   9.693 -2.0704  0.9632  1.4743
  105OSM   C18S10740   0.967  -1.217   9.533  0.1859  0.2008  0.0286
  105OSM   H18S10741   1.038  -1.167   9.463  0.5339 -0.7014 -0.2722
  105OSM   H18T10742   0.873  -1.157   9.541 -0.1195 -0.1919 -0.5040
  105OSM   H18U10743   0.934  -1.316   9.497 -1.1896  0.7986 -0.4344
  105OSM    C1F10744   0.911  -0.391  10.191 -0.6796  0.3043 -0.1298
  105OSM     OF10745   1.030  -0.425  10.197 -0.0968  0.0161  0.1219
  105OSM    C2F10746   0.849  -0.378  10.057 -0.1093  0.0370 -0.5671
  105OSM    H2F10747   0.930  -0.381   9.981  0.1807  0.5879 -0.2898
  105OSM    H2G10748   0.792  -0.283  10.042 -1.2119 -0.7393 -1.4520
  105OSM    C3F10749   0.764  -0.500  10.031  0.5697 -0.0795  0.2425
  105OSM    H3F10750   0.698  -0.525  10.117  0.0176 -0.1474 -0.1948
  105OSM    H3G10751   0.829  -0.590  10.032  1.5281  0.5950  0.8512
  105OSM    C4F10752   0.680  -0.491   9.905 -0.2567 -0.2916  0.4786
  105OSM    H4F10753   0.581  -0.453   9.939  0.2593 -0.4801  2.2888
  105OSM    H4G10754   0.661  -0.594   9.869 -2.2573 -0.4032  1.7317
  105OSM    C5F10755   0.747  -0.415   9.783  0.5180 -0.1117 -0.1100
  105OSM    H5F10756   0.839  -0.464   9.746  2.4876  1.8274  1.9240
  105OSM    H5G10757   0.766  -0.307   9.800  1.0507 -0.0527 -0.9751
  105OSM    C6F10758   0.643  -0.417   9.665 -0.4630 -1.1868  0.2289
  105OSM    H6F10759   0.541  -0.382   9.692 -0.2888 -0.8709  0.4927
  105OSM    H6G10760   0.643  -0.513   9.609 -3.0506 -0.9925 -0.2516
  105OSM    C7F10761   0.679  -0.315   9.546 -0.2111  0.0746 -0.4479
  105OSM    H7F10762   0.722  -0.222   9.588  1.9212 -0.9527 -0.1960
  105OSM    H7G10763   0.582  -0.282   9.503  0.2225 -1.9086 -3.2167
  105OSM    C8F10764   0.772  -0.362   9.432  0.5308  0.1809 -0.1825
  105OSM    H8F10765   0.867  -0.397   9.479 -1.2480 -1.2344  2.6571
  105OSM    H8G10766   0.791  -0.274   9.367 -2.7607  1.4997  0.4780
  105OSM    C9F10767   0.723  -0.475   9.343  0.1124  0.7003 -0.8121
  105OSM    H9F10768   0.772  -0.572   9.363 -0.9544  0.1763 -0.6759
  105OSM   C10F10769   0.628  -0.467   9.247  0.7369  1.1613  0.1901
  105OSM   H10F10770   0.598  -0.562   9.201 -0.5769  0.6312  2.0514
  105OSM   C11F10771   0.549  -0.346   9.206 -0.5166 -0.5193 -0.3124
  105OSM   H11F10772   0.572  -0.254   9.264  1.0250 -1.3839  0.5054
  105OSM   H11G10773   0.441  -0.365   9.220 -1.2131  3.4623  0.9309
  105OSM   C12F10774   0.562  -0.313   9.055 -0.6400 -0.1141 -0.0566
  105OSM   H12F10775   0.668  -0.296   9.030 -0.7977 -0.6514 -1.1372
  105OSM   H12G10776   0.521  -0.211   9.037  0.1729  0.0422 -1.0989
  105OSM   C13F10777   0.500  -0.417   8.954 -0.6109 -0.5552 -0.3298
  105OSM   H13F10778   0.391  -0.403   8.939 -0.7685 -3.3266 -2.7830
  105OSM   H13G10779   0.515  -0.522   8.989 -0.3978  0.4226  2.7938
  105OSM   C14F10780   0.558  -0.405   8.807 -0.2892 -0.4351 -0.1507
  105OSM   H14F10781   0.525  -0.487   8.738  0.4088 -1.1197  0.3100
  105OSM   H14G10782   0.668  -0.413   8.824 -0.3467  1.4613  1.4725
  105OSM   C15F10783   0.536  -0.264   8.745 -0.2051 -0.8700 -0.4590
  105OSM   H15F10784   0.603  -0.191   8.794 -0.5249 -0.2051 -1.0010
  105OSM   H15G10785   0.433  -0.229   8.769  0.2007  0.7513 -0.9756
  105OSM   C16F10786   0.564  -0.249   8.594 -0.4135  0.1842 -0.6859
  105OSM   H16F10787   0.671  -0.270   8.569 -0.4908  0.5919 -1.3982
  105OSM   H16G10788   0.553  -0.147   8.551  3.2800  0.8493 -0.4242
  105OSM   C17F10789   0.458  -0.333   8.507 -0.4456  0.3249 -0.2330
  105OSM   H17F10790   0.467  -0.439   8.539  2.1991  0.6130  0.1752
  105OSM   H17G10791   0.493  -0.339   8.401  3.0270 -0.8859  0.8497
  105OSM   C18F10792   0.322  -0.280   8.511 -0.1540 -0.3159  0.1758
  105OSM   H18F10793   0.279  -0.279   8.614  1.7215 -2.1564  1.0410
  105OSM   H18G10794   0.249  -0.332   8.447 -2.1883  0.6870  1.5602
  105OSM   H18H10795   0.318  -0.176   8.472  0.4720 -0.1073  0.6438
  106OSM      N10796   1.684   4.870  10.900  0.0730 -0.0106 -0.1881
  106OSM    C1510797   1.761   4.992  10.937 -0.1303  0.4501  0.0468
  106OSM   H15A10798   1.762   5.004  11.044 -1.4464  2.9991 -0.1386
  106OSM   H15B10799   1.729   5.084  10.890  0.6214  0.0280 -1.3608
  106OSM   H15C10800   1.861   4.975  10.899 -0.9890 -0.7888 -1.7962
  106OSM    C1410801   1.763   4.748  10.951 -0.0237 -0.2271  0.0052
  106OSM   H14A10802   1.870   4.751  10.932  0.1442  0.4744  0.9843
  106OSM   H14B10803   1.731   4.656  10.905 -0.1428 -0.2630  0.1581
  106OSM   H14C10804   1.746   4.736  11.057  1.1973  0.8288  0.3525
  106OSM    C1310805   1.557   4.857  10.981  0.5742  0.3799 -0.4634
  106OSM   H13A10806   1.573   4.846  11.087  1.5240 -0.1980 -0.6578
  106OSM   H13B10807   1.511   4.772  10.935 -0.4174  1.3193 -1.2538
  106OSM   H13C10808   1.501   4.949  10.973  1.4216  1.1760  1.6942
  106OSM    C1210809   1.673   4.867  10.751 -0.8444 -0.2323 -0.6302
  106OSM   H12A10810   1.767   4.876  10.700 -0.7920 -1.0120 -0.6852
  106OSM   H12B10811   1.612   4.948  10.715 -2.3159  0.9330  3.8143
  106OSM    C1110812   1.600   4.741  10.685  0.4301 -0.7583 -0.3755
  106OSM   H11A10813   1.676   4.661  10.696  1.7509  0.7782  3.3189
  106OSM   H11B10814   1.594   4.762  10.576 -0.5884  1.6473  0.0916
  106OSM      P10815   1.347   4.818  10.684 -0.3974 -0.0852 -0.0199
  106OSM    O1310816   1.227   4.788  10.770  0.4304 -0.1996  0.3061
  106OSM    O1410817   1.400   4.954  10.684  0.1757 -0.9469 -0.0561
  106OSM    O1110818   1.334   4.770  10.526  0.0489 -0.8367  0.6286
  106OSM    O1210819   1.467   4.717  10.737  0.1548 -0.4963 -0.5457
  106OSM    C1S10820   1.356   4.637  10.487  0.0849 -0.1886 -0.5378
  106OSM    H1S10821   1.269   4.583  10.532  0.9751  0.3793  2.0768
  106OSM    H1T10822   1.447   4.590  10.530 -0.7370 -1.0329  0.3224
  106OSM     NF10823   1.361   4.476  10.291 -0.0165 -0.0830  0.1443
  106OSM    HNF10824   1.447   4.428  10.277  0.4489  0.2450  1.7196
  106OSM    C2S10825   1.360   4.618  10.329 -0.6883  0.2563 -0.5921
  106OSM    H2S10826   1.265   4.651  10.281 -0.1954 -0.7443 -2.3596
  106OSM    C3S10827   1.475   4.705  10.268  0.0347 -0.1021 -0.4570
  106OSM    H3S10828   1.567   4.668  10.318  0.9839 -1.1629 -2.8425
  106OSM     O310829   1.458   4.847  10.287  0.3303  0.2670 -0.5246
  106OSM    HO310830   1.389   4.862  10.353 -0.3908  0.6509 -1.3344
  106OSM    C4S10831   1.486   4.685  10.126 -0.1066 -0.8425  0.4285
  106OSM    H4S10832   1.398   4.718  10.069  0.0532 -1.3684 -0.1361
  106OSM    C5S10833   1.590   4.639  10.054  0.3617 -0.0157 -0.6840
  106OSM    H5S10834   1.683   4.615  10.107 -0.3222  1.6541  1.4429
  106OSM    C6S10835   1.593   4.621   9.902  0.5741 -0.0682  0.7883
  106OSM    H6S10836   1.488   4.614   9.866  0.7663  2.1306 -0.4037
  106OSM    H6T10837   1.630   4.519   9.880  0.6023  0.3803 -1.4933
  106OSM    C7S10838   1.663   4.736   9.823 -0.3436  0.1440 -0.6193
  106OSM    H7S10839   1.772   4.727   9.845 -0.1955 -0.3132 -1.4703
  106OSM    H7T10840   1.618   4.830   9.861  1.0186  0.2803  0.7554
  106OSM    C8S10841   1.645   4.713   9.665  0.5051 -0.1755 -0.1753
  106OSM    H8S10842   1.536   4.695   9.658  0.2716  1.5003 -1.4858
  106OSM    H8T10843   1.698   4.624   9.626  3.0809 -0.0937  2.7232
  106OSM    C9S10844   1.695   4.837   9.589  0.5707  0.6472  0.3354
  106OSM    H9S10845   1.804   4.852   9.605  0.6469  2.1808 -1.3522
  106OSM    H9T10846   1.647   4.931   9.623  0.7579  1.3203 -1.1492
  106OSM   C10S10847   1.683   4.837   9.436  0.0664  0.5176 -0.0223
  106OSM   H10S10848   1.739   4.924   9.396  1.6117 -1.4433 -2.4967
  106OSM   H10T10849   1.574   4.840   9.417 -0.0640 -0.3819  0.5256
  106OSM   C11S10850   1.734   4.710   9.360 -0.1076 -0.1417 -0.1117
  106OSM   H11S10851   1.666   4.630   9.396 -2.3685  1.9017  0.4265
  106OSM   H11T10852   1.836   4.684   9.397 -0.5184  1.0062  2.0067
  106OSM   C12S10853   1.720   4.707   9.204  0.3653  0.2025 -0.6238
  106OSM   H12S10854   1.705   4.602   9.171 -0.5562  0.0615  0.1998
  106OSM   H12T10855   1.817   4.750   9.170  1.2794 -0.1182  1.4845
  106OSM   C13S10856   1.613   4.792   9.142 -0.3053 -0.0195 -0.6585
  106OSM   H13S10857   1.644   4.899   9.141 -1.2457  0.2858  0.2676
  106OSM   H13T10858   1.522   4.787   9.205 -0.2794 -2.4040 -0.7284
  106OSM   C14S10859   1.566   4.748   9.002 -0.3154  0.5905  0.1950
  106OSM   H14S10860   1.487   4.670   9.014  0.2721 -0.1875 -0.9062
  106OSM   H14T10861   1.651   4.701   8.949 -0.1231  1.6653 -0.4903
  106OSM   C15S10862   1.513   4.871   8.935 -0.0077 -0.6910  0.3155
  106OSM   H15S10863   1.600   4.937   8.913 -1.4689  1.0507 -0.5104
  106OSM   H15T10864   1.447   4.925   9.006 -0.5532  0.3630 -0.9620
  106OSM   C16S10865   1.435   4.851   8.806  0.0432 -0.3224  0.4618
  106OSM   H16S10866   1.383   4.949   8.797  2.6065  0.9526 -2.0538
  106OSM   H16T10867   1.360   4.776   8.838  0.0188  0.6861  2.9880
  106OSM   C17S10868   1.505   4.837   8.670  0.7365 -0.2419 -0.0789
  106OSM   H17S10869   1.445   4.784   8.594 -2.6531 -1.9307  3.4443
  106OSM   H17T10870   1.581   4.758   8.684  0.1385 -0.7388  0.4003
  106OSM   C18S10871   1.569   4.963   8.612  0.1835 -0.1951  0.5650
  106OSM   H18S10872   1.490   5.037   8.587 -1.5728 -2.8841 -2.5606
  106OSM   H18T10873   1.624   4.949   8.516 -0.1932  3.2676 -0.2836
  106OSM   H18U10874   1.640   5.004   8.687 -0.0215  0.1104  0.5940
  106OSM    C1F10875   1.255   4.404  10.311  0.1197  0.9512  0.0185
  106OSM     OF10876   1.147   4.453  10.333  0.1130  0.1411 -0.0937
  106OSM    C2F10877   1.271   4.263  10.323  0.3359  0.1328 -0.7103
  106OSM    H2F10878   1.266   4.242  10.432 -0.7056 -1.1241 -0.9651
  106OSM    H2G10879   1.377   4.231  10.314  0.3778 -1.1545  2.9218
  106OSM    C3F10880   1.178   4.176  10.240  0.6192 -0.4527  0.3570
  106OSM    H3F10881   1.073   4.210  10.255  0.2339 -0.8098 -1.3284
  106OSM    H3G10882   1.182   4.074  10.284 -0.1921 -0.2529  0.9281
  106OSM    C4F10883   1.206   4.167  10.090 -0.1691 -0.2744  0.3599
  106OSM    H4F10884   1.314   4.157  10.069  0.2414 -1.7392  2.8355
  106OSM    H4G10885   1.172   4.266  10.053  0.5862 -0.8179 -1.9692
  106OSM    C5F10886   1.126   4.055  10.020  0.5622 -0.4724  0.8403
  106OSM    H5F10887   1.036   4.104   9.977 -1.1500 -2.7098  1.7095
  106OSM    H5G10888   1.104   3.978  10.096 -0.3273  0.2190  1.2979
  106OSM    C6F10889   1.204   3.987   9.908  0.1571  0.2069  0.2567
  106OSM    H6F10890   1.288   3.935   9.959  0.1579  0.9097  0.9950
  106OSM    H6G10891   1.240   4.071   9.844 -1.0657  0.7022  0.1809
  106OSM    C7F10892   1.117   3.889   9.824  0.0543  0.0868 -0.6214
  106OSM    H7F10893   1.015   3.933   9.828 -0.8611 -2.0274  1.7668
  106OSM    H7G10894   1.110   3.789   9.872 -0.4638 -0.1269 -1.1369
  106OSM    C8F10895   1.160   3.858   9.683 -0.4559 -0.5780  0.1091
  106OSM    H8F10896   1.097   3.776   9.641 -1.6560  0.9665 -1.2199
  106OSM    H8G10897   1.265   3.824   9.693 -0.1407  0.5341  0.6711
  106OSM    C9F10898   1.157   3.977   9.594  0.0258 -0.4064 -0.0782
  106OSM    H9F10899   1.063   4.033   9.611 -0.0390 -0.7955  0.9309
  106OSM   C10F10900   1.245   4.027   9.507  0.2831  0.1299  1.1540
  106OSM   H10F10901   1.231   4.122   9.453  2.1325  0.1730  0.6988
  106OSM   C11F10902   1.383   3.965   9.460  0.2450 -0.0598 -0.3998
  106OSM   H11F10903   1.415   3.909   9.551  0.8386  2.0040  0.7172
  106OSM   H11G10904   1.459   4.042   9.438 -1.1120  2.0679  1.7551
  106OSM   C12F10905   1.356   3.873   9.343  0.4737  0.0589 -0.1782
  106OSM   H12F10906   1.265   3.813   9.364  1.3674 -1.8524 -1.5600
  106OSM   H12G10907   1.442   3.806   9.325  1.4950  0.8215  1.5919
  106OSM   C13F10908   1.330   3.947   9.212 -0.2314 -0.4736  0.2196
  106OSM   H13F10909   1.232   3.998   9.226 -0.2308 -0.4097 -0.0016
  106OSM   H13G10910   1.320   3.886   9.119 -0.9892  2.9938 -2.1529
  106OSM   C14F10911   1.436   4.049   9.176 -0.1380  0.1856  0.0344
  106OSM   H14F10912   1.538   4.005   9.171  1.5197  3.5224  1.4996
  106OSM   H14G10913   1.435   4.126   9.256  1.0290  1.0613 -0.7564
  106OSM   C15F10914   1.399   4.132   9.055  0.1906 -0.7476 -0.0974
  106OSM   H15F10915   1.446   4.231   9.069  1.8084 -1.3316 -1.0882
  106OSM   H15G10916   1.288   4.141   9.056 -0.0344 -2.5254 -1.5225
  106OSM   C16F10917   1.444   4.069   8.922 -0.1722 -0.0347 -0.4854
  106OSM   H16F10918   1.392   3.970   8.920 -1.6172  0.6895 -0.1400
  106OSM   H16G10919   1.554   4.053   8.923 -0.2526 -0.7706  2.0817
  106OSM   C17F10920   1.398   4.157   8.799 -0.3184 -0.1419 -1.1845
  106OSM   H17F10921   1.293   4.192   8.811 -0.1574  0.7845 -2.3286
  106OSM   H17G10922   1.412   4.096   8.707  3.1510 -1.0568 -0.2083
  106OSM   C18F10923   1.485   4.288   8.777 -0.0407  0.7043  0.4652
  106OSM   H18F10924   1.472   4.362   8.859 -1.8273  1.6554 -0.6094
  106OSM   H18G10925   1.461   4.354   8.690 -0.2037 -0.2812 -0.2573
  106OSM   H18H10926   1.590   4.254   8.766 -0.2642 -0.0285  0.5336
  107OSM      N10927   3.849   5.360  10.925 -0.0651  0.0839  0.0062
  107OSM    C1510928   3.765   5.318  11.040 -0.1468  0.3334 -0.4511
  107OSM   H15A10929   3.815   5.336  11.134  1.9608 -1.0026 -1.2324
  107OSM   H15B10930   3.727   5.217  11.040  0.0956  0.2415  0.0925
  107OSM   H15C10931   3.680   5.384  11.054  0.4869  0.5104  3.3636
  107OSM    C1410932   3.774   5.359  10.799  0.2906 -0.1698 -0.0684
  107OSM   H14A10933   3.737   5.262  10.771 -0.8477  0.1139  0.3613
  107OSM   H14B10934   3.825   5.409  10.718  0.7356  1.3355  1.0753
  107OSM   H14C10935   3.695   5.430  10.820 -0.9729 -1.9340  1.3964
  107OSM    C1310936   3.894   5.499  10.970 -0.2153 -0.4496  0.5453
  107OSM   H13A10937   3.813   5.565  10.997  0.3300  0.6101 -0.3007
  107OSM   H13B10938   3.953   5.543  10.890 -0.5976 -2.6279 -1.0151
  107OSM   H13C10939   3.947   5.481  11.062  0.8099 -2.1692 -0.3256
  107OSM    C1210940   3.976   5.270  10.917  0.4897  1.1155 -0.5200
  107OSM   H12A10941   4.039   5.283  11.004  0.5197 -1.7510  0.0081
  107OSM   H12B10942   4.045   5.304  10.841  1.0501  0.4600 -0.3140
  107OSM    C1110943   3.947   5.115  10.900 -0.5842 -0.1301  0.6839
  107OSM   H11A10944   4.030   5.062  10.848 -2.0540  0.6737 -2.8256
  107OSM   H11B10945   3.857   5.104  10.835 -0.5034  0.1295  0.5299
  107OSM      P10946   3.814   4.937  11.032  0.0556 -0.3845  0.2564
  107OSM    O1310947   3.870   4.848  11.138  0.7040 -0.3086 -0.0371
  107OSM    O1410948   3.680   4.985  11.057 -0.5583  0.1295 -0.4731
  107OSM    O1110949   3.802   4.875  10.887 -0.0670 -0.6175  0.0351
  107OSM    O1210950   3.921   5.056  11.022  0.0965  0.8661 -0.3402
  107OSM    C1S10951   3.683   4.818  10.826 -0.4499  0.1964 -0.3454
  107OSM    H1S10952   3.604   4.896  10.820 -2.2830 -1.5961 -0.4728
  107OSM    H1T10953   3.652   4.730  10.885  1.7852 -0.2990  0.1833
  107OSM     NF10954   3.593   4.717  10.622 -0.3186 -0.2029  0.3135
  107OSM    HNF10955   3.599   4.618  10.629  0.4858 -0.3131 -1.3803
  107OSM    C2S10956   3.715   4.784  10.678  0.3709 -0.1057 -1.5735
  107OSM    H2S10957   3.727   4.878  10.621  0.7270  1.0224  0.2824
  107OSM    C3S10958   3.852   4.707  10.669  0.4335  0.3144  0.3027
  107OSM    H3S10959   3.838   4.613  10.726  4.4235 -1.4662 -1.2448
  107OSM     O310960   3.970   4.765  10.726 -0.7725  0.1694 -0.4547
  107OSM    HO310961   3.940   4.820  10.799  1.6043  1.1466 -0.1202
  107OSM    C4S10962   3.878   4.667  10.531  0.1126 -0.5932 -0.1165
  107OSM    H4S10963   3.857   4.748  10.460  2.8472 -0.6121 -1.0436
  107OSM    C5S10964   3.916   4.546  10.483  0.1702  0.3133  0.5703
  107OSM    H5S10965   3.923   4.458  10.548 -1.2546 -0.1196  0.1768
  107OSM    C6S10966   3.937   4.538  10.329 -0.4622  0.9594 -0.4865
  107OSM    H6S10967   3.848   4.511  10.268  0.4614  0.6391 -1.7138
  107OSM    H6T10968   4.011   4.457  10.315 -0.7331  0.0708  2.4744
  107OSM    C7S10969   3.981   4.655  10.243 -0.7672 -0.4117 -0.2389
  107OSM    H7S10970   3.922   4.748  10.235  1.1972  0.7864 -1.9516
  107OSM    H7T10971   3.978   4.617  10.139 -0.3818 -1.9073  0.2665
  107OSM    C8S10972   4.128   4.688  10.273 -0.2229 -0.0319 -0.2709
  107OSM    H8S10973   4.194   4.598  10.282  0.1159  0.2091 -0.3114
  107OSM    H8T10974   4.116   4.743  10.368  0.8787 -0.6245  0.2339
  107OSM    C9S10975   4.211   4.780  10.185  0.0202  0.0407  0.8845
  107OSM    H9S10976   4.296   4.811  10.250  1.5866 -1.0589 -0.5678
  107OSM    H9T10977   4.157   4.876  10.171  0.8317  0.4916  0.8293
  107OSM   C10S10978   4.239   4.707  10.054  0.3331 -0.1053  0.8751
  107OSM   H10S10979   4.142   4.685  10.004  0.6083  0.2246  0.1851
  107OSM   H10T10980   4.299   4.614  10.064  1.7895  0.5081 -1.5344
  107OSM   C11S10981   4.305   4.811   9.965  0.1502  0.0131 -0.6259
  107OSM   H11S10982   4.392   4.852  10.021 -0.3104 -0.6603  0.6288
  107OSM   H11T10983   4.235   4.898   9.959  1.1242  0.9279  0.7796
  107OSM   C12S10984   4.320   4.762   9.825  0.6191  0.4582 -0.1688
  107OSM   H12S10985   4.225   4.714   9.794 -0.1441  0.8451  1.4426
  107OSM   H12T10986   4.401   4.686   9.835  1.5515  1.2398 -1.4189
  107OSM   C13S10987   4.373   4.862   9.715  0.4782  0.5852 -0.3172
  107OSM   H13S10988   4.478   4.864   9.750  0.0807  0.4278  0.9404
  107OSM   H13T10989   4.316   4.957   9.708  0.2217  0.4593  0.0301
  107OSM   C14S10990   4.379   4.802   9.575 -0.2586  0.0629 -0.3604
  107OSM   H14S10991   4.389   4.693   9.591 -0.2660  0.0346 -0.5521
  107OSM   H14T10992   4.464   4.830   9.510 -0.6959 -0.3903 -1.1318
  107OSM   C15S10993   4.258   4.833   9.493 -0.6939 -0.3356 -0.4043
  107OSM   H15S10994   4.250   4.944   9.483  4.2085  0.2086 -1.2000
  107OSM   H15T10995   4.175   4.787   9.549  1.9921 -1.6011  2.8880
  107OSM   C16S10996   4.262   4.767   9.355  0.2380  0.0933  0.4829
  107OSM   H16S10997   4.160   4.773   9.310  1.7258  0.1435 -3.1891
  107OSM   H16T10998   4.284   4.658   9.363 -0.0831  0.1562  3.7100
  107OSM   C17S10999   4.353   4.831   9.248 -0.1720  0.1626 -0.9104
  107OSM   H17S11000   4.452   4.839   9.296 -1.9157  0.9362  2.8682
  107OSM   H17T11001   4.314   4.935   9.237 -3.0474 -0.4204  2.1857
  107OSM   C18S11002   4.360   4.764   9.105 -0.1690  0.5779 -0.1286
  107OSM   H18S11003   4.262   4.786   9.058  0.6583  1.1566 -1.6727
  107OSM   H18T11004   4.376   4.654   9.095 -0.6988  0.4165  0.6663
  107OSM   H18U11005   4.436   4.828   9.056  0.1586  2.8065  2.9906
  107OSM    C1F11006   3.479   4.784  10.605  0.1825  0.0293  0.0628
  107OSM     OF11007   3.479   4.908  10.597  0.1963  0.0838 -0.6410
  107OSM    C2F11008   3.347   4.708  10.608 -0.3460  0.2301  0.2542
  107OSM    H2F11009   3.276   4.746  10.685  0.5308  0.3635  1.0110
  107OSM    H2G11010   3.373   4.606  10.643 -1.2018  0.5424  1.9058
  107OSM    C3F11011   3.289   4.713  10.463  0.1209  0.3188  0.5622
  107OSM    H3F11012   3.354   4.659  10.391 -1.2091 -0.6861  0.0621
  107OSM    H3G11013   3.285   4.819  10.431 -0.4178  0.1765  0.1476
  107OSM    C4F11014   3.148   4.660  10.460  0.1050 -0.6507 -0.3386
  107OSM    H4F11015   3.082   4.724  10.521  0.2633  0.2487 -1.0928
  107OSM    H4G11016   3.158   4.560  10.508  2.6156 -0.4272 -0.2539
  107OSM    C5F11017   3.070   4.654  10.327  0.3080 -0.2500  0.1424
  107OSM    H5F11018   3.140   4.620  10.247 -1.1928 -0.1047 -1.2773
  107OSM    H5G11019   3.053   4.758  10.293  2.9854  0.1108 -0.3318
  107OSM    C6F11020   2.946   4.566  10.327  0.5193  0.1683  0.8304
  107OSM    H6F11021   2.907   4.596  10.427  0.6996  2.5493  0.2431
  107OSM    H6G11022   2.969   4.458  10.340 -1.2561 -0.2216  1.0616
  107OSM    C7F11023   2.846   4.600  10.219 -0.1314  0.7975  0.2390
  107OSM    H7F11024   2.834   4.710  10.234 -2.3592  0.6428 -0.1185
  107OSM    H7G11025   2.752   4.545  10.238  0.8466 -0.6570  1.0661
  107OSM    C8F11026   2.899   4.564  10.074  0.8169 -0.0387 -0.6616
  107OSM    H8F11027   2.895   4.454  10.059 -0.4685 -0.1164  0.1418
  107OSM    H8G11028   3.002   4.606  10.069 -0.0005  2.0049 -1.4016
  107OSM    C9F11029   2.823   4.635   9.959  0.2631  0.1120 -0.3133
  107OSM    H9F11030   2.833   4.745   9.961  3.5086 -0.1081  1.9541
  107OSM   C10F11031   2.764   4.577   9.853 -0.5929 -0.0563 -0.0783
  107OSM   H10F11032   2.716   4.632   9.770 -1.2592  0.2259  0.4812
  107OSM   C11F11033   2.760   4.427   9.832  0.1473 -0.5769 -0.3126
  107OSM   H11F11034   2.679   4.407   9.758 -0.7097  1.9807 -0.1738
  107OSM   H11G11035   2.732   4.365   9.920  2.0222 -0.6095  0.3163
  107OSM   C12F11036   2.904   4.382   9.789 -0.1763 -0.3483  0.8545
  107OSM   H12F11037   2.911   4.272   9.803 -1.0205 -0.8867 -2.2004
  107OSM   H12G11038   2.981   4.420   9.860  0.8452 -0.3581 -0.2208
  107OSM   C13F11039   2.946   4.442   9.656  0.5764 -0.5021 -0.4873
  107OSM   H13F11040   3.045   4.395   9.639 -1.3350 -4.4626 -1.8991
  107OSM   H13G11041   2.969   4.551   9.655  1.5184 -0.6905 -1.7376
  107OSM   C14F11042   2.867   4.399   9.538 -0.0016  0.7877  0.5020
  107OSM   H14F11043   2.772   4.457   9.535 -0.1289  0.6148 -2.9209
  107OSM   H14G11044   2.850   4.290   9.553  0.8565  0.6947  0.8057
  107OSM   C15F11045   2.957   4.427   9.418 -0.2268 -0.7311 -0.2644
  107OSM   H15F11046   3.044   4.358   9.422 -0.4095 -0.9052  1.7277
  107OSM   H15G11047   2.986   4.531   9.443 -0.5982 -1.1746  2.3060
  107OSM   C16F11048   2.898   4.414   9.281  0.1718  0.5959  0.5252
  107OSM   H16F11049   2.808   4.478   9.273 -0.2675  0.0606  1.1331
  107OSM   H16G11050   2.864   4.310   9.262  0.4911  0.8205 -1.4602
  107OSM   C17F11051   3.006   4.451   9.171 -0.2669 -0.0067 -0.6047
  107OSM   H17F11052   3.072   4.362   9.163  0.9608  0.7953  0.3247
  107OSM   H17G11053   3.070   4.531   9.212  2.9917 -2.2738 -0.9150
  107OSM   C18F11054   2.932   4.490   9.044 -0.1588 -0.1394  0.7427
  107OSM   H18F11055   2.893   4.398   8.997 -1.8066  1.1152 -0.4784
  107OSM   H18G11056   3.002   4.536   8.970 -1.4285  1.9987  0.7886
  107OSM   H18H11057   2.851   4.565   9.061 -0.0155 -0.1168  1.3345
  108OSM      N11058   0.074   5.859  11.063 -0.4179  0.0667  0.0207
  108OSM    C1511059  -0.026   5.935  11.144  0.4797 -0.0799 -0.1566
  108OSM   H15A11060  -0.018   5.901  11.246  0.2610 -3.0467 -1.0217
  108OSM   H15B11061  -0.126   5.913  11.112  0.4026  0.2327 -0.1369
  108OSM   H15C11062  -0.015   6.043  11.147  1.8202 -0.1988  0.0957
  108OSM    C1411063   0.215   5.897  11.105  0.4859 -0.3596 -0.4207
  108OSM   H14A11064   0.298   5.858  11.047  2.5768  1.6371  1.0217
  108OSM   H14B11065   0.224   5.873  11.210 -0.1414 -2.6011 -0.8428
  108OSM   H14C11066   0.217   6.005  11.097  0.9611 -0.2671  0.7287
  108OSM    C1311067   0.048   5.721  11.112 -0.0944 -0.3193 -0.9701
  108OSM   H13A11068   0.049   5.720  11.220  0.4204  2.9286 -0.8376
  108OSM   H13B11069   0.121   5.653  11.070  0.9024  0.0776  0.0630
  108OSM   H13C11070  -0.057   5.707  11.090 -1.4425  1.8170  3.1830
  108OSM    C1211071   0.039   5.862  10.915  0.5960 -0.0230  0.1061
  108OSM   H12A11072   0.077   5.774  10.866 -1.1509  0.7300 -2.8274
  108OSM   H12B11073   0.079   5.948  10.864 -1.4274  0.5056 -0.6943
  108OSM    C1111074  -0.107   5.883  10.879  0.0858  0.4693 -0.2518
  108OSM   H11A11075  -0.183   5.831  10.942  0.4399  1.5548  1.1211
  108OSM   H11B11076  -0.106   5.844  10.775  3.6186 -0.1625 -0.1053
  108OSM      P11077  -0.246   6.092  10.798 -0.1783  0.2347 -0.1352
  108OSM    O1311078  -0.329   5.988  10.737 -0.1156 -0.3315 -0.6746
  108OSM    O1411079  -0.321   6.193  10.879  0.2684  0.0887  0.1915
  108OSM    O1111080  -0.157   6.170  10.695  0.8929 -0.6464 -0.1195
  108OSM    O1211081  -0.140   6.024  10.884  0.0187 -0.0923  0.1740
  108OSM    C1S11082  -0.066   6.107  10.608 -0.0826 -0.1130 -0.3280
  108OSM    H1S11083  -0.051   6.001  10.638 -1.3653  0.2487  1.8012
  108OSM    H1T11084   0.033   6.155  10.618  0.2255 -1.1736  3.3486
  108OSM     NF11085  -0.024   6.042  10.364 -0.2819  0.3774  0.5344
  108OSM    HNF11086   0.044   6.101  10.322  1.3082  1.2157  3.9095
  108OSM    C2S11087  -0.117   6.118  10.454  0.1002 -0.8424 -0.2574
  108OSM    H2S11088  -0.216   6.067  10.456  0.3255 -1.2546  0.7675
  108OSM    C3S11089  -0.123   6.273  10.417 -0.0608 -0.2287  0.7283
  108OSM    H3S11090  -0.026   6.324  10.408 -0.0244 -0.4232 -0.0773
  108OSM     O311091  -0.191   6.356  10.511 -0.0824 -0.0393 -0.0748
  108OSM    HO311092  -0.209   6.291  10.580  0.8594 -0.6223 -0.3548
  108OSM    C4S11093  -0.184   6.279  10.281  0.6469 -0.1089 -0.2830
  108OSM    H4S11094  -0.270   6.214  10.264  0.5016  0.6940 -3.0178
  108OSM    C5S11095  -0.137   6.352  10.177 -0.1725  0.2515  0.3230
  108OSM    H5S11096  -0.045   6.410  10.196  0.4698 -0.3563 -0.8610
  108OSM    C6S11097  -0.213   6.365  10.043 -0.7853  0.9103  0.2144
  108OSM    H6S11098  -0.254   6.468  10.041 -1.2165  0.7455 -1.7335
  108OSM    H6T11099  -0.307   6.306  10.041  0.9639 -2.0706 -1.4600
  108OSM    C7S11100  -0.120   6.352   9.916 -0.2111 -0.6160  0.2887
  108OSM    H7S11101  -0.091   6.246   9.905 -3.1487 -1.8426  2.8075
  108OSM    H7T11102  -0.026   6.410   9.932 -0.4600  0.0145 -0.5078
  108OSM    C8S11103  -0.189   6.389   9.786  0.8163 -0.0071 -0.1612
  108OSM    H8S11104  -0.232   6.491   9.796  0.1584 -0.3698  0.8121
  108OSM    H8T11105  -0.285   6.334   9.776 -0.1787  1.2688  1.7550
  108OSM    C9S11106  -0.103   6.372   9.659  0.3156  0.5561  0.7716
  108OSM    H9S11107  -0.080   6.264   9.645 -0.1796  0.8557 -3.8316
  108OSM    H9T11108  -0.008   6.430   9.661  0.4402  0.5891 -2.0854
  108OSM   C10S11109  -0.183   6.419   9.539 -0.4987  0.1645 -0.0216
  108OSM   H10S11110  -0.211   6.526   9.543  0.2881  0.3680  0.0793
  108OSM   H10T11111  -0.277   6.359   9.546 -0.5498  0.3472  1.0703
  108OSM   C11S11112  -0.109   6.405   9.396  0.0651 -0.1918 -0.4174
  108OSM   H11S11113  -0.104   6.295   9.377  0.7608 -0.2379 -0.0254
  108OSM   H11T11114  -0.016   6.463   9.414 -0.0999 -0.2115  0.5471
  108OSM   C12S11115  -0.192   6.455   9.282  0.3416  0.3881 -0.2457
  108OSM   H12S11116  -0.184   6.565   9.280 -0.1544  0.4383 -2.6692
  108OSM   H12T11117  -0.298   6.423   9.291  0.2477  0.6425 -0.4418
  108OSM   C13S11118  -0.148   6.407   9.145  0.0335  0.0453 -0.3261
  108OSM   H13S11119  -0.158   6.296   9.143  0.7777 -0.0311  0.0213
  108OSM   H13T11120  -0.040   6.426   9.128 -0.1721  1.3368 -0.3146
  108OSM   C14S11121  -0.228   6.480   9.035  0.0866 -0.1043  0.5471
  108OSM   H14S11122  -0.218   6.587   9.059 -1.7160  0.4093 -0.7650
  108OSM   H14T11123  -0.335   6.453   9.018  0.5533 -1.1428 -1.0376
  108OSM   C15S11124  -0.171   6.458   8.896  0.6162 -0.0874  0.1796
  108OSM   H15S11125  -0.179   6.348   8.880 -1.0929  0.0054  0.2564
  108OSM   H15T11126  -0.062   6.481   8.900  0.6854 -0.6071  2.0000
  108OSM   C16S11127  -0.241   6.522   8.780  0.4844  0.3663 -0.0918
  108OSM   H16S11128  -0.224   6.631   8.792  1.1352  0.1615  0.9775
  108OSM   H16T11129  -0.349   6.496   8.777  0.2471  1.4150 -0.9661
  108OSM   C17S11130  -0.176   6.485   8.647  0.2216  0.2105 -0.5079
  108OSM   H17S11131  -0.131   6.383   8.642  0.2421  0.1801  0.2461
  108OSM   H17T11132  -0.093   6.558   8.637  0.3804 -0.0359 -1.0475
  108OSM   C18S11133  -0.270   6.513   8.529  0.2387 -0.0218 -0.2601
  108OSM   H18S11134  -0.220   6.504   8.430 -1.7954  1.8067 -1.5584
  108OSM   H18T11135  -0.296   6.621   8.542 -0.5088 -0.3861  1.6279
  108OSM   H18U11136  -0.364   6.454   8.536  0.3312 -0.1317  0.0457
  108OSM    C1F11137  -0.002   5.913  10.374 -0.1510 -0.1874 -0.2494
  108OSM     OF11138  -0.083   5.830  10.412 -0.2584 -0.8710  0.6326
  108OSM    C2F11139   0.136   5.878  10.326 -0.3788 -0.7196  0.2452
  108OSM    H2F11140   0.167   5.784  10.376  3.8511  2.0193  3.4948
  108OSM    H2G11141   0.209   5.960  10.344  0.6215 -1.9432  2.0135
  108OSM    C3F11142   0.111   5.864  10.169 -0.1018 -0.0542 -0.5690
  108OSM    H3F11143   0.091   5.962  10.121  1.3179  0.1602 -0.7584
  108OSM    H3G11144   0.026   5.794  10.155  0.4162 -1.3393  1.9779
  108OSM    C4F11145   0.237   5.809  10.099 -0.3634 -0.1710  0.0710
  108OSM    H4F11146   0.284   5.725  10.154 -0.2267  0.9417  1.7348
  108OSM    H4G11147   0.322   5.880  10.092  0.0509 -0.3952  2.1833
  108OSM    C5F11148   0.206   5.761   9.955 -0.3911  0.0497  0.6016
  108OSM    H5F11149   0.177   5.848   9.893  1.4551 -0.0018 -0.4188
  108OSM    H5G11150   0.121   5.691   9.971 -0.1619 -0.0073  1.6736
  108OSM    C6F11151   0.317   5.675   9.887 -0.1464 -0.3552  0.4579
  108OSM    H6F11152   0.277   5.597   9.819  2.5221 -0.0638 -1.6150
  108OSM    H6G11153   0.371   5.617   9.964  2.0033  1.5356  0.4664
  108OSM    C7F11154   0.428   5.772   9.818  0.0266  0.0645 -0.3637
  108OSM    H7F11155   0.468   5.842   9.895  0.4902 -0.4537 -0.1181
  108OSM    H7G11156   0.376   5.826   9.737 -0.1151  0.5835  0.0647
  108OSM    C8F11157   0.548   5.693   9.769  0.3453  0.1299  0.9583
  108OSM    H8F11158   0.588   5.621   9.842 -0.5461 -0.7890  0.5697
  108OSM    H8G11159   0.624   5.771   9.746  0.7431 -1.2934 -3.7457
  108OSM    C9F11160   0.516   5.616   9.639  0.2412 -0.2626 -0.3037
  108OSM    H9F11161   0.477   5.516   9.661  1.1293 -0.5923 -0.1670
  108OSM   C10F11162   0.546   5.661   9.515  0.7838  0.7680  0.5057
  108OSM   H10F11163   0.516   5.595   9.433 -2.8149  2.8618 -0.0880
  108OSM   C11F11164   0.601   5.795   9.468  0.0937 -0.3985  0.0014
  108OSM   H11F11165   0.701   5.788   9.420 -1.5119 -0.3271 -3.6462
  108OSM   H11G11166   0.613   5.859   9.559  1.8295  1.1707 -1.2530
  108OSM   C12F11167   0.499   5.867   9.380 -0.3343  0.7314  0.8557
  108OSM   H12F11168   0.527   5.974   9.385  0.0603  0.6649  0.2333
  108OSM   H12G11169   0.393   5.861   9.414 -0.3481  1.4285  0.9476
  108OSM   C13F11170   0.505   5.831   9.226  0.0434  0.2095 -0.0650
  108OSM   H13F11171   0.404   5.858   9.189  0.2395  2.1909  0.7604
  108OSM   H13G11172   0.518   5.722   9.207 -1.8011 -0.1400  0.4724
  108OSM   C14F11173   0.604   5.919   9.144  0.0162 -0.0887 -0.1560
  108OSM   H14F11174   0.703   5.870   9.145 -0.6116 -1.4430  1.7313
  108OSM   H14G11175   0.613   6.022   9.187 -1.0458 -0.6239  1.4792
  108OSM   C15F11176   0.555   5.936   8.996 -0.5450 -0.5515 -0.3543
  108OSM   H15F11177   0.460   5.992   9.002 -0.8850 -0.6896 -3.1845
  108OSM   H15G11178   0.535   5.836   8.951 -1.3125 -0.4503 -0.2530
  108OSM   C16F11179   0.656   6.004   8.905  0.0218 -0.6816 -0.2770
  108OSM   H16F11180   0.752   5.950   8.916 -0.0292 -0.7147  0.0367
  108OSM   H16G11181   0.665   6.107   8.946  3.4193 -1.3608  0.9898
  108OSM   C17F11182   0.612   5.993   8.760 -0.1447 -0.3254  0.5997
  108OSM   H17F11183   0.519   6.051   8.739  0.8418  1.0323 -0.1673
  108OSM   H17G11184   0.593   5.888   8.731 -1.0994  0.0542 -0.2505
  108OSM   C18F11185   0.725   6.044   8.661  0.7729 -0.2012  0.3257
  108OSM   H18F11186   0.819   5.985   8.666  0.7966 -0.1271  0.8286
  108OSM   H18G11187   0.745   6.152   8.677 -0.4360  0.4304 -1.9371
  108OSM   H18H11188   0.692   6.040   8.555 -0.1497 -0.1365  0.6023
  109OSM      N11189   0.227   0.502  10.687  0.0103  0.0412  0.7631
  109OSM    C1511190   0.195   0.567  10.818 -0.6645 -0.1938  0.1992
  109OSM   H15A11191   0.089   0.570  10.836 -1.0179 -2.4448 -1.0897
  109OSM   H15B11192   0.230   0.669  10.823 -0.0456 -0.3980  0.1174
  109OSM   H15C11193   0.249   0.525  10.902 -0.8219 -1.1879 -0.1867
  109OSM    C1411194   0.167   0.592  10.588 -0.3241  0.0724 -0.1896
  109OSM   H14A11195   0.213   0.689  10.600 -1.1775  0.3882  0.7037
  109OSM   H14B11196   0.063   0.617  10.603 -0.0281  1.0787  0.2575
  109OSM   H14C11197   0.178   0.549  10.489  0.9624 -1.2482  0.5018
  109OSM    C1311198   0.374   0.502  10.664  0.0324 -0.0905  0.1016
  109OSM   H13A11199   0.399   0.449  10.573  0.0070  1.0955 -0.6220
  109OSM   H13B11200   0.422   0.445  10.742  0.7416 -1.8908 -1.5611
  109OSM   H13C11201   0.425   0.597  10.666  3.6135 -1.8340 -0.5801
  109OSM    C1211202   0.164   0.363  10.669 -0.1311 -0.0787  0.0252
  109OSM   H12A11203   0.062   0.364  10.703 -0.6493  0.1855 -1.4938
  109OSM   H12B11204   0.219   0.292  10.729 -0.6330 -1.6022 -1.2599
  109OSM    C1111205   0.158   0.296  10.526  0.1805  0.3824 -0.6538
  109OSM   H11A11206   0.102   0.348  10.445  2.5496 -1.2027 -3.5316
  109OSM   H11B11207   0.104   0.201  10.543 -1.1995  0.9533 -1.5926
  109OSM      P11208   0.343   0.117  10.480  0.4210 -0.2004 -0.2944
  109OSM    O1311209   0.471   0.118  10.402 -0.0850 -0.2141 -0.1796
  109OSM    O1411210   0.360   0.086  10.620 -0.2378  0.1183 -0.5577
  109OSM    O1111211   0.235   0.011  10.427 -0.0606 -0.1821  0.2708
  109OSM    O1211212   0.283   0.259  10.469 -0.2023  0.3438 -0.0457
  109OSM    C1S11213   0.176   0.038  10.297 -0.3418  0.4524 -0.1878
  109OSM    H1S11214   0.251   0.013  10.220  0.2068 -1.4035  0.8959
  109OSM    H1T11215   0.152   0.144  10.271  0.8606 -0.0330 -3.7136
  109OSM     NF11216   0.021  -0.043  10.129  0.2068 -0.2004  0.2133
  109OSM    HNF11217  -0.054   0.015  10.098  0.4505  0.1530  0.2826
  109OSM    C2S11218   0.048  -0.051  10.271 -0.3885  0.1464 -0.5752
  109OSM    H2S11219   0.071  -0.157  10.295  0.0022  0.5732  1.0225
  109OSM    C3S11220  -0.069   0.001  10.361 -0.2720  0.3661  0.0499
  109OSM    H3S11221  -0.082   0.108  10.336 -0.9445 -0.2770 -2.7885
  109OSM     O311222  -0.028  -0.022  10.498 -0.1081  0.5649  0.2923
  109OSM    HO311223   0.067  -0.040  10.493 -0.0436  0.9694 -0.0729
  109OSM    C4S11224  -0.191  -0.080  10.321  0.0543 -0.1497 -0.0840
  109OSM    H4S11225  -0.190  -0.189  10.334 -2.1403 -0.2156 -0.1495
  109OSM    C5S11226  -0.305  -0.024  10.271  0.7220  0.3426  0.1804
  109OSM    H5S11227  -0.320   0.085  10.259 -3.8412  0.2390  2.8122
  109OSM    C6S11228  -0.438  -0.092  10.233  0.3139 -0.3556 -0.0096
  109OSM    H6S11229  -0.525  -0.067  10.298 -0.5234 -2.0867 -0.3946
  109OSM    H6T11230  -0.425  -0.201  10.251 -0.4702 -0.4622 -0.0203
  109OSM    C7S11231  -0.486  -0.040  10.092  0.0923 -0.7104 -0.4423
  109OSM    H7S11232  -0.499   0.070  10.088  0.1605 -0.7234 -1.3345
  109OSM    H7T11233  -0.588  -0.073  10.065 -1.5551  1.6021  2.4183
  109OSM    C8S11234  -0.389  -0.090   9.976 -0.9005  0.0638 -0.0287
  109OSM    H8S11235  -0.408  -0.195   9.947 -1.1530  0.3162 -0.8055
  109OSM    H8T11236  -0.282  -0.088  10.005 -1.3124 -0.9514  1.6648
  109OSM    C9S11237  -0.394   0.003   9.855 -0.3333  0.1494  0.4166
  109OSM    H9S11238  -0.344   0.098   9.883 -1.1155  0.8110 -0.3894
  109OSM    H9T11239  -0.501   0.013   9.827 -0.0616 -1.4864 -1.4443
  109OSM   C10S11240  -0.312  -0.059   9.742 -0.2207  0.4774 -0.1645
  109OSM   H10S11241  -0.370  -0.149   9.714  0.0267  1.1527 -3.1340
  109OSM   H10T11242  -0.215  -0.096   9.783 -1.3965 -1.4922  1.0428
  109OSM   C11S11243  -0.292   0.044   9.624 -0.3042 -0.6500  0.2262
  109OSM   H11S11244  -0.241   0.133   9.667  0.1279 -0.9451  0.3357
  109OSM   H11T11245  -0.399   0.070   9.607 -1.0903 -1.9124  2.6796
  109OSM   C12S11246  -0.216   0.010   9.501  0.2621 -0.5311  0.1292
  109OSM   H12S11247  -0.249  -0.084   9.453  3.0457 -0.6061 -1.8236
  109OSM   H12T11248  -0.116  -0.026   9.533  0.9296  1.3396  0.2823
  109OSM   C13S11249  -0.230   0.120   9.399  0.2435 -0.1110  0.3734
  109OSM   H13S11250  -0.172   0.206   9.441  1.9097  0.1014 -2.1691
  109OSM   H13T11251  -0.335   0.151   9.385  0.6471  1.3107  0.3467
  109OSM   C14S11252  -0.165   0.090   9.266  0.4394  0.4314 -0.3714
  109OSM   H14S11253  -0.214   0.002   9.219  0.9676 -0.8625  1.3962
  109OSM   H14T11254  -0.060   0.061   9.286  0.2764 -1.0913 -1.5541
  109OSM   C15S11255  -0.193   0.210   9.172 -0.2708 -0.8870  0.2011
  109OSM   H15S11256  -0.111   0.211   9.097 -1.1485 -2.4723 -0.8103
  109OSM   H15T11257  -0.182   0.298   9.240 -1.1049 -1.0384  0.5471
  109OSM   C16S11258  -0.316   0.209   9.086  0.1433 -0.6103 -0.1882
  109OSM   H16S11259  -0.337   0.315   9.058 -0.9582 -1.6155 -3.6764
  109OSM   H16T11260  -0.402   0.160   9.135 -0.2623  1.3894  1.2301
  109OSM   C17S11261  -0.297   0.125   8.955 -0.0540  0.4511  0.1695
  109OSM   H17S11262  -0.242   0.033   8.986 -0.4752  0.6202  1.4819
  109OSM   H17T11263  -0.222   0.171   8.887  1.6748 -1.8599  0.3893
  109OSM   C18S11264  -0.434   0.088   8.895 -0.4657 -0.1710 -0.1883
  109OSM   H18S11265  -0.494   0.173   8.857  1.3281  1.0604 -0.3823
  109OSM   H18T11266  -0.493   0.027   8.967 -1.7275 -0.0502 -1.0867
  109OSM   H18U11267  -0.418   0.029   8.802  0.0344  1.0340 -0.8871
  109OSM    C1F11268   0.096  -0.113  10.044  0.2812 -0.0234  0.5393
  109OSM     OF11269   0.173  -0.201  10.086 -0.1652 -0.2015 -0.1050
  109OSM    C2F11270   0.073  -0.082   9.897 -0.3262 -0.5816 -0.6895
  109OSM    H2F11271   0.012   0.008   9.877 -1.6589 -0.6941  2.3271
  109OSM    H2G11272   0.009  -0.162   9.854 -2.9770  0.5047  1.0396
  109OSM    C3F11273   0.204  -0.085   9.809  0.2672  0.3401  0.1466
  109OSM    H3F11274   0.268  -0.173   9.830  0.0861  0.5804  1.8409
  109OSM    H3G11275   0.275  -0.002   9.829 -0.1982 -0.1765  5.2203
  109OSM    C4F11276   0.173  -0.089   9.663 -1.0317 -0.1881 -0.1264
  109OSM    H4F11277   0.143   0.009   9.621 -2.3683 -0.7726 -0.5960
  109OSM    H4G11278   0.087  -0.155   9.637 -0.9966 -1.5588  2.8171
  109OSM    C5F11279   0.292  -0.150   9.585 -0.2720 -0.2564 -0.6114
  109OSM    H5F11280   0.291  -0.258   9.615 -1.2080 -0.0515  0.1517
  109OSM    H5G11281   0.384  -0.096   9.615  0.4620 -1.2229 -1.0550
  109OSM    C6F11282   0.288  -0.149   9.435 -0.4849  0.3079 -0.2504
  109OSM    H6F11283   0.204  -0.218   9.413 -1.9389  1.9509 -0.0040
  109OSM    H6G11284   0.384  -0.190   9.397 -0.7870 -0.1713 -0.5039
  109OSM    C7F11285   0.252  -0.014   9.366 -0.1521 -0.4854 -0.4377
  109OSM    H7F11286   0.321   0.067   9.397 -1.4660 -0.1945  1.9143
  109OSM    H7G11287   0.151   0.012   9.405  0.0549 -0.9675  0.4300
  109OSM    C8F11288   0.262  -0.008   9.212 -0.0791 -0.1531  0.1775
  109OSM    H8F11289   0.344  -0.075   9.178 -0.8922 -1.4442  0.7172
  109OSM    H8G11290   0.282   0.096   9.177  0.4445  0.3532  1.8503
  109OSM    C9F11291   0.146  -0.074   9.136 -0.5895 -0.5381 -0.5747
  109OSM    H9F11292   0.065  -0.125   9.189  0.5071  0.5162  2.2951
  109OSM   C10F11293   0.137  -0.073   9.005  0.1246  0.9014 -0.1097
  109OSM   H10F11294   0.054  -0.131   8.961 -0.3876  0.8311  0.9136
  109OSM   C11F11295   0.225  -0.024   8.899 -0.2732  1.2742 -0.3774
  109OSM   H11F11296   0.239  -0.096   8.816  0.2252  0.6103  0.2803
  109OSM   H11G11297   0.325  -0.008   8.943  0.6941 -0.4467 -1.8084
  109OSM   C12F11298   0.177   0.105   8.834  0.2426  0.5155  0.2087
  109OSM   H12F11299   0.262   0.161   8.788  0.2296  0.4059  0.0516
  109OSM   H12G11300   0.141   0.182   8.906  0.2070  1.7601 -1.0839
  109OSM   C13F11301   0.058   0.078   8.734 -0.2082 -0.2394  0.0125
  109OSM   H13F11302   0.002   0.174   8.724  0.3072 -0.0913 -1.7172
  109OSM   H13G11303  -0.017   0.009   8.778  0.4329  0.0556  1.6250
  109OSM   C14F11304   0.110   0.041   8.595  0.5237  0.4271  0.9990
  109OSM   H14F11305   0.114  -0.070   8.590 -1.7588  0.3644 -1.5512
  109OSM   H14G11306   0.214   0.075   8.577  1.0318 -2.1222 -1.4975
  109OSM   C15F11307   0.010   0.087   8.487 -0.1079  0.1576 -0.0526
  109OSM   H15F11308   0.022   0.198   8.481  0.6345  0.2241  1.9242
  109OSM   H15G11309  -0.092   0.078   8.530 -0.3292  1.7039 -0.1944
  109OSM   C16F11310   0.014   0.012   8.358  0.0912  0.3154  1.1480
  109OSM   H16F11311  -0.066   0.052   8.292  0.7655  2.3783  1.4835
  109OSM   H16G11312  -0.010  -0.096   8.362 -0.4998  0.4479  1.2176
  109OSM   C17F11313   0.151   0.026   8.285 -0.6813  0.0753  0.1081
  109OSM   H17F11314   0.154  -0.031   8.190 -1.5263  1.9431 -1.0958
  109OSM   H17G11315   0.232  -0.011   8.352  0.3816  2.0915  0.0300
  109OSM   C18F11316   0.192   0.173   8.259  0.5025 -0.3541 -0.6181
  109OSM   H18F11317   0.113   0.213   8.192  0.5874 -0.3828 -0.7349
  109OSM   H18G11318   0.290   0.186   8.210 -0.0812 -0.0629 -1.7567
  109OSM   H18H11319   0.192   0.237   8.350 -0.7457 -1.4543  0.1971
  110OSM      N11320   1.181   5.529  10.791  0.8336  0.0531  0.3933
  110OSM    C1511321   1.194   5.601  10.916 -0.6564  0.3316  0.2338
  110OSM   H15A11322   1.128   5.686  10.924 -1.5503 -0.1668 -1.4183
  110OSM   H15B11323   1.292   5.644  10.930 -0.4749 -0.2021  0.6224
  110OSM   H15C11324   1.181   5.542  11.006  1.3011 -0.0937  0.2881
  110OSM    C1411325   1.284   5.424  10.780  0.5331  0.2722  0.7766
  110OSM   H14A11326   1.380   5.465  10.812  0.9227 -1.3675  1.8303
  110OSM   H14B11327   1.295   5.381  10.682  1.9068  0.0329  1.0088
  110OSM   H14C11328   1.257   5.342  10.844 -0.6333  0.3255  0.3659
  110OSM    C1311329   1.046   5.471  10.796  0.1102  0.3085 -0.3086
  110OSM   H13A11330   1.030   5.423  10.891  2.1720 -0.0646 -0.0919
  110OSM   H13B11331   1.029   5.393  10.724  1.4980 -0.5529  0.2428
  110OSM   H13C11332   0.969   5.547  10.793  0.0242  0.2681  0.5904
  110OSM    C1211333   1.191   5.631  10.676 -0.3799 -0.6121 -0.2089
  110OSM   H12A11334   1.100   5.688  10.672 -1.3631 -2.1798 -3.0205
  110OSM   H12B11335   1.201   5.578  10.582  1.5556 -2.9106  1.1902
  110OSM    C1111336   1.302   5.737  10.679  0.1172 -0.4345 -0.3220
  110OSM   H11A11337   1.315   5.775  10.575 -0.4209 -0.4510 -0.4009
  110OSM   H11B11338   1.396   5.684  10.705 -0.2727 -0.5343  0.9289
  110OSM      P11339   1.169   5.941  10.772  0.3946 -0.2243  0.2319
  110OSM    O1311340   1.040   5.873  10.790 -0.1133  0.7059  0.2564
  110OSM    O1411341   1.202   6.049  10.862 -0.3385 -0.0700 -0.3891
  110OSM    O1111342   1.181   5.987  10.617 -0.0502 -0.1753 -0.1329
  110OSM    O1211343   1.287   5.836  10.780 -0.3435  0.1663  0.5773
  110OSM    C1S11344   1.205   6.118  10.569  0.6493  0.1302  0.2167
  110OSM    H1S11345   1.302   6.160  10.601  0.7695 -0.2212  0.3169
  110OSM    H1T11346   1.129   6.195  10.594 -0.9090 -1.5670  0.9892
  110OSM     NF11347   1.231   6.237  10.347  0.1396  0.3354 -1.0667
  110OSM    HNF11348   1.159   6.275  10.289  0.6914  0.5829 -1.6000
  110OSM    C2S11349   1.208   6.108  10.413 -0.1192  0.0605  0.3712
  110OSM    H2S11350   1.294   6.045  10.381 -0.3902  0.4126 -1.1205
  110OSM    C3S11351   1.077   6.039  10.361  0.1058  0.5606 -0.0076
  110OSM    H3S11352   0.984   6.091  10.388  1.3086  1.6152  2.3239
  110OSM     O311353   1.059   5.907  10.410 -0.3218  0.0580  0.4749
  110OSM    HO311354   1.114   5.905  10.489  3.3840  1.8329 -1.7585
  110OSM    C4S11355   1.076   6.030  10.204  0.1238  0.7534 -0.4628
  110OSM    H4S11356   1.031   6.114  10.149 -1.4422  0.1495 -0.1614
  110OSM    C5S11357   1.140   5.934  10.134  0.2460 -0.1088 -0.1591
  110OSM    H5S11358   1.196   5.854  10.185  1.0444 -0.7054 -1.9090
  110OSM    C6S11359   1.151   5.919   9.987 -0.8088 -0.2600  0.0775
  110OSM    H6S11360   1.163   5.812   9.960  0.0626  0.3973 -2.4948
  110OSM    H6T11361   1.245   5.965   9.950 -1.8255  0.9504 -1.0924
  110OSM    C7S11362   1.034   5.981   9.904 -0.0221 -0.1826 -0.4047
  110OSM    H7S11363   1.041   6.092   9.903 -2.8722  0.0777 -0.5655
  110OSM    H7T11364   0.939   5.947   9.951  0.0853  0.8790  0.6510
  110OSM    C8S11365   1.041   5.939   9.753  0.0374 -0.0073 -0.4512
  110OSM    H8S11366   0.990   5.841   9.743  0.2563 -0.0508 -1.2484
  110OSM    H8T11367   1.150   5.921   9.737 -0.0094 -0.0568 -0.7118
  110OSM    C9S11368   0.995   6.047   9.656 -0.5402  0.3783  0.7163
  110OSM    H9S11369   1.071   6.128   9.659 -0.1839  0.0215  2.4963
  110OSM    H9T11370   0.901   6.095   9.690 -0.8299  0.6080 -0.3465
  110OSM   C10S11371   0.963   6.009   9.514 -0.5256 -0.3056  0.4914
  110OSM   H10S11372   0.947   6.105   9.460 -1.7896 -1.9790 -2.3603
  110OSM   H10T11373   0.884   5.934   9.492  1.7613 -2.6175 -0.3400
  110OSM   C11S11374   1.086   5.945   9.440  0.5762 -0.2690  0.6178
  110OSM   H11S11375   1.083   5.836   9.460 -0.2679 -0.1601  1.1691
  110OSM   H11T11376   1.183   5.979   9.482  0.2031  0.9069  0.5835
  110OSM   C12S11377   1.090   5.982   9.284 -0.4799  1.0321 -0.0919
  110OSM   H12S11378   0.995   5.987   9.227  1.2369  0.5943 -3.1637
  110OSM   H12T11379   1.155   5.911   9.230 -0.5943  0.6986  0.2063
  110OSM   C13S11380   1.153   6.118   9.255 -0.2256 -0.4325  0.6390
  110OSM   H13S11381   1.222   6.148   9.336 -1.9636  0.4303  1.8721
  110OSM   H13T11382   1.066   6.186   9.267 -1.2583 -1.1048 -2.1293
  110OSM   C14S11383   1.211   6.140   9.107 -0.7620 -0.6987 -0.0814
  110OSM   H14S11384   1.304   6.083   9.084  0.3424  0.8108  0.4823
  110OSM   H14T11385   1.230   6.249   9.107 -0.3090 -0.7683 -0.9065
  110OSM   C15S11386   1.101   6.124   9.004  0.2282  0.1770  0.1945
  110OSM   H15S11387   1.007   6.166   9.046 -0.1213 -1.2098  0.8549
  110OSM   H15T11388   1.073   6.019   8.982 -0.3098  0.8054 -2.4525
  110OSM   C16S11389   1.138   6.192   8.872  0.1593 -0.0304 -0.4636
  110OSM   H16S11390   1.223   6.143   8.820  0.8178  1.1564 -0.5553
  110OSM   H16T11391   1.168   6.294   8.905 -0.3018 -0.3811  1.1080
  110OSM   C17S11392   1.020   6.212   8.776  0.6864  0.4920 -0.6000
  110OSM   H17S11393   0.950   6.126   8.786  2.1080 -0.7391 -0.9262
  110OSM   H17T11394   1.060   6.202   8.673 -0.7159 -2.4597 -0.9632
  110OSM   C18S11395   0.943   6.335   8.787 -0.4755  0.4107  0.2182
  110OSM   H18S11396   0.857   6.326   8.716 -1.9751  3.0138  1.5804
  110OSM   H18T11397   0.996   6.428   8.760  1.2748  0.1754  2.5875
  110OSM   H18U11398   0.895   6.342   8.886  2.2384 -0.9723  1.7444
  110OSM    C1F11399   1.340   6.310  10.369 -0.0971 -1.1442 -0.3360
  110OSM     OF11400   1.438   6.272  10.428 -0.2615  0.2844 -0.7078
  110OSM    C2F11401   1.348   6.439  10.300 -0.0224  0.1695  0.0497
  110OSM    H2F11402   1.412   6.501  10.367  0.1319 -1.7745  1.7891
  110OSM    H2G11403   1.248   6.484  10.283 -0.6076 -1.2914 -0.4548
  110OSM    C3F11404   1.421   6.415  10.164  0.8517 -0.3069  0.1851
  110OSM    H3F11405   1.522   6.371  10.172  1.1427  0.4943  1.1952
  110OSM    H3G11406   1.437   6.513  10.113  0.0678  0.1799  0.8316
  110OSM    C4F11407   1.344   6.334  10.060 -0.2218  0.1450  0.0940
  110OSM    H4F11408   1.237   6.360  10.048 -0.2564 -0.6160 -1.5765
  110OSM    H4G11409   1.361   6.225  10.073  2.0366  0.2168 -1.7096
  110OSM    C5F11410   1.417   6.359   9.924  0.1144 -0.1438 -0.5321
  110OSM    H5F11411   1.527   6.345   9.924 -0.1784 -2.8100 -0.7490
  110OSM    H5G11412   1.388   6.463   9.898 -1.4619 -0.0807  1.2703
  110OSM    C6F11413   1.360   6.270   9.818 -0.4500 -1.0671  0.4994
  110OSM    H6F11414   1.251   6.246   9.824 -0.2741 -1.6549  1.4600
  110OSM    H6G11415   1.408   6.170   9.816 -1.3382 -1.5034  0.3109
  110OSM    C7F11416   1.375   6.343   9.685 -0.9230  0.9824 -0.0993
  110OSM    H7F11417   1.469   6.401   9.677  0.6753 -1.5775 -1.2766
  110OSM    H7G11418   1.285   6.408   9.682 -2.0000 -0.4736 -1.7587
  110OSM    C8F11419   1.384   6.254   9.557  0.0774  0.6340 -0.5537
  110OSM    H8F11420   1.358   6.320   9.472  0.5221  0.7593 -0.5926
  110OSM    H8G11421   1.305   6.176   9.571  2.3789 -2.2254 -2.3343
  110OSM    C9F11422   1.504   6.178   9.534  0.7001 -0.3293  0.2712
  110OSM    H9F11423   1.545   6.146   9.632 -3.8811 -0.7290  2.2978
  110OSM   C10F11424   1.566   6.155   9.421  0.9152  0.2683  0.5235
  110OSM   H10F11425   1.661   6.100   9.419  1.0805  0.5553  0.2925
  110OSM   C11F11426   1.520   6.204   9.283 -0.3971 -0.0595  0.0587
  110OSM   H11F11427   1.414   6.239   9.288  0.0851  1.7587 -1.3022
  110OSM   H11G11428   1.518   6.103   9.237 -1.0048 -0.0050 -0.0491
  110OSM   C12F11429   1.600   6.317   9.215  0.0064  0.2359  0.4835
  110OSM   H12F11430   1.710   6.302   9.212  0.2613  1.7456  1.0261
  110OSM   H12G11431   1.586   6.400   9.289 -1.0258 -0.9027  1.6204
  110OSM   C13F11432   1.550   6.371   9.079 -0.3136  0.1126 -0.2833
  110OSM   H13F11433   1.570   6.480   9.070 -1.3392  0.6594  2.8884
  110OSM   H13G11434   1.439   6.365   9.083 -0.2631 -0.4409  0.4179
  110OSM   C14F11435   1.601   6.287   8.972  0.7783  0.0781 -0.0791
  110OSM   H14F11436   1.588   6.180   8.997 -0.0550  0.0225 -0.6739
  110OSM   H14G11437   1.710   6.299   8.956  0.8856  2.8931  1.9844
  110OSM   C15F11438   1.535   6.328   8.838 -0.5308  0.5763 -0.1969
  110OSM   H15F11439   1.551   6.438   8.838 -2.1490  0.8922  2.1889
  110OSM   H15G11440   1.427   6.311   8.855 -0.4411 -0.8641 -0.9252
  110OSM   C16F11441   1.599   6.267   8.714 -0.0982  1.0624 -0.4631
  110OSM   H16F11442   1.594   6.158   8.734  0.2076  1.4036  1.7815
  110OSM   H16G11443   1.707   6.290   8.705 -0.0281  1.7678  1.5778
  110OSM   C17F11444   1.514   6.287   8.584  0.3836  0.1650 -0.3760
  110OSM   H17F11445   1.501   6.397   8.573  1.8084  0.5988  1.6237
  110OSM   H17G11446   1.415   6.240   8.602 -0.4438  2.3908  1.4491
  110OSM   C18F11447   1.600   6.227   8.477  0.3128 -0.5016  0.4049
  110OSM   H18F11448   1.695   6.284   8.471 -1.0388  1.7467 -1.2736
  110OSM   H18G11449   1.548   6.223   8.378  1.1374  1.0627 -0.1252
  110OSM   H18H11450   1.618   6.121   8.505  0.1705 -0.8684 -0.8197
  111OSM      N11451   1.958   2.446  11.061 -0.0942 -0.0394 -0.3272
  111OSM    C1511452   2.062   2.338  11.032  0.1819  0.5570 -0.5548
  111OSM   H15A11453   2.024   2.238  11.015  1.2567  0.1017 -0.3575
  111OSM   H15B11454   2.134   2.331  11.112 -1.2519  3.4691  1.1680
  111OSM   H15C11455   2.110   2.360  10.938 -1.1413 -0.5798 -1.5415
  111OSM    C1411456   1.884   2.399  11.188 -0.2552 -0.4721 -0.5033
  111OSM   H14A11457   1.959   2.393  11.266 -0.3348  0.9259 -0.2923
  111OSM   H14B11458   1.846   2.300  11.173  1.7629 -1.1869 -1.3117
  111OSM   H14C11459   1.800   2.461  11.215  0.6969 -0.2223  2.2365
  111OSM    C1311460   2.032   2.571  11.095  0.2247  0.1422  0.1997
  111OSM   H13A11461   1.968   2.657  11.103  1.0132  0.8845 -1.1464
  111OSM   H13B11462   2.108   2.589  11.021 -2.1589  0.1612 -2.3807
  111OSM   H13C11463   2.083   2.557  11.190 -0.3405  1.1346  0.6580
  111OSM    C1211464   1.859   2.474  10.955 -0.3247  0.0719 -0.1421
  111OSM   H12A11465   1.784   2.545  10.987 -0.4999 -0.9863  1.9769
  111OSM   H12B11466   1.793   2.389  10.946 -1.7604  0.7647  2.7556
  111OSM    C1111467   1.915   2.497  10.813  0.8634  0.1603  0.0314
  111OSM   H11A11468   1.835   2.501  10.736 -1.3867  0.4053  2.2531
  111OSM   H11B11469   1.971   2.403  10.791 -0.6622 -1.3717  2.1505
  111OSM      P11470   1.958   2.754  10.790 -0.0408 -0.1600 -0.0128
  111OSM    O1311471   1.840   2.789  10.877 -0.2924  0.6632  0.5830
  111OSM    O1411472   2.082   2.834  10.807  0.7981  0.6833 -0.0670
  111OSM    O1111473   1.921   2.765  10.634 -0.2892 -0.3014  0.1448
  111OSM    O1211474   2.009   2.607  10.804  0.4208 -0.0982  0.5811
  111OSM    C1S11475   2.035   2.771  10.543 -0.3073  0.0817 -0.5696
  111OSM    H1S11476   2.112   2.695  10.569  1.1614  1.9826  0.9424
  111OSM    H1T11477   2.100   2.859  10.563  1.1910 -1.3766  1.3617
  111OSM     NF11478   2.106   2.752  10.308  0.1322  0.4193 -0.4540
  111OSM    HNF11479   2.120   2.839  10.260 -1.7684  0.5107 -0.9381
  111OSM    C2S11480   1.988   2.755  10.396  0.1145 -0.2286  0.4801
  111OSM    H2S11481   1.930   2.661  10.381  1.7645 -1.0156 -1.4786
  111OSM    C3S11482   1.894   2.871  10.359 -0.1076 -0.0916  0.2775
  111OSM    H3S11483   1.974   2.947  10.354 -1.8695  1.9165  1.3010
  111OSM     O311484   1.795   2.902  10.456 -0.0128  0.0067 -0.2743
  111OSM    HO311485   1.830   2.865  10.537 -0.8636  0.4952  0.3350
  111OSM    C4S11486   1.836   2.870  10.215 -0.0538  0.5246  0.1915
  111OSM    H4S11487   1.895   2.930  10.145  0.7596 -0.2168  0.2293
  111OSM    C5S11488   1.715   2.823  10.173  0.5223 -0.8996 -0.0882
  111OSM    H5S11489   1.653   2.776  10.251 -0.4837 -0.9899 -0.9210
  111OSM    C6S11490   1.659   2.822  10.032  0.0439 -0.7287 -0.5006
  111OSM    H6S11491   1.592   2.910  10.020 -0.6003 -0.9684  1.0751
  111OSM    H6T11492   1.603   2.729  10.009 -0.0727 -1.3700  2.0611
  111OSM    C7S11493   1.770   2.840   9.925  0.2366  1.3282 -0.2518
  111OSM    H7S11494   1.845   2.758   9.930 -1.4137 -0.2466 -0.1048
  111OSM    H7T11495   1.808   2.941   9.950  1.3488  0.6412  0.9267
  111OSM    C8S11496   1.736   2.830   9.772  0.1124 -0.1782 -0.5706
  111OSM    H8S11497   1.671   2.743   9.747 -0.6761  0.3937 -0.5403
  111OSM    H8T11498   1.828   2.828   9.709 -1.4064 -2.5361 -2.9512
  111OSM    C9S11499   1.666   2.960   9.730  0.0098  0.8568  0.4002
  111OSM    H9S11500   1.711   3.054   9.768 -0.8404  1.0074  1.0623
  111OSM    H9T11501   1.556   2.973   9.731 -0.0103  0.6859  0.3635
  111OSM   C10S11502   1.691   2.969   9.580 -0.1764 -0.3514  0.3083
  111OSM   H10S11503   1.647   2.881   9.528  0.2379 -0.1144 -0.4672
  111OSM   H10T11504   1.801   2.972   9.561  0.3593 -2.3460  2.5579
  111OSM   C11S11505   1.627   3.096   9.511  0.1887  0.0256 -0.6209
  111OSM   H11S11506   1.665   3.186   9.563 -0.2848 -0.1844  0.1018
  111OSM   H11T11507   1.517   3.088   9.523  0.2638  0.6184  0.5698
  111OSM   C12S11508   1.675   3.117   9.370  0.7329 -0.2910 -0.0484
  111OSM   H12S11509   1.781   3.086   9.375  0.0358 -3.0034 -0.3875
  111OSM   H12T11510   1.665   3.223   9.337  1.0413 -0.3266 -0.2559
  111OSM   C13S11511   1.615   3.018   9.275 -0.1501  0.3675  0.2389
  111OSM   H13S11512   1.504   3.020   9.273 -0.1642  1.2500  0.9617
  111OSM   H13T11513   1.640   2.917   9.312 -1.0523 -0.8172 -2.1645
  111OSM   C14S11514   1.685   3.024   9.134  0.0256 -0.2923 -0.3342
  111OSM   H14S11515   1.646   2.939   9.073  1.3337 -1.6100  0.5835
  111OSM   H14T11516   1.795   3.010   9.142  0.0765 -1.0475 -1.9905
  111OSM   C15S11517   1.646   3.155   9.051  0.2383 -0.4291  0.4218
  111OSM   H15S11518   1.714   3.157   8.963  1.3130  2.4423  1.1995
  111OSM   H15T11519   1.660   3.247   9.111  1.6397 -1.1852  1.3041
  111OSM   C16S11520   1.506   3.142   8.999  0.0145 -0.5287 -0.0325
  111OSM   H16S11521   1.439   3.116   9.084 -1.2388  2.0592 -0.1406
  111OSM   H16T11522   1.500   3.060   8.925 -0.1537 -1.4467  0.9690
  111OSM   C17S11523   1.450   3.274   8.929 -0.1550  0.3874 -0.6685
  111OSM   H17S11524   1.521   3.287   8.845  0.3000 -1.0114 -0.5267
  111OSM   H17T11525   1.469   3.355   9.003  0.0477 -1.9623  1.9900
  111OSM   C18S11526   1.303   3.282   8.889 -0.6074 -0.5030 -0.5876
  111OSM   H18S11527   1.301   3.204   8.809  2.0737 -1.6726  0.3503
  111OSM   H18T11528   1.276   3.380   8.843  0.2505  0.1825  0.3113
  111OSM   H18U11529   1.241   3.261   8.978  0.4738  0.6665  0.4931
  111OSM    C1F11530   2.202   2.662  10.311  0.5624  0.7850 -0.0297
  111OSM     OF11531   2.186   2.555  10.371 -0.1628 -0.3493  0.1302
  111OSM    C2F11532   2.328   2.687  10.240 -0.7683  0.3512 -0.3219
  111OSM    H2F11533   2.405   2.646  10.309 -0.3965  1.5282 -0.0153
  111OSM    H2G11534   2.351   2.794  10.223  1.2634  0.0986  0.5490
  111OSM    C3F11535   2.340   2.610  10.107  0.3464  0.0848 -0.3326
  111OSM    H3F11536   2.336   2.501  10.126 -0.6775  0.1220 -0.2972
  111OSM    H3G11537   2.439   2.630  10.060 -0.7989  2.7627 -1.8475
  111OSM    C4F11538   2.225   2.639   9.995 -0.8599 -0.6657 -0.3743
  111OSM    H4F11539   2.233   2.745   9.964 -0.9960 -0.2426  0.9490
  111OSM    H4G11540   2.128   2.626  10.047 -1.3543  2.3276 -0.3619
  111OSM    C5F11541   2.227   2.545   9.876 -0.6660  0.4263  0.2714
  111OSM    H5F11542   2.224   2.440   9.913 -0.6537 -0.2919 -1.6297
  111OSM    H5G11543   2.321   2.558   9.818  0.6375 -0.5145  2.0460
  111OSM    C6F11544   2.094   2.574   9.796 -0.7761 -0.1528 -0.3778
  111OSM    H6F11545   2.113   2.682   9.774  1.6858 -1.0012 -2.8622
  111OSM    H6G11546   2.003   2.550   9.856 -0.2473  0.7801  0.8574
  111OSM    C7F11547   2.092   2.505   9.657 -0.3364  0.2528  0.3704
  111OSM    H7F11548   1.996   2.527   9.607 -0.2817 -1.6698 -0.6619
  111OSM    H7G11549   2.091   2.395   9.673  1.2863 -0.3979 -3.0544
  111OSM    C8F11550   2.209   2.542   9.568 -0.4054  0.8605 -0.3307
  111OSM    H8F11551   2.198   2.467   9.487  0.5034  0.6722 -0.2970
  111OSM    H8G11552   2.303   2.522   9.625 -1.1574  1.7360  1.2765
  111OSM    C9F11553   2.209   2.684   9.521 -0.3115  0.2527  0.3868
  111OSM    H9F11554   2.194   2.750   9.608  1.8059  0.1118  0.9215
  111OSM   C10F11555   2.217   2.732   9.395 -0.3220  0.3745 -0.1156
  111OSM   H10F11556   2.213   2.841   9.381 -2.0850  0.4026  0.3048
  111OSM   C11F11557   2.241   2.650   9.266 -0.3539  0.7351  0.6108
  111OSM   H11F11558   2.165   2.687   9.195  0.0448  0.7921  0.2058
  111OSM   H11G11559   2.215   2.543   9.282  0.4930  0.0868 -1.8390
  111OSM   C12F11560   2.378   2.648   9.192  0.7867 -0.8963 -1.0818
  111OSM   H12F11561   2.352   2.579   9.108 -0.7271 -0.1121 -1.2975
  111OSM   H12G11562   2.455   2.603   9.259  2.7596  3.0176 -0.4811
  111OSM   C13F11563   2.419   2.794   9.151 -0.5148  0.2998 -0.5228
  111OSM   H13F11564   2.479   2.839   9.233  0.4496  0.3951 -1.2522
  111OSM   H13G11565   2.336   2.862   9.125 -1.1142 -0.0477  0.4328
  111OSM   C14F11566   2.509   2.791   9.030 -0.2468  0.7145  0.1624
  111OSM   H14F11567   2.460   2.768   8.933  0.0122 -1.7433  0.5251
  111OSM   H14G11568   2.586   2.711   9.043  1.8916  2.6238 -0.1660
  111OSM   C15F11569   2.591   2.917   9.003 -0.8186  0.4933 -0.2130
  111OSM   H15F11570   2.597   2.976   9.097 -0.4214 -1.2924  0.9111
  111OSM   H15G11571   2.556   2.980   8.917  1.1207  1.4090 -0.3898
  111OSM   C16F11572   2.737   2.888   8.956 -0.5461  0.2750 -0.5751
  111OSM   H16F11573   2.725   2.829   8.862  2.0682  0.4295 -1.0773
  111OSM   H16G11574   2.789   2.820   9.027  0.4607  1.2000 -0.4128
  111OSM   C17F11575   2.820   3.017   8.935 -0.5394  1.4127 -1.0028
  111OSM   H17F11576   2.924   2.980   8.922 -1.5412 -1.8734 -0.6338
  111OSM   H17G11577   2.795   3.074   9.027  0.2275 -2.1318  1.6111
  111OSM   C18F11578   2.776   3.100   8.812  0.1398  0.4431  0.4290
  111OSM   H18F11579   2.786   3.045   8.717 -1.4511  0.1517  0.4004
  111OSM   H18G11580   2.846   3.187   8.816  1.0722 -0.2617 -0.2418
  111OSM   H18H11581   2.674   3.142   8.822 -0.0823  0.8744 -2.6878
  112OSM      N11582   1.429   1.450  11.326 -0.1915 -0.0636 -0.2215
  112OSM    C1511583   1.450   1.585  11.363 -0.3712  0.3713 -0.3163
  112OSM   H15A11584   1.503   1.588  11.457  1.3312 -0.7659 -1.1678
  112OSM   H15B11585   1.355   1.633  11.382  0.7354  2.0790  1.2096
  112OSM   H15C11586   1.510   1.624  11.282 -0.3819 -0.9257 -0.9754
  112OSM    C1411587   1.552   1.368  11.308  0.0709  0.0250  0.2578
  112OSM   H14A11588   1.592   1.398  11.213 -0.2481  0.6809  0.3246
  112OSM   H14B11589   1.531   1.263  11.299 -0.7800  0.3117 -1.4372
  112OSM   H14C11590   1.619   1.384  11.392 -0.7529 -0.3959  1.0143
  112OSM    C1311591   1.330   1.376  11.413  0.3968  0.2978  0.0984
  112OSM   H13A11592   1.231   1.419  11.415  0.1920 -0.1611  2.5748
  112OSM   H13B11593   1.376   1.381  11.510  1.6257 -3.9211 -0.0469
  112OSM   H13C11594   1.327   1.270  11.392  1.3982 -0.0238  1.4647
  112OSM    C1211595   1.363   1.464  11.189 -0.7303  0.6592  0.1005
  112OSM   H12A11596   1.265   1.508  11.199 -0.6293  0.8125  0.4121
  112OSM   H12B11597   1.347   1.361  11.160  1.2802  0.3422 -0.0684
  112OSM    C1111598   1.439   1.521  11.067  0.3676 -0.2174 -0.1899
  112OSM   H11A11599   1.484   1.620  11.091  0.1685 -0.3976  0.9973
  112OSM   H11B11600   1.369   1.540  10.983 -1.3065  0.1652  1.2413
  112OSM      P11601   1.520   1.324  10.912  0.1673  0.0886 -0.0594
  112OSM    O1311602   1.648   1.297  10.840  0.1382 -0.4218 -0.4943
  112OSM    O1411603   1.454   1.216  10.983  0.4972 -0.7928  0.0127
  112OSM    O1111604   1.418   1.399  10.810  0.0469 -0.0189 -0.5929
  112OSM    O1211605   1.549   1.442  11.016  0.1144  0.1525 -0.5364
  112OSM    C1S11606   1.451   1.519  10.740  0.4634 -0.1841  0.4560
  112OSM    H1S11607   1.542   1.571  10.777  0.6522  1.1107 -1.6966
  112OSM    H1T11608   1.366   1.589  10.751  2.9369  3.4221 -1.5847
  112OSM     NF11609   1.521   1.596  10.510  0.2890 -0.4887  0.2182
  112OSM    HNF11610   1.467   1.623  10.431 -1.6910 -0.8747  1.3894
  112OSM    C2S11611   1.463   1.488  10.584 -0.3210 -0.4527 -0.2919
  112OSM    H2S11612   1.541   1.409  10.578  1.2822  0.9971  0.5300
  112OSM    C3S11613   1.326   1.448  10.525  0.0037  0.7937 -0.4234
  112OSM    H3S11614   1.251   1.528  10.543 -0.1927  0.2763  1.1968
  112OSM     O311615   1.262   1.339  10.593 -0.6748 -0.3419  0.0328
  112OSM    HO311616   1.324   1.326  10.665  0.0453  3.3062  0.2468
  112OSM    C4S11617   1.338   1.422  10.381  0.2904  0.8814  0.6147
  112OSM    H4S11618   1.322   1.516  10.326 -0.3735 -0.8780 -2.4324
  112OSM    C5S11619   1.369   1.309  10.316  0.1460  0.5866  0.1886
  112OSM    H5S11620   1.384   1.215  10.370  0.1172 -0.2182 -1.1657
  112OSM    C6S11621   1.380   1.290  10.168 -0.3528 -0.5111  0.0085
  112OSM    H6S11622   1.296   1.348  10.124  0.9229  2.6581  1.4166
  112OSM    H6T11623   1.371   1.191  10.118 -1.0376  0.7545 -2.5608
  112OSM    C7S11624   1.512   1.348  10.096  0.3468  0.0597  0.2561
  112OSM    H7S11625   1.597   1.288  10.134  0.4122 -0.1239 -0.1735
  112OSM    H7T11626   1.526   1.454  10.124  2.5488  0.1289 -0.9131
  112OSM    C8S11627   1.513   1.350   9.939  0.4428 -0.5720 -0.1534
  112OSM    H8S11628   1.602   1.408   9.907  1.5385 -0.3370  2.9731
  112OSM    H8T11629   1.416   1.393   9.906  0.4912 -1.6103 -1.7554
  112OSM    C9S11630   1.519   1.209   9.884 -0.1698  0.0601  0.2268
  112OSM    H9S11631   1.423   1.152   9.893  0.4504 -0.9539  0.5825
  112OSM    H9T11632   1.606   1.153   9.924  2.0044  2.5030 -0.8162
  112OSM   C10S11633   1.555   1.216   9.733  0.3215 -0.0795 -0.2404
  112OSM   H10S11634   1.584   1.114   9.700  1.2732  0.1416 -0.1328
  112OSM   H10T11635   1.649   1.275   9.729 -0.3747  1.0391 -0.6698
  112OSM   C11S11636   1.445   1.283   9.641 -0.1941  0.2032 -0.2446
  112OSM   H11S11637   1.438   1.390   9.670 -0.2971  0.0854  0.1646
  112OSM   H11T11638   1.348   1.233   9.656 -0.6853  1.0611 -0.4940
  112OSM   C12S11639   1.480   1.274   9.496  0.2853  0.2928  1.0552
  112OSM   H12S11640   1.404   1.337   9.443  0.1736 -0.5367  0.2125
  112OSM   H12T11641   1.470   1.168   9.465  0.5004  0.8499 -1.0891
  112OSM   C13S11642   1.620   1.328   9.467 -0.3742  0.3352  0.0913
  112OSM   H13S11643   1.692   1.265   9.524  0.4998  1.5700  0.3675
  112OSM   H13T11644   1.623   1.431   9.508 -1.4238  0.8588 -1.0942
  112OSM   C14S11645   1.668   1.304   9.323  0.3264 -0.3146 -0.2474
  112OSM   H14S11646   1.679   1.198   9.295 -0.1452 -0.5218  0.3279
  112OSM   H14T11647   1.771   1.344   9.326 -0.2328  1.2546 -0.8600
  112OSM   C15S11648   1.586   1.383   9.215 -0.0868 -0.8440  0.2657
  112OSM   H15S11649   1.576   1.490   9.242  0.9285 -0.7171  0.1787
  112OSM   H15T11650   1.478   1.355   9.217 -0.5768  0.5617 -2.3646
  112OSM   C16S11651   1.648   1.373   9.069  0.2493  0.0009 -0.0158
  112OSM   H16S11652   1.678   1.267   9.050 -2.2292 -1.6822  4.1418
  112OSM   H16T11653   1.738   1.439   9.072  0.2004  0.0506  0.3742
  112OSM   C17S11654   1.552   1.414   8.956  0.3611  0.1494  0.1310
  112OSM   H17S11655   1.537   1.522   8.977  0.4559  0.2219 -0.1676
  112OSM   H17T11656   1.460   1.354   8.963 -0.0898  0.7478 -0.5656
  112OSM   C18S11657   1.613   1.406   8.820  0.7539  0.4910  0.4128
  112OSM   H18S11658   1.713   1.454   8.815  1.1126 -0.3750 -1.6523
  112OSM   H18T11659   1.544   1.446   8.742 -0.4530  0.4996  1.4535
  112OSM   H18U11660   1.627   1.296   8.812 -1.9329  0.1326 -0.5631
  112OSM    C1F11661   1.645   1.646  10.532 -0.3388 -0.3186  0.1203
  112OSM     OF11662   1.724   1.587  10.601 -0.6455 -0.4409 -0.5731
  112OSM    C2F11663   1.691   1.770  10.448  0.0910  0.1631  0.1930
  112OSM    H2F11664   1.701   1.862  10.510  0.3273  0.9297 -0.9448
  112OSM    H2G11665   1.621   1.786  10.363  0.8503 -1.2406 -0.7425
  112OSM    C3F11666   1.839   1.754  10.398  0.7375 -0.0385 -0.4736
  112OSM    H3F11667   1.898   1.708  10.480 -2.4887  2.4936  3.6511
  112OSM    H3G11668   1.884   1.845  10.353 -1.3156  0.7524 -1.0460
  112OSM    C4F11669   1.856   1.657  10.274 -0.4542  0.2178 -1.1035
  112OSM    H4F11670   1.810   1.559  10.302 -0.2934  0.3445 -0.3576
  112OSM    H4G11671   1.965   1.653  10.253 -0.3107 -1.3842 -0.2480
  112OSM    C5F11672   1.788   1.705  10.146 -0.4103  0.2692  0.4101
  112OSM    H5F11673   1.832   1.800  10.110 -0.5747  0.1442 -0.1403
  112OSM    H5G11674   1.679   1.713  10.168 -0.1076 -2.2334  3.5953
  112OSM    C6F11675   1.803   1.595  10.041  0.4910 -0.4734 -0.0935
  112OSM    H6F11676   1.755   1.502  10.080  0.6942 -0.8570 -0.7352
  112OSM    H6G11677   1.910   1.571  10.027  0.7750 -0.4703  1.7819
  112OSM    C7F11678   1.747   1.643   9.908  0.1323  0.2532  0.6867
  112OSM    H7F11679   1.775   1.749   9.890  0.9044 -0.2609 -1.5415
  112OSM    H7G11680   1.637   1.627   9.902  0.1438  0.6930 -1.7905
  112OSM    C8F11681   1.796   1.560   9.784  0.2148  0.1328 -0.1181
  112OSM    H8F11682   1.729   1.587   9.700 -1.4479 -1.0507  0.7649
  112OSM    H8G11683   1.773   1.454   9.806  0.6360  0.0717  0.0376
  112OSM    C9F11684   1.940   1.567   9.753  0.2555  0.2564 -0.4504
  112OSM    H9F11685   2.010   1.517   9.821 -0.8800 -0.0728  0.5140
  112OSM   C10F11686   1.988   1.613   9.636  0.3317 -0.2473  0.7186
  112OSM   H10F11687   2.096   1.605   9.618  0.3343  1.0571  0.0087
  112OSM   C11F11688   1.914   1.676   9.519 -0.1567  0.1723 -0.7703
  112OSM   H11F11689   1.948   1.780   9.503 -0.9986  1.0185  2.2198
  112OSM   H11G11690   1.807   1.693   9.542 -0.3127 -0.4922 -0.9783
  112OSM   C12F11691   1.944   1.579   9.397  0.4301 -0.0825  0.4193
  112OSM   H12F11692   1.912   1.474   9.414  1.3175 -0.4389 -0.0748
  112OSM   H12G11693   2.053   1.569   9.380  0.1478 -0.3761 -1.3122
  112OSM   C13F11694   1.865   1.633   9.268  0.0497 -0.7562  0.5984
  112OSM   H13F11695   1.754   1.625   9.275 -0.1372  0.0031 -0.9617
  112OSM   H13G11696   1.907   1.576   9.183  0.5377 -0.8214  0.8821
  112OSM   C14F11697   1.901   1.782   9.223  0.0567 -0.4233 -0.7286
  112OSM   H14F11698   2.010   1.792   9.237 -0.0340 -0.5072  0.0766
  112OSM   H14G11699   1.838   1.847   9.288  0.0540  0.4657 -1.5999
  112OSM   C15F11700   1.869   1.802   9.073  0.4431  0.3040 -0.1120
  112OSM   H15F11701   1.764   1.766   9.059  0.6340 -1.2382  1.9039
  112OSM   H15G11702   1.939   1.748   9.007  0.3179  0.1560 -0.1246
  112OSM   C16F11703   1.885   1.954   9.028  0.2665  0.5156  0.1516
  112OSM   H16F11704   1.982   1.984   9.073  0.7251 -1.3553  0.4967
  112OSM   H16G11705   1.811   2.013   9.086  0.2192 -2.0641  2.9554
  112OSM   C17F11706   1.877   1.987   8.878 -0.5947  0.0637  0.1998
  112OSM   H17F11707   1.909   2.093   8.870 -0.1051 -0.2239 -2.8939
  112OSM   H17G11708   1.776   1.968   8.836 -0.0088 -4.0530  0.2087
  112OSM   C18F11709   1.982   1.920   8.780  0.1110 -0.3282 -0.3256
  112OSM   H18F11710   2.081   1.914   8.830 -0.1989  0.8259  0.4794
  112OSM   H18G11711   1.985   1.986   8.691  2.4105 -1.5618 -1.2232
  112OSM   H18H11712   1.950   1.821   8.741 -1.1703  1.0103 -2.9985
  113OSM      N11713   0.180   3.554  11.105  0.5037 -0.9199  0.5653
  113OSM    C1511714   0.331   3.528  11.123  0.0593 -0.0011  0.1546
  113OSM   H15A11715   0.369   3.540  11.223 -0.7022 -2.5960  0.8333
  113OSM   H15B11716   0.387   3.592  11.058  1.8172 -1.2199  0.4094
  113OSM   H15C11717   0.361   3.427  11.098  0.5971  0.1245  0.2807
  113OSM    C1411718   0.116   3.478  11.208  0.3395 -0.0247 -0.0167
  113OSM   H14A11719   0.151   3.498  11.308  0.6271 -1.2286  0.1378
  113OSM   H14B11720   0.124   3.373  11.185 -2.3350 -0.7280  1.8581
  113OSM   H14C11721   0.009   3.491  11.210  0.5294  1.9272 -0.7603
  113OSM    C1311722   0.132   3.692  11.135 -0.5454 -0.2499  0.0295
  113OSM   H13A11723   0.025   3.698  11.124 -0.6268  0.2967  1.0563
  113OSM   H13B11724   0.170   3.760  11.059 -0.4378 -0.5081 -0.1502
  113OSM   H13C11725   0.154   3.732  11.233 -1.9625  1.8735 -0.4616
  113OSM    C1211726   0.138   3.517  10.961 -0.3235 -0.3505  0.3283
  113OSM   H12A11727   0.167   3.601  10.899 -2.4190  1.0746  1.1721
  113OSM   H12B11728   0.031   3.524  10.953 -0.4191  3.6375  2.4119
  113OSM    C1111729   0.201   3.387  10.904 -0.0223  0.1569  0.4522
  113OSM   H11A11730   0.309   3.397  10.880  0.4274 -3.7763  0.1041
  113OSM   H11B11731   0.155   3.372  10.804 -0.7923  4.4127 -0.0265
  113OSM      P11732   0.285   3.160  10.994 -0.4513 -0.0950 -0.0782
  113OSM    O1311733   0.417   3.221  11.026 -0.1129 -0.2110  0.4452
  113OSM    O1411734   0.252   3.049  11.088  0.2126 -0.7814  0.3929
  113OSM    O1111735   0.270   3.121  10.845 -0.7632  0.2535 -0.4397
  113OSM    O1211736   0.178   3.277  10.995 -0.4538  0.1734  0.3749
  113OSM    C1S11737   0.149   3.089  10.779 -0.4212  0.0210  0.4028
  113OSM    H1S11738   0.072   3.168  10.788 -0.4953 -0.1752  1.6153
  113OSM    H1T11739   0.111   2.987  10.801  3.0187 -1.2870  0.9802
  113OSM     NF11740   0.076   3.065  10.535  0.4281  0.3282 -1.0433
  113OSM    HNF11741   0.049   2.970  10.522  0.8979  0.1940 -1.0554
  113OSM    C2S11742   0.184   3.078  10.622  0.3754 -0.2969  0.5003
  113OSM    H2S11743   0.236   3.173  10.599  0.4463 -0.6750 -1.0120
  113OSM    C3S11744   0.291   2.963  10.596  0.2807 -0.7348 -0.3919
  113OSM    H3S11745   0.256   2.863  10.630 -0.4113  0.0344  1.2671
  113OSM     O311746   0.414   2.992  10.670  0.1723  0.5509  0.5126
  113OSM    HO311747   0.370   3.037  10.742 -1.8938  1.5397 -1.2349
  113OSM    C4S11748   0.336   2.949  10.451 -1.0651 -0.6765 -1.1891
  113OSM    H4S11749   0.369   3.042  10.401  0.2755 -1.5929 -2.0543
  113OSM    C5S11750   0.337   2.833  10.382 -0.4916  0.2715  0.3138
  113OSM    H5S11751   0.301   2.741  10.429 -0.3634  0.5122  0.8898
  113OSM    C6S11752   0.371   2.845  10.233 -0.0489  0.1559 -0.9976
  113OSM    H6S11753   0.300   2.775  10.186 -1.5872 -0.5275  2.0478
  113OSM    H6T11754   0.476   2.807  10.226 -1.0587 -2.8536 -1.0125
  113OSM    C7S11755   0.359   2.975  10.144 -0.4233 -0.0307  0.7754
  113OSM    H7S11756   0.464   3.010  10.151 -0.1523 -0.4243 -0.8213
  113OSM    H7T11757   0.288   3.045  10.192 -0.6143 -0.1271  0.6355
  113OSM    C8S11758   0.315   2.938  10.003 -0.7649  0.1453  0.2369
  113OSM    H8S11759   0.224   2.874  10.005 -0.7079  0.0510 -0.0890
  113OSM    H8T11760   0.396   2.877   9.957 -0.0109  2.2226 -1.3427
  113OSM    C9S11761   0.300   3.059   9.911 -0.5791 -0.1693  0.3599
  113OSM    H9S11762   0.396   3.115   9.903  0.0812 -1.2872  0.2295
  113OSM    H9T11763   0.224   3.125   9.958  2.4734  2.9594  1.3217
  113OSM   C10S11764   0.249   3.027   9.768 -0.0463  0.0262  0.3900
  113OSM   H10S11765   0.203   2.926   9.771  1.4947 -0.6792  1.6964
  113OSM   H10T11766   0.342   3.025   9.708  0.0724  1.7687  0.4526
  113OSM   C11S11767   0.161   3.142   9.704 -0.5802  0.4981  0.7167
  113OSM   H11S11768   0.224   3.221   9.658 -0.8435  0.0788 -0.4077
  113OSM   H11T11769   0.091   3.180   9.782 -0.1719  0.6767  0.9978
  113OSM   C12S11770   0.075   3.094   9.578 -0.2169  0.6938  0.4986
  113OSM   H12S11771   0.026   3.187   9.541  1.9157  1.1314 -1.4455
  113OSM   H12T11772  -0.008   3.021   9.589  0.6959 -1.1600 -3.2436
  113OSM   C13S11773   0.166   3.041   9.454  0.0599 -0.5898  0.0091
  113OSM   H13S11774   0.121   2.944   9.424 -0.0532 -0.8040  0.8496
  113OSM   H13T11775   0.268   3.020   9.494  0.5505 -0.3052 -1.0690
  113OSM   C14S11776   0.183   3.133   9.336  0.3974 -1.6974 -0.0498
  113OSM   H14S11777   0.268   3.113   9.268 -0.3820 -2.1342 -0.9237
  113OSM   H14T11778   0.190   3.230   9.390  1.3407 -1.5585 -0.4116
  113OSM   C15S11779   0.055   3.124   9.252 -0.6093 -0.5425 -0.3022
  113OSM   H15S11780  -0.039   3.137   9.311 -1.0257 -1.5225 -0.7149
  113OSM   H15T11781   0.044   3.025   9.202  2.2480  0.3068 -2.8696
  113OSM   C16S11782   0.054   3.217   9.135  0.0605 -0.1086  1.1192
  113OSM   H16S11783   0.133   3.190   9.062 -0.2986  0.2795  0.5745
  113OSM   H16T11784   0.059   3.324   9.165 -2.3901  1.0447 -1.9698
  113OSM   C17S11785  -0.082   3.204   9.066 -0.5165  0.6271  0.8385
  113OSM   H17S11786  -0.154   3.223   9.149 -1.2984 -2.3659  0.9668
  113OSM   H17T11787  -0.093   3.098   9.033 -1.5971  0.7071  0.8934
  113OSM   C18S11788  -0.092   3.297   8.945 -0.4104 -0.0227  0.4595
  113OSM   H18S11789  -0.063   3.402   8.969  0.0667 -0.1179  0.3239
  113OSM   H18T11790  -0.199   3.309   8.918 -0.2523  1.6319  0.4337
  113OSM   H18U11791  -0.027   3.261   8.862 -0.5381  0.3959  0.1758
  113OSM    C1F11792   0.002   3.165  10.510  0.1999  0.5851  0.0886
  113OSM     OF11793   0.022   3.278  10.555 -0.0312  0.3417  0.5005
  113OSM    C2F11794  -0.119   3.134  10.429  0.3122  0.2673  0.7228
  113OSM    H2F11795  -0.201   3.146  10.503 -0.6674  1.6316 -0.5208
  113OSM    H2G11796  -0.113   3.029  10.394  1.2959  0.0359  1.5347
  113OSM    C3F11797  -0.144   3.228  10.304 -0.2284  0.1621 -0.3863
  113OSM    H3F11798  -0.160   3.330  10.346  1.1928  0.1007  0.3791
  113OSM    H3G11799  -0.244   3.220  10.258 -0.1611  0.1121 -0.5233
  113OSM    C4F11800  -0.035   3.223  10.197  0.3562 -0.1990 -0.1309
  113OSM    H4F11801  -0.018   3.120  10.158 -1.9780 -1.9696  2.9915
  113OSM    H4G11802   0.054   3.260  10.252 -0.1870 -0.5829  1.0412
  113OSM    C5F11803  -0.065   3.317  10.079 -0.2845  0.2888  0.1918
  113OSM    H5F11804   0.025   3.349  10.023 -0.0149 -0.3683  0.2387
  113OSM    H5G11805  -0.095   3.418  10.114  0.0156  1.0690 -1.7330
  113OSM    C6F11806  -0.169   3.266   9.972  0.1824  0.0553  0.4904
  113OSM    H6F11807  -0.264   3.233  10.020  1.3787 -0.6140  2.5158
  113OSM    H6G11808  -0.126   3.181   9.915 -0.0358 -0.8407  1.6265
  113OSM    C7F11809  -0.208   3.376   9.871 -0.3087  0.9406  0.0540
  113OSM    H7F11810  -0.118   3.432   9.838  1.3022 -2.6452 -2.2527
  113OSM    H7G11811  -0.278   3.447   9.920 -2.0115 -2.9038  3.8187
  113OSM    C8F11812  -0.271   3.319   9.742  0.6488  0.7885  0.3604
  113OSM    H8F11813  -0.368   3.268   9.761  0.7246  0.4614 -0.1258
  113OSM    H8G11814  -0.198   3.250   9.695 -0.5312  0.0247 -0.4109
  113OSM    C9F11815  -0.307   3.423   9.650 -0.9017 -0.3236 -0.0607
  113OSM    H9F11816  -0.324   3.524   9.689 -2.9881 -0.9186  0.6863
  113OSM   C10F11817  -0.350   3.406   9.528  0.0705 -0.1712  0.1277
  113OSM   H10F11818  -0.375   3.497   9.470 -0.4271  0.8122  1.8036
  113OSM   C11F11819  -0.369   3.275   9.460 -0.0960 -0.4927  0.5190
  113OSM   H11F11820  -0.362   3.188   9.528  2.4853  0.0689  1.0935
  113OSM   H11G11821  -0.297   3.256   9.377 -0.2622  1.8333 -0.2442
  113OSM   C12F11822  -0.506   3.272   9.379 -0.1208  0.0914  0.0866
  113OSM   H12F11823  -0.583   3.276   9.459  1.1618 -1.0417  1.4340
  113OSM   H12G11824  -0.527   3.178   9.325  1.5109 -0.5912  0.5762
  113OSM   C13F11825  -0.534   3.395   9.282 -0.4472  0.1244 -0.2604
  113OSM   H13F11826  -0.464   3.481   9.293 -0.5777  0.7133 -3.0811
  113OSM   H13G11827  -0.636   3.433   9.305 -0.7246 -1.3729  1.1505
  113OSM   C14F11828  -0.522   3.348   9.137  0.1056  0.1346  0.4922
  113OSM   H14F11829  -0.575   3.251   9.128 -4.7994  2.5508  0.0507
  113OSM   H14G11830  -0.418   3.333   9.100 -1.0944  1.7132 -4.1988
  113OSM   C15F11831  -0.588   3.439   9.033 -0.2838 -0.4377 -0.3232
  113OSM   H15F11832  -0.697   3.445   9.054  0.1465  3.1940  1.8523
  113OSM   H15G11833  -0.564   3.409   8.929  0.7352  0.5470 -0.3924
  113OSM   C16F11834  -0.542   3.586   9.051 -0.0159 -0.0367 -0.1185
  113OSM   H16F11835  -0.432   3.585   9.069  0.0182 -1.7847 -0.2883
  113OSM   H16G11836  -0.596   3.624   9.141 -2.6391  0.5570 -1.8218
  113OSM   C17F11837  -0.578   3.686   8.939 -0.1120 -0.1483 -0.1464
  113OSM   H17F11838  -0.688   3.700   8.935 -0.2240 -0.8392  0.3487
  113OSM   H17G11839  -0.545   3.635   8.846  0.6814 -0.5341  0.3378
  113OSM   C18F11840  -0.499   3.822   8.962  0.0648  0.2718 -0.1392
  113OSM   H18F11841  -0.529   3.910   8.902 -2.5047 -0.5221 -0.1739
  113OSM   H18G11842  -0.394   3.813   8.927  0.3205  2.2827 -0.0198
  113OSM   H18H11843  -0.512   3.846   9.070 -2.4927 -1.0824 -0.0654
  114OSM      N11844   0.693   0.776  10.991 -0.4720  0.2647  0.1699
  114OSM    C1511845   0.537   0.760  10.986 -0.5436  0.2104 -0.4081
  114OSM   H15A11846   0.493   0.768  11.085  0.1381 -3.8719  0.4000
  114OSM   H15B11847   0.518   0.657  10.959  0.2208  0.2514 -1.1220
  114OSM   H15C11848   0.491   0.833  10.922  0.5910  0.3493 -1.0823
  114OSM    C1411849   0.720   0.924  11.019 -0.2932  1.0265 -1.1643
  114OSM   H14A11850   0.690   0.938  11.122 -1.8281 -0.3721 -1.3746
  114OSM   H14B11851   0.667   0.998  10.962 -0.5638  0.8080 -1.2001
  114OSM   H14C11852   0.824   0.952  11.019 -0.4099  1.4761 -0.6813
  114OSM    C1311853   0.737   0.689  11.105  0.0361  0.4611 -0.6434
  114OSM   H13A11854   0.844   0.690  11.119 -0.0692 -2.0263  0.9802
  114OSM   H13B11855   0.716   0.585  11.084 -0.5237  0.3531  0.3749
  114OSM   H13C11856   0.693   0.710  11.202  1.3196 -0.3059  0.1344
  114OSM    C1211857   0.759   0.736  10.851 -0.3386 -0.0486 -0.9542
  114OSM   H12A11858   0.861   0.769  10.849 -0.1291 -0.6833 -0.8270
  114OSM   H12B11859   0.711   0.796  10.775 -0.8128  0.5432 -0.2094
  114OSM    C1111860   0.751   0.588  10.810  0.1781  0.1062 -0.8170
  114OSM   H11A11861   0.788   0.584  10.705  1.4714 -0.7746 -0.3533
  114OSM   H11B11862   0.647   0.558  10.832  0.1851  0.0193 -0.9033
  114OSM      P11863   0.978   0.519  10.909 -0.1445  0.1929 -0.3141
  114OSM    O1311864   1.021   0.637  10.826 -0.2195 -0.4665 -0.1743
  114OSM    O1411865   1.006   0.519  11.055 -0.0138 -0.2333  0.3609
  114OSM    O1111866   1.026   0.389  10.836 -0.0614  0.1719  0.2898
  114OSM    O1211867   0.830   0.504  10.896  0.0724  0.6941  0.0176
  114OSM    C1S11868   1.002   0.363  10.699  0.2385  0.1274 -0.5245
  114OSM    H1S11869   0.901   0.392  10.663  0.2710 -1.2754 -1.8246
  114OSM    H1T11870   1.009   0.253  10.690  0.5232 -0.1142  1.9748
  114OSM     NF11871   1.080   0.403  10.466  0.1421 -0.2495 -0.2633
  114OSM    HNF11872   1.131   0.330  10.422 -1.2652 -0.4602 -1.6370
  114OSM    C2S11873   1.111   0.424  10.603 -0.0530 -0.2309  0.1521
  114OSM    H2S11874   1.117   0.534  10.616  0.0245 -0.0813 -1.0750
  114OSM    C3S11875   1.249   0.375  10.640  0.2684 -0.0529 -0.3480
  114OSM    H3S11876   1.253   0.264  10.634 -0.2780 -0.2627  2.0627
  114OSM     O311877   1.279   0.390  10.776  0.3644 -0.5439  0.0036
  114OSM    HO311878   1.192   0.410  10.811  0.1157  1.1576 -1.4765
  114OSM    C4S11879   1.362   0.431  10.557  0.6312  0.5563  0.9914
  114OSM    H4S11880   1.389   0.533  10.587  1.3735  0.0597  2.1181
  114OSM    C5S11881   1.442   0.366  10.470 -0.0477  0.0269 -0.2083
  114OSM    H5S11882   1.431   0.257  10.460  0.8146 -0.7208  4.5043
  114OSM    C6S11883   1.559   0.430  10.401  0.0718  0.2598  0.5083
  114OSM    H6S11884   1.639   0.359  10.430  0.2902 -0.2613 -1.2762
  114OSM    H6T11885   1.584   0.531  10.439  0.6644 -0.5490  2.3858
  114OSM    C7S11886   1.552   0.418  10.242 -0.2791 -0.0175  0.4372
  114OSM    H7S11887   1.505   0.321  10.216 -1.9860  0.1710  2.5486
  114OSM    H7T11888   1.652   0.422  10.193  0.5989 -1.1990  2.0230
  114OSM    C8S11889   1.464   0.527  10.184  0.2721  0.1496  0.6908
  114OSM    H8S11890   1.490   0.626  10.228 -1.0349  0.5948  0.5249
  114OSM    H8T11891   1.358   0.512  10.213 -0.1531 -1.2375 -1.3354
  114OSM    C9S11892   1.476   0.534  10.028  0.9189  0.0072  0.8964
  114OSM    H9S11893   1.581   0.550   9.997  0.1399  2.3312 -0.8993
  114OSM    H9T11894   1.411   0.615   9.988  1.6728  0.2822  0.1966
  114OSM   C10S11895   1.417   0.409   9.968 -0.0147 -0.4826 -0.1121
  114OSM   H10S11896   1.312   0.399  10.003  0.9139 -2.6409  2.4242
  114OSM   H10T11897   1.476   0.321  10.003  0.0295 -0.0652  0.8940
  114OSM   C11S11898   1.433   0.416   9.814  0.8123 -0.8081  0.0750
  114OSM   H11S11899   1.461   0.316   9.776  2.2744 -0.6732  0.6948
  114OSM   H11T11900   1.523   0.477   9.790 -0.2706  0.6327 -0.4749
  114OSM   C12S11901   1.301   0.474   9.749 -0.3244  0.2509  0.6808
  114OSM   H12S11902   1.261   0.559   9.808 -1.5714  1.0347 -1.1743
  114OSM   H12T11903   1.221   0.397   9.738  1.7318 -1.8798 -0.0830
  114OSM   C13S11904   1.320   0.523   9.603 -0.1739 -0.1627 -0.1676
  114OSM   H13S11905   1.410   0.587   9.611 -0.3114  0.8222 -4.4725
  114OSM   H13T11906   1.225   0.574   9.580  0.3735  0.0625 -2.1069
  114OSM   C14S11907   1.322   0.411   9.498 -0.2072 -0.0556  0.8778
  114OSM   H14S11908   1.242   0.334   9.505  0.1329 -0.5150 -0.1294
  114OSM   H14T11909   1.413   0.348   9.511  2.9903  3.8983 -0.0980
  114OSM   C15S11910   1.333   0.485   9.354  0.5497  0.5604 -0.5239
  114OSM   H15S11911   1.417   0.557   9.359  1.2714 -0.2627 -0.5907
  114OSM   H15T11912   1.244   0.552   9.345  0.5896  0.9204  1.4221
  114OSM   C16S11913   1.330   0.387   9.231 -0.3301 -0.5618  0.1712
  114OSM   H16S11914   1.409   0.309   9.235 -2.1506 -2.6879 -2.2034
  114OSM   H16T11915   1.344   0.457   9.147 -0.8946  0.7915  1.1697
  114OSM   C17S11916   1.182   0.331   9.218 -0.0136  0.5539  0.1225
  114OSM   H17S11917   1.114   0.416   9.243 -0.3797  0.5409 -0.7846
  114OSM   H17T11918   1.151   0.260   9.297 -0.1377 -0.9075 -1.2024
  114OSM   C18S11919   1.141   0.266   9.086  0.4328  0.7709  0.3049
  114OSM   H18S11920   1.054   0.199   9.101  1.7865 -1.3921 -0.8912
  114OSM   H18T11921   1.224   0.199   9.055 -0.2992 -0.3984  0.8177
  114OSM   H18U11922   1.116   0.346   9.013 -0.3596 -1.5608 -2.1544
  114OSM    C1F11923   0.973   0.461  10.411  0.2522 -0.7248  0.7645
  114OSM     OF11924   0.901   0.548  10.461 -0.0162 -0.2989 -0.6071
  114OSM    C2F11925   0.952   0.433  10.262 -0.6235 -0.4929  0.0369
  114OSM    H2F11926   0.913   0.330  10.247  0.9618 -0.8370 -2.0887
  114OSM    H2G11927   1.055   0.432  10.222  0.0792 -2.0684  1.7709
  114OSM    C3F11928   0.861   0.545  10.198 -0.0879  0.0763  0.2753
  114OSM    H3F11929   0.892   0.646  10.230  2.9030 -0.3213 -1.0557
  114OSM    H3G11930   0.754   0.542  10.228  0.2610 -0.7001  1.5409
  114OSM    C4F11931   0.875   0.539  10.049 -0.2661 -0.4979  0.4047
  114OSM    H4F11932   0.851   0.443   9.998  0.1629  0.0411 -0.8475
  114OSM    H4G11933   0.977   0.572  10.020 -0.0293 -0.6682  1.0232
  114OSM    C5F11934   0.772   0.647   9.997 -0.2349 -0.2082 -0.7870
  114OSM    H5F11935   0.794   0.748  10.039  2.2089 -1.3394  0.9347
  114OSM    H5G11936   0.671   0.614  10.030 -1.3083  0.3335 -3.2892
  114OSM    C6F11937   0.764   0.667   9.841 -0.0590 -0.5016 -0.1962
  114OSM    H6F11938   0.867   0.654   9.802  0.4457  1.2206  0.4711
  114OSM    H6G11939   0.727   0.770   9.822 -0.4222 -0.6846 -0.5050
  114OSM    C7F11940   0.674   0.563   9.771 -0.0066 -0.4725  0.3757
  114OSM    H7F11941   0.568   0.591   9.787 -0.0066  0.7084 -1.4320
  114OSM    H7G11942   0.696   0.466   9.819 -0.3721 -1.7142 -1.8031
  114OSM    C8F11943   0.697   0.544   9.624  0.4617 -0.1129 -0.4801
  114OSM    H8F11944   0.673   0.644   9.583 -0.2853  0.6695  1.6884
  114OSM    H8G11945   0.625   0.470   9.582  2.0127 -2.3869  0.6262
  114OSM    C9F11946   0.836   0.502   9.593 -0.2820  0.1751  0.3537
  114OSM    H9F11947   0.878   0.420   9.653 -1.6522 -2.0451 -1.5787
  114OSM   C10F11948   0.901   0.551   9.485 -0.2213 -0.1715 -0.1723
  114OSM   H10F11949   1.004   0.518   9.464  0.0394  0.5427 -0.0448
  114OSM   C11F11950   0.844   0.646   9.382 -0.4990  0.0006 -0.7129
  114OSM   H11F11951   0.917   0.723   9.353  2.9299 -1.8276  2.1875
  114OSM   H11G11952   0.754   0.696   9.425 -0.6473 -1.7656  1.2191
  114OSM   C12F11953   0.789   0.571   9.258  0.4395  0.0107  0.4250
  114OSM   H12F11954   0.692   0.520   9.274 -0.1342  0.7076 -0.6437
  114OSM   H12G11955   0.858   0.489   9.228  1.3450  0.8924  0.0321
  114OSM   C13F11956   0.769   0.670   9.139 -0.5273 -0.7201 -0.3680
  114OSM   H13F11957   0.860   0.728   9.114  0.2015 -2.7229 -2.8822
  114OSM   H13G11958   0.683   0.737   9.157  1.2826  2.2803 -2.0587
  114OSM   C14F11959   0.708   0.605   9.009  0.7722 -0.4984 -0.3770
  114OSM   H14F11960   0.630   0.529   9.031 -1.5522  1.9260  0.2226
  114OSM   H14G11961   0.794   0.556   8.958 -0.3816 -0.8634 -2.0541
  114OSM   C15F11962   0.626   0.703   8.921 -0.0089 -0.0168 -0.5875
  114OSM   H15F11963   0.549   0.762   8.976 -1.4148 -1.2979 -1.1261
  114OSM   H15G11964   0.572   0.639   8.849  0.2466 -1.2502  0.2794
  114OSM   C16F11965   0.726   0.798   8.842  1.0916 -0.3411  0.5762
  114OSM   H16F11966   0.752   0.725   8.762 -0.0549 -1.3891  1.1178
  114OSM   H16G11967   0.820   0.829   8.893  1.1052 -0.5947  0.7057
  114OSM   C17F11968   0.654   0.921   8.803 -0.4013 -0.1634  0.2047
  114OSM   H17F11969   0.644   0.988   8.891 -1.8736  0.8598 -0.6915
  114OSM   H17G11970   0.549   0.894   8.779 -0.4657  0.5436 -0.3625
  114OSM   C18F11971   0.726   0.990   8.677  0.1810  0.4482  0.0806
  114OSM   H18F11972   0.711   0.941   8.578 -1.4278 -1.2367  1.0876
  114OSM   H18G11973   0.835   0.999   8.691  0.4086 -0.1689 -1.1370
  114OSM   H18H11974   0.696   1.097   8.669  0.6216  0.7626  2.1855
  115OSM      N11975   5.113   6.164  10.819  0.0508 -0.0957 -0.3071
  115OSM    C1511976   5.013   6.195  10.931  0.2721 -1.1593 -0.4070
  115OSM   H15A11977   5.033   6.291  10.977  0.5575 -1.4963  0.1797
  115OSM   H15B11978   5.014   6.117  11.005  0.6387  0.8218  1.8004
  115OSM   H15C11979   4.912   6.193  10.892  0.2769 -0.2114 -0.5013
  115OSM    C1411980   5.124   6.292  10.737 -0.2929 -0.2224 -0.9681
  115OSM   H14A11981   5.034   6.297  10.676 -1.1178 -0.4290  0.1888
  115OSM   H14B11982   5.192   6.284  10.654 -0.6514  0.9328 -1.3925
  115OSM   H14C11983   5.147   6.375  10.802 -0.5608 -1.1475  0.3448
  115OSM    C1311984   5.242   6.135  10.882  0.2116  0.4970  0.1159
  115OSM   H13A11985   5.273   6.211  10.952  1.3502 -0.4879  0.7187
  115OSM   H13B11986   5.315   6.132  10.803  1.8510  1.5061  1.5221
  115OSM   H13C11987   5.251   6.050  10.949  1.2537  1.0134  0.6640
  115OSM    C1211988   5.066   6.045  10.743 -0.4152 -0.3416  0.4419
  115OSM   H12A11989   5.153   6.011  10.690 -0.3176  2.6954 -1.5947
  115OSM   H12B11990   4.981   6.066  10.679 -0.0554  1.4109  0.4864
  115OSM    C1111991   5.046   5.914  10.824  0.1049  0.5467 -0.3540
  115OSM   H11A11992   5.134   5.884  10.885 -0.8939  1.3751  1.5628
  115OSM   H11B11993   5.024   5.836  10.748 -2.4205 -0.3635  1.1929
  115OSM      P11994   4.785   5.930  10.869 -0.0207 -0.0051 -0.0734
  115OSM    O1311995   4.717   5.843  10.962  0.1066  0.4705 -0.3426
  115OSM    O1411996   4.732   6.070  10.861  0.0901  0.0633  0.2049
  115OSM    O1111997   4.782   5.868  10.720  0.2411  0.5507  0.3546
  115OSM    O1211998   4.933   5.916  10.915  0.1231  0.2317  0.7806
  115OSM    C1S11999   4.662   5.830  10.654 -0.1480 -0.6764  0.1976
  115OSM    H1S12000   4.580   5.893  10.696  0.2189  0.4450 -0.6948
  115OSM    H1T12001   4.638   5.722  10.663 -0.6520 -0.4522  2.0953
  115OSM     NF12002   4.546   5.850  10.437  0.0256 -0.7917  0.3165
  115OSM    HNF12003   4.517   5.764  10.394  1.6801 -0.2371 -2.0767
  115OSM    C2S12004   4.676   5.867  10.504  0.8201  0.0313  0.4358
  115OSM    H2S12005   4.719   5.969  10.496  0.9714 -0.0765 -0.1465
  115OSM    C3S12006   4.793   5.783  10.444  0.0977  0.1313 -0.1815
  115OSM    H3S12007   4.772   5.678  10.474 -0.6014  0.1586 -0.5465
  115OSM     O312008   4.919   5.831  10.485  0.2522 -0.1962  0.3180
  115OSM    HO312009   4.898   5.890  10.558  1.4453 -1.9549  2.2388
  115OSM    C4S12010   4.791   5.783  10.291 -0.5754 -0.3508  0.0320
  115OSM    H4S12011   4.772   5.880  10.242 -2.0940 -0.6358 -0.0011
  115OSM    C5S12012   4.789   5.672  10.215 -0.5211 -0.5046  0.4635
  115OSM    H5S12013   4.803   5.569  10.253  3.6228 -0.6826 -1.0323
  115OSM    C6S12014   4.783   5.662  10.065 -0.4066  0.0746 -0.1616
  115OSM    H6S12015   4.784   5.762  10.016  1.6013  1.0207  1.6603
  115OSM    H6T12016   4.689   5.608  10.040 -0.0161 -1.8433  2.1333
  115OSM    C7S12017   4.889   5.577   9.991  0.2813 -1.0016  0.1448
  115OSM    H7S12018   4.875   5.471  10.022  0.5775 -0.4955  2.1759
  115OSM    H7T12019   4.990   5.607  10.026 -0.0514 -0.6494  0.8294
  115OSM    C8S12020   4.881   5.593   9.837  0.3561  0.5210  0.2105
  115OSM    H8S12021   4.885   5.700   9.807  1.3693  0.3422 -0.3382
  115OSM    H8T12022   4.789   5.543   9.801  0.8906 -0.9212  0.7911
  115OSM    C9S12023   5.005   5.525   9.770  0.3639 -0.1507 -0.1548
  115OSM    H9S12024   5.024   5.422   9.809  1.4497  0.0510 -0.1162
  115OSM    H9T12025   5.092   5.578   9.814  1.4784 -1.3247 -0.8793
  115OSM   C10S12026   4.992   5.536   9.617  0.1014  0.1222  0.1499
  115OSM   H10S12027   4.991   5.636   9.569  0.9857  0.5347  0.9632
  115OSM   H10T12028   4.896   5.483   9.596 -1.0574  1.5781  1.5278
  115OSM   C11S12029   5.101   5.454   9.540  0.1174  0.9496 -0.1352
  115OSM   H11S12030   5.111   5.357   9.592 -0.1177 -1.0668 -3.5527
  115OSM   H11T12031   5.195   5.513   9.541 -0.2438  1.5547 -0.6897
  115OSM   C12S12032   5.065   5.427   9.397 -0.1029 -0.3338  0.4019
  115OSM   H12S12033   5.052   5.523   9.343  0.0043 -0.4346  0.1979
  115OSM   H12T12034   4.966   5.375   9.396  0.4344 -1.3940 -1.3173
  115OSM   C13S12035   5.153   5.331   9.322  0.3159 -0.1015 -0.1001
  115OSM   H13S12036   5.124   5.234   9.366 -0.5286  1.6742  3.6180
  115OSM   H13T12037   5.256   5.365   9.343  0.4600 -0.9212  0.5418
  115OSM   C14S12038   5.145   5.332   9.171  0.8659 -0.0571 -0.3333
  115OSM   H14S12039   5.162   5.437   9.139  2.2570 -0.1549 -0.0005
  115OSM   H14T12040   5.045   5.298   9.137  1.5870 -2.1116 -0.5421
  115OSM   C15S12041   5.256   5.259   9.099 -0.5153 -0.2789 -0.6876
  115OSM   H15S12042   5.257   5.155   9.139 -0.1411  0.7147  2.1032
  115OSM   H15T12043   5.345   5.308   9.145 -1.5314  0.4909  0.5200
  115OSM   C16S12044   5.268   5.270   8.945  0.9477  0.1061 -0.1792
  115OSM   H16S12045   5.252   5.377   8.922 -2.4049 -0.4413 -0.8980
  115OSM   H16T12046   5.192   5.223   8.879 -0.6069  2.5075 -0.2334
  115OSM   C17S12047   5.415   5.247   8.891  0.3389  0.1772  0.4250
  115OSM   H17S12048   5.489   5.321   8.928  1.6385 -0.7839 -0.1533
  115OSM   H17T12049   5.408   5.261   8.781 -0.8075  1.9373  0.6828
  115OSM   C18S12050   5.466   5.110   8.917 -0.1986 -0.2323 -0.1617
  115OSM   H18S12051   5.502   5.105   9.022  0.1824  0.8344 -0.2323
  115OSM   H18T12052   5.554   5.090   8.852  0.4213  2.4702 -0.2569
  115OSM   H18U12053   5.389   5.033   8.892 -0.6833 -0.5338  2.0748
  115OSM    C1F12054   4.451   5.946  10.454  0.6017 -0.2070  0.7044
  115OSM     OF12055   4.490   6.057  10.496 -0.5221  0.1837 -0.1862
  115OSM    C2F12056   4.305   5.917  10.427 -0.1401  0.6126  0.3489
  115OSM    H2F12057   4.244   5.967  10.506 -0.8342 -0.2717  0.3809
  115OSM    H2G12058   4.287   5.808  10.422  2.2700  0.1467  0.4729
  115OSM    C3F12059   4.260   5.974  10.293  0.3902 -0.6208 -0.3469
  115OSM    H3F12060   4.286   6.082  10.298  2.0185 -0.9005 -1.8977
  115OSM    H3G12061   4.148   5.974  10.294  0.3776  0.9422  0.1286
  115OSM    C4F12062   4.311   5.910  10.165 -0.1851 -0.2120  0.2518
  115OSM    H4F12063   4.302   5.801  10.183  1.1146 -0.1302  1.6752
  115OSM    H4G12064   4.417   5.936  10.145  0.3821 -1.2754  1.6774
  115OSM    C5F12065   4.225   5.946  10.047 -0.3790 -0.4042  0.3327
  115OSM    H5F12066   4.210   6.055  10.028 -0.7520 -0.8175 -2.0149
  115OSM    H5G12067   4.126   5.904  10.077 -1.0535 -0.2507 -1.5595
  115OSM    C6F12068   4.262   5.877   9.908 -0.0943 -0.5806  0.0203
  115OSM    H6F12069   4.361   5.924   9.895 -0.1403 -0.2206  0.8867
  115OSM    H6G12070   4.197   5.917   9.827  0.5509  0.5497  0.0466
  115OSM    C7F12071   4.260   5.726   9.908  0.8535  0.1330 -0.6080
  115OSM    H7F12072   4.154   5.694   9.920  0.7178 -0.5313 -3.0450
  115OSM    H7G12073   4.305   5.696  10.005 -0.8384 -0.9053 -0.0976
  115OSM    C8F12074   4.324   5.668   9.777  0.3119 -0.1790 -0.0188
  115OSM    H8F12075   4.293   5.562   9.780  1.7782 -0.6027  1.1038
  115OSM    H8G12076   4.435   5.674   9.777  0.3495 -0.8183 -0.4618
  115OSM    C9F12077   4.290   5.748   9.646  0.5218 -0.0884  0.1262
  115OSM    H9F12078   4.186   5.784   9.643  0.1166 -1.2242  0.0690
  115OSM   C10F12079   4.357   5.743   9.529 -0.1368 -0.1386  0.3084
  115OSM   H10F12080   4.331   5.798   9.437 -0.4689 -1.6590 -0.5367
  115OSM   C11F12081   4.491   5.666   9.519  0.3991 -0.6170 -0.9441
  115OSM   H11F12082   4.484   5.564   9.560 -1.7608  0.3757  1.4020
  115OSM   H11G12083   4.569   5.719   9.578 -0.3337  0.0160 -0.5163
  115OSM   C12F12084   4.545   5.672   9.378  0.7556 -0.1652  0.3747
  115OSM   H12F12085   4.559   5.777   9.343 -0.9891  0.3737  1.2107
  115OSM   H12G12086   4.472   5.636   9.303  0.3786  1.6662 -0.1763
  115OSM   C13F12087   4.681   5.598   9.369 -0.1974  0.0642  0.4912
  115OSM   H13F12088   4.662   5.518   9.443 -1.9995 -0.3963 -0.4251
  115OSM   H13G12089   4.773   5.652   9.400  0.4546  0.3614 -1.7590
  115OSM   C14F12090   4.713   5.534   9.230  0.4532  0.5090  0.1073
  115OSM   H14F12091   4.624   5.481   9.191  0.9997 -0.7043  0.4507
  115OSM   H14G12092   4.790   5.454   9.229 -0.3181 -0.2641  0.6887
  115OSM   C15F12093   4.761   5.640   9.129  0.4446  0.0228  0.1209
  115OSM   H15F12094   4.854   5.689   9.166 -2.2293  6.4542 -0.3621
  115OSM   H15G12095   4.691   5.726   9.125  2.1289  1.4466  0.0058
  115OSM   C16F12096   4.763   5.587   8.988 -0.1975 -0.4691 -0.8734
  115OSM   H16F12097   4.789   5.680   8.934  0.2032  1.7845  2.7952
  115OSM   H16G12098   4.660   5.553   8.964 -0.7762 -1.0259  1.9303
  115OSM   C17F12099   4.866   5.485   8.985 -0.5955  0.7082  0.4711
  115OSM   H17F12100   4.813   5.400   9.033 -0.6481 -0.0330 -0.8346
  115OSM   H17G12101   4.955   5.522   9.041 -0.0257  0.2999 -0.1352
  115OSM   C18F12102   4.903   5.437   8.847  0.4562 -0.4190  0.1265
  115OSM   H18F12103   4.998   5.378   8.845  0.4067 -0.5539 -2.6479
  115OSM   H18G12104   4.913   5.528   8.784  0.1372  0.0181  0.7011
  115OSM   H18H12105   4.824   5.376   8.798 -0.2709  1.8583 -1.7347
  116OSM      N12106   1.914   1.589  10.937  0.3048  0.7152 -0.0285
  116OSM    C1512107   2.012   1.658  11.029 -0.2359 -0.5902 -0.6039
  116OSM   H15A12108   1.988   1.763  11.036 -0.6567 -0.7922  2.4493
  116OSM   H15B12109   2.112   1.640  10.993  0.8987  1.4243  1.3459
  116OSM   H15C12110   2.008   1.616  11.129  0.0308 -2.1411 -1.2194
  116OSM    C1412111   1.923   1.627  10.794 -0.3741 -0.3747  0.0388
  116OSM   H14A12112   1.913   1.733  10.773 -0.1795 -0.5771 -1.1484
  116OSM   H14B12113   1.858   1.568  10.731  2.1307 -1.1306 -2.0503
  116OSM   H14C12114   2.021   1.596  10.759  0.4285  2.2098 -0.2436
  116OSM    C1312115   1.943   1.443  10.941  0.1011 -0.0054 -0.1936
  116OSM   H13A12116   1.872   1.370  10.904  2.8339 -1.0402 -4.0810
  116OSM   H13B12117   1.965   1.417  11.044  0.1112  0.6774 -0.0211
  116OSM   H13C12118   2.034   1.419  10.887  1.6789  2.6421  1.0822
  116OSM    C1212119   1.774   1.617  10.980  0.1904 -0.1070  0.7839
  116OSM   H12A12120   1.761   1.599  11.086 -0.6573  1.5565  1.0026
  116OSM   H12B12121   1.715   1.543  10.929  1.8829 -1.2915  0.4531
  116OSM    C1112122   1.712   1.759  10.963 -0.6888 -0.4594  0.1237
  116OSM   H11A12123   1.606   1.770  10.995 -0.4240  0.3211  0.7775
  116OSM   H11B12124   1.708   1.773  10.853  0.4873 -0.1729  0.1029
  116OSM      P12125   1.769   2.012  10.988 -0.1070 -0.1933 -0.2475
  116OSM    O1312126   1.627   2.057  11.003  0.4615  1.3500 -0.2361
  116OSM    O1412127   1.861   2.093  11.062 -0.2237  0.4782 -0.3220
  116OSM    O1112128   1.819   2.002  10.841 -0.2520 -0.2936 -0.0254
  116OSM    O1212129   1.782   1.857  11.035  0.0604 -0.1393 -0.1776
  116OSM    C1S12130   1.950   2.020  10.800  0.3561  0.2333 -0.2756
  116OSM    H1S12131   2.014   1.938  10.838  0.2142 -0.1985 -0.9520
  116OSM    H1T12132   1.983   2.125  10.817 -0.2523  0.4333 -0.2991
  116OSM     NF12133   2.102   1.985  10.590  0.4144  0.4727  0.2173
  116OSM    HNF12134   2.142   2.042  10.519 -0.0235 -0.5399 -0.8786
  116OSM    C2S12135   1.962   2.003  10.643  0.2861  0.3218  0.7150
  116OSM    H2S12136   1.902   1.913  10.618 -0.2113  0.8472 -0.0023
  116OSM    C3S12137   1.892   2.122  10.584  0.1145  0.5874  0.1111
  116OSM    H3S12138   1.928   2.216  10.631  0.9241  1.3002 -1.8384
  116OSM     O312139   1.752   2.120  10.611 -0.3855  0.3220 -0.4129
  116OSM    HO312140   1.741   2.050  10.675  0.9732 -0.0110 -0.5103
  116OSM    C4S12141   1.899   2.120  10.439 -0.0610  0.5173 -0.6150
  116OSM    H4S12142   1.844   2.034  10.398 -1.4398 -0.2639  2.5563
  116OSM    C5S12143   1.953   2.205  10.352  0.7876  0.3475  1.0109
  116OSM    H5S12144   1.995   2.299  10.390  0.7925  0.0949  1.6425
  116OSM    C6S12145   1.963   2.196  10.201 -0.0416  0.1790 -0.5859
  116OSM    H6S12146   2.061   2.148  10.182 -1.1581 -2.7165  0.4799
  116OSM    H6T12147   1.989   2.295  10.158  1.3965  0.8250  1.6429
  116OSM    C7S12148   1.857   2.109  10.127  0.2249 -0.2430  0.2017
  116OSM    H7S12149   1.757   2.148  10.156 -0.7383 -0.4437 -2.5548
  116OSM    H7T12150   1.852   2.001  10.152 -2.7303  0.0307  1.2309
  116OSM    C8S12151   1.877   2.125   9.972 -1.2297 -0.1704  0.1727
  116OSM    H8S12152   1.923   2.220   9.936  0.7171 -0.8843  0.6260
  116OSM    H8T12153   1.781   2.110   9.918 -0.3143 -2.3347 -0.9559
  116OSM    C9S12154   1.962   2.010   9.921 -0.3658 -0.3638 -0.0855
  116OSM    H9S12155   1.942   1.909   9.963  2.2139 -1.0407 -0.3006
  116OSM    H9T12156   2.067   2.032   9.949 -0.5021  0.5231 -0.2303
  116OSM   C10S12157   1.958   1.988   9.770  0.4890 -0.0398 -0.0641
  116OSM   H10S12158   1.855   1.960   9.738  0.0921  1.1497  0.0854
  116OSM   H10T12159   2.027   1.905   9.745  0.6280  0.3777 -1.1165
  116OSM   C11S12160   1.992   2.116   9.685 -0.4954  0.6226 -0.8501
  116OSM   H11S12161   2.095   2.145   9.714 -0.4763 -0.8078  0.6978
  116OSM   H11T12162   1.919   2.198   9.703  0.0864  1.2119 -1.1278
  116OSM   C12S12163   2.005   2.077   9.540  0.4018  0.3239  0.0459
  116OSM   H12S12164   1.904   2.051   9.502 -0.3956  1.3095  1.4274
  116OSM   H12T12165   2.074   1.990   9.530  1.0565  0.6920  1.1515
  116OSM   C13S12166   2.065   2.198   9.466 -0.0167  0.2575 -0.3934
  116OSM   H13S12167   2.175   2.208   9.479  0.0187 -0.8406  0.2477
  116OSM   H13T12168   2.004   2.277   9.514  2.7904  2.6514 -0.5034
  116OSM   C14S12169   2.042   2.182   9.313 -0.2629  0.2200  0.2642
  116OSM   H14S12170   1.933   2.172   9.293 -0.1670  0.3217 -0.3092
  116OSM   H14T12171   2.086   2.084   9.286  0.2750  0.3394  0.6775
  116OSM   C15S12172   2.106   2.297   9.229 -0.2262  0.6225 -0.2467
  116OSM   H15S12173   2.217   2.288   9.232 -0.3793 -1.6707  1.2242
  116OSM   H15T12174   2.071   2.394   9.271  1.6301  0.4997  1.7618
  116OSM   C16S12175   2.051   2.287   9.082 -0.4597  0.3323  0.1751
  116OSM   H16S12176   1.941   2.302   9.087 -0.6208  0.3301 -2.3820
  116OSM   H16T12177   2.063   2.185   9.041 -2.7338  0.7737 -1.7997
  116OSM   C17S12178   2.101   2.404   8.993 -0.6402 -0.2428 -0.6397
  116OSM   H17S12179   2.212   2.399   8.994 -0.3678  2.5832  3.1550
  116OSM   H17T12180   2.059   2.499   9.031  0.6411  0.8456 -1.8458
  116OSM   C18S12181   2.045   2.398   8.851  0.0405 -1.1290  0.0469
  116OSM   H18S12182   2.077   2.296   8.820 -2.9643 -2.4514  0.9508
  116OSM   H18T12183   2.076   2.485   8.790 -1.5902  1.3003  2.4773
  116OSM   H18U12184   1.934   2.398   8.846  0.0515 -3.0549 -1.7001
  116OSM    C1F12185   2.186   1.887  10.611  0.5441  0.4116 -0.0063
  116OSM     OF12186   2.161   1.800  10.690 -0.3254  0.0660 -0.0420
  116OSM    C2F12187   2.315   1.879  10.533  0.2281  0.0745  0.0332
  116OSM    H2F12188   2.391   1.849  10.608 -1.2825 -3.2628  0.4054
  116OSM    H2G12189   2.337   1.983  10.499 -0.5962 -0.2678 -1.6678
  116OSM    C3F12190   2.325   1.782  10.408  0.3794 -0.0653 -0.7496
  116OSM    H3F12191   2.285   1.684  10.443 -1.1716  1.2004  1.2286
  116OSM    H3G12192   2.424   1.750  10.367 -0.4531 -1.8153 -1.5267
  116OSM    C4F12193   2.241   1.835  10.300  1.1822 -0.3680  1.1573
  116OSM    H4F12194   2.265   1.936  10.261  0.3667 -0.9092 -0.8687
  116OSM    H4G12195   2.134   1.839  10.328 -0.2865 -0.0523 -3.6023
  116OSM    C5F12196   2.261   1.742  10.180  0.2026 -0.1427 -0.4651
  116OSM    H5F12197   2.225   1.639  10.203 -0.7552 -0.1951 -2.0451
  116OSM    H5G12198   2.370   1.748  10.161  0.2623  0.7067  0.1198
  116OSM    C6F12199   2.179   1.782  10.066  0.7390 -0.2099  0.1401
  116OSM    H6F12200   2.189   1.891  10.045 -0.7661  0.0986  0.8580
  116OSM    H6G12201   2.074   1.748  10.084  0.7169 -1.5739 -2.2648
  116OSM    C7F12202   2.224   1.699   9.940  0.6006 -0.2104 -0.3084
  116OSM    H7F12203   2.143   1.711   9.865  0.0322 -0.7918  0.2030
  116OSM    H7G12204   2.214   1.593   9.971  0.2365  0.4173  1.8823
  116OSM    C8F12205   2.359   1.735   9.880  0.3605  0.1537  0.1304
  116OSM    H8F12206   2.446   1.724   9.948  1.3296 -0.1988 -1.1491
  116OSM    H8G12207   2.360   1.839   9.842 -2.1833  0.7695  1.4764
  116OSM    C9F12208   2.401   1.634   9.773  0.8243  0.6041 -0.2674
  116OSM    H9F12209   2.454   1.543   9.807  0.2276 -0.2125 -1.4626
  116OSM   C10F12210   2.376   1.648   9.638  0.2688 -0.4587  0.1313
  116OSM   H10F12211   2.409   1.567   9.571  2.6009  0.0854  0.5348
  116OSM   C11F12212   2.306   1.763   9.566 -0.8025  0.6291  0.2955
  116OSM   H11F12213   2.208   1.797   9.604 -0.6086  3.0649 -1.1893
  116OSM   H11G12214   2.283   1.710   9.471  0.9422 -0.3176  0.3455
  116OSM   C12F12215   2.395   1.886   9.541 -0.4228 -0.2543  0.5005
  116OSM   H12F12216   2.504   1.865   9.539 -0.6063 -1.3532 -1.4657
  116OSM   H12G12217   2.386   1.951   9.630 -0.2670  0.0668  0.2813
  116OSM   C13F12218   2.362   1.962   9.412 -0.4643  0.3060  1.1082
  116OSM   H13F12219   2.389   2.069   9.423 -2.1801  0.8048  0.8630
  116OSM   H13G12220   2.252   1.974   9.397 -0.5822 -0.2546  1.5232
  116OSM   C14F12221   2.434   1.901   9.291  0.6384  0.1019 -0.3970
  116OSM   H14F12222   2.366   1.825   9.245 -1.1651  0.0910  2.0966
  116OSM   H14G12223   2.526   1.855   9.333 -0.2067 -0.8929  0.4363
  116OSM   C15F12224   2.454   2.014   9.191  0.1698 -0.4385  0.5961
  116OSM   H15F12225   2.526   2.093   9.220  1.1095  0.0697 -2.7794
  116OSM   H15G12226   2.347   2.043   9.179 -0.1520 -1.7088  0.2358
  116OSM   C16F12227   2.494   1.966   9.049 -0.5078  0.2505 -0.2937
  116OSM   H16F12228   2.407   1.920   8.996 -2.2686 -0.4794  2.9340
  116OSM   H16G12229   2.574   1.891   9.069  0.4581  1.3287 -0.0405
  116OSM   C17F12230   2.541   2.080   8.951  0.9680  0.3117 -0.4313
  116OSM   H17F12231   2.556   2.037   8.850 -0.1252 -1.1135 -0.0263
  116OSM   H17G12232   2.639   2.119   8.987 -0.8686  2.4858  2.7779
  116OSM   C18F12233   2.437   2.196   8.941 -0.1353 -0.4477  0.0159
  116OSM   H18F12234   2.464   2.269   8.862  1.3068 -1.0237 -0.0603
  116OSM   H18G12235   2.432   2.251   9.037  1.8519  0.6782 -0.4642
  116OSM   H18H12236   2.337   2.153   8.918 -0.7458  0.1410  1.4585
  117OSM      N12237   0.869   4.102  10.890 -0.8093  0.2387  0.3649
  117OSM    C1512238   0.837   4.218  10.799 -0.5333  0.0057 -0.1205
  117OSM   H15A12239   0.880   4.304  10.848 -0.4942  0.2784 -0.6287
  117OSM   H15B12240   0.730   4.215  10.788 -0.4539 -0.8006 -0.8352
  117OSM   H15C12241   0.887   4.206  10.704  1.0990  2.3431  0.3574
  117OSM    C1412242   1.021   4.106  10.925  0.1085 -0.2537  0.6475
  117OSM   H14A12243   1.036   4.210  10.947  0.6577  0.1880 -1.5747
  117OSM   H14B12244   1.073   4.081  10.834  1.2100 -0.5750  1.3518
  117OSM   H14C12245   1.049   4.045  11.010  0.7856  1.9712  2.1004
  117OSM    C1312246   0.780   4.108  11.016 -0.6609 -0.5946  0.0101
  117OSM   H13A12247   0.798   4.025  11.083 -0.9011 -1.3536 -0.8537
  117OSM   H13B12248   0.675   4.102  10.991 -0.6809  0.6034 -0.2463
  117OSM   H13C12249   0.788   4.202  11.069 -0.7836  0.2907 -1.4789
  117OSM    C1212250   0.839   3.973  10.829 -0.1165  0.0688  0.5931
  117OSM   H12A12251   0.864   3.899  10.904  0.7210  2.6786  3.0477
  117OSM   H12B12252   0.903   3.967  10.743 -1.5219 -0.2676 -0.4787
  117OSM    C1112253   0.693   3.949  10.781 -0.2360 -0.3214 -0.6766
  117OSM   H11A12254   0.695   3.858  10.717 -0.9803 -1.9697  1.4931
  117OSM   H11B12255   0.652   4.026  10.713 -3.1081 -2.7299 -1.8568
  117OSM      P12256   0.594   3.787  10.959  0.0660 -0.0072 -0.0288
  117OSM    O1312257   0.728   3.762  11.011 -0.0201 -0.1888  0.1253
  117OSM    O1412258   0.476   3.798  11.047  1.0360 -0.5659 -0.6275
  117OSM    O1112259   0.564   3.682  10.844  0.6288 -0.3674  0.0548
  117OSM    O1212260   0.601   3.924  10.887 -0.1369  0.0692  0.5029
  117OSM    C1S12261   0.462   3.702  10.746  0.0107 -0.1609 -0.1146
  117OSM    H1S12262   0.446   3.812  10.733  1.7785 -0.1367 -3.2956
  117OSM    H1T12263   0.367   3.661  10.786  1.4327 -3.5937  0.0135
  117OSM     NF12264   0.404   3.679  10.509  0.7723  0.3817  0.4725
  117OSM    HNF12265   0.322   3.623  10.494  0.3456  0.9703  0.5720
  117OSM    C2S12266   0.494   3.632  10.609 -0.3404  0.2087  0.0977
  117OSM    H2S12267   0.595   3.657  10.570  0.5488 -1.1666  1.3966
  117OSM    C3S12268   0.506   3.476  10.637  0.2889 -0.1760  0.7844
  117OSM    H3S12269   0.406   3.448  10.677 -0.8066  1.7147 -0.5180
  117OSM     O312270   0.603   3.441  10.740  0.5367 -0.1419  0.3045
  117OSM    HO312271   0.606   3.522  10.792 -1.1795  0.7319 -0.8525
  117OSM    C4S12272   0.542   3.400  10.509  0.7523  0.4517  0.4074
  117OSM    H4S12273   0.649   3.412  10.484  0.7065  1.7773  0.7814
  117OSM    C5S12274   0.458   3.326  10.433  0.3188  0.1994  0.1205
  117OSM    H5S12275   0.352   3.320  10.462 -0.3234 -0.5022 -2.1443
  117OSM    C6S12276   0.502   3.266  10.301 -0.0114  0.6146  0.0377
  117OSM    H6S12277   0.422   3.197  10.265  0.1298  0.6503 -0.3525
  117OSM    H6T12278   0.580   3.188  10.311 -0.3413 -0.3481 -3.4328
  117OSM    C7S12279   0.539   3.362  10.189  0.0196 -0.0929 -0.7190
  117OSM    H7S12280   0.575   3.299  10.104 -0.3716 -3.0772  1.1831
  117OSM    H7T12281   0.623   3.427  10.221  1.3746 -1.8890 -0.4545
  117OSM    C8S12282   0.425   3.463  10.141 -0.5989  0.8185 -0.0419
  117OSM    H8S12283   0.473   3.563  10.145 -0.3444  0.6624  0.7711
  117OSM    H8T12284   0.354   3.457  10.226  0.5878  1.3497  1.0047
  117OSM    C9S12285   0.380   3.437   9.996 -0.0945 -0.9487 -0.3933
  117OSM    H9S12286   0.349   3.333   9.972  1.1426 -1.3223 -0.4624
  117OSM    H9T12287   0.472   3.445   9.933  0.5068 -2.1035  0.3162
  117OSM   C10S12288   0.270   3.534   9.944 -0.0505 -0.3315  0.2291
  117OSM   H10S12289   0.295   3.641   9.962 -0.6134  0.1173 -1.4722
  117OSM   H10T12290   0.173   3.515   9.994  0.9369 -0.7172  2.1036
  117OSM   C11S12291   0.254   3.488   9.797 -0.2834 -0.0419 -0.8844
  117OSM   H11S12292   0.220   3.383   9.808 -1.5955  0.2986 -1.5195
  117OSM   H11T12293   0.352   3.484   9.744  1.1076 -1.5632  1.5951
  117OSM   C12S12294   0.154   3.576   9.720  0.5518 -0.5686  0.2471
  117OSM   H12S12295   0.186   3.682   9.717  2.7507 -1.1854 -0.2546
  117OSM   H12T12296   0.056   3.569   9.771 -0.2021  1.4866 -0.8333
  117OSM   C13S12297   0.140   3.529   9.575  0.9085  0.4263  0.3567
  117OSM   H13S12298   0.120   3.420   9.580 -0.6909  0.5738 -1.6431
  117OSM   H13T12299   0.227   3.541   9.507 -0.2446 -2.2271 -1.7689
  117OSM   C14S12300   0.017   3.589   9.503 -0.0865  0.1840  0.0351
  117OSM   H14S12301   0.038   3.698   9.508  2.0251 -0.0707 -1.5498
  117OSM   H14T12302  -0.070   3.569   9.569  0.9230  1.1215  1.7369
  117OSM   C15S12303  -0.008   3.532   9.360 -0.0946  0.0320 -0.7659
  117OSM   H15S12304  -0.014   3.421   9.359  2.6911 -0.2006 -0.3152
  117OSM   H15T12305   0.081   3.554   9.297  1.6109  0.9364  1.7523
  117OSM   C16S12306  -0.126   3.601   9.292 -0.1104  0.1572 -0.5160
  117OSM   H16S12307  -0.213   3.623   9.356 -0.5037 -0.4486 -0.8334
  117OSM   H16T12308  -0.167   3.525   9.222 -1.6857 -0.3211  0.8833
  117OSM   C17S12309  -0.092   3.734   9.223  0.4135  0.0950 -0.7499
  117OSM   H17S12310  -0.007   3.720   9.153  1.7066  0.4870  0.6912
  117OSM   H17T12311  -0.073   3.814   9.298 -1.4538 -1.1864  1.1910
  117OSM   C18S12312  -0.205   3.777   9.139  0.9161  0.4814  0.3047
  117OSM   H18S12313  -0.242   3.706   9.062 -1.8208  2.4757 -0.3638
  117OSM   H18T12314  -0.193   3.876   9.091 -1.2561 -0.0790 -1.5718
  117OSM   H18U12315  -0.290   3.784   9.209  0.4618 -1.4491  0.0101
  117OSM    C1F12316   0.395   3.799  10.459  0.5420  1.0532 -0.1819
  117OSM     OF12317   0.467   3.886  10.503 -0.4921 -0.2436  0.5390
  117OSM    C2F12318   0.306   3.819  10.344 -0.3740  0.1834  0.8899
  117OSM    H2F12319   0.231   3.891  10.382 -1.2024 -0.7946  1.1555
  117OSM    H2G12320   0.262   3.718  10.327 -0.3143 -0.0283  1.8893
  117OSM    C3F12321   0.376   3.871  10.220 -0.3430  0.4744  0.0008
  117OSM    H3F12322   0.443   3.787  10.192  1.6811  2.3496 -1.0377
  117OSM    H3G12323   0.425   3.970  10.228 -1.3046  1.2037 -2.3701
  117OSM    C4F12324   0.284   3.896  10.093  0.3665 -0.2913  0.3533
  117OSM    H4F12325   0.207   3.972  10.118 -0.4897  0.0023 -2.7591
  117OSM    H4G12326   0.224   3.809  10.060 -0.0505  0.1699 -0.1271
  117OSM    C5F12327   0.356   3.958   9.970 -0.3023 -0.3395  0.3784
  117OSM    H5F12328   0.450   3.899   9.958 -0.4513 -0.3563 -0.7689
  117OSM    H5G12329   0.383   4.062   9.995  0.6742 -1.1128  2.9001
  117OSM    C6F12330   0.288   3.952   9.840  0.3774 -0.4767  0.1023
  117OSM    H6F12331   0.187   3.998   9.854  0.8851  0.9609 -0.6862
  117OSM    H6G12332   0.289   3.852   9.793  0.0994  0.0506 -1.0501
  117OSM    C7F12333   0.353   4.030   9.728 -0.7295  0.2259  0.5063
  117OSM    H7F12334   0.441   3.970   9.696 -1.9305 -0.5496 -1.4929
  117OSM    H7G12335   0.369   4.138   9.750  0.8832  0.7635 -2.7194
  117OSM    C8F12336   0.260   4.022   9.601  0.2043  0.2602 -0.5802
  117OSM    H8F12337   0.161   4.061   9.632 -0.8609 -2.2143 -0.6000
  117OSM    H8G12338   0.243   3.912   9.595  3.3245 -0.4062  0.7785
  117OSM    C9F12339   0.321   4.080   9.480 -1.2175  0.3874 -0.5299
  117OSM    H9F12340   0.367   4.179   9.496 -4.1887  2.0777 -1.5430
  117OSM   C10F12341   0.328   4.030   9.356  0.3243 -0.3940 -0.4218
  117OSM   H10F12342   0.395   4.079   9.284  1.9240 -2.4365 -0.4258
  117OSM   C11F12343   0.268   3.901   9.297 -0.3116  0.5912 -0.0002
  117OSM   H11F12344   0.186   3.928   9.227  0.2017 -0.2928 -0.9643
  117OSM   H11G12345   0.231   3.829   9.373 -1.1144  0.5581 -0.4113
  117OSM   C12F12346   0.363   3.820   9.211 -0.2738 -0.1212 -0.3578
  117OSM   H12F12347   0.310   3.731   9.171 -0.8790 -0.1320  0.4339
  117OSM   H12G12348   0.455   3.801   9.270  0.9462  1.6518 -1.6079
  117OSM   C13F12349   0.418   3.901   9.094 -0.0071  0.3743  0.1194
  117OSM   H13F12350   0.476   3.825   9.036 -0.1194  1.1089 -0.9928
  117OSM   H13G12351   0.488   3.983   9.121 -1.5834  1.6234  0.5137
  117OSM   C14F12352   0.309   3.949   8.993 -0.0891  1.0048  0.7027
  117OSM   H14F12353   0.349   4.003   8.904 -0.9055 -0.2541 -0.4798
  117OSM   H14G12354   0.242   4.025   9.037 -1.2201  1.6201 -1.9025
  117OSM   C15F12355   0.210   3.835   8.945 -0.2436  0.3715  0.8632
  117OSM   H15F12356   0.152   3.809   9.035  2.8603 -1.2077  2.5800
  117OSM   H15G12357   0.265   3.741   8.922 -1.4572  0.2746 -2.0537
  117OSM   C16F12358   0.141   3.876   8.816  0.6137  0.0360  0.2100
  117OSM   H16F12359   0.191   3.962   8.765  0.4367  1.7313  2.7396
  117OSM   H16G12360   0.046   3.930   8.835  0.3617 -0.0578 -0.6879
  117OSM   C17F12361   0.091   3.753   8.739 -0.1369 -0.6192  0.2502
  117OSM   H17F12362   0.179   3.695   8.704  1.0386  1.1647  0.1331
  117OSM   H17G12363   0.047   3.794   8.646 -0.4687  0.1737  0.7498
  117OSM   C18F12364  -0.012   3.670   8.822 -0.0414 -0.1460  0.9130
  117OSM   H18F12365  -0.051   3.591   8.754 -1.9276 -0.0656  1.8465
  117OSM   H18G12366  -0.104   3.721   8.857 -1.8920 -1.0215 -2.2209
  117OSM   H18H12367   0.035   3.614   8.905 -1.5320  0.8326  2.4742
  118OSM      N12368   5.076   3.997  10.633  0.4241 -0.3879 -0.1854
  118OSM    C1512369   5.042   4.140  10.623 -0.2393 -0.4888  0.1042
  118OSM   H15A12370   4.939   4.155  10.652 -0.1465 -1.2241  0.8606
  118OSM   H15B12371   5.053   4.180  10.523  0.4014 -2.0717 -0.4851
  118OSM   H15C12372   5.119   4.196  10.675  1.6125 -2.4829 -0.3720
  118OSM    C1412373   5.067   3.966  10.776 -0.0179 -0.9520  0.6775
  118OSM   H14A12374   4.978   4.002  10.826 -0.5988  0.5740 -1.3462
  118OSM   H14B12375   5.152   3.998  10.834 -0.7600 -0.5204  1.5541
  118OSM   H14C12376   5.067   3.858  10.786 -0.3147 -1.0178  0.0466
  118OSM    C1312377   4.977   3.926  10.548  0.0038 -0.7953  0.0605
  118OSM   H13A12378   4.998   3.821  10.535 -1.0112 -1.2012  1.4604
  118OSM   H13B12379   4.973   3.981  10.455  0.2377  1.4074  1.2830
  118OSM   H13C12380   4.881   3.938  10.597  0.4426 -0.8134  0.9522
  118OSM    C1212381   5.212   3.972  10.572 -0.6439 -0.5152 -0.5490
  118OSM   H12A12382   5.213   4.003  10.468  0.8900 -0.3953 -0.5246
  118OSM   H12B12383   5.222   3.865  10.562 -0.5285 -0.4311 -1.4935
  118OSM    C1112384   5.342   4.026  10.642 -0.3981  0.0429  0.2038
  118OSM   H11A12385   5.324   4.136  10.646 -0.1894  0.0852  0.0246
  118OSM   H11B12386   5.426   4.012  10.571 -0.7554  2.3557 -0.7659
  118OSM      P12387   5.408   3.818  10.786 -0.6246  0.2846 -0.2797
  118OSM    O1312388   5.498   3.823  10.900 -0.7266  0.5633  0.0667
  118OSM    O1412389   5.286   3.729  10.789 -0.1516 -0.3025 -0.6704
  118OSM    O1112390   5.491   3.785  10.659 -0.5934 -0.6202  0.3855
  118OSM    O1212391   5.362   3.968  10.762 -0.8837  0.2795  0.1316
  118OSM    C1S12392   5.470   3.678  10.574  0.7010  0.4881 -0.1705
  118OSM    H1S12393   5.367   3.639  10.580  0.0785  2.1644  0.8405
  118OSM    H1T12394   5.534   3.591  10.599 -0.7137 -0.1708  1.2669
  118OSM     NF12395   5.417   3.640  10.328 -0.1896  0.2851  0.4337
  118OSM    HNF12396   5.465   3.573  10.273  0.5783  0.8325  0.4135
  118OSM    C2S12397   5.497   3.720  10.425  0.0562 -0.6009 -0.2313
  118OSM    H2S12398   5.465   3.826  10.420  0.4650 -0.3406  1.8284
  118OSM    C3S12399   5.648   3.714  10.394 -0.9534 -0.0914 -0.1670
  118OSM    H3S12400   5.684   3.609  10.394  0.2512  0.2966 -0.8846
  118OSM     O312401   5.737   3.779  10.492 -0.0083 -0.0449 -0.5508
  118OSM    HO312402   5.679   3.811  10.562 -1.0116 -1.7909 -0.5168
  118OSM    C4S12403   5.680   3.761  10.259  0.9705  0.0723 -0.1596
  118OSM    H4S12404   5.710   3.677  10.195 -0.3061 -1.5901  1.2880
  118OSM    C5S12405   5.673   3.887  10.214  0.2059  0.2402  0.0519
  118OSM    H5S12406   5.651   3.964  10.289  1.9729  0.1129  0.7640
  118OSM    C6S12407   5.708   3.934  10.068  0.4644  0.1288  0.2509
  118OSM    H6S12408   5.796   3.888  10.019 -0.8493 -0.2259 -1.9075
  118OSM    H6T12409   5.728   4.044  10.064  0.8188  0.0367 -2.6354
  118OSM    C7S12410   5.592   3.889   9.978  0.2621 -0.1470  0.0625
  118OSM    H7S12411   5.494   3.928  10.014 -0.0321  0.7431 -1.5793
  118OSM    H7T12412   5.578   3.779   9.981 -0.3447 -0.1215 -1.1805
  118OSM    C8S12413   5.597   3.941   9.831  0.3151  0.1656 -0.5137
  118OSM    H8S12414   5.511   3.900   9.774  1.1163  1.1821 -2.5396
  118OSM    H8T12415   5.694   3.894   9.805  1.2273 -0.1545  2.9636
  118OSM    C9S12416   5.589   4.089   9.819  0.2258  0.2982 -0.1190
  118OSM    H9S12417   5.660   4.146   9.883  1.9363 -0.9383 -0.8452
  118OSM    H9T12418   5.493   4.126   9.861  0.9014 -1.6142  3.5362
  118OSM   C10S12419   5.631   4.137   9.678 -0.3827 -0.5703 -0.2708
  118OSM   H10S12420   5.741   4.130   9.677 -0.3099  0.0735  1.1491
  118OSM   H10T12421   5.590   4.240   9.663 -2.3378 -1.4961 -1.9046
  118OSM   C11S12422   5.565   4.047   9.569  0.6959  0.5788 -0.2904
  118OSM   H11S12423   5.458   4.037   9.599  1.1391 -2.0804  0.6750
  118OSM   H11T12424   5.600   3.942   9.570 -0.5834  0.1298  0.5241
  118OSM   C12S12425   5.570   4.103   9.426 -1.2036  0.1770 -0.1385
  118OSM   H12S12426   5.676   4.115   9.394 -0.8177 -1.4159  0.4506
  118OSM   H12T12427   5.529   4.206   9.434 -0.3960  0.3417  3.4935
  118OSM   C13S12428   5.503   4.026   9.317 -0.5385  0.0525 -0.2728
  118OSM   H13S12429   5.395   4.016   9.343 -0.5931  2.5309  0.7205
  118OSM   H13T12430   5.534   3.920   9.318 -0.4303  0.0635 -1.1740
  118OSM   C14S12431   5.534   4.090   9.183 -0.4569  0.3472 -0.3009
  118OSM   H14S12432   5.642   4.097   9.161 -0.0546 -3.8621 -0.5967
  118OSM   H14T12433   5.485   4.188   9.199 -0.2376 -0.0410  4.1793
  118OSM   C15S12434   5.465   4.031   9.057 -0.1984 -0.1000  0.2599
  118OSM   H15S12435   5.358   4.037   9.085  0.4867 -0.8665  3.4173
  118OSM   H15T12436   5.491   3.924   9.044 -0.5251 -0.0685 -0.7243
  118OSM   C16S12437   5.498   4.110   8.929 -0.1331 -0.4187  0.3667
  118OSM   H16S12438   5.607   4.130   8.921 -0.2224  0.5591  1.3285
  118OSM   H16T12439   5.467   4.213   8.954 -2.0208 -0.8570 -0.0081
  118OSM   C17S12440   5.432   4.063   8.805  0.9921 -0.1374  0.2365
  118OSM   H17S12441   5.322   4.059   8.821  0.6287  2.2319 -1.2095
  118OSM   H17T12442   5.456   3.958   8.779 -0.8606 -0.2963 -1.0593
  118OSM   C18S12443   5.443   4.147   8.676  0.2047  0.4671  0.0287
  118OSM   H18S12444   5.545   4.119   8.643  0.7163  0.8448  1.2154
  118OSM   H18T12445   5.433   4.257   8.694  0.0750  0.3162  0.9663
  118OSM   H18U12446   5.369   4.110   8.602  0.1852  1.5099 -0.4877
  118OSM    C1F12447   5.285   3.638  10.317  0.0172 -0.0061  0.2315
  118OSM     OF12448   5.217   3.719  10.383 -0.1819 -0.3354  0.4584
  118OSM    C2F12449   5.225   3.536  10.225 -0.2524  0.0956 -0.7260
  118OSM    H2F12450   5.130   3.495  10.264  0.5398 -0.7889  0.3407
  118OSM    H2G12451   5.297   3.453  10.208 -0.0361  0.3344 -0.9958
  118OSM    C3F12452   5.180   3.607  10.095  0.3305  0.1059 -0.1987
  118OSM    H3F12453   5.130   3.705  10.114 -0.8595 -0.4347 -0.5029
  118OSM    H3G12454   5.098   3.543  10.057 -0.4103  1.1313 -0.3828
  118OSM    C4F12455   5.281   3.623   9.980 -0.9432  0.2656  0.0340
  118OSM    H4F12456   5.342   3.533   9.961  1.8058  2.5837 -3.5395
  118OSM    H4G12457   5.352   3.708   9.991 -0.6594  0.3747 -2.2053
  118OSM    C5F12458   5.216   3.637   9.846  0.2821  0.5980  0.0080
  118OSM    H5F12459   5.158   3.732   9.857  1.5247  1.4105 -0.3105
  118OSM    H5G12460   5.148   3.551   9.827  0.6989  0.5487 -1.3431
  118OSM    C6F12461   5.316   3.654   9.724 -0.4696  0.2782 -0.3121
  118OSM    H6F12462   5.365   3.554   9.726  0.7549  0.8536 -0.9196
  118OSM    H6G12463   5.392   3.734   9.739  0.4056 -0.6950  0.6761
  118OSM    C7F12464   5.243   3.688   9.593 -0.2775 -0.1046 -0.1557
  118OSM    H7F12465   5.314   3.756   9.541 -0.3359 -0.6874 -1.0357
  118OSM    H7G12466   5.149   3.740   9.619 -1.7978 -3.9503  3.0899
  118OSM    C8F12467   5.197   3.570   9.500  0.2741  0.7709  0.2560
  118OSM    H8F12468   5.121   3.618   9.434 -0.3550  0.2902  0.6300
  118OSM    H8G12469   5.131   3.498   9.553  1.3692  0.4151  1.1729
  118OSM    C9F12470   5.307   3.499   9.425  0.1054 -0.3283 -0.1448
  118OSM    H9F12471   5.365   3.435   9.492 -1.8345 -2.4653 -0.3720
  118OSM   C10F12472   5.352   3.519   9.296  0.1380  0.4275 -0.0437
  118OSM   H10F12473   5.435   3.462   9.252 -1.6708 -2.0481 -0.4529
  118OSM   C11F12474   5.289   3.625   9.198 -0.0829 -0.4543 -0.5642
  118OSM   H11F12475   5.373   3.689   9.163  0.8615  0.2048  2.5882
  118OSM   H11G12476   5.215   3.693   9.246 -0.5119 -1.4652  0.2420
  118OSM   C12F12477   5.222   3.587   9.068  0.5277  0.1918  0.1431
  118OSM   H12F12478   5.123   3.541   9.089  2.3942 -2.7246  3.7370
  118OSM   H12G12479   5.282   3.512   9.012  1.3255  0.2822  0.8624
  118OSM   C13F12480   5.202   3.704   8.965  0.0943 -0.0519 -0.6325
  118OSM   H13F12481   5.294   3.764   8.952  1.2703 -1.8635 -1.1066
  118OSM   H13G12482   5.121   3.767   9.008  0.7798  0.4937 -0.1176
  118OSM   C14F12483   5.143   3.655   8.832  0.2724  0.8309  0.0497
  118OSM   H14F12484   5.048   3.600   8.854  1.8148 -1.5284  1.2687
  118OSM   H14G12485   5.194   3.575   8.775 -0.2601  0.5192  0.0034
  118OSM   C15F12486   5.104   3.767   8.741  0.2121  0.0978 -0.1792
  118OSM   H15F12487   5.197   3.825   8.723 -1.9276  3.5599 -0.9663
  118OSM   H15G12488   5.030   3.835   8.788  1.4704  1.8500 -0.6475
  118OSM   C16F12489   5.062   3.716   8.608  0.2277 -0.7958  0.7287
  118OSM   H16F12490   4.970   3.658   8.627  0.1948 -0.3438  2.0349
  118OSM   H16G12491   5.139   3.656   8.554  1.3094  1.1621  0.0027
  118OSM   C17F12492   5.021   3.821   8.503 -0.2326 -0.0483  0.3084
  118OSM   H17F12493   5.112   3.884   8.497 -0.7631  0.7706  0.7556
  118OSM   H17G12494   4.943   3.881   8.554 -2.0004  0.4176 -2.7044
  118OSM   C18F12495   4.974   3.764   8.369  0.1161 -0.2605  0.0288
  118OSM   H18F12496   4.951   3.845   8.296 -1.0998  0.8403  1.5735
  118OSM   H18G12497   4.874   3.719   8.386  0.2569 -0.9227 -0.7996
  118OSM   H18H12498   5.044   3.683   8.339  0.9450  0.1072  0.9066
  119OSM      N12499   6.700   2.586  11.324  0.2587 -0.1315  0.1749
  119OSM    C1512500   6.759   2.450  11.347  0.2862  0.6098  0.0736
  119OSM   H15A12501   6.683   2.375  11.361  0.4370  0.4032 -0.2065
  119OSM   H15B12502   6.817   2.442  11.438  0.5372 -1.7498 -0.2364
  119OSM   H15C12503   6.809   2.427  11.254 -0.7075  0.0928 -0.3456
  119OSM    C1412504   6.627   2.625  11.448  0.4802 -0.0551 -0.0249
  119OSM   H14A12505   6.527   2.583  11.451  0.3374  0.3350  1.5319
  119OSM   H14B12506   6.615   2.732  11.441  1.3277  0.1124  0.8379
  119OSM   H14C12507   6.677   2.610  11.543 -2.5705  1.2804  1.9791
  119OSM    C1312508   6.816   2.684  11.311 -0.7949 -0.4595  0.0604
  119OSM   H13A12509   6.870   2.654  11.222  0.4082  1.4531  0.0984
  119OSM   H13B12510   6.885   2.695  11.393  1.0384  0.2674 -1.5147
  119OSM   H13C12511   6.795   2.787  11.289  2.1948  0.5624  1.5037
  119OSM    C1212512   6.614   2.597  11.202  0.2733 -0.3834  0.5218
  119OSM   H12A12513   6.610   2.691  11.149 -0.8597 -1.2216 -0.9652
  119OSM   H12B12514   6.511   2.581  11.232  0.6302  1.0125  2.7393
  119OSM    C1112515   6.653   2.513  11.075 -0.3417 -0.0690 -0.2140
  119OSM   H11A12516   6.569   2.523  11.003  0.2347 -1.2084 -1.0793
  119OSM   H11B12517   6.672   2.407  11.101  0.6453  0.4723  1.4122
  119OSM      P12518   6.781   2.693  10.938 -0.1529 -0.4299  0.1521
  119OSM    O1312519   6.717   2.803  11.017 -0.6110  0.3523  0.1073
  119OSM    O1412520   6.916   2.719  10.886  0.3596  0.5838  0.4179
  119OSM    O1112521   6.682   2.680  10.823  0.6549  1.1118  0.4524
  119OSM    O1212522   6.778   2.556  11.016  0.0420  0.0580  0.1310
  119OSM    C1S12523   6.688   2.563  10.734  0.0539  0.1728  0.6310
  119OSM    H1S12524   6.619   2.486  10.774  0.3985 -1.3298 -1.4856
  119OSM    H1T12525   6.789   2.519  10.725  0.0803  0.2497  0.5477
  119OSM     NF12526   6.637   2.468  10.509  0.6465 -0.1666 -0.9634
  119OSM    HNF12527   6.711   2.462  10.443  2.4740  0.9428  0.8455
  119OSM    C2S12528   6.645   2.595  10.582  0.3337  0.3469 -0.3685
  119OSM    H2S12529   6.544   2.642  10.588  0.0698  0.0291 -1.9622
  119OSM    C3S12530   6.753   2.692  10.517  0.0404 -0.0540  0.4123
  119OSM    H3S12531   6.844   2.634  10.492 -0.4091 -1.0054  0.9433
  119OSM     O312532   6.800   2.801  10.591 -0.2814  0.5630 -0.8881
  119OSM    HO312533   6.771   2.798  10.682 -0.9937  1.2432 -1.0784
  119OSM    C4S12534   6.694   2.742  10.395  0.2581 -0.6029  0.7964
  119OSM    H4S12535   6.589   2.776  10.400  0.3988 -0.2793  2.5845
  119OSM    C5S12536   6.757   2.775  10.277  0.0508  0.6428 -0.7825
  119OSM    H5S12537   6.866   2.762  10.286 -0.0183  0.9342  0.9015
  119OSM    C6S12538   6.686   2.833  10.161  0.0843 -0.5941 -0.4419
  119OSM    H6S12539   6.744   2.922  10.129 -1.9955  1.7391  1.8653
  119OSM    H6T12540   6.587   2.878  10.184  0.6170  0.0658  0.6619
  119OSM    C7S12541   6.670   2.728  10.050 -0.2489  0.2442 -0.0538
  119OSM    H7S12542   6.637   2.629  10.089  1.1339 -0.3976 -0.4545
  119OSM    H7T12543   6.777   2.709  10.025 -0.0541  0.0484  0.8877
  119OSM    C8S12544   6.575   2.768   9.939  0.5712 -0.1372  0.1726
  119OSM    H8S12545   6.471   2.782   9.975  0.1901 -1.4775 -0.3299
  119OSM    H8T12546   6.565   2.691   9.860  2.2306  0.7846 -0.9993
  119OSM    C9S12547   6.618   2.900   9.874 -0.2413 -0.0369  0.2021
  119OSM    H9S12548   6.713   2.896   9.818 -2.3676 -0.6932 -3.7582
  119OSM    H9T12549   6.632   2.975   9.955 -0.6684 -0.2992  0.5234
  119OSM   C10S12550   6.511   2.939   9.779 -0.6363  0.3588 -1.0953
  119OSM   H10S12551   6.529   3.038   9.732  0.6652  0.4856 -0.3587
  119OSM   H10T12552   6.423   2.945   9.847  0.7730  2.7038  0.6607
  119OSM   C11S12553   6.474   2.833   9.670  0.5323 -0.6004  0.3833
  119OSM   H11S12554   6.530   2.737   9.683  1.8951  0.0693 -0.4066
  119OSM   H11T12555   6.502   2.880   9.574 -0.8141 -0.0116  0.2631
  119OSM   C12S12556   6.322   2.797   9.645 -0.5728 -0.3130  0.0123
  119OSM   H12S12557   6.262   2.887   9.670 -1.3340 -0.3096 -1.7288
  119OSM   H12T12558   6.299   2.714   9.716 -2.0507  0.4628  0.4881
  119OSM   C13S12559   6.303   2.740   9.504  0.4746 -0.2317  0.8017
  119OSM   H13S12560   6.404   2.705   9.475 -0.4292 -1.7145 -0.6389
  119OSM   H13T12561   6.276   2.823   9.435 -0.3321 -1.2695 -0.1548
  119OSM   C14S12562   6.202   2.625   9.493 -0.0604 -0.2767  0.2870
  119OSM   H14S12563   6.217   2.549   9.572 -2.2291 -0.9349  0.1232
  119OSM   H14T12564   6.223   2.583   9.392  2.5793 -1.1870  1.1313
  119OSM   C15S12565   6.052   2.667   9.495  0.2099 -0.2911  0.4409
  119OSM   H15S12566   6.030   2.705   9.597 -0.6824 -0.1195  0.1955
  119OSM   H15T12567   5.990   2.575   9.485  0.5667 -0.4571 -0.2461
  119OSM   C16S12568   6.010   2.772   9.391 -0.2369  0.7488  0.1787
  119OSM   H16S12569   6.065   2.868   9.394  3.3687 -1.0681 -1.4720
  119OSM   H16T12570   5.901   2.790   9.405 -1.0487 -2.9484 -0.3278
  119OSM   C17S12571   6.039   2.727   9.245  0.1081 -0.5581  0.3331
  119OSM   H17S12572   5.985   2.633   9.221 -0.0357 -1.0291  2.3346
  119OSM   H17T12573   6.146   2.706   9.223  0.5086 -1.6773  3.0048
  119OSM   C18S12574   6.003   2.843   9.147 -0.1995 -0.1046  0.1548
  119OSM   H18S12575   6.076   2.927   9.155 -1.3029  0.8002  1.0621
  119OSM   H18T12576   5.898   2.871   9.170 -0.4568 -1.5377  0.8709
  119OSM   H18U12577   6.000   2.816   9.040 -4.7475 -0.6135  0.2180
  119OSM    C1F12578   6.524   2.385  10.515  0.4482 -0.3176 -0.1219
  119OSM     OF12579   6.434   2.404  10.592  0.0418  0.1096 -0.1178
  119OSM    C2F12580   6.520   2.271  10.416  0.1008  0.4326 -0.1809
  119OSM    H2F12581   6.495   2.180  10.474  1.4219  0.3421  0.2725
  119OSM    H2G12582   6.625   2.252  10.386  0.4582 -1.3094  1.9985
  119OSM    C3F12583   6.416   2.303  10.304 -0.4265 -0.0555  0.0921
  119OSM    H3F12584   6.312   2.306  10.343  0.3586  1.5251  2.2840
  119OSM    H3G12585   6.400   2.217  10.235  0.4359 -0.8147  0.8021
  119OSM    C4F12586   6.455   2.434  10.231  0.2852  0.1697 -0.0929
  119OSM    H4F12587   6.559   2.418  10.194 -0.2207  1.0217 -2.0370
  119OSM    H4G12588   6.453   2.526  10.293  0.5911  0.3834 -0.3902
  119OSM    C5F12589   6.362   2.466  10.112  0.3422 -0.5664  0.7273
  119OSM    H5F12590   6.389   2.570  10.084 -1.0294 -0.0094  1.3912
  119OSM    H5G12591   6.254   2.472  10.137 -0.2492  0.8285 -1.8740
  119OSM    C6F12592   6.386   2.377   9.990  0.2984  0.3052 -0.2313
  119OSM    H6F12593   6.378   2.270  10.020 -0.8442  0.3060 -0.5019
  119OSM    H6G12594   6.494   2.383   9.965  0.7634  0.3713  1.6613
  119OSM    C7F12595   6.307   2.428   9.865 -0.7841  0.6342 -0.1878
  119OSM    H7F12596   6.308   2.534   9.831  0.7252  0.6228 -0.2257
  119OSM    H7G12597   6.201   2.413   9.896 -0.9826  0.8944 -0.7418
  119OSM    C8F12598   6.335   2.325   9.743  0.2712 -0.4919 -0.4249
  119OSM    H8F12599   6.257   2.308   9.666  1.3721 -0.4184 -1.5935
  119OSM    H8G12600   6.350   2.225   9.788 -2.5197 -0.5975  0.4827
  119OSM    C9F12601   6.458   2.377   9.671  0.1741 -0.0154  0.1336
  119OSM    H9F12602   6.471   2.484   9.649  0.3740  0.0439  0.5301
  119OSM   C10F12603   6.555   2.291   9.630 -0.1283 -0.6647  0.2513
  119OSM   H10F12604   6.648   2.331   9.588  0.0739 -1.1714  0.2137
  119OSM   C11F12605   6.552   2.142   9.652 -0.1231 -0.0125  0.0709
  119OSM   H11F12606   6.511   2.121   9.753 -2.5228  1.1547 -0.5763
  119OSM   H11G12607   6.656   2.103   9.653 -0.0144  0.2559 -0.3777
  119OSM   C12F12608   6.470   2.078   9.548  0.3976  0.9229 -0.0784
  119OSM   H12F12609   6.368   2.118   9.529  0.1295  1.3549  2.0873
  119OSM   H12G12610   6.439   1.981   9.593 -0.2399  1.7157  1.2203
  119OSM   C13F12611   6.550   2.060   9.414  0.3120 -0.2010  0.3885
  119OSM   H13F12612   6.655   2.025   9.430  1.1144  0.0042 -3.4285
  119OSM   H13G12613   6.552   2.162   9.370 -3.7499 -0.6363 -1.1286
  119OSM   C14F12614   6.476   1.972   9.305  0.0129 -0.1471 -0.4072
  119OSM   H14F12615   6.384   2.028   9.276 -0.4573  0.0906  1.4638
  119OSM   H14G12616   6.443   1.873   9.341  1.0327 -1.4579 -2.8151
  119OSM   C15F12617   6.565   1.942   9.186  0.7228  0.4322  0.2104
  119OSM   H15F12618   6.657   1.886   9.214  0.5178  0.8328  1.7180
  119OSM   H15G12619   6.595   2.038   9.139 -3.1636  0.7878 -1.9244
  119OSM   C16F12620   6.487   1.867   9.080  0.3174  0.0701  0.4036
  119OSM   H16F12621   6.379   1.894   9.076  0.0758 -0.9580 -0.7122
  119OSM   H16G12622   6.490   1.758   9.101 -4.0229  0.3598  3.9883
  119OSM   C17F12623   6.546   1.881   8.939 -0.6741  0.5748 -0.8132
  119OSM   H17F12624   6.562   1.989   8.919 -2.4614  1.4843  2.0607
  119OSM   H17G12625   6.463   1.850   8.872 -0.5518 -1.9262  0.0842
  119OSM   C18F12626   6.679   1.808   8.920  0.3843 -0.0442 -0.4735
  119OSM   H18F12627   6.729   1.823   9.018 -0.3841 -2.2271  0.3339
  119OSM   H18G12628   6.747   1.851   8.844  3.4456 -1.7736  1.0962
  119OSM   H18H12629   6.662   1.699   8.906 -0.7773 -0.2489  1.8818
  120OSM      N12630   4.729   1.355  10.324 -0.2644 -0.2053  0.1304
  120OSM    C1512631   4.666   1.263  10.222 -0.1797  0.7986  0.2542
  120OSM   H15A12632   4.597   1.317  10.159  0.8356  0.5818 -1.0934
  120OSM   H15B12633   4.610   1.191  10.281  0.9094  0.3582  0.7736
  120OSM   H15C12634   4.743   1.216  10.163  0.2156  0.7278  0.8242
  120OSM    C1412635   4.794   1.465  10.258 -0.1992  0.0706  0.2240
  120OSM   H14A12636   4.848   1.535  10.319 -1.8857  2.4945 -0.9091
  120OSM   H14B12637   4.712   1.511  10.206 -0.0890 -0.3020 -0.2925
  120OSM   H14C12638   4.859   1.436  10.176 -1.7215  2.0011 -1.7778
  120OSM    C1312639   4.625   1.401  10.418  0.4063 -0.7000 -0.5706
  120OSM   H13A12640   4.672   1.434  10.510 -0.8075  0.0425 -0.2002
  120OSM   H13B12641   4.549   1.332  10.452  0.4766  0.4243  2.1522
  120OSM   H13C12642   4.575   1.489  10.380 -1.7576 -1.8207 -0.4807
  120OSM    C1212643   4.827   1.269  10.403 -0.7342  0.3394 -0.6838
  120OSM   H12A12644   4.881   1.200  10.340 -0.1930  0.7474 -0.6783
  120OSM   H12B12645   4.773   1.200  10.467  0.9708 -0.1416  0.3249
  120OSM    C1112646   4.929   1.345  10.489 -0.6873  0.7548  0.3160
  120OSM   H11A12647   4.878   1.431  10.537 -1.4486  1.3584 -1.4684
  120OSM   H11B12648   5.006   1.392  10.424 -2.4201  1.1435 -1.5844
  120OSM      P12649   5.111   1.227  10.623  0.3894 -0.3634  0.3151
  120OSM    O1312650   5.151   1.361  10.659 -0.0144 -0.3479 -0.0167
  120OSM    O1412651   5.128   1.125  10.730  0.4406  0.1200 -0.3962
  120OSM    O1112652   5.185   1.174  10.489 -0.5349 -0.4376 -0.2243
  120OSM    O1212653   4.961   1.246  10.589 -0.7509  0.1353 -0.7389
  120OSM    C1S12654   5.115   1.069  10.423  0.7253  0.6964 -0.8418
  120OSM    H1S12655   5.005   1.086  10.415  0.4442 -0.8707 -0.5479
  120OSM    H1T12656   5.140   0.979  10.483  1.2838  2.4854  1.7478
  120OSM     NF12657   5.107   0.967  10.192 -0.2208  0.7136 -0.2080
  120OSM    HNF12658   5.151   0.885  10.156  0.6845  0.5369  1.1953
  120OSM    C2S12659   5.184   1.046  10.291 -0.1489  0.2371  0.2943
  120OSM    H2S12660   5.198   1.141  10.235  3.4950 -0.4628 -0.2802
  120OSM    C3S12661   5.330   0.997  10.305  0.2109 -0.1289  0.1907
  120OSM    H3S12662   5.334   0.894  10.346  0.3268  0.0554  0.6596
  120OSM     O312663   5.410   1.068  10.395  0.0208  0.0520  0.6219
  120OSM    HO312664   5.351   1.124  10.445 -1.0950  0.7890 -1.4175
  120OSM    C4S12665   5.392   0.993  10.164  0.1806  0.3736 -0.1021
  120OSM    H4S12666   5.370   0.907  10.099  1.0102 -0.3947  0.6070
  120OSM    C5S12667   5.474   1.087  10.104  0.2298 -0.3215 -0.1325
  120OSM    H5S12668   5.483   1.184  10.154  1.2066 -0.3861 -0.1613
  120OSM    C6S12669   5.531   1.093   9.964  0.6398  0.8131 -0.3024
  120OSM    H6S12670   5.640   1.080   9.976  0.3788 -1.3891  0.1880
  120OSM    H6T12671   5.514   1.196   9.927 -0.5937  1.3773  1.6589
  120OSM    C7S12672   5.484   1.002   9.849 -0.2116 -0.1495  0.8793
  120OSM    H7S12673   5.373   1.013   9.847 -0.2414 -0.3797  1.2355
  120OSM    H7T12674   5.508   0.897   9.873  1.4412  0.1710  0.7224
  120OSM    C8S12675   5.540   1.050   9.712  0.2762 -0.1071 -0.9059
  120OSM    H8S12676   5.651   1.048   9.707  0.2250 -0.4345 -3.6982
  120OSM    H8T12677   5.537   1.161   9.722  0.4480 -0.2803  1.7018
  120OSM    C9S12678   5.479   0.990   9.583  0.5317  0.8354  0.1675
  120OSM    H9S12679   5.368   0.984   9.581  0.5527 -0.1339 -2.3044
  120OSM    H9T12680   5.522   0.888   9.574 -2.1861 -0.2736 -1.3427
  120OSM   C10S12681   5.502   1.070   9.460  0.4087  0.9665  0.2273
  120OSM   H10S12682   5.608   1.098   9.441  0.3790  0.3697 -0.8350
  120OSM   H10T12683   5.460   1.167   9.493  3.2060  1.6686  2.1494
  120OSM   C11S12684   5.456   1.017   9.326  0.1968  0.2772  0.8798
  120OSM   H11S12685   5.351   0.982   9.336  0.3968 -0.2203  1.2700
  120OSM   H11T12686   5.522   0.931   9.300  2.0739  1.7049  0.7146
  120OSM   C12S12687   5.462   1.125   9.217 -0.4012  0.3705  0.5882
  120OSM   H12S12688   5.541   1.199   9.243  0.7210 -0.6171  0.0329
  120OSM   H12T12689   5.364   1.179   9.212  0.8151  2.8358  1.6300
  120OSM   C13S12690   5.491   1.065   9.079  0.2852 -0.2013  0.0015
  120OSM   H13S12691   5.461   0.959   9.088  0.4430 -0.0711  2.8607
  120OSM   H13T12692   5.600   1.062   9.055 -0.0838 -1.9433 -1.7257
  120OSM   C14S12693   5.407   1.138   8.971 -0.4084 -0.1122 -0.5029
  120OSM   H14S12694   5.439   1.244   8.980  0.1997 -0.1954 -1.4542
  120OSM   H14T12695   5.304   1.127   9.010 -1.1068  1.5638 -1.7747
  120OSM   C15S12696   5.445   1.080   8.823 -0.0988  0.2739 -0.5983
  120OSM   H15S12697   5.541   1.129   8.797 -1.9086  3.2397 -2.2117
  120OSM   H15T12698   5.361   1.120   8.761 -1.1071 -0.8375  0.0008
  120OSM   C16S12699   5.452   0.929   8.813 -0.3823  0.2779  0.0966
  120OSM   H16S12700   5.358   0.886   8.854 -1.4756  1.9639 -0.5288
  120OSM   H16T12701   5.531   0.898   8.885 -2.0539  0.8049  2.2641
  120OSM   C17S12702   5.469   0.882   8.667 -0.1176 -0.0273  0.0054
  120OSM   H17S12703   5.576   0.897   8.643 -0.5473  0.3244 -1.9212
  120OSM   H17T12704   5.402   0.951   8.611 -0.0681  1.7202  1.9744
  120OSM   C18S12705   5.449   0.726   8.644 -0.5661  0.2903  0.8739
  120OSM   H18S12706   5.483   0.679   8.739 -1.8670  1.2505  1.8534
  120OSM   H18T12707   5.520   0.694   8.566  1.9555  2.3549  2.1549
  120OSM   H18U12708   5.344   0.696   8.623 -1.1096  1.8428  1.2079
  120OSM    C1F12709   4.986   1.016  10.160 -0.5417 -0.0583  0.3211
  120OSM     OF12710   4.947   1.129  10.167 -0.1544  0.7613 -0.4543
  120OSM    C2F12711   4.891   0.909  10.119  0.3007  1.7679  0.6592
  120OSM    H2F12712   4.833   0.898  10.214  0.6841 -0.4461  0.6920
  120OSM    H2G12713   4.934   0.806  10.114 -3.7420 -0.1793  1.5843
  120OSM    C3F12714   4.791   0.936   9.997 -0.3228 -0.1257  0.4621
  120OSM    H3F12715   4.727   1.022  10.027  0.0956  0.6893 -0.9046
  120OSM    H3G12716   4.734   0.843   9.977 -1.3721  0.5109  0.3986
  120OSM    C4F12717   4.867   0.965   9.877  0.0969 -0.9193  0.1741
  120OSM    H4F12718   4.924   0.885   9.826  0.2282  0.5093 -2.0590
  120OSM    H4G12719   4.936   1.045   9.912  1.1202 -2.3967  1.6776
  120OSM    C5F12720   4.784   1.040   9.767  0.2577  0.4382 -0.1996
  120OSM    H5F12721   4.723   1.113   9.825  0.8425  1.0778 -0.3793
  120OSM    H5G12722   4.718   0.970   9.711  0.8134 -0.9597  0.8331
  120OSM    C6F12723   4.860   1.126   9.666  0.4987 -0.0845  0.3809
  120OSM    H6F12724   4.923   1.065   9.598  0.7356  0.4253  0.1357
  120OSM    H6G12725   4.920   1.201   9.723 -0.3521 -0.5137  1.8878
  120OSM    C7F12726   4.760   1.194   9.573 -0.2677 -0.1270  0.1954
  120OSM    H7F12727   4.664   1.219   9.624 -0.8216  0.4665 -1.0923
  120OSM    H7G12728   4.738   1.132   9.484  1.1650  0.6213 -0.7237
  120OSM    C8F12729   4.825   1.321   9.516  0.6161  0.0830  0.5529
  120OSM    H8F12730   4.893   1.300   9.431  0.0233  0.3763 -0.0088
  120OSM    H8G12731   4.889   1.364   9.596  2.0624 -1.5092  0.2882
  120OSM    C9F12732   4.716   1.415   9.470  0.2059 -0.1035  0.4327
  120OSM    H9F12733   4.675   1.487   9.542  0.5006 -0.4212  0.9212
  120OSM   C10F12734   4.656   1.428   9.353 -0.0245  0.8467 -0.4451
  120OSM   H10F12735   4.586   1.513   9.346 -0.6361  0.3285 -0.6846
  120OSM   C11F12736   4.674   1.339   9.233  0.4175 -0.1951 -0.2744
  120OSM   H11F12737   4.739   1.254   9.262  0.7330  0.8909  2.4189
  120OSM   H11G12738   4.718   1.389   9.144  2.7596  0.3927  1.1569
  120OSM   C12F12739   4.549   1.277   9.182 -0.3912  0.2661  0.4127
  120OSM   H12F12740   4.475   1.354   9.151 -1.0238 -1.7300 -3.8928
  120OSM   H12G12741   4.512   1.210   9.262 -0.4234 -0.8824 -0.5348
  120OSM   C13F12742   4.572   1.197   9.049 -0.0655 -0.6173 -0.2255
  120OSM   H13F12743   4.472   1.151   9.033 -0.3247 -0.8503  1.7626
  120OSM   H13G12744   4.647   1.115   9.050 -1.5304 -2.0498 -2.0053
  120OSM   C14F12745   4.610   1.271   8.924 -0.4908  0.0663  0.0367
  120OSM   H14F12746   4.720   1.283   8.920 -0.2880 -1.3340  1.0143
  120OSM   H14G12747   4.568   1.374   8.920  1.1684  0.8368  1.4254
  120OSM   C15F12748   4.575   1.185   8.801  0.0521 -0.2743  0.3452
  120OSM   H15F12749   4.607   1.081   8.822  0.0540 -0.5486 -0.9544
  120OSM   H15G12750   4.636   1.213   8.712  0.2394 -0.3273  0.4565
  120OSM   C16F12751   4.427   1.184   8.749 -0.3179  0.0781 -0.2392
  120OSM   H16F12752   4.382   1.285   8.748 -1.5291 -0.4456 -0.6703
  120OSM   H16G12753   4.372   1.127   8.826 -1.1029 -0.1312 -0.9418
  120OSM   C17F12754   4.403   1.105   8.618 -0.4647 -0.3980 -0.4138
  120OSM   H17F12755   4.299   1.065   8.614 -0.3341 -0.6184 -1.9495
  120OSM   H17G12756   4.462   1.012   8.627  1.7758  1.0309  0.6245
  120OSM   C18F12757   4.444   1.184   8.494 -0.7191 -0.0230  0.0691
  120OSM   H18F12758   4.416   1.127   8.403  0.0866 -1.7061  0.8300
  120OSM   H18G12759   4.555   1.186   8.495 -0.6001 -2.2708  2.1129
  120OSM   H18H12760   4.398   1.284   8.483  0.8468  0.4991 -2.6368
  121OSM      N12761   5.865   3.920  10.930 -0.4945  0.3001  0.2268
  121OSM    C1512762   5.908   3.811  11.026 -0.3524 -0.5133  0.5240
  121OSM   H15A12763   5.828   3.739  11.038 -0.7658 -0.0608  0.5401
  121OSM   H15B12764   5.931   3.849  11.124 -0.1564  2.3951 -0.5540
  121OSM   H15C12765   5.994   3.757  10.990  0.5902  0.8276  0.7143
  121OSM    C1412766   5.973   4.020  10.899 -0.6321  0.2525 -0.1725
  121OSM   H14A12767   5.941   4.078  10.814 -0.1437  3.2240  1.5248
  121OSM   H14B12768   6.060   3.973  10.857 -2.0181 -1.0026 -1.7547
  121OSM   H14C12769   5.980   4.092  10.980 -1.7711  0.1501  0.0376
  121OSM    C1312770   5.831   3.858  10.797  0.0965  0.0671 -0.4104
  121OSM   H13A12771   5.750   3.789  10.809  1.1166 -0.7699  2.2822
  121OSM   H13B12772   5.917   3.801  10.764  0.9888  0.6843  0.7560
  121OSM   H13C12773   5.801   3.924  10.717  1.4448  0.1881 -0.8443
  121OSM    C1212774   5.744   3.989  10.987  1.5512 -0.1537 -0.1001
  121OSM   H12A12775   5.670   3.911  10.996  0.9345  0.0762 -2.5336
  121OSM   H12B12776   5.687   4.048  10.917 -0.3426 -1.2182  0.4792
  121OSM    C1112777   5.760   4.082  11.112  0.4614  0.4149  0.2974
  121OSM   H11A12778   5.805   4.023  11.195 -1.2886 -2.2646 -0.5440
  121OSM   H11B12779   5.658   4.117  11.138  0.4548  1.2517 -0.7628
  121OSM      P12780   5.777   4.318  11.011  0.2214 -0.5678  0.2906
  121OSM    O1312781   5.752   4.417  11.113  0.2933 -0.2201 -0.3368
  121OSM    O1412782   5.872   4.355  10.901  0.1778 -0.6789  0.7319
  121OSM    O1112783   5.635   4.275  10.945  0.1433  0.0324 -0.1395
  121OSM    O1212784   5.837   4.196  11.087  0.3071  0.4501 -0.2535
  121OSM    C1S12785   5.572   4.370  10.856 -0.2501  0.0974  0.6711
  121OSM    H1S12786   5.605   4.470  10.891  2.4406 -1.2349  2.2773
  121OSM    H1T12787   5.461   4.361  10.859 -0.2810  0.6460  1.1742
  121OSM     NF12788   5.540   4.453  10.628  0.0896 -0.5493  0.6744
  121OSM    HNF12789   5.463   4.404  10.588  0.7013 -0.7100 -0.3466
  121OSM    C2S12790   5.623   4.363  10.702  0.4120 -0.2118 -0.3396
  121OSM    H2S12791   5.719   4.419  10.701 -0.6948  1.8039 -1.1773
  121OSM    C3S12792   5.629   4.222  10.649 -0.0261  0.2187 -0.3437
  121OSM    H3S12793   5.526   4.182  10.647  0.2668 -0.5209 -1.6949
  121OSM     O312794   5.722   4.132  10.718 -0.2110 -0.4299  0.2249
  121OSM    HO312795   5.777   4.183  10.778 -1.5593  0.3028  0.8892
  121OSM    C4S12796   5.673   4.226  10.500  0.4761 -0.3938 -0.7688
  121OSM    H4S12797   5.585   4.211  10.437 -0.1138 -2.3661  0.4136
  121OSM    C5S12798   5.791   4.226  10.441 -0.9359 -0.1194  0.0385
  121OSM    H5S12799   5.879   4.235  10.506 -1.9129 -1.8772  1.7174
  121OSM    C6S12800   5.801   4.230  10.295  0.3165  0.6014  0.8666
  121OSM    H6S12801   5.712   4.179  10.252 -0.7986  2.7985  0.4212
  121OSM    H6T12802   5.892   4.174  10.262 -0.3148  0.4468 -0.7005
  121OSM    C7S12803   5.792   4.369  10.242  0.5406 -0.8850  0.2433
  121OSM    H7S12804   5.875   4.433  10.279 -0.1316  1.7887 -2.4496
  121OSM    H7T12805   5.702   4.417  10.286 -0.2092 -2.0104 -0.0202
  121OSM    C8S12806   5.794   4.382  10.085 -0.0097  0.9112 -0.5787
  121OSM    H8S12807   5.716   4.311  10.050  1.1734 -2.3245  2.7432
  121OSM    H8T12808   5.892   4.359  10.039  0.5725  1.5271  0.3326
  121OSM    C9S12809   5.739   4.520  10.050  0.3629  0.0310  0.8540
  121OSM    H9S12810   5.806   4.599  10.092  3.2010 -1.6761 -0.1417
  121OSM    H9T12811   5.640   4.533  10.099  0.5013 -0.1289  1.1817
  121OSM   C10S12812   5.716   4.557   9.898 -0.7901 -0.1486 -0.3045
  121OSM   H10S12813   5.712   4.667   9.886 -0.9414  0.2631  2.7062
  121OSM   H10T12814   5.616   4.516   9.873 -1.0433 -0.1287  0.6370
  121OSM   C11S12815   5.823   4.492   9.804  0.3666  0.2019 -0.0886
  121OSM   H11S12816   5.812   4.381   9.812  3.1544 -0.1539 -0.3811
  121OSM   H11T12817   5.921   4.526   9.843 -0.5650  3.2896 -0.1966
  121OSM   C12S12818   5.814   4.514   9.651 -0.7035  0.2560 -0.6252
  121OSM   H12S12819   5.835   4.618   9.617  0.8742 -0.0334 -0.5968
  121OSM   H12T12820   5.707   4.500   9.623 -0.5309 -1.6542 -0.4354
  121OSM   C13S12821   5.914   4.411   9.589  0.6186 -0.5372 -0.4076
  121OSM   H13S12822   5.874   4.309   9.608  0.8943 -0.3360  1.3806
  121OSM   H13T12823   6.004   4.422   9.653  0.5743 -3.5718  0.3406
  121OSM   C14S12824   5.939   4.438   9.445 -0.0977  0.3781  0.5421
  121OSM   H14S12825   6.041   4.400   9.424 -0.1485  0.8294 -0.5525
  121OSM   H14T12826   5.929   4.548   9.434  1.9231  0.4784 -0.8397
  121OSM   C15S12827   5.827   4.377   9.357  0.4019 -0.3524  0.0337
  121OSM   H15S12828   5.732   4.410   9.403  1.6139  0.9701  1.7716
  121OSM   H15T12829   5.847   4.268   9.358  0.9048 -0.2668 -0.2694
  121OSM   C16S12830   5.836   4.430   9.208  0.5690  0.0002 -0.5841
  121OSM   H16S12831   5.936   4.410   9.164  0.1359  0.6022 -1.8686
  121OSM   H16T12832   5.814   4.539   9.205 -2.4565 -0.5360 -0.4036
  121OSM   C17S12833   5.725   4.377   9.113  0.0633 -0.0920  0.3145
  121OSM   H17S12834   5.621   4.371   9.153  0.0462 -1.5015  0.0934
  121OSM   H17T12835   5.750   4.270   9.099  2.4486  0.3622  0.5920
  121OSM   C18S12836   5.713   4.459   8.988 -0.6770 -0.1641 -0.3579
  121OSM   H18S12837   5.694   4.566   9.012 -1.6056 -0.2788 -0.5111
  121OSM   H18T12838   5.625   4.427   8.928 -1.9732  2.0584  0.2190
  121OSM   H18U12839   5.802   4.441   8.925 -1.2129 -1.3416 -0.8119
  121OSM    C1F12840   5.548   4.589  10.629  0.0084 -0.4363 -0.3241
  121OSM     OF12841   5.630   4.651  10.694  0.4888 -0.4981  0.6098
  121OSM    C2F12842   5.447   4.657  10.540  0.4533  0.0314 -0.5836
  121OSM    H2F12843   5.419   4.754  10.588  0.7650  0.3590 -1.0613
  121OSM    H2G12844   5.353   4.597  10.540  0.2861  0.2637  0.3590
  121OSM    C3F12845   5.491   4.684  10.400  0.2819 -0.6863 -0.0983
  121OSM    H3F12846   5.494   4.591  10.340  0.0492 -0.0477 -1.1311
  121OSM    H3G12847   5.586   4.741  10.395 -0.9725  1.4479 -1.1797
  121OSM    C4F12848   5.392   4.766  10.319  0.8481 -0.1734 -0.0675
  121OSM    H4F12849   5.406   4.876  10.326 -0.1367 -0.1002  0.9077
  121OSM    H4G12850   5.293   4.730  10.354 -0.3417  0.9077 -2.1090
  121OSM    C5F12851   5.401   4.728  10.171  0.6467  0.1865 -0.2445
  121OSM    H5F12852   5.380   4.619  10.159  0.0844  0.3039 -0.3710
  121OSM    H5G12853   5.505   4.745  10.136  1.2952 -1.2903  0.8177
  121OSM    C6F12854   5.309   4.824  10.081  0.1559 -0.5037  0.1826
  121OSM    H6F12855   5.351   4.926  10.077 -1.3514  0.1772  0.8038
  121OSM    H6G12856   5.207   4.842  10.121 -0.0843  1.9843 -1.3354
  121OSM    C7F12857   5.302   4.763   9.935 -0.5728 -1.2755 -0.5777
  121OSM    H7F12858   5.239   4.671   9.946 -0.4023 -1.5831 -1.9699
  121OSM    H7G12859   5.402   4.723   9.909  0.8940  1.3343  0.7133
  121OSM    C8F12860   5.242   4.856   9.826  0.3382 -0.3828  0.7740
  121OSM    H8F12861   5.138   4.870   9.864  1.1702 -0.0780  3.0750
  121OSM    H8G12862   5.239   4.800   9.730  0.3861  0.6305  0.1663
  121OSM    C9F12863   5.326   4.980   9.803 -0.8882 -0.6057  0.4080
  121OSM    H9F12864   5.398   4.994   9.885 -1.9542 -0.1272  1.2939
  121OSM   C10F12865   5.322   5.072   9.697 -0.5619  0.3218 -0.9872
  121OSM   H10F12866   5.401   5.148   9.687 -1.6886  1.8224  0.8659
  121OSM   C11F12867   5.232   5.067   9.582  0.7484  0.4116 -0.1778
  121OSM   H11F12868   5.206   5.168   9.544 -2.3903  0.1233  0.8645
  121OSM   H11G12869   5.140   5.010   9.607  1.2293 -0.6115 -0.6721
  121OSM   C12F12870   5.291   4.995   9.454  0.0495  0.1025 -1.0457
  121OSM   H12F12871   5.358   4.919   9.500  2.1832  3.2604  1.4489
  121OSM   H12G12872   5.355   5.072   9.406  2.7539 -0.5162  1.2678
  121OSM   C13F12873   5.181   4.933   9.363 -0.1465  0.1297  0.3238
  121OSM   H13F12874   5.116   5.013   9.320 -0.2553 -0.0215  0.2057
  121OSM   H13G12875   5.110   4.868   9.418 -0.5995  0.3005 -0.0476
  121OSM   C14F12876   5.232   4.853   9.247 -0.0399 -0.2082 -0.7454
  121OSM   H14F12877   5.326   4.889   9.199  1.4637 -0.2759  1.9763
  121OSM   H14G12878   5.158   4.855   9.164  0.0712  1.4654 -0.8304
  121OSM   C15F12879   5.254   4.704   9.281 -0.3149 -0.4891  0.3887
  121OSM   H15F12880   5.155   4.662   9.308 -0.7360 -0.0528 -0.4137
  121OSM   H15G12881   5.332   4.709   9.360 -0.2438 -1.0941  0.3611
  121OSM   C16F12882   5.287   4.616   9.160 -0.1985  0.1532 -0.0309
  121OSM   H16F12883   5.300   4.511   9.194  0.0872  0.7512  1.8299
  121OSM   H16G12884   5.387   4.635   9.116  0.9101 -3.4990  0.5608
  121OSM   C17F12885   5.188   4.634   9.037  0.1349 -0.7657 -0.0675
  121OSM   H17F12886   5.213   4.728   8.983  2.0734 -1.0507  0.2797
  121OSM   H17G12887   5.083   4.636   9.075  0.3049 -4.7469  1.1055
  121OSM   C18F12888   5.189   4.513   8.941  0.0550 -0.2361 -0.2977
  121OSM   H18F12889   5.288   4.470   8.919 -0.2020  0.0500 -2.1769
  121OSM   H18G12890   5.143   4.542   8.844 -0.2800  1.1582  0.2410
  121OSM   H18H12891   5.123   4.428   8.966  2.5719 -3.5441 -3.8040
  122OSM      N12892   1.379   2.134  10.697 -0.1509  0.6461 -0.4454
  122OSM    C1512893   1.501   2.186  10.770 -0.1315 -0.7561  0.0011
  122OSM   H15A12894   1.575   2.181  10.692 -1.2096  1.3239 -1.2442
  122OSM   H15B12895   1.525   2.122  10.853  3.0551  0.1665 -0.1059
  122OSM   H15C12896   1.485   2.284  10.813  0.3230 -0.5691 -0.2510
  122OSM    C1412897   1.259   2.170  10.786 -0.4180  0.0050 -0.2151
  122OSM   H14A12898   1.231   2.099  10.862 -0.3827  0.7534  0.5089
  122OSM   H14B12899   1.178   2.182  10.716 -1.6104 -4.2252  0.1685
  122OSM   H14C12900   1.285   2.263  10.835  1.5920 -1.1941  1.1729
  122OSM    C1312901   1.363   2.224  10.575 -0.2583  0.1943 -0.1468
  122OSM   H13A12902   1.343   2.326  10.602  0.4605 -0.2025  2.0226
  122OSM   H13B12903   1.272   2.196  10.524 -0.7778 -2.1151  1.8858
  122OSM   H13C12904   1.446   2.233  10.507  0.2100 -1.2132  0.1939
  122OSM    C1212905   1.381   1.990  10.657  0.4167 -0.5289  0.0345
  122OSM   H12A12906   1.455   1.973  10.581 -0.8825  0.5987 -1.5633
  122OSM   H12B12907   1.286   1.971  10.610  1.3802 -0.4927 -2.0408
  122OSM    C1112908   1.375   1.883  10.761  0.4224  0.5927 -0.0495
  122OSM   H11A12909   1.469   1.908  10.814  1.4232  0.1532 -1.5466
  122OSM   H11B12910   1.402   1.785  10.717  4.7195  0.9166  1.4380
  122OSM      P12911   1.128   1.824  10.821 -0.0380  0.0641  0.2588
  122OSM    O1312912   1.131   1.690  10.879  0.4716  0.0901  0.2629
  122OSM    O1412913   1.038   1.926  10.883 -0.0374 -0.3433 -0.2271
  122OSM    O1112914   1.122   1.811  10.661 -0.1855 -0.3367 -0.2706
  122OSM    O1212915   1.271   1.887  10.856  0.2697 -0.0497  0.5175
  122OSM    C1S12916   1.050   1.908  10.586  0.2492 -0.0425 -0.0042
  122OSM    H1S12917   1.095   2.009  10.600  1.8918 -0.2539 -2.8891
  122OSM    H1T12918   0.941   1.921  10.605  0.5949  1.9581  0.8817
  122OSM     NF12919   1.028   1.987  10.349  0.2553 -0.5493 -0.0348
  122OSM    HNF12920   0.932   2.011  10.334 -0.1626 -0.8169  1.8709
  122OSM    C2S12921   1.042   1.870  10.434  0.5326  0.2509  0.1222
  122OSM    H2S12922   1.136   1.823  10.398  0.0706  0.1495 -0.9853
  122OSM    C3S12923   0.921   1.756  10.426 -0.0365  0.0700 -0.7107
  122OSM    H3S12924   0.831   1.796  10.477  0.5344  0.0478  0.3174
  122OSM     O312925   0.960   1.638  10.505 -0.1523  0.1334 -0.5712
  122OSM    HO312926   1.029   1.658  10.569 -0.2800  2.3270 -1.0175
  122OSM    C4S12927   0.894   1.725  10.284  0.0559 -0.4106  0.0761
  122OSM    H4S12928   0.838   1.804  10.232  0.1979  0.4482  1.1979
  122OSM    C5S12929   0.914   1.616  10.210  0.4232  0.2424  0.1578
  122OSM    H5S12930   0.962   1.531  10.261  0.8795 -0.2966 -1.1031
  122OSM    C6S12931   0.880   1.598  10.062 -0.3220  0.0951  0.7350
  122OSM    H6S12932   0.796   1.528  10.045 -0.3951  0.5334 -0.9546
  122OSM    H6T12933   0.964   1.541  10.017 -0.3254 -0.5647  1.5566
  122OSM    C7S12934   0.857   1.723   9.976  0.4196 -0.2448  0.3783
  122OSM    H7S12935   0.942   1.793   9.992 -0.4669  0.6026  1.5160
  122OSM    H7T12936   0.758   1.769   9.998  0.3940  0.3769 -0.9091
  122OSM    C8S12937   0.866   1.680   9.822  0.1815  0.3622 -0.1554
  122OSM    H8S12938   0.790   1.603   9.799  1.2000 -0.8588  0.4270
  122OSM    H8T12939   0.961   1.624   9.808  0.2187 -0.3641  2.4374
  122OSM    C9S12940   0.843   1.787   9.721 -0.2192  0.1626  0.3383
  122OSM    H9S12941   0.926   1.860   9.712  0.4056 -0.6802 -0.9464
  122OSM    H9T12942   0.750   1.835   9.758  0.4409  1.5030  0.3045
  122OSM   C10S12943   0.823   1.727   9.582 -0.2681  0.4665  0.2363
  122OSM   H10S12944   0.729   1.668   9.578 -0.2951  0.5771 -1.7491
  122OSM   H10T12945   0.907   1.656   9.567 -0.3788 -0.0357  1.8083
  122OSM   C11S12946   0.823   1.831   9.472 -0.1201  0.9237 -0.2437
  122OSM   H11S12947   0.909   1.898   9.494 -0.9521  1.8716  0.2015
  122OSM   H11T12948   0.730   1.889   9.491 -1.7980 -1.5074 -0.6338
  122OSM   C12S12949   0.838   1.781   9.330 -0.1938 -0.4453  0.6714
  122OSM   H12S12950   0.776   1.689   9.317  1.2715 -1.5648  1.4032
  122OSM   H12T12951   0.944   1.756   9.309 -0.0372  0.6254  0.0963
  122OSM   C13S12952   0.792   1.896   9.234 -0.0352  0.2922 -0.2896
  122OSM   H13S12953   0.853   1.982   9.267  1.3199 -0.8537  0.3332
  122OSM   H13T12954   0.686   1.923   9.252 -0.1217 -0.7352  0.9320
  122OSM   C14S12955   0.815   1.862   9.086 -0.4322 -0.0601  0.1944
  122OSM   H14S12956   0.758   1.918   9.009  1.1346  2.4470  0.7484
  122OSM   H14T12957   0.785   1.755   9.076  1.3592 -0.6304  0.6103
  122OSM   C15S12958   0.966   1.866   9.043  0.0384 -0.5747  0.2402
  122OSM   H15S12959   0.972   1.810   8.947 -1.3730  0.9008 -0.7508
  122OSM   H15T12960   1.032   1.820   9.120  0.7783 -1.4031 -0.8546
  122OSM   C16S12961   1.014   2.009   9.003 -0.0812 -0.8280  0.2585
  122OSM   H16S12962   1.124   2.012   8.989 -0.1869  0.5421 -0.4186
  122OSM   H16T12963   1.000   2.079   9.088  0.7260 -1.8673  1.2789
  122OSM   C17S12964   0.956   2.062   8.878  0.2424 -0.2609  0.6796
  122OSM   H17S12965   0.848   2.041   8.861  0.3574  1.5716 -3.4666
  122OSM   H17T12966   1.015   2.017   8.795 -0.8273 -1.2353  0.4210
  122OSM   C18S12967   0.981   2.211   8.873  0.3088  0.7594  0.0713
  122OSM   H18S12968   0.925   2.276   8.944 -0.5857  1.2007 -1.0080
  122OSM   H18T12969   0.964   2.236   8.766  0.8472 -0.6782 -0.3638
  122OSM   H18U12970   1.088   2.235   8.892  0.1300  3.5470 -1.8580
  122OSM    C1F12971   1.130   2.076  10.338  0.2206  0.6183 -0.1337
  122OSM     OF12972   1.241   2.044  10.385 -0.9241 -0.0567 -0.6508
  122OSM    C2F12973   1.102   2.213  10.280 -0.7901  0.1901  0.2472
  122OSM    H2F12974   1.131   2.290  10.355  1.7808  0.7226 -1.1648
  122OSM    H2G12975   0.994   2.220  10.253 -0.1737  4.0721 -2.0030
  122OSM    C3F12976   1.176   2.238  10.156 -0.2947  0.2649 -0.8928
  122OSM    H3F12977   1.159   2.153  10.086 -0.5086 -0.6659  0.2598
  122OSM    H3G12978   1.283   2.253  10.180 -0.8560  0.7793  1.4854
  122OSM    C4F12979   1.146   2.375  10.095  0.3628  0.4830  0.1924
  122OSM    H4F12980   1.237   2.418  10.049 -1.6827  3.2439 -1.6104
  122OSM    H4G12981   1.110   2.438  10.179  1.9336 -2.2915  3.1872
  122OSM    C5F12982   1.031   2.373   9.987  0.0407 -0.3069  0.7979
  122OSM    H5F12983   0.992   2.473   9.958  0.8956 -0.3656 -0.7054
  122OSM    H5G12984   0.951   2.308  10.029 -0.6187  1.0206  1.6544
  122OSM    C6F12985   1.085   2.312   9.848  0.2028  1.3031 -1.2031
  122OSM    H6F12986   1.108   2.208   9.880 -2.0527  0.0195 -3.3924
  122OSM    H6G12987   1.176   2.368   9.819 -1.1279  4.3703  0.0532
  122OSM    C7F12988   0.971   2.313   9.744 -0.6191  0.7082 -0.3849
  122OSM    H7F12989   0.937   2.418   9.731 -0.7791  0.6396 -0.5184
  122OSM    H7G12990   0.896   2.245   9.789 -0.9947  0.1141 -1.8322
  122OSM    C8F12991   1.019   2.251   9.608  0.0630 -0.4443 -0.4317
  122OSM    H8F12992   0.931   2.241   9.540  0.0193  1.2493 -0.6715
  122OSM    H8G12993   1.069   2.153   9.624 -2.2468 -1.6411 -0.1013
  122OSM    C9F12994   1.109   2.352   9.543  0.1723 -0.4253  0.6538
  122OSM    H9F12995   1.193   2.387   9.604 -1.2211  2.0600  1.2621
  122OSM   C10F12996   1.108   2.383   9.410 -0.7521 -0.3034 -0.1163
  122OSM   H10F12997   1.189   2.449   9.374 -0.1574 -0.6876  0.4891
  122OSM   C11F12998   1.019   2.337   9.300 -0.1856 -0.3941  0.0153
  122OSM   H11F12999   0.940   2.273   9.345 -1.4927  3.0102  3.0441
  122OSM   H11G13000   1.080   2.274   9.232  0.1483  0.9644 -1.0128
  122OSM   C12F13001   0.952   2.453   9.220 -0.8044  0.6822 -0.5865
  122OSM   H12F13002   0.897   2.412   9.133 -0.2854  0.9273 -1.0341
  122OSM   H12G13003   1.029   2.527   9.190 -0.6252  1.0316  0.6978
  122OSM   C13F13004   0.857   2.527   9.322 -0.6439 -0.5902 -0.3585
  122OSM   H13F13005   0.923   2.585   9.389  0.8202 -1.9105 -0.5909
  122OSM   H13G13006   0.800   2.454   9.384 -1.2330 -1.0141 -1.3612
  122OSM   C14F13007   0.755   2.614   9.249 -0.5502  0.2864  0.1576
  122OSM   H14F13008   0.697   2.682   9.315  0.6091  1.9112 -0.4240
  122OSM   H14G13009   0.678   2.546   9.207  1.1535 -1.7092  0.1240
  122OSM   C15F13010   0.810   2.700   9.137 -0.2551 -0.0407 -0.1731
  122OSM   H15F13011   0.729   2.708   9.061 -0.3197  1.3362  0.0042
  122OSM   H15G13012   0.885   2.647   9.075  1.6029  2.5668 -0.3423
  122OSM   C16F13013   0.879   2.838   9.176  1.1899  0.4741 -0.1750
  122OSM   H16F13014   0.980   2.822   9.219  0.9942 -2.0365 -0.5086
  122OSM   H16G13015   0.825   2.891   9.257 -4.5017 -1.6205 -2.1006
  122OSM   C17F13016   0.895   2.944   9.071 -0.3062 -0.4362  0.3343
  122OSM   H17F13017   0.935   2.900   8.977 -1.9562 -1.1819 -0.0628
  122OSM   H17G13018   0.980   3.003   9.110  1.5111 -2.9001  0.3244
  122OSM   C18F13019   0.770   3.029   9.052  0.2211 -0.0171  0.1275
  122OSM   H18F13020   0.780   3.093   8.962  0.3945 -0.5718 -0.2548
  122OSM   H18G13021   0.756   3.080   9.150 -1.0302  0.4891 -0.3009
  122OSM   H18H13022   0.678   2.968   9.046  1.8918 -3.2274  3.1700
  123OSM      N13023   5.963   6.411   5.962 -0.5783  0.0216 -0.3056
  123OSM    C1513024   5.837   6.350   6.011 -0.2777  0.3872 -0.3329
  123OSM   H15A13025   5.821   6.256   5.959  1.4253 -0.6814  0.9849
  123OSM   H15B13026   5.755   6.419   5.998 -1.3134 -0.7831 -0.2149
  123OSM   H15C13027   5.846   6.341   6.118  1.3861 -3.0850 -0.6109
  123OSM    C1413028   6.075   6.316   5.986  0.0751 -0.4795 -0.2859
  123OSM   H14A13029   6.062   6.281   6.088  0.0784  4.2197  1.5853
  123OSM   H14B13030   6.176   6.351   5.970  0.2206 -0.3857  0.7279
  123OSM   H14C13031   6.067   6.232   5.919  1.7745  0.3132 -1.5595
  123OSM    C1313032   5.950   6.445   5.820 -0.0716 -0.2859  0.3738
  123OSM   H13A13033   5.873   6.518   5.797  1.5301  1.0689 -0.9892
  123OSM   H13B13034   5.938   6.353   5.764  0.7180  0.0608 -0.3776
  123OSM   H13C13035   6.035   6.494   5.776 -0.5078 -1.3037 -1.7517
  123OSM    C1213036   5.974   6.533   6.047  0.4397 -0.2208 -0.1130
  123OSM   H12A13037   6.070   6.575   6.023 -0.6193  3.0007  0.7790
  123OSM   H12B13038   5.983   6.508   6.152 -1.8867 -0.8319 -0.0090
  123OSM    C1113039   5.869   6.646   6.033 -0.1364  0.9115  0.8111
  123OSM   H11A13040   5.866   6.677   5.926 -0.9218 -1.2341  0.1695
  123OSM   H11B13041   5.882   6.730   6.105  1.2492 -0.6877  2.5302
  123OSM      P13042   5.602   6.697   6.059 -0.0112 -0.2089  0.1134
  123OSM    O1313043   5.593   6.767   5.930  0.0899  0.3982 -0.1181
  123OSM    O1413044   5.485   6.621   6.109  0.3761 -0.4471  0.8320
  123OSM    O1113045   5.632   6.807   6.174 -0.3416  0.1984 -0.0554
  123OSM    O1213046   5.733   6.600   6.063 -0.1618  0.0092  0.5286
  123OSM    C1S13047   5.657   6.775   6.313 -0.1955  0.3009 -1.1012
  123OSM    H1S13048   5.762   6.743   6.332 -0.1228  0.6652 -0.8933
  123OSM    H1T13049   5.592   6.695   6.355 -0.2101  1.5603  1.4175
  123OSM     NF13050   5.684   6.893   6.542 -0.2338  0.0488 -0.1912
  123OSM    HNF13051   5.618   6.887   6.617 -0.3788 -0.1643 -0.3360
  123OSM    C2S13052   5.640   6.909   6.406  0.4402  0.4062  1.1892
  123OSM    H2S13053   5.697   6.992   6.359  0.7571 -0.5144 -0.1213
  123OSM    C3S13054   5.500   6.953   6.390 -0.4355  0.1093 -1.2688
  123OSM    H3S13055   5.434   6.874   6.432  0.2375 -0.5850 -1.4930
  123OSM     O313056   5.462   6.977   6.257  0.3979 -0.3126  0.4811
  123OSM    HO313057   5.538   6.941   6.210  1.8231  1.7348  1.0695
  123OSM    C4S13058   5.474   7.073   6.483 -0.0072 -0.2313  0.3530
  123OSM    H4S13059   5.410   7.055   6.571  1.3760 -0.5227  1.3290
  123OSM    C5S13060   5.516   7.207   6.476  0.0255 -0.7428 -0.4202
  123OSM    H5S13061   5.601   7.229   6.410 -0.1918 -0.0162 -0.4697
  123OSM    C6S13062   5.495   7.319   6.581 -0.2063  1.3116  0.0207
  123OSM    H6S13063   5.393   7.364   6.574 -1.4195 -1.2959 -0.1465
  123OSM    H6T13064   5.560   7.402   6.547  0.1183  0.6703 -0.9463
  123OSM    C7S13065   5.530   7.275   6.725  0.0857  0.1345  0.0301
  123OSM    H7S13066   5.639   7.256   6.739 -0.1192 -1.2197 -0.1259
  123OSM    H7T13067   5.472   7.182   6.738 -1.5963  1.2143  0.6670
  123OSM    C8S13068   5.483   7.383   6.831  0.1348 -0.0364  0.0610
  123OSM    H8S13069   5.372   7.394   6.822  0.3381  1.0043 -1.4205
  123OSM    H8T13070   5.519   7.480   6.792  0.6360 -0.5260 -0.7013
  123OSM    C9S13071   5.546   7.357   6.965  0.3445 -0.3774  1.0283
  123OSM    H9S13072   5.511   7.440   7.029 -1.6819 -0.4700  0.0994
  123OSM    H9T13073   5.656   7.351   6.945  0.1356  2.4619 -1.8186
  123OSM   C10S13074   5.519   7.224   7.033  0.2144  0.4746  0.1156
  123OSM   H10S13075   5.599   7.206   7.107  1.0096  0.8332 -0.6339
  123OSM   H10T13076   5.520   7.146   6.953 -0.1284  2.4906 -1.9671
  123OSM   C11S13077   5.396   7.231   7.118  0.7017  0.2363 -0.7961
  123OSM   H11S13078   5.388   7.134   7.172 -0.7435  1.4860  1.3665
  123OSM   H11T13079   5.313   7.251   7.047 -0.0481  0.7808  0.2186
  123OSM   C12S13080   5.399   7.325   7.242 -0.3105 -0.0381 -0.4925
  123OSM   H12S13081   5.394   7.429   7.203  1.1406 -0.2998 -1.5025
  123OSM   H12T13082   5.492   7.309   7.301  0.2846  2.5070 -0.5990
  123OSM   C13S13083   5.286   7.295   7.340  0.2957 -0.0854  0.3665
  123OSM   H13S13084   5.295   7.349   7.437  2.4421 -1.5716  1.0805
  123OSM   H13T13085   5.298   7.190   7.374  1.8240  0.0727  0.3701
  123OSM   C14S13086   5.139   7.322   7.285 -1.0396 -0.2542  0.0753
  123OSM   H14S13087   5.117   7.251   7.202  1.5623  0.7756 -1.6461
  123OSM   H14T13088   5.129   7.426   7.247  0.6657 -0.5137 -1.2277
  123OSM   C15S13089   5.045   7.298   7.411 -0.2828  0.1609  0.6426
  123OSM   H15S13090   5.095   7.352   7.495  1.5772 -1.0934  0.3968
  123OSM   H15T13091   5.068   7.190   7.423  1.2802  0.1836 -1.5400
  123OSM   C16S13092   4.900   7.328   7.369  0.2188 -0.8243 -0.8879
  123OSM   H16S13093   4.889   7.415   7.301 -2.1935 -1.1584 -1.0292
  123OSM   H16T13094   4.843   7.342   7.464 -1.8258 -2.8982 -1.7034
  123OSM   C17S13095   4.847   7.207   7.286  0.1392 -0.3168 -0.1307
  123OSM   H17S13096   4.870   7.115   7.345 -0.7191 -0.8474 -0.6157
  123OSM   H17T13097   4.910   7.210   7.194 -1.7655 -0.6179 -1.4948
  123OSM   C18S13098   4.695   7.228   7.249  0.0891  0.2645 -0.5628
  123OSM   H18S13099   4.647   7.146   7.191 -1.5052  0.7328  0.0620
  123OSM   H18T13100   4.665   7.323   7.200 -0.4819 -1.4002 -3.7179
  123OSM   H18U13101   4.642   7.215   7.346 -2.4157 -1.2789 -2.0406
  123OSM    C1F13102   5.810   6.857   6.579 -0.8281  0.5178  0.2493
  123OSM     OF13103   5.903   6.844   6.495 -0.0963 -0.5350  0.1181
  123OSM    C2F13104   5.837   6.813   6.722 -0.1390 -0.4818  0.0219
  123OSM    H2F13105   5.855   6.704   6.731  1.4821 -0.4041 -1.6995
  123OSM    H2G13106   5.755   6.846   6.790  0.4423 -1.0411  1.0293
  123OSM    C3F13107   5.956   6.889   6.773  0.3978 -0.7821  0.8986
  123OSM    H3F13108   5.945   6.992   6.735  0.4565 -2.6364 -5.2599
  123OSM    H3G13109   6.047   6.836   6.738 -0.1563  0.3319 -2.5933
  123OSM    C4F13110   5.955   6.899   6.926  0.6590  0.0204 -0.3765
  123OSM    H4F13111   5.941   6.795   6.962  2.5585  0.5903  2.3290
  123OSM    H4G13112   5.874   6.958   6.973  1.3207  2.0698 -1.6689
  123OSM    C5F13113   6.087   6.947   6.985 -0.2252 -0.0102 -0.2812
  123OSM    H5F13114   6.127   7.045   6.950  0.4279  0.0336  0.5472
  123OSM    H5G13115   6.167   6.878   6.953  0.1843  0.7765 -1.0041
  123OSM    C6F13116   6.096   6.955   7.141 -0.2607 -0.3289  0.1713
  123OSM    H6F13117   6.008   7.013   7.175 -1.7489 -1.1220 -2.0630
  123OSM    H6G13118   6.185   7.016   7.167 -0.8977 -0.0091  1.6634
  123OSM    C7F13119   6.093   6.814   7.202 -0.0137 -0.4899 -0.1575
  123OSM    H7F13120   6.191   6.764   7.187  1.3184  1.1921  2.3063
  123OSM    H7G13121   6.019   6.751   7.148 -0.0027 -0.6695  0.0372
  123OSM    C8F13122   6.061   6.825   7.347  0.6746 -0.3047  0.4588
  123OSM    H8F13123   6.053   6.732   7.407 -1.1318  0.6441  1.8020
  123OSM    H8G13124   5.959   6.869   7.346  0.9106  0.3053  1.2968
  123OSM    C9F13125   6.145   6.918   7.434 -0.3197  0.4540  0.3075
  123OSM    H9F13126   6.220   6.966   7.369 -0.4888 -1.5155 -1.4395
  123OSM   C10F13127   6.146   6.942   7.566 -0.0943  0.3397  0.2064
  123OSM   H10F13128   6.218   7.016   7.603  0.2346 -0.0253  0.3022
  123OSM   C11F13129   6.055   6.874   7.669  0.4279  0.0593 -0.0514
  123OSM   H11F13130   6.121   6.824   7.743  2.7624  0.2240 -1.9091
  123OSM   H11G13131   5.985   6.800   7.625  0.2486 -0.1121  0.5046
  123OSM   C12F13132   5.983   6.984   7.742  0.2885  0.2206 -0.7260
  123OSM   H12F13133   5.914   7.038   7.673 -0.0518  1.5233  0.5754
  123OSM   H12G13134   6.046   7.064   7.786  0.8717 -0.6171 -0.0053
  123OSM   C13F13135   5.907   6.932   7.866  0.1022  0.4831 -0.0993
  123OSM   H13F13136   5.917   6.821   7.867  2.1589  0.6394 -0.3290
  123OSM   H13G13137   5.801   6.966   7.869 -0.1005 -0.1312  2.2805
  123OSM   C14F13138   5.982   6.973   8.000  0.6443 -0.1379  0.8214
  123OSM   H14F13139   5.982   7.084   7.996  1.7369 -0.1519 -0.1166
  123OSM   H14G13140   6.086   6.939   7.985  1.1935  1.3254  1.1457
  123OSM   C15F13141   5.912   6.919   8.122  0.0392 -0.5077  0.2245
  123OSM   H15F13142   5.986   6.942   8.202  0.8867  0.7648 -0.8842
  123OSM   H15G13143   5.916   6.808   8.126  3.5038 -0.5440 -1.1555
  123OSM   C16F13144   5.776   6.976   8.165 -0.0758  0.6712 -0.2047
  123OSM   H16F13145   5.698   6.957   8.089 -0.5324 -0.3808  0.4999
  123OSM   H16G13146   5.774   7.083   8.196  0.5692  1.0604 -1.4314
  123OSM   C17F13147   5.728   6.907   8.288 -0.0790  0.8410 -0.4418
  123OSM   H17F13148   5.805   6.914   8.368  2.2090 -3.4680 -1.9933
  123OSM   H17G13149   5.722   6.797   8.277 -1.5708  0.7637  0.7566
  123OSM   C18F13150   5.599   6.967   8.348 -0.3209 -0.1121  0.2992
  123OSM   H18F13151   5.564   6.891   8.422 -2.5405 -1.5535 -2.0527
  123OSM   H18G13152   5.537   6.988   8.258  0.0452  0.2633  0.1343
  123OSM   H18H13153   5.614   7.066   8.395  0.6833  0.5868 -1.4086
  124OSM      N13154   1.781   2.971   6.039 -0.2379  0.1434 -0.0916
  124OSM    C1513155   1.664   3.061   6.018 -0.1336 -0.3039 -0.0617
  124OSM   H15A13156   1.584   2.994   5.992  0.6166 -1.1046 -0.3706
  124OSM   H15B13157   1.674   3.119   5.927  1.5593  0.8150  0.7937
  124OSM   H15C13158   1.656   3.118   6.109  0.8076  2.4914 -1.5981
  124OSM    C1413159   1.771   2.871   5.931  0.3025  0.6989 -0.0476
  124OSM   H14A13160   1.674   2.822   5.931  1.0902 -1.0027  1.5947
  124OSM   H14B13161   1.856   2.805   5.943  0.8797  1.1256 -1.5617
  124OSM   H14C13162   1.787   2.915   5.834  3.2282  1.1310  0.5540
  124OSM    C1313163   1.907   3.049   6.024  0.3510 -0.1251 -0.5210
  124OSM   H13A13164   1.997   2.990   6.027 -0.2112 -0.9624  0.0423
  124OSM   H13B13165   1.912   3.125   6.100  0.8722 -1.2504  0.5902
  124OSM   H13C13166   1.916   3.091   5.925  1.8150 -1.8304 -1.1579
  124OSM    C1213167   1.774   2.896   6.169  0.0941  0.4414  0.4723
  124OSM   H12A13168   1.773   2.972   6.245 -0.5154  0.1844  0.7263
  124OSM   H12B13169   1.867   2.843   6.181  0.5284  0.9747 -0.3909
  124OSM    C1113170   1.668   2.785   6.186 -0.1692 -0.5645 -0.0000
  124OSM   H11A13171   1.667   2.747   6.290 -0.5966  4.9436  2.3577
  124OSM   H11B13172   1.700   2.700   6.122  0.0886 -0.9857  0.6884
  124OSM      P13173   1.449   2.907   6.245 -0.2815 -0.1084 -0.6733
  124OSM    O1313174   1.392   3.021   6.183  0.4898 -0.3414  0.4208
  124OSM    O1413175   1.358   2.815   6.308  0.5234  0.4027  0.4437
  124OSM    O1113176   1.555   2.961   6.351  0.1195 -0.0778 -0.4789
  124OSM    O1213177   1.542   2.834   6.141  0.1507 -0.0611  0.1594
  124OSM    C1S13178   1.508   3.007   6.481  0.0004 -0.0166  0.1881
  124OSM    H1S13179   1.466   2.925   6.544  1.7378 -0.8204  0.3410
  124OSM    H1T13180   1.426   3.082   6.477 -1.5987 -1.6563  0.7192
  124OSM     NF13181   1.592   3.074   6.717 -0.2661 -0.2071  0.1267
  124OSM    HNF13182   1.532   3.145   6.753 -2.6893 -1.8919 -0.3941
  124OSM    C2S13183   1.614   3.076   6.568  0.0228 -0.4832 -0.2139
  124OSM    H2S13184   1.706   3.016   6.548  1.9733  1.7273  1.5286
  124OSM    C3S13185   1.645   3.216   6.504  0.1803  0.2908 -0.4073
  124OSM    H3S13186   1.563   3.281   6.542  1.1063  0.8422  0.7121
  124OSM     O313187   1.653   3.223   6.361  0.2477  0.2071 -0.0944
  124OSM    HO313188   1.620   3.135   6.340 -1.9068  0.5602  1.5554
  124OSM    C4S13189   1.770   3.267   6.556 -0.5099  0.1212 -0.9230
  124OSM    H4S13190   1.862   3.211   6.536  0.8152  1.4234  1.1858
  124OSM    C5S13191   1.787   3.383   6.620 -0.0793 -0.3369 -0.1104
  124OSM    H5S13192   1.705   3.455   6.633  0.4318  0.7911 -2.6428
  124OSM    C6S13193   1.917   3.429   6.680 -0.4889  0.4508 -0.0084
  124OSM    H6S13194   1.975   3.471   6.595 -0.3374  1.3043  0.5033
  124OSM    H6T13195   1.980   3.344   6.717 -0.0923  1.1345  0.9175
  124OSM    C7S13196   1.910   3.532   6.803 -0.1234 -0.5647  0.1312
  124OSM    H7S13197   1.831   3.491   6.870  0.6184 -1.1217  0.6759
  124OSM    H7T13198   1.891   3.632   6.758 -1.0761 -1.9724 -2.8424
  124OSM    C8S13199   2.041   3.541   6.884 -0.0611  0.1894 -0.3194
  124OSM    H8S13200   2.129   3.540   6.816 -0.1274 -1.7062 -0.4274
  124OSM    H8T13201   2.052   3.451   6.947  0.7258  1.1989  1.0585
  124OSM    C9S13202   2.039   3.657   6.989 -0.2813 -0.0032  0.5150
  124OSM    H9S13203   2.002   3.746   6.934 -0.4372 -1.1437 -1.2787
  124OSM    H9T13204   2.137   3.688   7.031  0.1233 -0.9736  0.3035
  124OSM   C10S13205   1.955   3.631   7.110 -0.1131  0.0868 -0.0890
  124OSM   H10S13206   1.971   3.524   7.136  0.4004  0.3016  0.4776
  124OSM   H10T13207   1.847   3.637   7.082 -0.0734 -1.4680 -0.6779
  124OSM   C11S13208   1.967   3.732   7.224 -0.7160 -0.7601  0.2487
  124OSM   H11S13209   1.934   3.832   7.189 -0.5119 -0.6445  0.3886
  124OSM   H11T13210   2.076   3.735   7.244 -0.4758 -0.0651 -1.0360
  124OSM   C12S13211   1.894   3.690   7.350 -0.4043 -0.0463  1.0499
  124OSM   H12S13212   1.960   3.622   7.408  0.1389  0.3349  0.8899
  124OSM   H12T13213   1.802   3.635   7.324 -0.7198  0.2178  1.5790
  124OSM   C13S13214   1.851   3.804   7.443 -0.3984 -0.5976  0.3114
  124OSM   H13S13215   1.783   3.768   7.524 -2.3013 -0.9753 -1.3694
  124OSM   H13T13216   1.794   3.875   7.380  1.3554  0.6013  0.0138
  124OSM   C14S13217   1.977   3.877   7.496 -0.3988  0.6827  0.1035
  124OSM   H14S13218   2.042   3.909   7.411 -0.4918  1.4529  0.3109
  124OSM   H14T13219   2.025   3.804   7.564 -0.8800  1.0698  0.8798
  124OSM   C15S13220   1.941   4.011   7.571 -0.3422  0.1677  0.5726
  124OSM   H15S13221   1.878   3.988   7.659  2.0125 -2.5896  1.7048
  124OSM   H15T13222   1.885   4.072   7.497 -0.4740  2.5399  2.5279
  124OSM   C16S13223   2.072   4.083   7.606 -0.2006  0.2203  0.5964
  124OSM   H16S13224   2.125   4.102   7.510 -1.9650  0.8597 -0.3106
  124OSM   H16T13225   2.127   4.020   7.678 -0.6653 -0.1130  0.6647
  124OSM   C17S13226   2.048   4.212   7.676  0.1944 -0.1821 -0.1753
  124OSM   H17S13227   1.995   4.198   7.773 -0.0844  0.3194 -0.2504
  124OSM   H17T13228   1.986   4.271   7.604  1.0955 -0.2187 -1.0110
  124OSM   C18S13229   2.169   4.309   7.697  0.3400  0.4385  0.0128
  124OSM   H18S13230   2.251   4.254   7.748  0.2528 -1.0790 -1.3879
  124OSM   H18T13231   2.135   4.400   7.750 -1.4618  0.1528 -0.5690
  124OSM   H18U13232   2.220   4.329   7.600  0.8408  1.2555  0.4362
  124OSM    C1F13233   1.607   2.967   6.793 -0.1859  0.0796  0.2695
  124OSM     OF13234   1.653   2.863   6.755  0.2525  0.1298 -0.1352
  124OSM    C2F13235   1.547   2.978   6.932 -0.2213 -0.1940  0.1866
  124OSM    H2F13236   1.436   2.971   6.925 -0.3263 -0.4493  1.7403
  124OSM    H2G13237   1.571   3.079   6.973  0.1413 -0.1406 -0.1530
  124OSM    C3F13238   1.592   2.870   7.029  0.3385  0.5725 -0.3268
  124OSM    H3F13239   1.693   2.904   7.060 -0.8993  1.7545  2.8303
  124OSM    H3G13240   1.587   2.770   6.982 -0.6320  0.7126 -0.5532
  124OSM    C4F13241   1.512   2.871   7.165  0.0202 -0.1278  0.3423
  124OSM    H4F13242   1.582   2.827   7.240 -0.2255 -1.8371 -0.3775
  124OSM    H4G13243   1.422   2.808   7.150 -0.4976  0.9447 -1.1970
  124OSM    C5F13244   1.457   3.013   7.219 -0.3036  0.0868 -0.7905
  124OSM    H5F13245   1.390   3.056   7.142 -1.2766  2.4058  1.2357
  124OSM    H5G13246   1.538   3.085   7.243 -0.8237  0.7338 -0.9567
  124OSM    C6F13247   1.379   2.988   7.354  0.1868  0.1633  0.0769
  124OSM    H6F13248   1.440   2.932   7.428  0.1362  0.9822  0.7566
  124OSM    H6G13249   1.296   2.918   7.332  1.4288 -1.0100 -1.0399
  124OSM    C7F13250   1.332   3.120   7.419  0.1012 -0.1816 -0.2121
  124OSM    H7F13251   1.301   3.190   7.339  1.3028  0.2687 -0.2903
  124OSM    H7G13252   1.417   3.168   7.471  1.0989 -2.8591  0.7937
  124OSM    C8F13253   1.220   3.107   7.523 -0.0631 -0.8728  0.2297
  124OSM    H8F13254   1.121   3.068   7.491 -1.2755  0.6468  1.9166
  124OSM    H8G13255   1.196   3.214   7.543 -0.6170 -1.0048  0.2970
  124OSM    C9F13256   1.266   3.044   7.654 -0.1625 -0.3176 -0.0253
  124OSM    H9F13257   1.257   2.934   7.664 -0.6044 -0.2328  0.5612
  124OSM   C10F13258   1.306   3.106   7.771 -0.8270 -0.6723  0.6267
  124OSM   H10F13259   1.327   3.051   7.864  0.2424 -1.0980  0.1390
  124OSM   C11F13260   1.323   3.257   7.787 -0.6795  0.0351 -0.0214
  124OSM   H11F13261   1.297   3.308   7.691 -1.8684 -4.6389 -2.4889
  124OSM   H11G13262   1.429   3.272   7.818 -0.5320 -1.4437  0.2429
  124OSM   C12F13263   1.223   3.310   7.895 -0.1272  0.9529  0.8198
  124OSM   H12F13264   1.118   3.290   7.866  0.7957  0.4787 -2.5668
  124OSM   H12G13265   1.232   3.421   7.891  0.5953  0.8475 -1.5214
  124OSM   C13F13266   1.240   3.270   8.041  0.7265 -0.2740 -0.2969
  124OSM   H13F13267   1.339   3.305   8.077  0.8964 -1.7136  0.7528
  124OSM   H13G13268   1.239   3.160   8.058 -3.4476 -0.0157  2.8213
  124OSM   C14F13269   1.119   3.323   8.124  0.0885  0.7053  0.0999
  124OSM   H14F13270   1.031   3.282   8.070 -0.0468  0.7454  0.2902
  124OSM   H14G13271   1.131   3.433   8.127  1.3523  0.6421 -1.3802
  124OSM   C15F13272   1.116   3.266   8.261  0.1921 -0.8462 -0.0709
  124OSM   H15F13273   1.062   3.332   8.332 -1.4859 -1.4136 -0.7546
  124OSM   H15G13274   1.220   3.265   8.298  0.7679 -1.0014 -1.6059
  124OSM   C16F13275   1.051   3.131   8.271  0.2043  0.5026  0.4193
  124OSM   H16F13276   1.072   3.067   8.183  2.9979  1.1354  0.5385
  124OSM   H16G13277   0.941   3.142   8.272  0.0547 -0.8285  0.5356
  124OSM   C17F13278   1.089   3.045   8.386 -0.0552  1.0127  0.2148
  124OSM   H17F13279   1.199   3.034   8.372 -0.6455 -3.0892 -3.7526
  124OSM   H17G13280   1.053   2.940   8.373  0.9419  0.8214 -1.3553
  124OSM   C18F13281   1.071   3.095   8.532  0.6317 -0.4628  0.6379
  124OSM   H18F13282   0.971   3.092   8.581 -0.1553  1.8519 -0.7044
  124OSM   H18G13283   1.110   3.198   8.540 -1.4550  0.3886  0.3143
  124OSM   H18H13284   1.130   3.025   8.597  1.4814 -0.6021 -0.2584
  125OSM      N13285   6.540   3.686   6.317 -0.1599 -0.3937  0.1731
  125OSM    C1513286   6.612   3.595   6.412  0.2621 -0.3677  0.4488
  125OSM   H15A13287   6.643   3.498   6.375  0.7239 -0.7692  1.8404
  125OSM   H15B13288   6.550   3.571   6.497  1.2935 -0.8304  1.0821
  125OSM   H15C13289   6.706   3.639   6.441  0.2066 -0.3247  0.5641
  125OSM    C1413290   6.419   3.614   6.273  0.0066  0.3631 -0.2679
  125OSM   H14A13291   6.336   3.623   6.342 -0.0213 -1.0178 -0.0934
  125OSM   H14B13292   6.443   3.510   6.253 -0.1188  0.4906 -1.1298
  125OSM   H14C13293   6.380   3.646   6.177 -0.4935 -0.1346 -0.2340
  125OSM    C1313294   6.503   3.809   6.390  0.1437 -0.1857 -0.0679
  125OSM   H13A13295   6.446   3.788   6.479  0.9336  0.7909  0.6872
  125OSM   H13B13296   6.438   3.870   6.329 -0.0937 -0.4581 -0.0892
  125OSM   H13C13297   6.590   3.863   6.423  1.0620 -1.3654 -0.5005
  125OSM    C1213298   6.622   3.710   6.194  0.2027  0.3933 -0.3023
  125OSM   H12A13299   6.698   3.784   6.216 -0.4117  0.8221  0.4031
  125OSM   H12B13300   6.560   3.743   6.112 -2.9874 -0.2364  1.6905
  125OSM    C1113301   6.688   3.578   6.132  0.2735 -0.3408  0.8955
  125OSM   H11A13302   6.748   3.611   6.044 -1.8268 -0.1833 -0.5589
  125OSM   H11B13303   6.604   3.519   6.090  0.3845 -0.7522  1.2528
  125OSM      P13304   6.913   3.498   6.256  0.7774 -0.2799  0.1050
  125OSM    O1313305   6.951   3.358   6.283 -0.6896  0.1804 -0.6621
  125OSM    O1413306   6.991   3.574   6.160  0.3993  0.0712  0.2257
  125OSM    O1113307   6.916   3.584   6.390 -0.0152 -0.5869 -0.0936
  125OSM    O1213308   6.761   3.494   6.222  0.4914 -0.2931  0.6931
  125OSM    C1S13309   6.937   3.526   6.513 -0.1140 -0.1399  0.0311
  125OSM    H1S13310   7.027   3.462   6.504  1.2686  1.9959 -3.8500
  125OSM    H1T13311   6.852   3.461   6.544 -0.0219  0.3262  1.3576
  125OSM     NF13312   7.008   3.562   6.738  0.4855 -0.1227 -0.1288
  125OSM    HNF13313   6.941   3.539   6.809  0.7717  1.3745  0.6777
  125OSM    C2S13314   6.960   3.636   6.628 -0.0178  0.0553 -0.0046
  125OSM    H2S13315   7.039   3.700   6.584 -1.3813  2.0243  0.2936
  125OSM    C3S13316   6.829   3.712   6.640  0.0273 -1.0323 -0.3812
  125OSM    H3S13317   6.746   3.639   6.647 -1.8150  0.8571 -1.3437
  125OSM     O313318   6.804   3.801   6.533  0.1075 -0.2310 -0.0980
  125OSM    HO313319   6.881   3.805   6.475 -0.6316  1.7453 -1.0252
  125OSM    C4S13320   6.838   3.806   6.759 -0.1343  0.3842 -0.5843
  125OSM    H4S13321   6.903   3.895   6.752 -0.1183  0.3701 -0.6136
  125OSM    C5S13322   6.776   3.791   6.878 -0.1644 -0.1206 -0.1410
  125OSM    H5S13323   6.722   3.697   6.896 -0.6533  0.1258 -0.3063
  125OSM    C6S13324   6.769   3.889   6.997 -0.0459  0.1616  0.2338
  125OSM    H6S13325   6.710   3.833   7.073  0.8935  0.0887  0.9301
  125OSM    H6T13326   6.718   3.982   6.965  0.9592 -0.0192 -2.0673
  125OSM    C7S13327   6.917   3.921   7.048 -0.5158  0.6770  0.5351
  125OSM    H7S13328   6.980   3.966   6.968 -2.3763  0.7389 -0.9810
  125OSM    H7T13329   6.967   3.825   7.070  1.5550  0.9869 -2.1968
  125OSM    C8S13330   6.920   4.013   7.174 -0.0377 -0.2167 -0.7133
  125OSM    H8S13331   6.840   4.086   7.152 -2.1987 -1.3255  2.6340
  125OSM    H8T13332   7.024   4.051   7.177 -0.4998  1.0391  0.4018
  125OSM    C9S13333   6.889   3.939   7.303 -0.0704  0.2793  0.0117
  125OSM    H9S13334   6.964   3.858   7.316 -2.8336 -2.7443 -1.6196
  125OSM    H9T13335   6.787   3.896   7.300 -0.2298  0.6899 -1.3269
  125OSM   C10S13336   6.893   4.032   7.428  0.0205 -0.3183  0.1532
  125OSM   H10S13337   6.830   4.122   7.410  1.8936  0.8873 -0.6936
  125OSM   H10T13338   6.997   4.071   7.431 -0.0576  0.2178 -2.2252
  125OSM   C11S13339   6.858   3.953   7.555 -1.0070 -0.0015  0.1134
  125OSM   H11S13340   6.929   3.868   7.560  0.2584  1.0858  1.5789
  125OSM   H11T13341   6.754   3.916   7.544 -0.6744 -1.2564  0.9656
  125OSM   C12S13342   6.871   4.054   7.667  0.1668  0.2636  0.6514
  125OSM   H12S13343   6.785   4.125   7.656 -2.7652 -3.1984 -0.7038
  125OSM   H12T13344   6.976   4.091   7.672  0.6632 -1.2803  2.4405
  125OSM   C13S13345   6.858   3.983   7.805  1.4096 -0.1578 -0.4440
  125OSM   H13S13346   6.941   3.910   7.809  0.5586 -1.2086 -1.2567
  125OSM   H13T13347   6.769   3.916   7.796  1.2262  0.1666 -1.1136
  125OSM   C14S13348   6.846   4.078   7.931 -0.3138  0.5201 -0.2088
  125OSM   H14S13349   6.743   4.117   7.923 -0.8121 -0.7563 -0.3373
  125OSM   H14T13350   6.921   4.157   7.911 -0.1713  0.3295 -0.4319
  125OSM   C15S13351   6.857   3.997   8.055 -0.5018 -0.4584 -0.3581
  125OSM   H15S13352   6.961   3.959   8.057 -0.5459 -0.5624  0.0275
  125OSM   H15T13353   6.782   3.915   8.046 -1.5280  0.3890  0.2060
  125OSM   C16S13354   6.824   4.082   8.181  0.1676 -0.4768  0.2147
  125OSM   H16S13355   6.720   4.118   8.187 -0.0193 -1.1268  1.1803
  125OSM   H16T13356   6.899   4.164   8.177 -0.9342  0.5987  1.0430
  125OSM   C17S13357   6.863   4.011   8.309 -0.4747 -0.3327  1.1865
  125OSM   H17S13358   6.828   4.073   8.395 -1.4951  4.4869 -2.3058
  125OSM   H17T13359   6.973   4.006   8.322 -0.1457 -0.6310 -1.3641
  125OSM   C18S13360   6.800   3.877   8.323  0.4812  0.3056  0.4506
  125OSM   H18S13361   6.851   3.805   8.256 -0.3710 -0.2720  0.4211
  125OSM   H18T13362   6.693   3.872   8.294 -0.2667  1.4598  2.7416
  125OSM   H18U13363   6.824   3.853   8.429  1.5587  1.5311  0.5161
  125OSM    C1F13364   7.128   3.498   6.757  0.0791  0.5239 -0.1160
  125OSM     OF13365   7.211   3.493   6.671  0.0562  0.0835 -0.4207
  125OSM    C2F13366   7.132   3.426   6.886 -0.5762 -0.5408 -0.7119
  125OSM    H2F13367   7.082   3.329   6.864 -1.4170  0.1638 -2.0971
  125OSM    H2G13368   7.072   3.473   6.966 -2.2703  1.0519 -2.8123
  125OSM    C3F13369   7.278   3.391   6.946  0.3083  0.4693  0.0669
  125OSM    H3F13370   7.343   3.480   6.931  1.6344 -0.9189 -3.5789
  125OSM    H3G13371   7.316   3.301   6.892 -0.1980  0.0035  0.4704
  125OSM    C4F13372   7.271   3.344   7.091  0.4889 -0.2315 -0.1119
  125OSM    H4F13373   7.211   3.251   7.094  1.0234 -0.5872 -0.1425
  125OSM    H4G13374   7.233   3.420   7.163 -1.0036 -0.2844 -0.8076
  125OSM    C5F13375   7.406   3.297   7.141 -0.3927  0.1943  0.2572
  125OSM    H5F13376   7.477   3.381   7.157 -0.1730  0.1534 -0.4970
  125OSM    H5G13377   7.461   3.238   7.065  1.6105  1.4597  0.6483
  125OSM    C6F13378   7.392   3.208   7.273 -0.2045 -0.0565 -0.3061
  125OSM    H6F13379   7.493   3.177   7.309 -0.2924 -0.5316 -0.4646
  125OSM    H6G13380   7.339   3.113   7.250 -1.6255  0.2649  1.4385
  125OSM    C7F13381   7.316   3.277   7.383 -0.5428  0.5276  0.1001
  125OSM    H7F13382   7.208   3.258   7.366  0.1448 -2.0403 -2.1702
  125OSM    H7G13383   7.339   3.385   7.386 -0.6330  0.5342  1.6718
  125OSM    C8F13384   7.366   3.221   7.519  1.0643  0.2306 -0.3226
  125OSM    H8F13385   7.466   3.262   7.546  1.9334 -2.4726  0.9363
  125OSM    H8G13386   7.364   3.111   7.503 -1.5307  0.3165 -0.9804
  125OSM    C9F13387   7.262   3.252   7.622  0.0310  0.5793  0.1596
  125OSM    H9F13388   7.169   3.201   7.592  1.2698 -0.9809 -1.1587
  125OSM   C10F13389   7.274   3.328   7.732  0.3795 -0.1031 -0.0058
  125OSM   H10F13390   7.186   3.353   7.793 -0.2687  1.4635 -1.4938
  125OSM   C11F13391   7.404   3.398   7.773 -0.5130  0.0871  0.3934
  125OSM   H11F13392   7.381   3.506   7.790  0.0853  0.2557  0.1818
  125OSM   H11G13393   7.479   3.391   7.692 -0.7073 -0.3826  0.2553
  125OSM   C12F13394   7.465   3.329   7.896  0.2307  0.0308 -0.2666
  125OSM   H12F13395   7.559   3.382   7.925  0.9321 -1.2490 -0.1138
  125OSM   H12G13396   7.490   3.226   7.862  0.4130 -0.4010  1.1183
  125OSM   C13F13397   7.384   3.334   8.024 -0.1165 -0.1820 -0.2011
  125OSM   H13F13398   7.282   3.291   8.024 -1.1859  2.0812  1.6490
  125OSM   H13G13399   7.362   3.443   8.033  0.8193  0.0471 -0.5641
  125OSM   C14F13400   7.442   3.267   8.149 -0.9386 -0.3964 -0.0233
  125OSM   H14F13401   7.549   3.242   8.130 -1.4014 -0.9660 -2.2085
  125OSM   H14G13402   7.392   3.170   8.169 -1.0021  0.1468  2.7476
  125OSM   C15F13403   7.453   3.355   8.276 -0.1023 -0.1580 -0.3011
  125OSM   H15F13404   7.346   3.384   8.274  0.1718  0.8903 -2.3091
  125OSM   H15G13405   7.508   3.450   8.260 -1.6398  0.6388 -1.0532
  125OSM   C16F13406   7.495   3.272   8.397 -0.1526  0.4390 -0.2517
  125OSM   H16F13407   7.477   3.341   8.482 -1.1792  2.0366 -1.7039
  125OSM   H16G13408   7.606   3.261   8.394 -0.1642  0.4465 -1.3742
  125OSM   C17F13409   7.413   3.149   8.447 -0.2362  0.5073  0.8579
  125OSM   H17F13410   7.447   3.110   8.545  2.5781  0.1126 -0.1822
  125OSM   H17G13411   7.432   3.065   8.377  0.2604 -1.0018  2.7253
  125OSM   C18F13412   7.264   3.200   8.448 -0.2847 -0.2039 -0.1294
  125OSM   H18F13413   7.255   3.255   8.544 -0.9542 -1.7860  0.7546
  125OSM   H18G13414   7.198   3.111   8.463  1.9916 -1.9908 -0.1484
  125OSM   H18H13415   7.242   3.253   8.353  0.6309  0.3944 -0.0181
  126OSM      N13416   3.566   5.163   6.481 -0.2718  0.1531  0.2604
  126OSM    C1513417   3.704   5.206   6.482  0.4001  0.6522  0.2258
  126OSM   H15A13418   3.762   5.158   6.559 -0.4006  2.3968  2.0030
  126OSM   H15B13419   3.708   5.313   6.500 -1.3060  0.9617 -0.9517
  126OSM   H15C13420   3.744   5.192   6.383 -0.8681  0.5996 -0.3059
  126OSM    C1413421   3.557   5.017   6.446 -0.0474  0.9611  0.5574
  126OSM   H14A13422   3.452   4.994   6.435 -0.6382  3.8316 -1.1335
  126OSM   H14B13423   3.609   4.961   6.521 -1.0271 -0.1462  0.4381
  126OSM   H14C13424   3.589   4.988   6.347 -4.6990 -2.0603 -0.3838
  126OSM    C1313425   3.509   5.191   6.616  0.6026 -0.0944 -0.0945
  126OSM   H13A13426   3.493   5.298   6.618  0.7110 -0.0682 -0.6083
  126OSM   H13B13427   3.580   5.161   6.693  0.9095  2.5202  0.7389
  126OSM   H13C13428   3.417   5.138   6.632  0.4035 -1.3061 -4.1323
  126OSM    C1213429   3.491   5.249   6.373  0.3656 -0.5459 -0.6761
  126OSM   H12A13430   3.386   5.224   6.372  0.3160 -0.4321  0.8097
  126OSM   H12B13431   3.533   5.225   6.276 -0.0091 -0.2627 -0.9145
  126OSM    C1113432   3.504   5.401   6.375  0.4835  0.0736 -0.2253
  126OSM   H11A13433   3.531   5.439   6.475 -2.3920  0.5988  0.4377
  126OSM   H11B13434   3.402   5.438   6.349  0.5405  1.5600  1.4642
  126OSM      P13435   3.736   5.495   6.302 -0.6761 -0.5679  0.0296
  126OSM    O1313436   3.836   5.394   6.254  0.2519  0.0397 -0.4465
  126OSM    O1413437   3.750   5.633   6.252  0.2134 -0.1690  0.5345
  126OSM    O1113438   3.742   5.502   6.459 -0.3057 -0.2763 -0.2115
  126OSM    O1213439   3.589   5.446   6.272  0.0741 -0.1434 -0.6214
  126OSM    C1S13440   3.696   5.615   6.540  0.2641  0.3071 -0.6574
  126OSM    H1S13441   3.588   5.632   6.524  0.2750 -0.1376 -1.1989
  126OSM    H1T13442   3.751   5.707   6.509  1.3842 -0.7227 -1.8376
  126OSM     NF13443   3.648   5.700   6.756  0.2928 -0.5103 -0.2470
  126OSM    HNF13444   3.694   5.788   6.750  1.0929 -0.9571 -1.0556
  126OSM    C2S13445   3.719   5.592   6.689  0.1088 -0.4531  0.1209
  126OSM    H2S13446   3.670   5.495   6.716  0.5200 -0.3318  1.3985
  126OSM    C3S13447   3.874   5.587   6.728  0.3471  0.2676 -0.4293
  126OSM    H3S13448   3.923   5.681   6.694 -1.1407  0.7676 -1.2791
  126OSM     O313449   3.961   5.495   6.659  0.2196  1.0114  0.5324
  126OSM    HO313450   3.912   5.440   6.597  3.3375 -1.8267  0.3632
  126OSM    C4S13451   3.889   5.559   6.878 -0.0600  0.2232  0.5496
  126OSM    H4S13452   3.823   5.489   6.930 -1.5846  0.0103 -1.5548
  126OSM    C5S13453   3.982   5.623   6.944 -1.3958  0.1929 -0.2997
  126OSM    H5S13454   4.045   5.682   6.875 -0.5598 -1.5432 -1.0982
  126OSM    C6S13455   4.018   5.612   7.089  0.4102 -0.3584 -0.4712
  126OSM    H6S13456   3.931   5.616   7.158 -0.4010  1.3802 -1.5384
  126OSM    H6T13457   4.072   5.704   7.120  0.1563  0.5259 -2.5271
  126OSM    C7S13458   4.106   5.490   7.116  0.3384  0.2687 -0.2210
  126OSM    H7S13459   4.209   5.494   7.074  0.3392  0.2305 -0.2229
  126OSM    H7T13460   4.053   5.411   7.059  0.3760 -1.4764  2.0133
  126OSM    C8S13461   4.097   5.454   7.263  0.6545  0.0231 -0.2793
  126OSM    H8S13462   4.152   5.359   7.279  0.2708  0.0811  1.6902
  126OSM    H8T13463   3.994   5.437   7.301  1.3749 -0.3283  1.6911
  126OSM    C9S13464   4.150   5.565   7.357  0.5581  0.1183  0.8691
  126OSM    H9S13465   4.062   5.628   7.382 -0.2088 -0.5366 -0.1010
  126OSM    H9T13466   4.230   5.628   7.313  0.6421  0.2549  1.2090
  126OSM   C10S13467   4.199   5.488   7.481 -0.0672 -0.2317 -0.3643
  126OSM   H10S13468   4.281   5.419   7.451  0.3461 -0.1534  0.5612
  126OSM   H10T13469   4.118   5.429   7.529  1.6732 -2.2544  0.2492
  126OSM   C11S13470   4.255   5.589   7.584  0.8690 -0.4564 -0.1374
  126OSM   H11S13471   4.171   5.650   7.625  1.2152 -1.5049  2.3014
  126OSM   H11T13472   4.328   5.659   7.537  0.3824  2.1729  2.7210
  126OSM   C12S13473   4.310   5.520   7.702 -0.3094  1.2751 -0.4736
  126OSM   H12S13474   4.369   5.428   7.679  0.6905  1.7629  0.0464
  126OSM   H12T13475   4.235   5.477   7.771  0.1233  1.0285 -0.1536
  126OSM   C13S13476   4.396   5.599   7.797  0.1480  0.6166  0.8523
  126OSM   H13S13477   4.340   5.692   7.824  0.7895  1.1169  0.4822
  126OSM   H13T13478   4.491   5.625   7.747  1.0523 -1.2853  1.4880
  126OSM   C14S13479   4.437   5.526   7.931  0.1787  0.2896  0.6735
  126OSM   H14S13480   4.469   5.423   7.907 -2.5387 -0.1088 -1.8122
  126OSM   H14T13481   4.346   5.513   7.994 -0.5465 -1.4546 -0.6757
  126OSM   C15S13482   4.536   5.592   8.020  0.6938 -0.2381 -0.3292
  126OSM   H15S13483   4.517   5.701   8.013  0.6816 -0.1768  0.4830
  126OSM   H15T13484   4.639   5.572   7.984  0.3628 -1.8202 -0.4720
  126OSM   C16S13485   4.529   5.543   8.165 -1.0965  0.3459  0.6714
  126OSM   H16S13486   4.572   5.441   8.177 -1.6442  0.1474  1.0223
  126OSM   H16T13487   4.424   5.523   8.195 -1.7772 -2.3931 -2.8585
  126OSM   C17S13488   4.602   5.633   8.267  0.0150 -0.2649 -0.0622
  126OSM   H17S13489   4.565   5.738   8.261  2.1506  0.6890  1.6800
  126OSM   H17T13490   4.711   5.640   8.242 -0.1514  0.2275 -0.6758
  126OSM   C18S13491   4.598   5.591   8.410  0.1307 -0.1585  0.0095
  126OSM   H18S13492   4.663   5.657   8.471 -2.4586  2.8677 -0.2662
  126OSM   H18T13493   4.622   5.484   8.430 -1.2668 -0.8023 -1.5343
  126OSM   H18U13494   4.492   5.591   8.445 -0.4327 -0.6553 -1.5881
  126OSM    C1F13495   3.513   5.693   6.773 -0.8540  0.3872 -0.1120
  126OSM     OF13496   3.453   5.586   6.749 -0.0202  0.4830 -0.3899
  126OSM    C2F13497   3.453   5.822   6.818 -0.2218  0.8147  0.1127
  126OSM    H2F13498   3.441   5.889   6.730  0.8643  0.0311 -0.6555
  126OSM    H2G13499   3.526   5.876   6.883  0.2948  1.2080 -0.7803
  126OSM    C3F13500   3.322   5.796   6.899 -0.0884  0.6767  0.2704
  126OSM    H3F13501   3.250   5.731   6.846  1.1983 -1.7663  1.3539
  126OSM    H3G13502   3.276   5.897   6.911  1.5595  1.6473 -1.0232
  126OSM    C4F13503   3.354   5.725   7.030  0.4645 -0.5409  0.1627
  126OSM    H4F13504   3.397   5.625   7.007 -1.0151 -1.3812  0.8718
  126OSM    H4G13505   3.250   5.721   7.071 -0.3507 -0.1314 -1.7450
  126OSM    C5F13506   3.446   5.789   7.135  0.0832 -0.7091 -0.1683
  126OSM    H5F13507   3.406   5.890   7.158 -2.2770 -1.7104  0.4922
  126OSM    H5G13508   3.549   5.793   7.096  0.6406 -1.8870  1.0766
  126OSM    C6F13509   3.443   5.708   7.270  0.0909  0.5474 -0.0433
  126OSM    H6F13510   3.485   5.606   7.259  2.0220  1.4872 -2.2341
  126OSM    H6G13511   3.338   5.706   7.306  0.2050 -0.3840  0.2572
  126OSM    C7F13512   3.522   5.776   7.381  0.6726  0.3708  0.1011
  126OSM    H7F13513   3.487   5.881   7.368 -0.3521  0.0003 -0.2931
  126OSM    H7G13514   3.629   5.778   7.354  0.5689  0.8627 -0.3027
  126OSM    C8F13515   3.491   5.723   7.522 -0.1376 -0.5840 -0.3361
  126OSM    H8F13516   3.381   5.740   7.527 -0.1458 -0.8658  0.4857
  126OSM    H8G13517   3.532   5.790   7.600  0.2198 -2.9157  1.5680
  126OSM    C9F13518   3.527   5.579   7.539  0.0881 -0.6433 -0.1140
  126OSM    H9F13519   3.474   5.511   7.471 -1.2952  0.6867 -0.4228
  126OSM   C10F13520   3.607   5.519   7.630  0.0581  0.2633 -0.3142
  126OSM   H10F13521   3.616   5.410   7.634 -0.5895  0.2289  0.4947
  126OSM   C11F13522   3.691   5.595   7.734  0.0068  0.5360  0.4442
  126OSM   H11F13523   3.718   5.523   7.814 -0.1901 -2.9805 -2.4333
  126OSM   H11G13524   3.642   5.688   7.772 -0.6211  0.7749 -0.8797
  126OSM   C12F13525   3.813   5.671   7.671 -0.6479 -0.2064 -1.0168
  126OSM   H12F13526   3.781   5.754   7.604  0.3598  0.9666 -0.0817
  126OSM   H12G13527   3.871   5.596   7.613 -1.2061 -0.1136 -1.7185
  126OSM   C13F13528   3.898   5.740   7.778  0.3461 -1.1413 -0.3594
  126OSM   H13F13529   3.833   5.815   7.828 -0.1763 -2.7204  1.4536
  126OSM   H13G13530   3.983   5.793   7.731  0.8639  0.2838  1.9967
  126OSM   C14F13531   3.955   5.648   7.885 -0.5643  0.0650 -0.8523
  126OSM   H14F13532   4.011   5.570   7.829  1.3402  0.9682 -0.3004
  126OSM   H14G13533   3.870   5.598   7.936 -0.6820  0.9908 -0.1075
  126OSM   C15F13534   4.041   5.723   7.997  0.0453  0.1453  0.3505
  126OSM   H15F13535   4.137   5.743   7.946  0.1277  1.4070  0.9687
  126OSM   H15G13536   4.074   5.651   8.074  4.4959  2.0109  0.4861
  126OSM   C16F13537   3.970   5.848   8.049 -1.2385  0.1656 -0.8175
  126OSM   H16F13538   3.861   5.826   8.059 -0.9996 -0.4498  0.7918
  126OSM   H16G13539   3.977   5.937   7.983 -2.3938  1.6858  1.0033
  126OSM   C17F13540   4.014   5.893   8.195  0.2027 -0.2817  0.2497
  126OSM   H17F13541   4.003   5.813   8.271  0.5610 -0.3304  0.2532
  126OSM   H17G13542   3.939   5.972   8.217  1.0686  0.9502 -1.0255
  126OSM   C18F13543   4.158   5.950   8.207 -0.1225  0.7562 -0.1493
  126OSM   H18F13544   4.175   6.032   8.135 -0.1235 -0.4447 -1.5629
  126OSM   H18G13545   4.239   5.875   8.196 -0.9088 -0.0704 -0.4076
  126OSM   H18H13546   4.180   5.990   8.309  0.7304 -2.5052  1.0893
  127OSM      N13547   5.425   5.042   6.139  0.1924  0.4229  0.4444
  127OSM    C1513548   5.459   5.153   6.036  0.2685 -0.0090  0.0787
  127OSM   H15A13549   5.523   5.229   6.080  0.5864  1.1369 -2.2429
  127OSM   H15B13550   5.372   5.210   6.009 -0.4552 -0.1676  1.9106
  127OSM   H15C13551   5.513   5.132   5.945  3.4222  0.5962  1.6291
  127OSM    C1413552   5.319   5.095   6.225 -0.3615  0.2523  0.1113
  127OSM   H14A13553   5.361   5.168   6.293  2.0304 -1.6471  0.8032
  127OSM   H14B13554   5.269   5.015   6.279  0.6998 -0.2748  0.3298
  127OSM   H14C13555   5.241   5.145   6.170  1.2933  3.6472  0.6018
  127OSM    C1313556   5.365   4.926   6.066 -1.0376  0.2461  0.6639
  127OSM   H13A13557   5.428   4.900   5.982 -1.1804  0.7867  0.3825
  127OSM   H13B13558   5.271   4.952   6.019 -0.2702  4.0166  0.8511
  127OSM   H13C13559   5.363   4.835   6.124 -0.5732 -0.4983 -0.4493
  127OSM    C1213560   5.544   4.997   6.214  0.1917  0.3350 -0.3332
  127OSM   H12A13561   5.574   5.074   6.284  0.0976 -0.8007  1.0026
  127OSM   H12B13562   5.627   4.982   6.147 -0.2716  0.4136 -0.9305
  127OSM    C1113563   5.520   4.862   6.298 -0.0256 -0.2079  0.3306
  127OSM   H11A13564   5.435   4.887   6.365  1.3423  2.6437  1.1824
  127OSM   H11B13565   5.599   4.853   6.375 -0.1885 -0.7731  0.4366
  127OSM      P13566   5.393   4.631   6.257  0.2571 -0.3650 -0.0451
  127OSM    O1313567   5.262   4.665   6.191 -0.3905  0.0344  0.2252
  127OSM    O1413568   5.446   4.495   6.228 -0.0480  0.1266  0.0580
  127OSM    O1113569   5.392   4.648   6.410  0.0580  0.1914 -0.0772
  127OSM    O1213570   5.503   4.739   6.224 -0.1413 -0.1022  0.5340
  127OSM    C1S13571   5.513   4.606   6.481  0.9692  0.4374 -0.1514
  127OSM    H1S13572   5.605   4.656   6.445  1.0058  0.9738  0.6533
  127OSM    H1T13573   5.536   4.499   6.460  0.9763  0.5557 -0.7612
  127OSM     NF13574   5.642   4.638   6.698  0.2187 -0.1989  0.2124
  127OSM    HNF13575   5.670   4.567   6.762  0.9396  0.2588  0.4153
  127OSM    C2S13576   5.509   4.634   6.634  0.5646 -0.6523 -0.2027
  127OSM    H2S13577   5.453   4.729   6.644 -0.1951 -1.1430  0.3266
  127OSM    C3S13578   5.405   4.538   6.695  0.1697  0.5033  0.2908
  127OSM    H3S13579   5.443   4.434   6.689 -0.3646  0.3275 -0.1201
  127OSM     O313580   5.285   4.543   6.622  0.0402  0.6424 -0.2478
  127OSM    HO313581   5.306   4.583   6.538  0.9342  0.4270 -0.1393
  127OSM    C4S13582   5.372   4.583   6.834 -0.1732  0.1791  0.0811
  127OSM    H4S13583   5.303   4.667   6.846  1.6304  1.9112 -1.0169
  127OSM    C5S13584   5.436   4.538   6.946  0.0242 -0.2071  0.2423
  127OSM    H5S13585   5.511   4.459   6.932  0.8885  0.6648 -0.1319
  127OSM    C6S13586   5.417   4.589   7.084  0.3904 -0.2871 -0.9522
  127OSM    H6S13587   5.513   4.593   7.140  0.0976 -0.8984 -0.3851
  127OSM    H6T13588   5.367   4.508   7.142 -2.3784  1.8118 -0.2342
  127OSM    C7S13589   5.326   4.712   7.103 -0.4268  0.1040 -0.0953
  127OSM    H7S13590   5.218   4.686   7.109 -0.4600  0.3892  0.6722
  127OSM    H7T13591   5.346   4.781   7.019  0.6037  0.3885  0.3732
  127OSM    C8S13592   5.365   4.796   7.224  0.0759 -0.3232 -0.6976
  127OSM    H8S13593   5.472   4.827   7.226  0.2622 -0.5527  4.1991
  127OSM    H8T13594   5.345   4.740   7.318 -0.4564  0.0625 -0.5763
  127OSM    C9S13595   5.287   4.931   7.252 -0.1237  0.2189 -1.2254
  127OSM    H9S13596   5.179   4.912   7.269 -0.3301  0.5689 -2.0521
  127OSM    H9T13597   5.306   4.998   7.164  1.0693  1.3473 -0.1547
  127OSM   C10S13598   5.349   5.010   7.373 -0.3337  0.3376 -0.3084
  127OSM   H10S13599   5.446   5.052   7.338 -0.8622  3.5302  1.6575
  127OSM   H10T13600   5.370   4.935   7.452  1.5289  0.9578 -0.1691
  127OSM   C11S13601   5.270   5.124   7.427 -0.3668  0.5135 -0.7090
  127OSM   H11S13602   5.163   5.096   7.426  0.0059 -1.1379 -2.6365
  127OSM   H11T13603   5.289   5.210   7.358  2.9558  0.2298 -0.3514
  127OSM   C12S13604   5.319   5.186   7.558 -0.1336 -0.1675 -0.5073
  127OSM   H12S13605   5.312   5.296   7.544 -0.8083 -0.4399 -2.7077
  127OSM   H12T13606   5.425   5.154   7.573 -0.1327 -0.4743 -1.1269
  127OSM   C13S13607   5.235   5.149   7.678 -0.4726  0.5645 -0.0559
  127OSM   H13S13608   5.196   5.045   7.678 -0.5011  0.5453  1.6331
  127OSM   H13T13609   5.141   5.207   7.682 -1.1011 -0.4803  0.8520
  127OSM   C14S13610   5.310   5.162   7.814  0.1232 -0.2844 -0.3527
  127OSM   H14S13611   5.343   5.267   7.805 -0.7707 -0.0334 -0.8825
  127OSM   H14T13612   5.402   5.101   7.804  0.7434  0.8955 -2.2749
  127OSM   C15S13613   5.236   5.128   7.943  0.0799  0.3944  0.2309
  127OSM   H15S13614   5.319   5.111   8.015  2.1674 -1.4893 -2.4160
  127OSM   H15T13615   5.194   5.026   7.933  2.3545 -1.0168  3.4463
  127OSM   C16S13616   5.128   5.224   7.986 -0.3722 -0.0743  0.1422
  127OSM   H16S13617   5.038   5.193   7.929 -1.6070 -0.0590  1.9840
  127OSM   H16T13618   5.161   5.324   7.950  0.5119 -0.6687 -0.7467
  127OSM   C17S13619   5.108   5.221   8.136  0.2451  0.1916 -0.2918
  127OSM   H17S13620   5.204   5.248   8.184  0.6289 -3.5382  1.4028
  127OSM   H17T13621   5.093   5.113   8.157  0.9248  0.0410 -0.5374
  127OSM   C18S13622   4.988   5.306   8.195  0.5757  0.1345  0.7157
  127OSM   H18S13623   4.895   5.260   8.156  2.2556 -1.4651 -1.6884
  127OSM   H18T13624   5.011   5.408   8.157  1.7444 -0.6817 -0.8580
  127OSM   H18U13625   4.999   5.300   8.305  0.2599 -1.3256  0.6893
  127OSM    C1F13626   5.730   4.735   6.679  0.3976  0.5858 -0.2369
  127OSM     OF13627   5.692   4.840   6.627  0.2747 -0.2963 -0.2314
  127OSM    C2F13628   5.874   4.716   6.720 -0.0713  0.3916 -0.1126
  127OSM    H2F13629   5.931   4.729   6.625 -0.7275 -0.3343 -0.6237
  127OSM    H2G13630   5.907   4.614   6.751  3.3742  0.4815 -2.8677
  127OSM    C3F13631   5.899   4.798   6.838  0.5717 -0.4149  0.2010
  127OSM    H3F13632   5.877   4.906   6.825 -0.5937 -0.5089  1.2087
  127OSM    H3G13633   6.006   4.787   6.867  0.9070  0.2977 -0.7104
  127OSM    C4F13634   5.809   4.772   6.955 -0.7283  0.5649 -0.3352
  127OSM    H4F13635   5.816   4.669   6.996 -0.9109  0.9775  0.7632
  127OSM    H4G13636   5.701   4.797   6.945 -0.6225  1.8380  1.2259
  127OSM    C5F13637   5.855   4.852   7.079 -0.0373  0.7185  0.4489
  127OSM    H5F13638   5.832   4.961   7.067 -0.1801  0.5201 -1.4360
  127OSM    H5G13639   5.963   4.829   7.082 -0.3186 -1.4873 -2.4509
  127OSM    C6F13640   5.787   4.807   7.208  0.1261 -0.2676 -0.0418
  127OSM    H6F13641   5.810   4.699   7.212  0.4548 -0.1753  2.3903
  127OSM    H6G13642   5.678   4.817   7.189 -0.0531  1.8686  1.6314
  127OSM    C7F13643   5.821   4.896   7.330 -0.4321 -0.1524  0.5006
  127OSM    H7F13644   5.808   5.001   7.296  1.1922 -0.1736 -0.2797
  127OSM    H7G13645   5.927   4.895   7.364  0.1420  2.3547 -0.9663
  127OSM    C8F13646   5.730   4.879   7.448 -0.7618 -0.3688  0.7343
  127OSM    H8F13647   5.620   4.886   7.433 -0.6811 -1.1249 -0.3262
  127OSM    H8G13648   5.760   4.961   7.518 -0.9304  1.6956 -1.4788
  127OSM    C9F13649   5.761   4.743   7.513 -0.0765 -0.4170  0.4175
  127OSM    H9F13650   5.867   4.718   7.499  0.1382  0.9898 -0.6666
  127OSM   C10F13651   5.668   4.675   7.585 -1.0865 -0.3820 -0.5810
  127OSM   H10F13652   5.715   4.589   7.634 -1.1967 -1.1821 -1.8456
  127OSM   C11F13653   5.524   4.701   7.605 -0.0181 -0.4052  0.3556
  127OSM   H11F13654   5.468   4.606   7.621  1.3632 -1.0854  1.3460
  127OSM   H11G13655   5.481   4.740   7.511 -1.1723 -1.2639  0.4985
  127OSM   C12F13656   5.490   4.792   7.725 -0.2222 -0.0787  0.2797
  127OSM   H12F13657   5.380   4.810   7.725 -0.4220 -1.1145 -1.2486
  127OSM   H12G13658   5.538   4.888   7.698  0.3502 -0.8275 -1.5411
  127OSM   C13F13659   5.538   4.753   7.870 -0.4063 -0.0766 -0.2219
  127OSM   H13F13660   5.648   4.738   7.865 -0.2735  0.3138  1.2345
  127OSM   H13G13661   5.490   4.656   7.892  0.4645 -0.6300 -0.6683
  127OSM   C14F13662   5.504   4.846   7.989 -0.0612  0.6847  0.3957
  127OSM   H14F13663   5.393   4.843   7.997 -0.3594 -3.3423 -2.3966
  127OSM   H14G13664   5.527   4.951   7.961 -0.1571  1.5502  3.2789
  127OSM   C15F13665   5.576   4.803   8.120  0.5461 -0.2534  0.4641
  127OSM   H15F13666   5.669   4.749   8.093  0.7814  0.6863 -0.6831
  127OSM   H15G13667   5.512   4.733   8.179  0.4500 -0.6425 -0.0935
  127OSM   C16F13668   5.608   4.913   8.208  0.3087 -0.5343  0.0765
  127OSM   H16F13669   5.653   4.991   8.142 -0.7068 -1.3085 -1.5925
  127OSM   H16G13670   5.681   4.873   8.282 -0.0970  0.6960  1.1756
  127OSM   C17F13671   5.488   4.961   8.292  0.0788  0.1315  0.0403
  127OSM   H17F13672   5.447   4.867   8.334  1.2559  0.3117  1.6674
  127OSM   H17G13673   5.404   5.009   8.237  1.4181  2.3467 -0.1989
  127OSM   C18F13674   5.530   5.052   8.414  0.5513 -0.1726 -0.6169
  127OSM   H18F13675   5.435   5.083   8.463  1.9827  1.7484  1.1391
  127OSM   H18G13676   5.581   5.147   8.386 -1.2749  1.6561  1.7820
  127OSM   H18H13677   5.592   5.000   8.490  0.4767  0.0585 -0.3962
  128OSM      N13678   1.188   6.472   5.881  0.4596  0.6356 -0.0901
  128OSM    C1513679   1.185   6.410   5.744  0.1055 -0.3353  0.4864
  128OSM   H15A13680   1.109   6.454   5.682  0.3923 -1.3148 -0.6029
  128OSM   H15B13681   1.175   6.302   5.743  1.2584 -0.4661  0.7621
  128OSM   H15C13682   1.279   6.435   5.696 -0.5509  0.0389 -0.6415
  128OSM    C1413683   1.191   6.617   5.861 -0.1882  0.1017 -0.1284
  128OSM   H14A13684   1.200   6.665   5.957 -1.4064 -0.1493  0.1246
  128OSM   H14B13685   1.103   6.663   5.819 -1.5529 -0.5732  1.8909
  128OSM   H14C13686   1.271   6.650   5.795  0.3084  0.8507  0.8270
  128OSM    C1313687   1.072   6.425   5.963 -0.6707  0.1973 -0.2981
  128OSM   H13A13688   1.065   6.320   5.987  0.3815  0.1426 -0.1857
  128OSM   H13B13689   0.989   6.454   5.900  1.3151 -0.0290 -3.1649
  128OSM   H13C13690   1.073   6.476   6.059  0.2062  0.0345 -0.2208
  128OSM    C1213691   1.313   6.419   5.952 -0.4471  0.6161 -0.6828
  128OSM   H12A13692   1.405   6.438   5.900 -0.4006 -0.0152 -0.8380
  128OSM   H12B13693   1.320   6.312   5.948 -0.3067  0.6313 -0.8592
  128OSM    C1113694   1.352   6.477   6.091  0.2298  0.5398  0.7036
  128OSM   H11A13695   1.423   6.407   6.138 -1.7185 -0.2376  2.6365
  128OSM   H11B13696   1.261   6.485   6.154 -0.2134  1.1287  0.0080
  128OSM      P13697   1.555   6.641   6.133  0.0179 -0.2220  0.0963
  128OSM    O1313698   1.581   6.555   6.249 -0.1097 -0.1267 -0.0251
  128OSM    O1413699   1.648   6.638   6.024  0.0088 -0.6178  0.5518
  128OSM    O1113700   1.555   6.790   6.178 -0.0959 -0.3812  0.0658
  128OSM    O1213701   1.410   6.608   6.077  0.1574 -0.3501  0.3418
  128OSM    C1S13702   1.470   6.826   6.287  0.4524 -0.3900 -0.7173
  128OSM    H1S13703   1.374   6.772   6.277  0.4808 -1.4398  3.1708
  128OSM    H1T13704   1.448   6.933   6.267  1.1492 -0.7052 -3.7064
  128OSM     NF13705   1.412   6.840   6.533 -0.7290 -0.0814 -1.2859
  128OSM    HNF13706   1.416   6.926   6.584  0.1525 -1.0316  0.2963
  128OSM    C2S13707   1.520   6.810   6.434  0.1056 -0.4959  0.4708
  128OSM    H2S13708   1.543   6.702   6.450 -1.5095 -0.7089  1.5661
  128OSM    C3S13709   1.651   6.893   6.457  0.0067 -0.0928  0.1844
  128OSM    H3S13710   1.637   7.001   6.435  0.9153  0.6269  2.8265
  128OSM     O313711   1.759   6.849   6.375  0.8694 -0.5854  0.2927
  128OSM    HO313712   1.722   6.772   6.331  1.4236 -0.3904 -0.5606
  128OSM    C4S13713   1.695   6.879   6.599  0.0032  0.1840 -0.4377
  128OSM    H4S13714   1.683   6.969   6.662 -4.1471 -1.9134  2.2171
  128OSM    C5S13715   1.756   6.775   6.657 -0.6562 -0.3295  0.9231
  128OSM    H5S13716   1.769   6.696   6.581 -1.4510  0.5771 -0.1922
  128OSM    C6S13717   1.808   6.754   6.793  1.2815 -0.3322 -0.5565
  128OSM    H6S13718   1.882   6.671   6.791 -1.4988 -3.2556  2.7503
  128OSM    H6T13719   1.724   6.710   6.850 -0.6136  0.1813 -2.8185
  128OSM    C7S13720   1.849   6.883   6.857 -0.0084 -0.3138 -0.6106
  128OSM    H7S13721   1.779   6.968   6.841  2.0619  1.4172 -0.8664
  128OSM    H7T13722   1.948   6.912   6.817 -0.2512  0.4096 -0.6888
  128OSM    C8S13723   1.871   6.868   7.007 -0.5312  0.2489 -0.8629
  128OSM    H8S13724   1.932   6.777   7.024 -0.2409  0.7807  1.1637
  128OSM    H8T13725   1.778   6.856   7.067 -0.0466 -0.9450 -0.3072
  128OSM    C9S13726   1.958   6.983   7.065 -0.1638 -0.2722  1.1934
  128OSM    H9S13727   1.919   7.079   7.023 -0.2904 -0.4235  0.9646
  128OSM    H9T13728   2.053   6.977   7.007 -1.1320 -0.8763 -0.4100
  128OSM   C10S13729   1.979   6.998   7.209 -0.1526 -0.3114 -0.2192
  128OSM   H10S13730   2.054   7.080   7.221 -0.2494 -0.5057  2.2671
  128OSM   H10T13731   2.024   6.903   7.244  0.6093  0.2527  0.3803
  128OSM   C11S13732   1.856   7.037   7.298 -0.1710 -0.5389 -0.1436
  128OSM   H11S13733   1.777   6.958   7.299 -0.1729 -0.5468 -0.7302
  128OSM   H11T13734   1.809   7.134   7.270 -0.2552  0.4478  3.0133
  128OSM   C12S13735   1.921   7.067   7.435  0.5281  0.1557 -0.6380
  128OSM   H12S13736   1.956   7.172   7.434 -0.4300  0.4961 -2.7743
  128OSM   H12T13737   1.990   6.991   7.479 -0.2237 -0.6653 -0.8316
  128OSM   C13S13738   1.814   7.069   7.544  0.4107 -0.1447  0.3146
  128OSM   H13S13739   1.771   6.968   7.565  0.3169 -0.4105 -1.1045
  128OSM   H13T13740   1.739   7.150   7.532 -0.3758 -0.9885 -0.6564
  128OSM   C14S13741   1.870   7.093   7.689 -0.8549 -0.2697  0.1358
  128OSM   H14S13742   1.936   7.183   7.686  0.6993 -1.3580 -2.7696
  128OSM   H14T13743   1.942   7.011   7.709  1.0019  0.3953 -3.0731
  128OSM   C15S13744   1.763   7.105   7.795 -0.9402 -0.1738  0.0940
  128OSM   H15S13745   1.697   7.018   7.772 -0.4854 -0.6584  0.5901
  128OSM   H15T13746   1.703   7.198   7.783 -2.1067 -0.8766  0.3021
  128OSM   C16S13747   1.818   7.092   7.939  0.5119 -0.6407  0.4496
  128OSM   H16S13748   1.903   7.163   7.950  0.6613 -0.7774  0.1861
  128OSM   H16T13749   1.845   6.985   7.952 -3.1966 -1.6528  1.0218
  128OSM   C17S13750   1.721   7.116   8.061  0.3181  0.4959  0.0954
  128OSM   H17S13751   1.702   7.225   8.053  1.3655  0.8288  1.5914
  128OSM   H17T13752   1.784   7.093   8.150 -1.6767 -1.8848  1.0354
  128OSM   C18S13753   1.601   7.026   8.061 -0.0853 -0.5048  0.9417
  128OSM   H18S13754   1.549   7.029   7.963  0.0776  2.0338  0.8709
  128OSM   H18T13755   1.527   7.069   8.132 -0.0736  0.5119  0.3516
  128OSM   H18U13756   1.643   6.924   8.079  1.2199  0.0926  1.4376
  128OSM    C1F13757   1.317   6.746   6.554 -0.2674  0.1966 -0.4569
  128OSM     OF13758   1.297   6.661   6.474 -0.0337 -0.6334 -0.3299
  128OSM    C2F13759   1.238   6.758   6.680 -0.8749 -0.2597 -0.5392
  128OSM    H2F13760   1.210   6.865   6.687  2.0924  0.5760 -0.2606
  128OSM    H2G13761   1.314   6.740   6.759 -1.3577 -0.3230 -0.0779
  128OSM    C3F13762   1.111   6.664   6.691 -0.5220  0.2474 -0.6171
  128OSM    H3F13763   1.153   6.562   6.681  0.1120  0.5050 -0.6844
  128OSM    H3G13764   1.033   6.677   6.613 -1.2680 -1.0121 -0.0983
  128OSM    C4F13765   1.050   6.670   6.833 -0.2333 -0.1918  0.2061
  128OSM    H4F13766   1.003   6.770   6.843 -0.1035 -0.0334 -0.6952
  128OSM    H4G13767   1.126   6.672   6.914 -0.1875 -2.5306  0.2859
  128OSM    C5F13768   0.957   6.554   6.858 -0.4611  0.3860  0.0564
  128OSM    H5F13769   1.023   6.465   6.860 -0.7884  0.1570  1.5865
  128OSM    H5G13770   0.887   6.534   6.774 -0.1184 -1.1099  0.0857
  128OSM    C6F13771   0.892   6.565   6.995 -0.1550  0.1913 -0.6246
  128OSM    H6F13772   0.980   6.562   7.063  1.8756  2.8426 -2.8954
  128OSM    H6G13773   0.819   6.482   7.007 -1.4317  1.3749 -0.0311
  128OSM    C7F13774   0.811   6.691   7.023  0.1455  0.0308  0.1821
  128OSM    H7F13775   0.741   6.709   6.939  0.0787 -1.9258 -0.2221
  128OSM    H7G13776   0.889   6.770   7.016  1.3000 -1.1955 -1.7006
  128OSM    C8F13777   0.733   6.697   7.158  0.1275 -0.1327 -0.4830
  128OSM    H8F13778   0.658   6.618   7.178  0.1539  0.2886  1.5168
  128OSM    H8G13779   0.673   6.790   7.146 -0.6072 -0.5723 -0.2664
  128OSM    C9F13780   0.835   6.717   7.272  0.2695 -0.0366 -0.3885
  128OSM    H9F13781   0.899   6.806   7.266  2.5942 -1.4593  1.2990
  128OSM   C10F13782   0.854   6.642   7.385  0.4706  0.6414  0.6155
  128OSM   H10F13783   0.932   6.677   7.454 -1.2798  0.5582  2.7265
  128OSM   C11F13784   0.764   6.518   7.420 -0.3028 -0.3854  0.7651
  128OSM   H11F13785   0.831   6.430   7.419  1.1481  0.6427  1.6067
  128OSM   H11G13786   0.686   6.514   7.341  0.1059  2.3799  0.0938
  128OSM   C12F13787   0.679   6.534   7.546 -0.0438  0.3939 -0.7196
  128OSM   H12F13788   0.623   6.440   7.565 -1.0388  1.0504 -0.3387
  128OSM   H12G13789   0.601   6.611   7.529 -0.1998  0.2332 -0.7312
  128OSM   C13F13790   0.762   6.592   7.666  0.6345  0.5736  0.0984
  128OSM   H13F13791   0.800   6.691   7.634  0.0066  1.0051  0.6438
  128OSM   H13G13792   0.847   6.526   7.695 -0.1497 -0.1703  0.7758
  128OSM   C14F13793   0.664   6.599   7.789  0.1177  0.1293 -0.0156
  128OSM   H14F13794   0.632   6.493   7.799 -0.0577  0.0566 -1.1770
  128OSM   H14G13795   0.581   6.667   7.760  0.3382 -0.4924 -2.3120
  128OSM   C15F13796   0.726   6.649   7.917 -0.3268  0.4455  0.0674
  128OSM   H15F13797   0.763   6.752   7.898 -0.9687  0.2969 -2.2455
  128OSM   H15G13798   0.804   6.574   7.944 -0.7244  0.8295  2.5487
  128OSM   C16F13799   0.627   6.647   8.035  0.0122 -0.2138  0.9071
  128OSM   H16F13800   0.604   6.542   8.062  0.6110  0.0694  2.6675
  128OSM   H16G13801   0.533   6.689   7.994  0.7141  0.4521 -0.0640
  128OSM   C17F13802   0.671   6.725   8.156  0.1722 -0.3929 -0.2157
  128OSM   H17F13803   0.724   6.813   8.113  1.2383 -1.1695 -0.5153
  128OSM   H17G13804   0.736   6.665   8.223 -0.1949  0.1802  0.6773
  128OSM   C18F13805   0.554   6.783   8.240  0.7856  0.5114  0.3488
  128OSM   H18F13806   0.469   6.821   8.179  0.7420  2.2176  1.3979
  128OSM   H18G13807   0.589   6.870   8.300  1.3243 -0.5718  1.6383
  128OSM   H18H13808   0.512   6.704   8.305  2.5830  0.1915  1.1753
  129OSM      N13809   3.920   2.129   6.092 -0.2166  0.1221  0.2555
  129OSM    C1513810   4.046   2.097   6.161 -0.1799 -0.2863 -0.5459
  129OSM   H15A13811   4.132   2.139   6.110 -0.7258  0.2208 -1.0736
  129OSM   H15B13812   4.060   1.991   6.175  1.1484  0.0496  0.9231
  129OSM   H15C13813   4.052   2.125   6.265 -0.3208 -0.9246 -0.3651
  129OSM    C1413814   3.889   2.276   6.109 -0.4073 -0.5339 -0.3228
  129OSM   H14A13815   3.895   2.298   6.215  0.0737  0.4917 -0.5475
  129OSM   H14B13816   3.792   2.296   6.066  0.0327  0.4688 -0.8970
  129OSM   H14C13817   3.962   2.344   6.067 -2.0537  1.1031 -0.6562
  129OSM    C1313818   3.933   2.083   5.949  0.3554  0.0451 -0.0477
  129OSM   H13A13819   3.978   1.986   5.938  0.0861  0.0274 -1.2150
  129OSM   H13B13820   3.998   2.152   5.897 -0.4400  0.3553 -0.6587
  129OSM   H13C13821   3.836   2.071   5.903  0.7867  0.5408 -1.1244
  129OSM    C1213822   3.806   2.051   6.145 -0.2787 -0.5263 -0.1549
  129OSM   H12A13823   3.812   1.946   6.122  2.7334 -0.6130  0.5848
  129OSM   H12B13824   3.716   2.093   6.102 -1.1028 -1.8437  0.2369
  129OSM    C1113825   3.788   2.041   6.295  0.3097 -0.2629  0.0963
  129OSM   H11A13826   3.867   1.972   6.333 -1.0295 -1.4324  0.8677
  129OSM   H11B13827   3.693   1.985   6.303  0.1427  0.0736  0.4446
  129OSM      P13828   3.655   2.249   6.389  0.1925 -0.2057 -0.3462
  129OSM    O1313829   3.707   2.385   6.424  0.6913 -0.0472 -0.1764
  129OSM    O1413830   3.565   2.242   6.276  0.1719 -0.3342 -0.0180
  129OSM    O1113831   3.592   2.194   6.523  0.1186 -0.2465  0.2575
  129OSM    O1213832   3.781   2.164   6.367  0.0162  0.1231 -0.9853
  129OSM    C1S13833   3.671   2.142   6.629  0.1366  0.0234  0.3646
  129OSM    H1S13834   3.759   2.088   6.588 -0.4999  0.0511 -1.1337
  129OSM    H1T13835   3.607   2.064   6.675  0.6574  0.9073  2.6756
  129OSM     NF13836   3.797   2.187   6.820 -0.2019  0.1736 -0.0306
  129OSM    HNF13837   3.760   2.163   6.909 -0.1400  1.6166  0.4032
  129OSM    C2S13838   3.697   2.251   6.733 -0.6650  0.5072 -0.4245
  129OSM    H2S13839   3.745   2.334   6.676 -0.4222  0.2545 -0.5899
  129OSM    C3S13840   3.563   2.310   6.798  0.4080  0.1914 -0.1370
  129OSM    H3S13841   3.490   2.234   6.833 -0.7665  0.1257 -2.4769
  129OSM     O313842   3.485   2.378   6.698 -0.7243  0.3062 -0.2053
  129OSM    HO313843   3.491   2.322   6.620  0.0757 -0.1429  0.1634
  129OSM    C4S13844   3.600   2.416   6.890 -0.1273  0.0961  0.3287
  129OSM    H4S13845   3.629   2.508   6.836  2.5387  1.0182  3.0680
  129OSM    C5S13846   3.600   2.423   7.022  0.2795  0.0859 -0.0593
  129OSM    H5S13847   3.583   2.328   7.075 -1.3878 -0.6918 -1.9052
  129OSM    C6S13848   3.619   2.546   7.101 -0.6393  0.0029 -0.4234
  129OSM    H6S13849   3.533   2.611   7.073 -2.7874 -2.0193  1.0374
  129OSM    H6T13850   3.711   2.593   7.062  1.3252 -0.2366  3.4601
  129OSM    C7S13851   3.625   2.544   7.256  0.3172  0.1481  0.2580
  129OSM    H7S13852   3.524   2.507   7.284  0.5121 -0.0741  0.6701
  129OSM    H7T13853   3.632   2.652   7.283 -3.6561  1.0388 -1.5637
  129OSM    C8S13854   3.741   2.460   7.316  0.6872 -0.2794  0.1054
  129OSM    H8S13855   3.837   2.514   7.300  0.6693 -0.7299 -1.6955
  129OSM    H8T13856   3.750   2.357   7.274  0.6622 -0.9551  1.6853
  129OSM    C9S13857   3.732   2.445   7.470  0.0070  0.5577 -0.1394
  129OSM    H9S13858   3.828   2.441   7.525 -0.2160  0.8329  0.2771
  129OSM    H9T13859   3.679   2.349   7.485  0.7052 -0.4632 -3.5110
  129OSM   C10S13860   3.647   2.546   7.550  0.7125  0.3313  0.0967
  129OSM   H10S13861   3.543   2.529   7.516  0.4848  3.3266 -0.9990
  129OSM   H10T13862   3.677   2.651   7.530  0.7026  0.4382  0.6225
  129OSM   C11S13863   3.640   2.536   7.703  0.0783 -0.2416 -0.4219
  129OSM   H11S13864   3.573   2.623   7.718  1.1114  0.3002  1.2481
  129OSM   H11T13865   3.740   2.556   7.747 -0.8410 -0.5316  1.8810
  129OSM   C12S13866   3.568   2.411   7.759  0.5867  0.1796 -0.9228
  129OSM   H12S13867   3.623   2.315   7.747  1.3783  0.2467  1.4907
  129OSM   H12T13868   3.463   2.399   7.724  0.4088  0.5205 -0.5223
  129OSM   C13S13869   3.573   2.417   7.915  0.3883  0.0206  0.9956
  129OSM   H13S13870   3.513   2.503   7.951  1.3106  1.4794 -0.7487
  129OSM   H13T13871   3.683   2.419   7.935  1.2293  0.8854 -2.7848
  129OSM   C14S13872   3.502   2.302   7.980 -0.7173 -0.1937 -0.1840
  129OSM   H14S13873   3.513   2.203   7.930 -0.4749 -0.4224  0.3039
  129OSM   H14T13874   3.395   2.317   8.003 -0.2817 -0.1706  2.0677
  129OSM   C15S13875   3.574   2.284   8.119 -0.1355  0.7674 -0.0679
  129OSM   H15S13876   3.683   2.269   8.101 -0.1725 -0.0947  0.4016
  129OSM   H15T13877   3.533   2.188   8.156 -1.9857  0.9003 -1.6196
  129OSM   C16S13878   3.548   2.386   8.231 -0.2906 -0.0096  0.3811
  129OSM   H16S13879   3.438   2.376   8.242 -0.2255 -1.4377  0.0238
  129OSM   H16T13880   3.562   2.484   8.181  1.3561 -1.1391 -1.5468
  129OSM   C17S13881   3.628   2.353   8.359 -1.0301  0.0774  0.8856
  129OSM   H17S13882   3.581   2.258   8.392 -2.8889  0.9966  0.9950
  129OSM   H17T13883   3.614   2.428   8.439 -0.4501  0.3900  0.7044
  129OSM   C18S13884   3.774   2.317   8.327 -0.0575 -0.5577 -0.1345
  129OSM   H18S13885   3.837   2.347   8.413 -2.2244  1.3815  0.8792
  129OSM   H18T13886   3.812   2.371   8.237  1.2363  2.5705  2.1113
  129OSM   H18U13887   3.786   2.211   8.296 -0.0716 -0.2989 -1.0628
  129OSM    C1F13888   3.929   2.150   6.792 -0.1870  0.6738 -0.6870
  129OSM     OF13889   3.979   2.181   6.688 -0.3876 -0.1477  0.0694
  129OSM    C2F13890   3.987   2.055   6.897  0.6198 -0.3379 -0.8921
  129OSM    H2F13891   3.917   1.970   6.885  0.6198 -0.4477 -0.1910
  129OSM    H2G13892   3.962   2.083   7.002  0.0894 -0.3652 -1.0059
  129OSM    C3F13893   4.132   2.028   6.884  0.7702  0.9029 -0.5104
  129OSM    H3F13894   4.191   2.118   6.910  0.0528  1.3989 -0.5803
  129OSM    H3G13895   4.150   1.989   6.781  0.2012 -1.0582  0.0989
  129OSM    C4F13896   4.185   1.924   6.993  0.1378  0.0689  0.0561
  129OSM    H4F13897   4.294   1.909   6.979  0.4279  0.5109  1.6863
  129OSM    H4G13898   4.131   1.829   6.975 -1.6035  0.5988  1.9846
  129OSM    C5F13899   4.153   1.972   7.139 -0.4484  0.5569 -0.2262
  129OSM    H5F13900   4.042   1.965   7.139 -0.3986 -3.2429 -2.4939
  129OSM    H5G13901   4.197   2.070   7.167  1.8177 -0.9520  1.8709
  129OSM    C6F13902   4.216   1.873   7.238  0.0750 -0.7576  0.6356
  129OSM    H6F13903   4.327   1.880   7.237  0.0971 -1.0924 -0.4059
  129OSM    H6G13904   4.179   1.771   7.215  0.7303 -0.1291 -4.3476
  129OSM    C7F13905   4.176   1.905   7.378 -0.2532 -0.1044  0.3319
  129OSM    H7F13906   4.070   1.878   7.396  0.1782 -2.3718 -0.2043
  129OSM    H7G13907   4.196   2.009   7.412  0.5653  0.8411 -2.7447
  129OSM    C8F13908   4.248   1.815   7.490  0.0495 -0.0486  0.1219
  129OSM    H8F13909   4.214   1.855   7.588 -1.1674 -0.4760 -0.1040
  129OSM    H8G13910   4.358   1.826   7.484  0.0474 -0.2688 -0.3290
  129OSM    C9F13911   4.215   1.672   7.456  0.1446 -0.0576  0.6385
  129OSM    H9F13912   4.271   1.625   7.373  0.1985  1.0929  0.0046
  129OSM   C10F13913   4.114   1.598   7.515 -0.1144 -0.6009 -0.7781
  129OSM   H10F13914   4.094   1.497   7.476  0.3990 -1.5806  1.3592
  129OSM   C11F13915   4.027   1.641   7.622 -0.0029 -0.1097 -0.6183
  129OSM   H11F13916   3.921   1.610   7.614  0.0837 -0.1766 -1.5798
  129OSM   H11G13917   4.044   1.749   7.642  0.3183 -0.0991 -0.9432
  129OSM   C12F13918   4.072   1.596   7.762 -0.4152 -0.3347  0.5268
  129OSM   H12F13919   4.022   1.641   7.850 -0.3266 -2.1629  1.5623
  129OSM   H12G13920   4.179   1.612   7.788 -0.1550  0.5941 -0.9859
  129OSM   C13F13921   4.058   1.442   7.782 -0.6555 -0.4519  0.6055
  129OSM   H13F13922   4.110   1.390   7.699 -1.3582 -0.7067  0.3177
  129OSM   H13G13923   3.950   1.425   7.762 -0.5196  0.6981 -1.3510
  129OSM   C14F13924   4.113   1.393   7.915 -0.3918  0.2503  0.1920
  129OSM   H14F13925   4.071   1.454   7.997  0.6757  1.6499 -0.2537
  129OSM   H14G13926   4.222   1.414   7.910 -0.5647  1.0113 -0.9954
  129OSM   C15F13927   4.081   1.247   7.936 -0.5716 -0.6106 -0.4232
  129OSM   H15F13928   4.121   1.187   7.851  1.9761 -2.2070  1.7641
  129OSM   H15G13929   3.970   1.252   7.936 -0.5657  2.0071  2.5019
  129OSM   C16F13930   4.123   1.199   8.072 -0.2261 -0.0183  0.4277
  129OSM   H16F13931   4.097   1.271   8.153 -0.1855 -0.4741  0.8492
  129OSM   H16G13932   4.234   1.196   8.069 -0.2443 -0.4495  0.0881
  129OSM   C17F13933   4.074   1.059   8.107 -0.2390 -0.1949  0.4901
  129OSM   H17F13934   4.100   0.995   8.020 -0.6170 -0.9466  0.9276
  129OSM   H17G13935   3.966   1.071   8.126  0.0298 -0.3921  2.2873
  129OSM   C18F13936   4.136   1.021   8.235  0.2327  0.6394 -0.1527
  129OSM   H18F13937   4.237   1.064   8.251  0.2214  0.3099  0.8800
  129OSM   H18G13938   4.141   0.910   8.235  0.7320  0.6440 -1.5009
  129OSM   H18H13939   4.071   1.071   8.310  1.2456  1.8757 -0.0619
  130OSM      N13940   0.980   5.625   5.992  0.1338 -0.5458 -0.2844
  130OSM    C1513941   0.916   5.749   5.938 -0.0519 -0.2844  0.8701
  130OSM   H15A13942   0.860   5.796   6.018  1.6022  1.9521  0.7980
  130OSM   H15B13943   0.853   5.729   5.852 -0.0166 -2.5391  1.2988
  130OSM   H15C13944   0.991   5.825   5.921  0.0806 -0.4439  0.7382
  130OSM    C1413945   0.869   5.551   6.065  0.1705  0.1916 -0.1556
  130OSM   H14A13946   0.799   5.522   5.988  1.6905  2.9196 -2.7942
  130OSM   H14B13947   0.823   5.618   6.137 -1.9548 -1.0569 -0.2645
  130OSM   H14C13948   0.899   5.458   6.111  0.5917  0.7011  0.6160
  130OSM    C1313949   1.036   5.546   5.879  0.7266 -0.6363  0.6130
  130OSM   H13A13950   1.071   5.452   5.918  2.8417  0.5789  1.7996
  130OSM   H13B13951   1.120   5.599   5.836 -0.8725  3.3171  1.8889
  130OSM   H13C13952   0.961   5.535   5.802  0.1966  1.9033  0.6703
  130OSM    C1213953   1.082   5.666   6.098  0.6371  0.4173 -0.1260
  130OSM   H12A13954   1.157   5.723   6.045 -0.5358  1.6292 -0.5261
  130OSM   H12B13955   1.132   5.577   6.133 -2.1141 -1.6433 -1.1115
  130OSM    C1113956   1.042   5.762   6.219 -0.6700  0.4586  0.1217
  130OSM   H11A13957   1.116   5.754   6.302  1.9899 -0.6924 -2.1766
  130OSM   H11B13958   0.954   5.714   6.266 -0.6183 -2.3310 -2.3160
  130OSM      P13959   1.132   6.001   6.163 -0.0948  0.2526 -0.0446
  130OSM    O1313960   1.201   5.956   6.044  0.4883  0.1787 -0.0499
  130OSM    O1413961   1.078   6.139   6.159  0.2321 -0.2794  0.1222
  130OSM    O1113962   1.227   5.986   6.292 -0.5899  0.0015  0.2541
  130OSM    O1213963   1.008   5.899   6.184  0.2919 -0.4651  0.5204
  130OSM    C1S13964   1.177   6.051   6.411  0.2373 -0.0221 -0.2908
  130OSM    H1S13965   1.067   6.039   6.420  0.1058  0.6096 -0.9175
  130OSM    H1T13966   1.187   6.162   6.408 -3.0068  0.3553 -2.1431
  130OSM     NF13967   1.185   6.061   6.660 -0.3437  0.1057  0.0576
  130OSM    HNF13968   1.231   6.130   6.716 -1.5222  0.3215  0.8199
  130OSM    C2S13969   1.250   5.996   6.543  0.4186 -0.7056  0.2087
  130OSM    H2S13970   1.232   5.887   6.547  0.5391 -0.7570 -0.4900
  130OSM    C3S13971   1.398   6.017   6.542 -0.1445  0.5470 -0.0478
  130OSM    H3S13972   1.431   6.121   6.521  1.7480 -0.2883 -1.5321
  130OSM     O313973   1.454   5.952   6.431  0.0832 -0.6330  0.5088
  130OSM    HO313974   1.370   5.936   6.388 -0.5238  0.2435  1.3368
  130OSM    C4S13975   1.458   5.966   6.666 -0.1082  0.0082 -0.0231
  130OSM    H4S13976   1.472   5.857   6.659  0.4693  0.1905 -2.6252
  130OSM    C5S13977   1.529   6.025   6.763  0.1484 -0.8042 -0.2997
  130OSM    H5S13978   1.538   6.134   6.751 -4.5305 -0.2010 -0.3049
  130OSM    C6S13979   1.600   5.952   6.875 -0.4239 -0.6014  0.3421
  130OSM    H6S13980   1.697   5.996   6.906 -0.6945  0.6959 -0.5767
  130OSM    H6T13981   1.615   5.843   6.859  0.8374 -0.5604  1.1467
  130OSM    C7S13982   1.524   5.956   7.009 -0.3018  0.0276 -0.3232
  130OSM    H7S13983   1.509   6.058   7.051  0.9396  0.2504 -0.3986
  130OSM    H7T13984   1.581   5.887   7.074  1.5059  0.4181 -1.4326
  130OSM    C8S13985   1.381   5.901   7.014  0.3222 -0.3070  0.0485
  130OSM    H8S13986   1.380   5.802   6.963 -0.0667  1.4561 -3.6758
  130OSM    H8T13987   1.320   5.965   6.947 -0.6567 -1.2650  0.0034
  130OSM    C9S13988   1.327   5.884   7.159 -0.6551  0.3184 -0.3955
  130OSM    H9S13989   1.216   5.881   7.156 -0.6378 -0.0431 -0.8026
  130OSM    H9T13990   1.356   5.970   7.223  0.3866  1.1883 -1.9472
  130OSM   C10S13991   1.376   5.760   7.236 -0.3861 -0.1736  0.1957
  130OSM   H10S13992   1.487   5.768   7.243 -0.3474 -0.3727 -0.1762
  130OSM   H10T13993   1.359   5.665   7.181 -0.3542 -0.7327  1.1317
  130OSM   C11S13994   1.309   5.760   7.376 -0.0738  0.5553 -0.5143
  130OSM   H11S13995   1.198   5.757   7.366  0.1276 -0.1616 -3.2835
  130OSM   H11T13996   1.331   5.860   7.419 -0.9652  0.6140 -0.1735
  130OSM   C12S13997   1.365   5.650   7.473 -0.1812 -0.2915  0.8180
  130OSM   H12S13998   1.472   5.663   7.500  0.2031 -1.8081  0.1159
  130OSM   H12T13999   1.356   5.551   7.423 -0.0494 -0.4212  1.0509
  130OSM   C13S14000   1.303   5.647   7.614 -0.0710  0.7126  0.1648
  130OSM   H13S14001   1.350   5.572   7.681 -0.9132 -0.8788 -0.9639
  130OSM   H13T14002   1.198   5.611   7.611  0.3825 -0.7615  1.0160
  130OSM   C14S14003   1.296   5.785   7.691  0.0343 -0.4971 -0.2924
  130OSM   H14S14004   1.201   5.836   7.664 -0.4389 -0.7203  0.8710
  130OSM   H14T14005   1.379   5.852   7.661 -0.7202  1.0540  0.9764
  130OSM   C15S14006   1.307   5.773   7.842 -0.0247  0.2063 -0.2879
  130OSM   H15S14007   1.260   5.863   7.887 -0.2687 -1.4792  3.1592
  130OSM   H15T14008   1.411   5.757   7.877 -0.2723  1.4964  1.1296
  130OSM   C16S14009   1.216   5.657   7.890  0.1097  0.2584 -0.4443
  130OSM   H16S14010   1.265   5.563   7.854  2.1601 -0.0293  2.7158
  130OSM   H16T14011   1.116   5.681   7.849  0.0246  0.3892 -0.1583
  130OSM   C17S14012   1.211   5.646   8.047 -0.6601 -0.3583  0.4796
  130OSM   H17S14013   1.110   5.608   8.072 -0.4269 -1.8176 -0.6595
  130OSM   H17T14014   1.219   5.743   8.102  1.6515 -0.3064  0.1815
  130OSM   C18S14015   1.315   5.552   8.105  0.2948 -0.0847  0.2515
  130OSM   H18S14016   1.302   5.451   8.060  0.2941  0.0685 -0.0952
  130OSM   H18T14017   1.323   5.552   8.216  4.1487  1.4098  0.1185
  130OSM   H18U14018   1.415   5.593   8.081  0.5390  0.0069  1.3902
  130OSM    C1F14019   1.058   6.037   6.693 -0.3138 -0.6344  0.0960
  130OSM     OF14020   1.005   5.935   6.655  0.0682  0.5717 -0.7382
  130OSM    C2F14021   0.995   6.140   6.782  0.2340 -0.3043 -0.3531
  130OSM    H2F14022   0.886   6.115   6.780  0.2354 -0.2836 -1.7069
  130OSM    H2G14023   1.004   6.245   6.748  3.4237  0.2812  1.8525
  130OSM    C3F14024   1.059   6.121   6.928 -0.3215 -0.8350  0.2069
  130OSM    H3F14025   1.167   6.147   6.930 -0.4029 -0.4607 -0.0689
  130OSM    H3G14026   1.034   6.017   6.958 -0.9029 -1.0605 -0.9765
  130OSM    C4F14027   0.991   6.219   7.030  0.3349  0.1258 -0.1575
  130OSM    H4F14028   0.881   6.208   7.038  0.2802  1.7660  3.8182
  130OSM    H4G14029   1.024   6.319   6.995 -0.7269  0.4914 -0.1557
  130OSM    C5F14030   1.052   6.208   7.174 -0.4607 -0.0697 -0.7738
  130OSM    H5F14031   1.019   6.299   7.229  2.9017  0.2403  0.9855
  130OSM    H5G14032   1.163   6.211   7.173 -0.4492 -0.5088 -1.7237
  130OSM    C6F14033   1.013   6.080   7.244 -0.5493 -0.0075  0.0775
  130OSM    H6F14034   1.034   5.990   7.181 -1.1598 -0.6612  0.7803
  130OSM    H6G14035   0.906   6.064   7.268 -0.2899 -4.4660 -0.7291
  130OSM    C7F14036   1.094   6.060   7.372  0.0491  0.1678  0.0400
  130OSM    H7F14037   1.201   6.075   7.345  0.2876 -0.6773  0.4811
  130OSM    H7G14038   1.085   5.957   7.410  0.1473  1.1476  2.9418
  130OSM    C8F14039   1.065   6.176   7.473 -0.3027  0.4724 -0.3889
  130OSM    H8F14040   0.961   6.154   7.504  0.0485  0.6800  1.0328
  130OSM    H8G14041   1.077   6.276   7.427  0.0304  0.5148 -0.2178
  130OSM    C9F14042   1.168   6.168   7.594 -0.1904  0.3037 -0.5879
  130OSM    H9F14043   1.276   6.170   7.577  0.2130 -1.1701  1.3872
  130OSM   C10F14044   1.128   6.173   7.722 -0.4229 -0.6927  0.5228
  130OSM   H10F14045   1.207   6.172   7.799 -0.2369 -1.0497  0.3324
  130OSM   C11F14046   0.985   6.195   7.763  0.1680  0.4631  0.1194
  130OSM   H11F14047   0.919   6.115   7.722  0.6175 -1.5697  3.0373
  130OSM   H11G14048   0.947   6.298   7.747  2.0185  1.2205  0.3901
  130OSM   C12F14049   0.974   6.191   7.917 -0.1115  0.4076  0.0202
  130OSM   H12F14050   0.994   6.294   7.952 -2.0182 -0.1822  3.2673
  130OSM   H12G14051   1.035   6.112   7.968 -0.6181 -0.4359 -0.6573
  130OSM   C13F14052   0.830   6.160   7.954 -0.1016  0.1134  0.3801
  130OSM   H13F14053   0.783   6.064   7.925  0.7680 -0.3234  0.4093
  130OSM   H13G14054   0.768   6.239   7.907 -0.1244 -0.0073  0.2071
  130OSM   C14F14055   0.804   6.178   8.106  0.0272  0.1582 -0.3320
  130OSM   H14F14056   0.838   6.277   8.142  2.2572  0.2784 -2.4990
  130OSM   H14G14057   0.866   6.102   8.158 -0.3341  0.6782  0.8893
  130OSM   C15F14058   0.656   6.162   8.141  0.1573  0.1369 -0.0213
  130OSM   H15F14059   0.644   6.132   8.247 -0.6806  0.3943 -0.0303
  130OSM   H15G14060   0.616   6.073   8.088  0.3041 -1.4294  2.3522
  130OSM   C16F14061   0.561   6.282   8.107  0.5024 -0.5357 -0.3875
  130OSM   H16F14062   0.579   6.299   7.999  0.5350 -0.6379 -0.3981
  130OSM   H16G14063   0.615   6.362   8.162 -0.7778 -0.7150  1.1936
  130OSM   C17F14064   0.426   6.262   8.167 -0.3384  0.1088 -0.0120
  130OSM   H17F14065   0.439   6.276   8.276 -1.9470  0.2991  0.1738
  130OSM   H17G14066   0.386   6.160   8.145 -2.6854  1.1677 -0.9934
  130OSM   C18F14067   0.319   6.366   8.124 -0.1335  0.3726  0.5665
  130OSM   H18F14068   0.222   6.341   8.171 -1.4480  0.0445 -2.1233
  130OSM   H18G14069   0.311   6.351   8.014 -0.6676 -1.4680  0.8284
  130OSM   H18H14070   0.363   6.467   8.133  0.2753  0.2562 -0.0308
  131OSM      N14071   6.592   1.591   5.696 -0.2135  0.0052 -0.2413
  131OSM    C1514072   6.456   1.529   5.659 -0.0141  0.0244  0.1912
  131OSM   H15A14073   6.411   1.463   5.732  1.0525 -0.1383  0.7174
  131OSM   H15B14074   6.467   1.467   5.572 -1.0650 -0.8195  0.6340
  131OSM   H15C14075   6.388   1.612   5.642  2.0772  1.6266 -0.8557
  131OSM    C1414076   6.699   1.471   5.706 -0.1145 -0.6212 -0.5851
  131OSM   H14A14077   6.682   1.412   5.794 -0.3100 -0.4978 -0.5389
  131OSM   H14B14078   6.791   1.528   5.715 -0.4012 -0.1740 -0.4570
  131OSM   H14C14079   6.703   1.409   5.617  1.1293 -0.8901 -0.3690
  131OSM    C1314080   6.631   1.674   5.577  0.1927  0.5023 -0.1118
  131OSM   H13A14081   6.562   1.755   5.560 -0.7221 -0.0340  0.9295
  131OSM   H13B14082   6.645   1.612   5.490  0.8850 -2.2397  1.8015
  131OSM   H13C14083   6.730   1.715   5.591  0.7132 -0.4056 -0.9650
  131OSM    C1214084   6.593   1.666   5.827  0.3750 -0.6960 -0.2096
  131OSM   H12A14085   6.515   1.628   5.891 -0.5987  1.8105  0.2136
  131OSM   H12B14086   6.564   1.769   5.815 -0.3879 -0.1125  4.5901
  131OSM    C1114087   6.731   1.675   5.904 -0.0751  0.5948 -0.2463
  131OSM   H11A14088   6.760   1.578   5.952 -1.2739  0.0584 -0.5724
  131OSM   H11B14089   6.702   1.733   5.994 -1.1778 -0.9331  0.4462
  131OSM      P14090   6.978   1.691   5.799 -0.1444  0.0692  0.0427
  131OSM    O1314091   6.975   1.582   5.696  0.0010 -0.2669  0.6425
  131OSM    O1414092   7.063   1.811   5.770  0.3666 -0.1727  0.1698
  131OSM    O1114093   7.019   1.638   5.941 -0.1014 -0.2456  0.1734
  131OSM    O1214094   6.830   1.744   5.828 -0.2840 -0.1503  0.1666
  131OSM    C1S14095   7.050   1.742   6.033 -0.1257 -0.1637  0.9565
  131OSM    H1S14096   6.966   1.814   6.040  0.9128  1.2457 -0.3405
  131OSM    H1T14097   7.142   1.799   6.008 -0.4405  0.2172  0.6474
  131OSM     NF14098   7.074   1.786   6.278 -0.2997 -0.1854  0.7254
  131OSM    HNF14099   7.145   1.804   6.345  0.1232  0.7756  0.0427
  131OSM    C2S14100   7.084   1.686   6.172 -0.7042 -0.7183 -0.2210
  131OSM    H2S14101   7.012   1.603   6.186 -0.3672 -0.9566  0.1032
  131OSM    C3S14102   7.229   1.617   6.167  0.1340  0.2081 -0.4353
  131OSM    H3S14103   7.303   1.698   6.145  0.5094 -0.0027  0.0404
  131OSM     O314104   7.252   1.539   6.054  0.7769  0.6115  0.2095
  131OSM    HO314105   7.180   1.570   5.998  1.6596  0.5596 -1.0081
  131OSM    C4S14106   7.268   1.545   6.300  0.0121  0.0375 -0.2772
  131OSM    H4S14107   7.225   1.445   6.315  0.5607  0.0292  1.5704
  131OSM    C5S14108   7.343   1.602   6.404  0.3038  0.1245  0.1648
  131OSM    H5S14109   7.385   1.700   6.380  1.9806 -1.1534 -2.5773
  131OSM    C6S14110   7.381   1.532   6.534 -0.1145  0.0287 -0.1589
  131OSM    H6S14111   7.352   1.593   6.622  2.7144 -0.4193  1.1739
  131OSM    H6T14112   7.492   1.529   6.529 -0.0875  0.4990  0.1053
  131OSM    C7S14113   7.341   1.385   6.556  0.2246  0.5073  0.0082
  131OSM    H7S14114   7.377   1.317   6.476 -2.7680 -1.1567 -0.0495
  131OSM    H7T14115   7.231   1.391   6.553  0.2704  1.0860 -2.5509
  131OSM    C8S14116   7.387   1.331   6.695  0.2198  0.8419 -0.1511
  131OSM    H8S14117   7.491   1.363   6.718 -0.0035 -0.4979  3.2904
  131OSM    H8T14118   7.385   1.221   6.686 -2.0474  0.8861 -0.9677
  131OSM    C9S14119   7.297   1.393   6.808  0.1790 -0.5918  0.0340
  131OSM    H9S14120   7.190   1.373   6.785 -0.4050  1.2637  0.9303
  131OSM    H9T14121   7.294   1.504   6.819 -3.0527 -0.5175 -0.7900
  131OSM   C10S14122   7.332   1.323   6.938  0.2513  0.0613 -0.2732
  131OSM   H10S14123   7.442   1.336   6.945  0.3047 -0.3068 -0.4202
  131OSM   H10T14124   7.322   1.212   6.944 -0.2754  0.0825 -0.7207
  131OSM   C11S14125   7.264   1.383   7.063 -0.2003 -0.7515 -0.0325
  131OSM   H11S14126   7.155   1.367   7.053 -0.4649  0.4331  0.6775
  131OSM   H11T14127   7.280   1.493   7.055  1.4177 -0.9361  0.3554
  131OSM   C12S14128   7.309   1.339   7.200  0.2615 -0.0352  0.3127
  131OSM   H12S14129   7.417   1.360   7.213  0.3610 -0.9609  1.1335
  131OSM   H12T14130   7.313   1.228   7.198 -1.2782 -0.1049 -0.4404
  131OSM   C13S14131   7.214   1.379   7.313 -0.3028 -0.3945  0.5979
  131OSM   H13S14132   7.113   1.341   7.284 -0.8949 -0.0297  2.0792
  131OSM   H13T14133   7.206   1.490   7.323 -0.3965 -0.3883  0.4604
  131OSM   C14S14134   7.249   1.314   7.450  0.2906 -0.4027  0.3687
  131OSM   H14S14135   7.359   1.308   7.468  0.1953  1.3910  1.7217
  131OSM   H14T14136   7.223   1.206   7.440 -0.2023 -0.1163 -1.8300
  131OSM   C15S14137   7.161   1.347   7.571 -0.2487  0.0042  0.0623
  131OSM   H15S14138   7.196   1.447   7.605  0.5859  0.2781 -1.5312
  131OSM   H15T14139   7.176   1.272   7.652 -0.9229  0.6738  0.8184
  131OSM   C16S14140   7.006   1.361   7.543  0.1310 -0.3794  0.0951
  131OSM   H16S14141   6.971   1.261   7.510  1.3169 -0.1002 -2.2072
  131OSM   H16T14142   6.999   1.432   7.458 -1.2738 -1.0946 -0.4179
  131OSM   C17S14143   6.919   1.409   7.654  0.3819 -0.0084 -0.2303
  131OSM   H17S14144   6.922   1.337   7.739  0.2266  0.9140  0.5743
  131OSM   H17T14145   6.813   1.421   7.620  0.4572  0.0678 -0.4386
  131OSM   C18S14146   6.963   1.544   7.717  0.4554 -0.1794  0.2611
  131OSM   H18S14147   7.057   1.523   7.773  1.2027 -1.4426 -1.3593
  131OSM   H18T14148   6.890   1.586   7.789 -0.1917  1.5763 -1.3564
  131OSM   H18U14149   6.986   1.623   7.642 -0.7165  0.1422  0.2289
  131OSM    C1F14150   6.949   1.826   6.309 -0.0414 -0.1087  0.1873
  131OSM     OF14151   6.854   1.779   6.249  0.6003  0.3505 -0.1578
  131OSM    C2F14152   6.932   1.931   6.416  0.4036  1.0263 -0.8718
  131OSM    H2F14153   6.835   1.979   6.388 -0.8630 -1.8308 -1.8256
  131OSM    H2G14154   7.016   2.004   6.419 -0.8725  2.5668 -1.0428
  131OSM    C3F14155   6.900   1.856   6.541 -0.7311 -0.3839  0.8174
  131OSM    H3F14156   6.984   1.792   6.577  2.5439  2.1858 -1.5834
  131OSM    H3G14157   6.808   1.797   6.527 -0.1396 -1.4985  1.5050
  131OSM    C4F14158   6.870   1.953   6.657 -0.5592  0.4205 -0.7387
  131OSM    H4F14159   6.770   1.999   6.642 -1.7503 -1.1218  1.7908
  131OSM    H4G14160   6.935   2.043   6.654 -1.2163  0.9042 -2.9745
  131OSM    C5F14161   6.867   1.873   6.784 -0.5149  0.1708 -0.4938
  131OSM    H5F14162   6.951   1.799   6.788 -0.2371  0.4395 -1.2683
  131OSM    H5G14163   6.775   1.812   6.794  0.3157 -1.0681 -0.0299
  131OSM    C6F14164   6.860   1.960   6.908 -0.3201 -0.2795  0.3454
  131OSM    H6F14165   6.808   2.055   6.885 -2.4577 -1.5086 -0.1810
  131OSM    H6G14166   6.965   1.995   6.921 -0.1642  0.2778 -1.9860
  131OSM    C7F14167   6.804   1.884   7.029 -0.2588 -0.2281 -0.1315
  131OSM    H7F14168   6.719   1.827   6.986  2.0115 -3.2361 -1.0406
  131OSM    H7G14169   6.768   1.953   7.107  0.4451  3.2506 -2.6443
  131OSM    C8F14170   6.910   1.783   7.078 -0.9513 -0.0814 -0.5997
  131OSM    H8F14171   7.006   1.836   7.095 -1.4929  0.7492 -0.0836
  131OSM    H8G14172   6.931   1.702   7.004  1.0146  1.0159 -1.3110
  131OSM    C9F14173   6.857   1.715   7.203  0.2051 -0.3040  0.1372
  131OSM    H9F14174   6.781   1.637   7.190 -1.7593  1.7931 -1.6019
  131OSM   C10F14175   6.879   1.755   7.329  0.7959 -0.1740  0.8214
  131OSM   H10F14176   6.844   1.691   7.412 -1.1870 -0.0302  0.1463
  131OSM   C11F14177   6.955   1.876   7.378 -0.4239  0.0652  0.6314
  131OSM   H11F14178   6.933   1.957   7.306  2.9636  0.9231  0.4077
  131OSM   H11G14179   7.065   1.869   7.370 -0.4896  1.1242 -3.5316
  131OSM   C12F14180   6.918   1.906   7.516 -0.6704 -0.0018 -0.3305
  131OSM   H12F14181   6.931   1.814   7.578 -2.7705 -1.4349 -1.8581
  131OSM   H12G14182   6.809   1.930   7.515 -0.1942  2.4522  0.4788
  131OSM   C13F14183   6.996   2.024   7.576  0.6798 -0.1054 -1.0529
  131OSM   H13F14184   7.003   2.098   7.494  0.4818 -0.5005 -1.4326
  131OSM   H13G14185   7.100   1.987   7.595  1.6446  3.0032  0.4135
  131OSM   C14F14186   6.958   2.076   7.715  0.5922  0.1180  0.1742
  131OSM   H14F14187   6.854   2.116   7.718 -0.4289 -2.3484  0.7982
  131OSM   H14G14188   7.033   2.151   7.745  1.7458 -1.4468  1.3970
  131OSM   C15F14189   6.960   1.953   7.817 -0.1477 -0.0722  0.3365
  131OSM   H15F14190   7.046   1.884   7.808  0.2652  0.5668 -0.9161
  131OSM   H15G14191   6.872   1.885   7.809 -0.5258  0.5662 -1.4915
  131OSM   C16F14192   6.946   2.004   7.956 -0.0793 -0.5652 -1.1818
  131OSM   H16F14193   6.905   1.928   8.026  0.5081 -0.5672 -0.8355
  131OSM   H16G14194   6.868   2.083   7.957 -0.7308 -1.1947 -0.1943
  131OSM   C17F14195   7.079   2.048   8.012  0.1321  0.1121 -0.2273
  131OSM   H17F14196   7.138   2.102   7.936  2.6520 -1.0943  0.7447
  131OSM   H17G14197   7.149   1.963   8.031 -0.5148 -0.0862  1.4587
  131OSM   C18F14198   7.048   2.133   8.135  0.1036  0.2667  0.0125
  131OSM   H18F14199   6.964   2.204   8.118  0.2619  1.3194  3.0248
  131OSM   H18G14200   7.140   2.192   8.154  0.4939 -0.7442  1.4295
  131OSM   H18H14201   7.015   2.076   8.225  1.2271 -1.6376 -0.7364
  132OSM      N14202   2.043   2.345   6.162  0.1340 -0.0776  0.0744
  132OSM    C1514203   2.080   2.243   6.055 -0.9302  0.0885  1.2254
  132OSM   H15A14204   2.095   2.291   5.959  2.0238 -0.7769  1.1480
  132OSM   H15B14205   2.008   2.163   6.046  2.3141 -2.8426 -2.1503
  132OSM   H15C14206   2.177   2.199   6.071 -1.2801 -1.1773  0.0795
  132OSM    C1414207   2.002   2.268   6.284 -0.2436  0.0650 -0.1918
  132OSM   H14A14208   1.947   2.329   6.354 -1.3565 -1.5958  0.4339
  132OSM   H14B14209   2.083   2.224   6.340 -0.0443 -0.2116 -0.6910
  132OSM   H14C14210   1.933   2.192   6.251 -0.2908 -0.6209  1.3762
  132OSM    C1314211   2.165   2.430   6.186  1.0734  0.7265 -0.3455
  132OSM   H13A14212   2.248   2.369   6.217  0.0459 -0.5074  0.0615
  132OSM   H13B14213   2.143   2.494   6.270 -0.6009 -1.3204  0.8921
  132OSM   H13C14214   2.200   2.493   6.106  1.9266 -1.2903 -1.6538
  132OSM    C1214215   1.930   2.433   6.117  0.2410  0.5130  0.4127
  132OSM   H12A14216   1.970   2.491   6.036  0.1861  1.6494  1.1705
  132OSM   H12B14217   1.916   2.504   6.198  0.6748  0.6187  0.3954
  132OSM    C1114218   1.792   2.362   6.084 -0.2233  0.8843 -0.2681
  132OSM   H11A14219   1.804   2.287   6.003  1.8266 -1.1757  1.8012
  132OSM   H11B14220   1.722   2.440   6.047 -0.2914  1.2400  0.5952
  132OSM      P14221   1.606   2.331   6.275  0.1754  0.1446 -0.0844
  132OSM    O1314222   1.505   2.357   6.171  0.2798 -0.2997 -0.2717
  132OSM    O1414223   1.580   2.228   6.378 -0.1722  0.8022 -0.0024
  132OSM    O1114224   1.645   2.465   6.343  0.1421  0.1348 -0.4510
  132OSM    O1214225   1.747   2.294   6.210  0.7824 -0.0101 -0.2476
  132OSM    C1S14226   1.566   2.522   6.448 -0.3348 -0.6576 -0.3589
  132OSM    H1S14227   1.462   2.484   6.445 -1.3099  1.7263  0.6426
  132OSM    H1T14228   1.555   2.632   6.442 -0.2553 -0.5012  1.7610
  132OSM     NF14229   1.556   2.580   6.696 -0.0254 -0.4706  0.5342
  132OSM    HNF14230   1.605   2.663   6.723  0.3684  0.6906 -3.1984
  132OSM    C2S14231   1.630   2.504   6.596 -0.1345 -0.4943 -0.7743
  132OSM    H2S14232   1.629   2.395   6.619 -0.2667 -0.3385 -0.0409
  132OSM    C3S14233   1.781   2.544   6.606 -0.3181  0.1867 -0.2699
  132OSM    H3S14234   1.783   2.652   6.582 -1.8364  0.5982  1.2839
  132OSM     O314235   1.862   2.466   6.515  0.4326  0.3364  0.0232
  132OSM    HO314236   1.813   2.456   6.432 -0.2269  0.7741  0.3501
  132OSM    C4S14237   1.831   2.517   6.746  0.0184 -0.2701 -0.1248
  132OSM    H4S14238   1.889   2.424   6.757 -0.5504 -0.7707 -1.2757
  132OSM    C5S14239   1.839   2.606   6.843  0.1170 -0.4197 -0.2152
  132OSM    H5S14240   1.801   2.707   6.825  3.1307  0.8032 -0.1239
  132OSM    C6S14241   1.904   2.588   6.975  0.1961  0.2132 -0.0636
  132OSM    H6S14242   1.968   2.676   6.999  0.6306 -0.5847  1.8457
  132OSM    H6T14243   1.966   2.497   6.987 -0.5572 -0.3602 -0.4153
  132OSM    C7S14244   1.802   2.568   7.092 -0.7747  0.4096  0.1613
  132OSM    H7S14245   1.752   2.469   7.076  1.7787 -0.7718 -1.1796
  132OSM    H7T14246   1.721   2.643   7.093 -0.6990  0.5201 -0.7657
  132OSM    C8S14247   1.864   2.551   7.234  0.6762 -0.2015  0.2445
  132OSM    H8S14248   1.918   2.645   7.257  2.1478 -0.1753 -2.7884
  132OSM    H8T14249   1.937   2.468   7.236  1.7569  0.5930 -2.0234
  132OSM    C9S14250   1.752   2.530   7.337 -0.7273  0.2651 -0.2007
  132OSM    H9S14251   1.693   2.440   7.310 -2.0966  0.6425  1.3460
  132OSM    H9T14252   1.686   2.617   7.319  0.5344  1.0503 -1.1774
  132OSM   C10S14253   1.796   2.522   7.490  0.1235 -0.6829 -0.5382
  132OSM   H10S14254   1.871   2.598   7.519  0.0208 -0.4308 -0.9243
  132OSM   H10T14255   1.849   2.424   7.496  1.5937  0.0432 -1.2260
  132OSM   C11S14256   1.679   2.536   7.586 -0.3089 -0.5861  0.4798
  132OSM   H11S14257   1.707   2.551   7.693 -0.2881  1.1260  0.2618
  132OSM   H11T14258   1.615   2.446   7.580  0.5822 -1.1357 -1.0512
  132OSM   C12S14259   1.601   2.667   7.559 -0.3858  0.5620  0.4973
  132OSM   H12S14260   1.534   2.648   7.473 -1.3084 -1.1376  1.5223
  132OSM   H12T14261   1.670   2.747   7.526 -2.4246  1.7801 -1.0310
  132OSM   C13S14262   1.518   2.722   7.676  0.1767 -0.5761 -0.2323
  132OSM   H13S14263   1.435   2.655   7.708 -1.1769  0.8435 -0.6773
  132OSM   H13T14264   1.470   2.816   7.642 -1.5026 -1.0793  0.5954
  132OSM   C14S14265   1.593   2.774   7.798  0.1070  0.3125  0.6152
  132OSM   H14S14266   1.684   2.829   7.769 -0.4524  0.5793 -0.7130
  132OSM   H14T14267   1.637   2.683   7.844  1.8241  1.0897  0.5662
  132OSM   C15S14268   1.510   2.852   7.899  0.1394  0.5227  0.3389
  132OSM   H15S14269   1.406   2.813   7.907  0.5527 -0.4881  0.9484
  132OSM   H15T14270   1.509   2.960   7.873  0.7851  1.1290  2.5678
  132OSM   C16S14271   1.575   2.862   8.035 -0.3922 -0.6877 -0.0816
  132OSM   H16S14272   1.685   2.866   8.021 -0.4338 -2.0979 -1.1365
  132OSM   H16T14273   1.568   2.767   8.093 -1.7967  1.1709  2.9935
  132OSM   C17S14274   1.545   2.992   8.128  0.3876  0.1769  0.0408
  132OSM   H17S14275   1.561   3.077   8.059  0.2317  1.1828  1.2223
  132OSM   H17T14276   1.626   3.000   8.203 -1.0303 -1.7828  1.9013
  132OSM   C18S14277   1.411   2.986   8.199  0.9491  0.4170  0.1153
  132OSM   H18S14278   1.330   3.017   8.130 -2.1709 -2.4259  2.1586
  132OSM   H18T14279   1.401   3.055   8.286  0.3901  0.9259 -0.3443
  132OSM   H18U14280   1.388   2.880   8.223  1.7470  0.5123  1.4409
  132OSM    C1F14281   1.420   2.555   6.713  0.4615  0.7843  0.2784
  132OSM     OF14282   1.368   2.449   6.677 -0.0522  0.2256 -0.4820
  132OSM    C2F14283   1.335   2.671   6.758 -0.1224 -0.6471  0.2658
  132OSM    H2F14284   1.259   2.696   6.681  0.1059  0.1189  0.2771
  132OSM    H2G14285   1.393   2.766   6.752 -1.8887  0.4683  0.0072
  132OSM    C3F14286   1.266   2.652   6.893  0.0110  0.3673 -0.3019
  132OSM    H3F14287   1.336   2.644   6.978 -1.9492  0.2828  1.3846
  132OSM    H3G14288   1.210   2.556   6.890  0.5244  0.0626 -0.2311
  132OSM    C4F14289   1.165   2.763   6.935  0.1122  0.1120 -0.8168
  132OSM    H4F14290   1.082   2.750   6.862 -1.3039 -2.0264  1.0036
  132OSM    H4G14291   1.207   2.866   6.935 -0.7498  0.5386  1.3656
  132OSM    C5F14292   1.113   2.723   7.080 -0.6394  0.2293 -0.3060
  132OSM    H5F14293   1.206   2.737   7.140 -0.2864 -1.0097 -0.5302
  132OSM    H5G14294   1.096   2.613   7.077  1.0338 -0.0669 -0.0554
  132OSM    C6F14295   1.002   2.809   7.127 -0.0305  0.8472  0.0878
  132OSM    H6F14296   0.912   2.761   7.082  0.1562  0.0400  0.5722
  132OSM    H6G14297   1.023   2.911   7.087  1.0359  1.4437  2.0291
  132OSM    C7F14298   0.991   2.836   7.280 -0.4609 -0.2671  0.2615
  132OSM    H7F14299   1.093   2.870   7.308  0.5993 -0.0451 -3.3432
  132OSM    H7G14300   0.964   2.743   7.334 -0.5851 -1.3002 -1.4915
  132OSM    C8F14301   0.884   2.939   7.324  0.3555 -0.3519 -0.2959
  132OSM    H8F14302   0.908   3.028   7.261  0.8556 -1.0509 -1.1100
  132OSM    H8G14303   0.899   2.969   7.430 -0.6733  1.4542 -0.6219
  132OSM    C9F14304   0.742   2.900   7.308 -0.5650 -0.1511 -0.9744
  132OSM    H9F14305   0.694   2.937   7.216  0.6140  0.4419 -1.3769
  132OSM   C10F14306   0.678   2.828   7.394  0.2498  0.1228  0.3024
  132OSM   H10F14307   0.571   2.818   7.374  0.1051  0.1129  1.0676
  132OSM   C11F14308   0.727   2.766   7.524 -0.6127 -0.2314  0.5840
  132OSM   H11F14309   0.837   2.767   7.535 -0.6191  0.1771  0.6305
  132OSM   H11G14310   0.702   2.659   7.540  2.8728 -1.1703  0.3889
  132OSM   C12F14311   0.661   2.833   7.639 -0.8754  0.0854  0.1568
  132OSM   H12F14312   0.553   2.804   7.636 -0.9460 -0.0804  2.3145
  132OSM   H12G14313   0.677   2.942   7.630 -0.8033  0.1162  0.6134
  132OSM   C13F14314   0.716   2.790   7.776  0.9962  0.5646 -0.2928
  132OSM   H13F14315   0.821   2.824   7.780  0.5193  2.5765 -2.5443
  132OSM   H13G14316   0.714   2.679   7.784 -0.0345  0.6261  0.5457
  132OSM   C14F14317   0.640   2.853   7.894 -0.4011 -0.1472  0.1741
  132OSM   H14F14318   0.535   2.817   7.905 -0.3416 -1.0963 -1.8767
  132OSM   H14G14319   0.625   2.963   7.882 -3.6922 -0.3804  1.1402
  132OSM   C15F14320   0.714   2.831   8.028 -0.2168 -0.8167 -1.2421
  132OSM   H15F14321   0.794   2.907   8.040  0.8967 -2.1631  0.3400
  132OSM   H15G14322   0.760   2.730   8.025 -1.2472 -1.3463 -0.0422
  132OSM   C16F14323   0.625   2.834   8.160 -0.2145  0.0166 -0.3188
  132OSM   H16F14324   0.532   2.781   8.133  0.5204 -0.9777 -0.9840
  132OSM   H16G14325   0.610   2.941   8.186 -0.6145 -0.2048  0.3935
  132OSM   C17F14326   0.689   2.752   8.274  0.0533  0.1026  0.0062
  132OSM   H17F14327   0.684   2.646   8.244 -0.5567 -0.2390  1.2324
  132OSM   H17G14328   0.616   2.765   8.357  0.0079 -1.3497  0.2037
  132OSM   C18F14329   0.825   2.809   8.325 -0.0482  0.2376 -0.9128
  132OSM   H18F14330   0.891   2.799   8.236 -0.1542 -3.4305 -0.7285
  132OSM   H18G14331   0.867   2.744   8.405  0.7256  1.4540 -0.3148
  132OSM   H18H14332   0.820   2.914   8.361 -0.8677 -0.1358  0.1457
  133OSM      N14333   2.633   2.771   6.144  0.8497  0.3698  0.3351
  133OSM    C1514334   2.744   2.807   6.240 -0.2934  0.5077  0.7108
  133OSM   H15A14335   2.797   2.892   6.199 -1.0487  0.1701 -1.0782
  133OSM   H15B14336   2.815   2.727   6.254 -0.3744 -0.1373 -1.9182
  133OSM   H15C14337   2.717   2.845   6.337 -0.6992  1.0272  0.4076
  133OSM    C1414338   2.699   2.727   6.011  0.0123 -0.1744 -0.4136
  133OSM   H14A14339   2.765   2.802   5.969 -0.5133  0.4577 -0.1288
  133OSM   H14B14340   2.625   2.696   5.939 -2.6741  1.7637  1.3185
  133OSM   H14C14341   2.763   2.642   6.028 -1.3861 -1.0860  0.5357
  133OSM    C1314342   2.545   2.668   6.200  0.2784 -0.4043  0.2907
  133OSM   H13A14343   2.477   2.633   6.124  0.3165 -3.7204  1.6083
  133OSM   H13B14344   2.471   2.706   6.268 -0.7428  0.6949 -1.3535
  133OSM   H13C14345   2.596   2.579   6.234  0.5205 -0.1874  0.4914
  133OSM    C1214346   2.550   2.900   6.122  0.3931  0.6081 -0.0002
  133OSM   H12A14347   2.490   2.885   6.034  0.9630 -0.1695 -0.2640
  133OSM   H12B14348   2.617   2.982   6.097  0.8700  1.2197  2.9736
  133OSM    C1114349   2.453   2.953   6.235 -0.2777  0.7479 -0.5477
  133OSM   H11A14350   2.431   3.057   6.203  0.6111  1.0390 -0.2318
  133OSM   H11B14351   2.510   2.952   6.330  1.0331  1.1848 -1.3131
  133OSM      P14352   2.214   2.869   6.161 -0.6463  0.0227  0.5908
  133OSM    O1314353   2.180   3.008   6.124 -0.4517 -0.1307  0.7175
  133OSM    O1414354   2.222   2.772   6.048  0.6286  0.0882 -0.1431
  133OSM    O1114355   2.097   2.822   6.259 -0.1992 -0.1177 -0.0751
  133OSM    O1214356   2.342   2.863   6.248 -0.4335  1.0245 -0.7162
  133OSM    C1S14357   2.124   2.734   6.369 -1.0278  0.4922 -0.8297
  133OSM    H1S14358   2.212   2.667   6.353 -1.5439 -0.4496  0.1157
  133OSM    H1T14359   2.040   2.663   6.384 -2.1056  1.7590 -0.7296
  133OSM     NF14360   2.143   2.699   6.615  0.4028  0.4123 -0.4871
  133OSM    HNF14361   2.056   2.670   6.654  0.3337 -0.1141 -1.0148
  133OSM    C2S14362   2.124   2.793   6.512  0.3442 -0.3368  0.1376
  133OSM    H2S14363   2.208   2.864   6.530 -0.5326  0.5553  0.8439
  133OSM    C3S14364   2.001   2.877   6.530 -0.2591  0.3246  0.9032
  133OSM    H3S14365   1.915   2.811   6.507  0.1936  0.3122 -0.9259
  133OSM     O314366   1.984   2.971   6.428  0.0960  0.4418 -0.5098
  133OSM    HO314367   2.043   2.945   6.357 -1.0518 -0.9906 -0.9952
  133OSM    C4S14368   1.987   2.942   6.662 -0.2133  0.1832 -0.3024
  133OSM    H4S14369   1.909   2.892   6.721  0.7079  0.6240  1.3333
  133OSM    C5S14370   2.050   3.047   6.719  0.0800  0.2093 -1.0372
  133OSM    H5S14371   2.123   3.104   6.660  1.2642 -2.6830 -2.5554
  133OSM    C6S14372   2.020   3.084   6.864  0.2896 -0.1089  0.2660
  133OSM    H6S14373   1.919   3.130   6.872  0.6246  0.6731  0.1270
  133OSM    H6T14374   2.100   3.155   6.894  0.0814 -0.7329  2.4484
  133OSM    C7S14375   2.037   2.970   6.962  0.4877 -0.0575  0.2272
  133OSM    H7S14376   2.116   2.905   6.921 -0.6905 -1.3229 -0.1159
  133OSM    H7T14377   1.938   2.921   6.947  0.2647  1.0682 -2.6057
  133OSM    C8S14378   2.062   3.016   7.111  0.1198  0.4180  0.0529
  133OSM    H8S14379   1.964   3.061   7.139 -0.1538 -0.3566  0.3464
  133OSM    H8T14380   2.146   3.086   7.129 -0.3589  0.4633  2.3421
  133OSM    C9S14381   2.092   2.892   7.200 -0.2183  0.0222  0.5777
  133OSM    H9S14382   2.193   2.865   7.165  0.3100  1.3611  0.9959
  133OSM    H9T14383   2.020   2.817   7.161  1.3749 -0.7014 -1.1245
  133OSM   C10S14384   2.073   2.913   7.354 -0.0991 -0.0296  1.0479
  133OSM   H10S14385   2.147   2.981   7.402  0.2396  2.3986 -2.4659
  133OSM   H10T14386   2.081   2.809   7.392  0.6589 -0.9253 -1.3724
  133OSM   C11S14387   1.939   2.979   7.398 -0.8176 -0.8094  0.1540
  133OSM   H11S14388   1.847   2.945   7.345 -0.1666  0.3496 -1.8451
  133OSM   H11T14389   1.941   3.088   7.377 -0.2378 -1.0189 -0.9533
  133OSM   C12S14390   1.912   2.960   7.549  0.1783 -0.2619  0.8322
  133OSM   H12S14391   1.908   2.849   7.557  2.4846 -0.5855 -1.1211
  133OSM   H12T14392   1.815   3.007   7.575  0.1101 -0.6653  1.3362
  133OSM   C13S14393   2.014   3.019   7.649 -0.3931 -0.1473  0.0593
  133OSM   H13S14394   2.003   3.130   7.647  0.6090 -0.0313  0.1539
  133OSM   H13T14395   2.115   3.000   7.606 -0.9862 -2.0652 -0.5844
  133OSM   C14S14396   2.004   2.964   7.790  0.3485  0.2545  0.4785
  133OSM   H14S14397   2.001   2.853   7.791 -1.9192  0.2511 -0.1108
  133OSM   H14T14398   1.905   2.992   7.833 -0.2029  0.0148 -0.6086
  133OSM   C15S14399   2.110   3.014   7.881 -0.3728  0.2483 -0.6813
  133OSM   H15S14400   2.104   3.125   7.883 -0.3797  0.2443 -0.1906
  133OSM   H15T14401   2.210   2.983   7.844  0.0047  1.0323 -0.3357
  133OSM   C16S14402   2.102   2.964   8.025 -0.2273 -0.5876  0.3299
  133OSM   H16S14403   2.121   2.854   8.022  0.5869 -0.4818 -3.5590
  133OSM   H16T14404   2.002   2.993   8.063  0.0013  0.6010  0.0492
  133OSM   C17S14405   2.218   3.040   8.099 -0.5116 -0.4777 -0.6155
  133OSM   H17S14406   2.214   3.141   8.053 -0.5161 -0.8320 -1.4092
  133OSM   H17T14407   2.320   3.001   8.080 -0.8992 -1.9460  0.1963
  133OSM   C18S14408   2.212   3.063   8.257  0.4152 -0.0795 -0.2773
  133OSM   H18S14409   2.299   3.129   8.278 -0.7086  2.1183 -2.0407
  133OSM   H18T14410   2.208   2.967   8.312 -2.8021 -0.6034 -1.2440
  133OSM   H18U14411   2.122   3.119   8.290  1.3845  0.8662  0.8551
  133OSM    C1F14412   2.250   2.627   6.641 -0.1044  0.4217  0.4538
  133OSM     OF14413   2.348   2.637   6.568 -0.1287 -0.3390 -0.2343
  133OSM    C2F14414   2.240   2.524   6.750 -0.1710 -0.1213 -0.7709
  133OSM    H2F14415   2.324   2.451   6.755  0.2721  0.4237 -0.1918
  133OSM    H2G14416   2.145   2.473   6.724 -0.5837  2.1296 -4.4648
  133OSM    C3F14417   2.250   2.594   6.882  0.0132 -1.2867 -0.3641
  133OSM    H3F14418   2.177   2.676   6.898  0.1278 -0.5537 -3.1264
  133OSM    H3G14419   2.349   2.645   6.893  0.1131 -1.7690  1.3570
  133OSM    C4F14420   2.240   2.497   7.003  0.6932 -0.1594 -0.3377
  133OSM    H4F14421   2.320   2.420   6.998  1.0233  0.2218 -1.1036
  133OSM    H4G14422   2.147   2.437   6.997  0.3633 -0.0058  2.1900
  133OSM    C5F14423   2.246   2.567   7.145 -0.5647  0.4583 -0.1885
  133OSM    H5F14424   2.153   2.627   7.155 -0.1238  1.0973  0.1920
  133OSM    H5G14425   2.332   2.638   7.143 -0.8226  0.7979 -2.5945
  133OSM    C6F14426   2.253   2.475   7.269 -0.3948  0.1925 -0.9072
  133OSM    H6F14427   2.352   2.426   7.262  1.5063  3.6518 -0.6935
  133OSM    H6G14428   2.177   2.394   7.262  1.2488 -1.3465 -1.7806
  133OSM    C7F14429   2.242   2.543   7.410 -0.4385  0.3627  0.8827
  133OSM    H7F14430   2.149   2.599   7.431 -0.2828  1.2212 -0.5739
  133OSM    H7G14431   2.331   2.608   7.411  1.1986 -1.7265 -0.3905
  133OSM    C8F14432   2.263   2.432   7.519 -0.5496  0.1070  0.0504
  133OSM    H8F14433   2.343   2.360   7.492  0.2744  0.1266  2.2484
  133OSM    H8G14434   2.174   2.366   7.528 -0.4425 -0.0312  0.1013
  133OSM    C9F14435   2.309   2.481   7.651 -0.0000 -0.3571  0.0412
  133OSM    H9F14436   2.405   2.534   7.652 -2.4780  4.7875 -1.9881
  133OSM   C10F14437   2.233   2.478   7.766  0.5275  1.3014 -0.9321
  133OSM   H10F14438   2.269   2.518   7.862 -3.6445  2.7405  0.2457
  133OSM   C11F14439   2.090   2.416   7.772 -0.2189  0.0604  0.1229
  133OSM   H11F14440   2.095   2.306   7.780  1.5791  0.0868 -0.1249
  133OSM   H11G14441   2.043   2.438   7.674 -1.7302  0.1303  0.8419
  133OSM   C12F14442   1.998   2.481   7.875  0.3126  0.0819 -0.2331
  133OSM   H12F14443   1.899   2.432   7.870  0.1354  0.3258  0.6192
  133OSM   H12G14444   1.982   2.589   7.856 -0.4459 -0.2175 -1.4026
  133OSM   C13F14445   2.039   2.447   8.024  0.2933 -0.4174 -0.6715
  133OSM   H13F14446   2.104   2.357   8.028 -1.5762 -1.8077  1.3366
  133OSM   H13G14447   1.942   2.409   8.064 -0.4345 -1.3389 -3.1270
  133OSM   C14F14448   2.114   2.572   8.083 -0.8487  0.3959 -0.2902
  133OSM   H14F14449   2.114   2.657   8.011 -1.8100 -0.1149 -0.9157
  133OSM   H14G14450   2.217   2.532   8.090 -0.8270  0.7589  3.0750
  133OSM   C15F14451   2.069   2.607   8.223 -0.2041 -0.3678 -0.4402
  133OSM   H15F14452   2.150   2.663   8.275  0.2628 -1.0240 -0.4526
  133OSM   H15G14453   2.049   2.521   8.289 -1.2473  0.9757  1.0656
  133OSM   C16F14454   1.937   2.690   8.211 -0.1766 -0.7190  0.1492
  133OSM   H16F14455   1.857   2.637   8.155 -0.2104 -0.2720 -0.2300
  133OSM   H16G14456   1.972   2.781   8.156  3.1129 -0.9554  1.6529
  133OSM   C17F14457   1.866   2.728   8.343 -0.0609  0.2127 -0.5898
  133OSM   H17F14458   1.782   2.800   8.338  0.9432  1.3753 -1.2121
  133OSM   H17G14459   1.943   2.782   8.403 -1.6674  2.2447 -0.2281
  133OSM   C18F14460   1.831   2.610   8.434  0.8827 -0.0128 -0.1767
  133OSM   H18F14461   1.780   2.640   8.528  1.1030  3.0497 -0.9263
  133OSM   H18G14462   1.923   2.560   8.471  0.6305 -0.3798 -0.0441
  133OSM   H18H14463   1.767   2.543   8.372  0.8975  0.3162 -0.5598
  134OSM      N14464   2.593   6.071   6.417 -0.0353  0.7555 -0.1820
  134OSM    C1514465   2.705   6.040   6.505 -1.2106 -0.6588  0.0749
  134OSM   H15A14466   2.675   5.999   6.601  0.4724  2.3010  2.0084
  134OSM   H15B14467   2.751   6.132   6.539  0.6788 -1.2862 -0.6805
  134OSM   H15C14468   2.788   5.994   6.455 -0.0854  1.8938 -0.5719
  134OSM    C1414469   2.533   6.199   6.455 -0.1085  0.3657  1.0188
  134OSM   H14A14470   2.447   6.211   6.392  0.1135  0.3553  0.7111
  134OSM   H14B14471   2.597   6.283   6.430 -1.3558  0.0445 -4.6827
  134OSM   H14C14472   2.507   6.196   6.560 -1.6572  1.3770  0.6921
  134OSM    C1314473   2.645   6.088   6.277  0.1321 -0.3086  0.5251
  134OSM   H13A14474   2.719   6.166   6.260 -2.2124  1.8805 -0.2943
  134OSM   H13B14475   2.563   6.100   6.208  0.1035  1.1706  0.7721
  134OSM   H13C14476   2.693   5.995   6.250  0.4193  0.3921 -1.6290
  134OSM    C1214477   2.486   5.961   6.416  0.1289 -0.1029  0.5992
  134OSM   H12A14478   2.538   5.872   6.382  1.2258  0.6536  0.2580
  134OSM   H12B14479   2.416   5.997   6.343 -2.0722 -0.1915  2.5262
  134OSM    C1114480   2.405   5.944   6.544  0.2481  0.5873 -0.3765
  134OSM   H11A14481   2.307   5.894   6.529 -1.3510  2.9904  1.3890
  134OSM   H11B14482   2.367   6.042   6.580  0.3715  0.5364 -0.1125
  134OSM      P14483   2.509   5.733   6.653 -0.3097  0.3653  0.2758
  134OSM    O1314484   2.435   5.669   6.543  0.2821 -0.3179 -0.6341
  134OSM    O1414485   2.652   5.702   6.661  0.1112  0.5532  0.0228
  134OSM    O1114486   2.439   5.697   6.789  0.3263 -0.2016 -0.5082
  134OSM    O1214487   2.490   5.890   6.655 -0.0534  0.0619  0.0620
  134OSM    C1S14488   2.458   5.783   6.901 -0.0649 -0.3102  0.0987
  134OSM    H1S14489   2.386   5.867   6.893  0.3151 -0.1057 -1.3339
  134OSM    H1T14490   2.556   5.835   6.902  1.2018 -2.5668  0.3128
  134OSM     NF14491   2.433   5.802   7.143 -0.3360 -0.2507 -0.0359
  134OSM    HNF14492   2.514   5.822   7.197 -1.0653 -0.0940  1.0222
  134OSM    C2S14493   2.436   5.703   7.034  0.0568  0.5338  0.0203
  134OSM    H2S14494   2.337   5.653   7.026  0.3904  0.0153 -1.1163
  134OSM    C3S14495   2.544   5.593   7.045  0.8543  0.2042 -0.0592
  134OSM    H3S14496   2.641   5.629   7.005  0.7803 -0.5893 -0.9673
  134OSM     O314497   2.503   5.487   6.967  0.0137 -0.0861  0.6006
  134OSM    HO314498   2.455   5.531   6.897  1.6024 -0.4916 -0.8416
  134OSM    C4S14499   2.559   5.543   7.191 -0.0874 -0.3264  0.7810
  134OSM    H4S14500   2.642   5.595   7.241 -0.4762 -1.1401  2.3211
  134OSM    C5S14501   2.483   5.458   7.261 -0.0107  0.1163 -0.1514
  134OSM    H5S14502   2.388   5.416   7.224 -0.5598  1.4714 -0.3444
  134OSM    C6S14503   2.505   5.415   7.400 -0.0415  0.6077 -0.1668
  134OSM    H6S14504   2.419   5.451   7.461 -0.1231  0.5450 -0.2423
  134OSM    H6T14505   2.588   5.464   7.455  0.6486 -0.0419 -0.6123
  134OSM    C7S14506   2.531   5.264   7.424  0.2437  0.5515 -0.1784
  134OSM    H7S14507   2.605   5.224   7.351  0.9439 -0.3232  0.9717
  134OSM    H7T14508   2.441   5.202   7.406  1.8324 -1.6643 -0.8382
  134OSM    C8S14509   2.592   5.233   7.562 -0.0752 -0.0614 -0.1586
  134OSM    H8S14510   2.685   5.292   7.571  1.0234 -1.2873 -2.4825
  134OSM    H8T14511   2.625   5.128   7.551  3.8663  1.0409 -0.1965
  134OSM    C9S14512   2.495   5.236   7.682  0.1945  0.4632 -0.4294
  134OSM    H9S14513   2.404   5.179   7.657  1.0675 -1.3956  0.4065
  134OSM    H9T14514   2.458   5.338   7.704  0.1049  1.1673 -3.4465
  134OSM   C10S14515   2.563   5.182   7.803  0.0590  0.4517  0.5303
  134OSM   H10S14516   2.647   5.250   7.828  1.5110 -0.4278 -1.6530
  134OSM   H10T14517   2.592   5.077   7.779 -2.8412  0.2049 -2.7125
  134OSM   C11S14518   2.468   5.171   7.919  0.5341  0.0022 -0.5627
  134OSM   H11S14519   2.377   5.112   7.896 -0.4250  0.3513  1.9743
  134OSM   H11T14520   2.425   5.270   7.949 -1.8018 -1.7050  2.2355
  134OSM   C12S14521   2.537   5.129   8.051 -0.3194  0.2443 -0.2753
  134OSM   H12S14522   2.622   5.197   8.072  0.9149 -1.4877  0.5174
  134OSM   H12T14523   2.570   5.024   8.045 -1.6455 -0.2689  0.7644
  134OSM   C13S14524   2.438   5.141   8.170  0.1015  0.0844 -0.4606
  134OSM   H13S14525   2.413   5.247   8.193  0.7272 -0.0604  0.9789
  134OSM   H13T14526   2.493   5.108   8.261  0.3837  1.5818 -0.0552
  134OSM   C14S14527   2.300   5.068   8.153 -1.0274  0.3380  0.2671
  134OSM   H14S14528   2.251   5.111   8.064 -0.6803 -3.2041 -1.8082
  134OSM   H14T14529   2.241   5.079   8.247  0.2281  1.3514  0.9831
  134OSM   C15S14530   2.305   4.913   8.120 -0.1735  0.4015  0.1173
  134OSM   H15S14531   2.370   4.876   8.038 -0.1818 -0.9842  0.7156
  134OSM   H15T14532   2.202   4.893   8.084 -0.0592  1.8852 -1.1360
  134OSM   C16S14533   2.310   4.819   8.245 -0.5076 -0.7413  0.2868
  134OSM   H16S14534   2.247   4.842   8.334  0.4543  0.6351  0.6498
  134OSM   H16T14535   2.407   4.846   8.292 -0.2127 -0.4829 -0.4515
  134OSM   C17S14536   2.312   4.670   8.209 -0.5235  0.0199  0.2318
  134OSM   H17S14537   2.373   4.657   8.118 -2.0931  0.0372 -0.8706
  134OSM   H17T14538   2.208   4.643   8.182 -0.6506 -0.0209  0.7443
  134OSM   C18S14539   2.350   4.582   8.331 -0.1468 -0.2262  0.3223
  134OSM   H18S14540   2.354   4.474   8.305  0.1209  0.1601 -1.3498
  134OSM   H18T14541   2.278   4.592   8.415  0.5317 -1.7064  1.1179
  134OSM   H18U14542   2.452   4.610   8.366  0.4846 -1.5264 -0.3965
  134OSM    C1F14543   2.326   5.881   7.159 -0.1788 -0.1216 -0.4197
  134OSM     OF14544   2.235   5.878   7.080  0.0029  0.0099  0.5422
  134OSM    C2F14545   2.328   5.983   7.269  0.3675 -0.0923 -0.5356
  134OSM    H2F14546   2.284   6.082   7.243  1.8435  0.6213 -0.3867
  134OSM    H2G14547   2.432   6.003   7.299  0.4843 -0.8159 -0.4304
  134OSM    C3F14548   2.243   5.946   7.389  0.2588  0.4917  0.0958
  134OSM    H3F14549   2.290   5.859   7.440  1.5971  0.9852 -0.2536
  134OSM    H3G14550   2.141   5.911   7.362  0.2201  2.3442 -2.6042
  134OSM    C4F14551   2.244   6.058   7.491  0.4462  0.0115 -0.0900
  134OSM    H4F14552   2.207   6.156   7.456  1.1044  0.8769  1.5386
  134OSM    H4G14553   2.348   6.085   7.516 -0.4783  2.5216  1.4242
  134OSM    C5F14554   2.166   6.017   7.614  0.0684 -0.6526 -0.5356
  134OSM    H5F14555   2.213   5.936   7.673  0.7037 -0.8958 -1.3486
  134OSM    H5G14556   2.068   5.982   7.576 -1.1115  0.8305  1.0038
  134OSM    C6F14557   2.132   6.133   7.720 -0.2596  0.0947 -0.0825
  134OSM    H6F14558   2.065   6.203   7.666  0.4582 -0.2411 -1.4730
  134OSM    H6G14559   2.229   6.182   7.746 -0.2362 -0.5264  1.0618
  134OSM    C7F14560   2.049   6.080   7.841 -0.5039 -0.7264  0.3768
  134OSM    H7F14561   2.115   6.007   7.890 -0.5623 -2.0291 -1.3903
  134OSM    H7G14562   1.967   6.021   7.795 -0.0945 -0.9414 -0.0799
  134OSM    C8F14563   1.998   6.192   7.933 -0.3200  0.0675  0.4802
  134OSM    H8F14564   1.936   6.264   7.876  0.7978  0.8797  0.2405
  134OSM    H8G14565   2.084   6.251   7.971 -0.3904  1.6924 -1.6660
  134OSM    C9F14566   1.906   6.118   8.032 -0.8369 -0.6460 -0.3883
  134OSM    H9F14567   1.825   6.060   7.984 -1.5391  1.5165 -1.9665
  134OSM   C10F14568   1.913   6.118   8.167 -0.3367  0.0075  0.2095
  134OSM   H10F14569   1.847   6.055   8.228  0.6383 -1.4287 -0.1871
  134OSM   C11F14570   2.012   6.192   8.251  0.3609 -0.5364 -0.7516
  134OSM   H11F14571   1.951   6.266   8.308 -0.9226 -2.7008  0.8528
  134OSM   H11G14572   2.074   6.256   8.185 -1.1588  0.2490 -1.4843
  134OSM   C12F14573   2.084   6.105   8.363 -0.4019 -0.1168  0.6681
  134OSM   H12F14574   2.167   6.172   8.393 -0.6896 -0.2162  1.7123
  134OSM   H12G14575   2.127   6.020   8.307 -0.3630  0.9023 -0.9241
  134OSM   C13F14576   1.992   6.057   8.485 -0.1251 -0.0919  0.3537
  134OSM   H13F14577   1.910   5.988   8.458 -0.7917  0.5893  0.6236
  134OSM   H13G14578   1.959   6.148   8.538  0.2012 -0.7037  1.6654
  134OSM   C14F14579   2.067   5.971   8.591 -0.0720 -1.1130 -0.5861
  134OSM   H14F14580   2.166   6.023   8.597 -0.1564 -1.1206  1.3131
  134OSM   H14G14581   2.085   5.873   8.541 -0.8068 -1.0730 -0.9303
  134OSM   C15F14582   2.002   5.962   8.720  0.6823 -0.2784 -0.1620
  134OSM   H15F14583   2.014   5.863   8.769 -0.2809 -1.0656 -1.4506
  134OSM   H15G14584   1.893   5.980   8.705  0.9450  1.6562 -0.0125
  134OSM   C16F14585   2.039   6.068   8.826  0.0834 -0.2252  0.3670
  134OSM   H16F14586   1.972   6.048   8.911 -0.9918 -0.6862 -0.5612
  134OSM   H16G14587   2.007   6.167   8.788 -0.3782 -1.0267 -1.4617
  134OSM   C17F14588   2.185   6.065   8.879  0.0001 -0.6542 -0.7211
  134OSM   H17F14589   2.254   6.066   8.793  0.0121  0.4378 -0.7148
  134OSM   H17G14590   2.207   5.973   8.937  1.1543 -1.0241 -1.7265
  134OSM   C18F14591   2.238   6.171   8.972 -0.4582  0.5160  0.3335
  134OSM   H18F14592   2.325   6.139   9.033 -0.2190  0.3441 -0.0890
  134OSM   H18G14593   2.151   6.204   9.032 -1.3866  0.1778 -0.7855
  134OSM   H18H14594   2.267   6.253   8.903 -2.5255 -0.5653 -1.9829
  135OSM      N14595   1.709   6.152   6.263 -0.2963 -0.3668  0.2193
  135OSM    C1514596   1.625   6.107   6.147  0.2158 -0.2593 -0.1559
  135OSM   H15A14597   1.533   6.070   6.190  0.0201 -0.6519 -0.9137
  135OSM   H15B14598   1.675   6.039   6.081  2.8200  1.6738 -0.3269
  135OSM   H15C14599   1.597   6.190   6.083 -1.4408 -2.5070 -2.5365
  135OSM    C1414600   1.829   6.219   6.202 -0.0595  0.2794  0.2172
  135OSM   H14A14601   1.892   6.148   6.150 -0.3788  0.6503 -0.7040
  135OSM   H14B14602   1.890   6.276   6.270  0.1659  0.1796  0.1012
  135OSM   H14C14603   1.803   6.295   6.129  2.1146  0.4311 -0.4758
  135OSM    C1314604   1.633   6.258   6.338  0.1975 -0.5745  0.0380
  135OSM   H13A14605   1.609   6.343   6.276 -1.4604 -0.0372  1.3374
  135OSM   H13B14606   1.685   6.292   6.426  0.3878  1.5158 -0.8292
  135OSM   H13C14607   1.537   6.221   6.374 -1.2637  3.8171  1.2593
  135OSM    C1214608   1.759   6.039   6.348 -0.2388 -0.9725  1.5765
  135OSM   H12A14609   1.836   5.981   6.298 -0.4014 -1.3429  1.7540
  135OSM   H12B14610   1.673   5.976   6.365 -2.8942  1.0846 -2.5648
  135OSM    C1114611   1.816   6.083   6.481 -0.4369 -0.3711 -0.4416
  135OSM   H11A14612   1.840   5.988   6.533  0.3391 -1.1067 -2.0927
  135OSM   H11B14613   1.743   6.138   6.545 -0.3359 -1.1845  0.3933
  135OSM      P14614   2.080   6.133   6.450 -0.1364 -0.0880  0.5223
  135OSM    O1314615   2.107   6.068   6.318 -0.3164 -0.0240  0.0337
  135OSM    O1414616   2.164   6.250   6.478  0.2278 -0.5014  0.0590
  135OSM    O1114617   2.098   6.031   6.563 -0.1081  0.1246 -0.0312
  135OSM    O1214618   1.931   6.173   6.460  0.3566  0.5672  0.4772
  135OSM    C1S14619   2.094   6.076   6.704 -0.1338  0.0378 -0.2220
  135OSM    H1S14620   2.047   6.172   6.733  0.1958 -0.3839  1.8499
  135OSM    H1T14621   2.196   6.068   6.749 -0.7632  0.0625  1.2616
  135OSM     NF14622   2.035   5.999   6.934  0.5230 -0.3767 -0.0131
  135OSM    HNF14623   2.107   5.953   6.984 -0.4819 -1.6161  0.3486
  135OSM    C2S14624   2.023   5.961   6.790  0.5367 -0.3819 -0.4668
  135OSM    H2S14625   1.914   5.966   6.765 -0.6832 -0.6221  3.9508
  135OSM    C3S14626   2.083   5.824   6.748 -0.5141 -0.4326  0.3684
  135OSM    H3S14627   2.193   5.841   6.746 -0.7185  1.8256  3.0566
  135OSM     O314628   2.046   5.784   6.613  0.0706  0.4211 -0.6374
  135OSM    HO314629   2.030   5.869   6.573 -1.1199 -0.2090 -1.5927
  135OSM    C4S14630   2.049   5.715   6.847  0.1689  0.1559  0.4792
  135OSM    H4S14631   1.956   5.725   6.905  0.5534 -0.0806  1.1633
  135OSM    C5S14632   2.134   5.609   6.868  0.3523  0.0246  0.8556
  135OSM    H5S14633   2.226   5.601   6.808  0.4655  0.1849  1.0081
  135OSM    C6S14634   2.108   5.500   6.964 -0.0211  1.1775 -0.3474
  135OSM    H6S14635   2.186   5.494   7.043 -2.1906 -1.2800  1.8275
  135OSM    H6T14636   2.115   5.403   6.909 -2.0892  0.6916  0.1632
  135OSM    C7S14637   1.977   5.495   7.047  0.6998  0.2090  0.1549
  135OSM    H7S14638   1.990   5.401   7.105 -1.7123 -0.7776 -0.7617
  135OSM    H7T14639   1.883   5.475   6.991 -0.5268  2.0573  1.4814
  135OSM    C8S14640   1.951   5.613   7.145 -0.9273 -0.0935  0.3636
  135OSM    H8S14641   1.905   5.699   7.092  2.0989  0.3085 -1.8269
  135OSM    H8T14642   2.048   5.651   7.183 -2.2678  1.7668  2.1362
  135OSM    C9S14643   1.869   5.567   7.269 -0.4139 -0.0496  0.2649
  135OSM    H9S14644   1.926   5.483   7.315  2.6483  0.5366 -2.0828
  135OSM    H9T14645   1.769   5.531   7.238 -0.0822 -0.5908 -0.1938
  135OSM   C10S14646   1.846   5.684   7.367 -0.1873 -0.6356  0.2787
  135OSM   H10S14647   1.770   5.758   7.333  0.3388 -0.0191  0.4204
  135OSM   H10T14648   1.936   5.735   7.406  0.7690 -0.8364 -1.5464
  135OSM   C11S14649   1.799   5.619   7.500 -0.2800  0.4821 -0.3371
  135OSM   H11S14650   1.881   5.552   7.532 -1.8755 -0.7199  1.4393
  135OSM   H11T14651   1.711   5.552   7.490  2.0212 -3.4612  2.9398
  135OSM   C12S14652   1.757   5.722   7.611 -0.2016 -0.0380 -0.0188
  135OSM   H12S14653   1.670   5.777   7.571 -0.9324 -0.6639  0.6718
  135OSM   H12T14654   1.843   5.791   7.626 -1.3512  1.5681 -0.6299
  135OSM   C13S14655   1.742   5.647   7.740 -0.4072  0.8262 -0.5773
  135OSM   H13S14656   1.836   5.590   7.761 -0.2605  1.2985  0.0950
  135OSM   H13T14657   1.656   5.576   7.741  0.8208 -0.7394  0.7371
  135OSM   C14S14658   1.730   5.747   7.856  0.0889 -0.3047 -0.3149
  135OSM   H14S14659   1.632   5.800   7.859  0.3090  0.1302 -0.6300
  135OSM   H14T14660   1.807   5.826   7.863 -0.3569  0.0191  1.0947
  135OSM   C15S14661   1.746   5.672   7.992 -0.0045  0.4412 -0.8912
  135OSM   H15S14662   1.829   5.598   7.992 -0.8146 -0.5565  1.0083
  135OSM   H15T14663   1.648   5.621   8.004  0.4869 -0.1955  0.6793
  135OSM   C16S14664   1.746   5.759   8.114 -0.3008  0.6896  0.0017
  135OSM   H16S14665   1.656   5.824   8.104 -0.6386 -0.0453 -2.2052
  135OSM   H16T14666   1.829   5.832   8.120  1.4876 -1.3387  3.6832
  135OSM   C17S14667   1.712   5.685   8.250 -0.2319 -0.4319 -0.3417
  135OSM   H17S14668   1.804   5.634   8.288 -0.0123  0.9052  1.0246
  135OSM   H17T14669   1.628   5.614   8.238  0.3422 -1.4682  1.2494
  135OSM   C18S14670   1.653   5.774   8.373  0.2879 -0.5788  0.2412
  135OSM   H18S14671   1.645   5.710   8.463  1.5041 -0.3402  0.5314
  135OSM   H18T14672   1.557   5.821   8.343 -0.5002 -0.2787  2.9921
  135OSM   H18U14673   1.729   5.853   8.395  0.3967 -1.2832  2.5898
  135OSM    C1F14674   1.977   6.098   6.994  0.3461 -0.3545 -0.2473
  135OSM     OF14675   1.912   6.180   6.930 -0.2588 -0.1642  0.8259
  135OSM    C2F14676   2.002   6.118   7.139 -0.3637  0.5507  0.4836
  135OSM    H2F14677   2.088   6.187   7.150 -0.0636  0.4295 -0.8349
  135OSM    H2G14678   2.034   6.019   7.179  0.5629  1.9858  3.5602
  135OSM    C3F14679   1.868   6.168   7.212 -0.0086  0.2779 -0.2771
  135OSM    H3F14680   1.803   6.079   7.199  1.6105 -1.3498  1.9419
  135OSM    H3G14681   1.824   6.259   7.166  0.3953  1.2188  1.1192
  135OSM    C4F14682   1.888   6.193   7.367 -0.1182  0.4096 -0.4179
  135OSM    H4F14683   1.963   6.268   7.399 -1.5974  1.1678  1.4615
  135OSM    H4G14684   1.930   6.098   7.408  1.5594  1.6521  0.8679
  135OSM    C5F14685   1.758   6.231   7.431  0.0258 -0.2323  0.2820
  135OSM    H5F14686   1.701   6.136   7.436 -0.7675  0.3192  2.4992
  135OSM    H5G14687   1.702   6.303   7.368  1.4326  0.2204 -0.4982
  135OSM    C6F14688   1.777   6.298   7.566 -0.9469  0.4382  0.5010
  135OSM    H6F14689   1.845   6.385   7.553  0.1117 -0.6132 -1.7401
  135OSM    H6G14690   1.840   6.228   7.625  1.6055  1.0997 -1.2328
  135OSM    C7F14691   1.645   6.324   7.647  0.1537  0.3254 -0.0621
  135OSM    H7F14692   1.594   6.401   7.584  0.8109  0.7901 -0.0426
  135OSM    H7G14693   1.671   6.369   7.745  1.3378 -1.6579  0.5757
  135OSM    C8F14694   1.545   6.207   7.655 -0.2912 -0.4132  0.0164
  135OSM    H8F14695   1.518   6.176   7.552 -2.0319  1.4481 -0.1591
  135OSM    H8G14696   1.453   6.255   7.696  1.2838  0.4366  2.8403
  135OSM    C9F14697   1.591   6.100   7.752  1.1720 -0.5010 -0.3858
  135OSM    H9F14698   1.678   6.043   7.716  1.3062 -0.5386 -0.0021
  135OSM   C10F14699   1.539   6.075   7.875 -1.6079 -0.0673  0.5253
  135OSM   H10F14700   1.577   5.994   7.940  0.7052  0.0709 -0.5510
  135OSM   C11F14701   1.433   6.147   7.954  0.3609  0.4875  0.3551
  135OSM   H11F14702   1.351   6.072   7.957  1.1766 -0.6954 -2.4901
  135OSM   H11G14703   1.392   6.233   7.897  0.7690  0.8809  0.6484
  135OSM   C12F14704   1.468   6.183   8.099  0.0670  0.6063  0.0060
  135OSM   H12F14705   1.535   6.271   8.088 -0.5748  0.9180 -1.8723
  135OSM   H12G14706   1.525   6.104   8.153  1.0639  1.3290  0.0459
  135OSM   C13F14707   1.341   6.223   8.162 -0.4630 -0.1239  0.1696
  135OSM   H13F14708   1.294   6.295   8.091 -0.2866  0.1914  0.3702
  135OSM   H13G14709   1.370   6.292   8.244 -1.2001 -0.0255  0.3582
  135OSM   C14F14710   1.250   6.106   8.205 -0.5130  0.8216  0.1342
  135OSM   H14F14711   1.249   6.021   8.134  2.4866  0.1561  0.7455
  135OSM   H14G14712   1.151   6.157   8.211 -0.3644  1.0488  0.7822
  135OSM   C15F14713   1.296   6.050   8.343 -0.3084  0.2297 -0.1488
  135OSM   H15F14714   1.331   6.131   8.410 -2.4183  1.7892 -0.7963
  135OSM   H15G14715   1.384   5.986   8.322 -0.1381  0.8427 -1.3770
  135OSM   C16F14716   1.175   5.979   8.411  0.0487 -0.0967  0.5190
  135OSM   H16F14717   1.148   5.901   8.337  1.1676  2.5764 -3.0121
  135OSM   H16G14718   1.102   6.062   8.423 -0.2303 -0.0972 -1.0552
  135OSM   C17F14719   1.205   5.923   8.554 -0.3162 -0.1627 -0.5343
  135OSM   H17F14720   1.240   6.002   8.624 -2.5451 -0.2234  0.7569
  135OSM   H17G14721   1.279   5.840   8.554  2.4450  2.1230 -1.6121
  135OSM   C18F14722   1.076   5.872   8.612  0.2568  1.2706 -0.4108
  135OSM   H18F14723   1.001   5.954   8.613  0.6220  1.6304  1.0245
  135OSM   H18G14724   1.088   5.837   8.717 -1.5812 -1.7459 -1.0834
  135OSM   H18H14725   1.038   5.790   8.549  2.8624 -0.9208  0.6452
  136OSM      N14726   0.695   1.806   5.803  0.6981 -0.2404  0.3730
  136OSM    C1514727   0.673   1.835   5.652  0.1431  0.4460 -0.1043
  136OSM   H15A14728   0.598   1.766   5.618  0.1248  0.5301 -0.2344
  136OSM   H15B14729   0.763   1.819   5.595  0.7014  0.8649  0.6359
  136OSM   H15C14730   0.641   1.937   5.639  0.9651  0.4378 -2.6311
  136OSM    C1414731   0.563   1.784   5.861 -0.1750 -0.2202 -0.3654
  136OSM   H14A14732   0.504   1.701   5.825 -1.9114  1.2122 -0.9529
  136OSM   H14B14733   0.503   1.874   5.861 -0.1889 -0.1592  2.0699
  136OSM   H14C14734   0.583   1.768   5.966  0.5528 -0.2255 -0.5017
  136OSM    C1314735   0.766   1.674   5.823 -0.4177 -0.9278  0.1121
  136OSM   H13A14736   0.866   1.692   5.784 -1.7379  1.7485 -2.5095
  136OSM   H13B14737   0.730   1.586   5.772  0.1005 -2.1542  1.7672
  136OSM   H13C14738   0.774   1.660   5.929 -1.0334 -1.6582  0.0669
  136OSM    C1214739   0.774   1.911   5.876  0.6933 -0.0262  0.1456
  136OSM   H12A14740   0.716   2.002   5.873 -0.4596 -0.7583 -1.1801
  136OSM   H12B14741   0.868   1.934   5.829 -0.7612 -0.3597 -3.2330
  136OSM    C1114742   0.808   1.902   6.025 -0.4771  0.2849  0.3737
  136OSM   H11A14743   0.874   1.986   6.057 -0.3074  0.2483  0.1178
  136OSM   H11B14744   0.869   1.813   6.050  0.4713  1.0259  0.7585
  136OSM      P14745   0.601   2.025   6.120  0.4130 -0.0495 -0.1744
  136OSM    O1314746   0.673   2.146   6.078 -1.1791 -0.2449 -0.0069
  136OSM    O1414747   0.474   1.998   6.057 -0.4803 -0.0549  0.3063
  136OSM    O1114748   0.568   2.039   6.275 -0.4148 -0.7618  0.2596
  136OSM    O1214749   0.696   1.898   6.107  0.3412  0.4149  0.5354
  136OSM    C1S14750   0.687   2.024   6.354 -0.1886 -0.0722 -0.4144
  136OSM    H1S14751   0.754   2.112   6.341 -0.9605  0.8109  1.3743
  136OSM    H1T14752   0.731   1.924   6.334  0.5833 -0.3927  2.4635
  136OSM     NF14753   0.781   2.048   6.587 -0.3307 -0.0302 -0.5177
  136OSM    HNF14754   0.824   1.961   6.612  2.9402  1.4050 -0.7005
  136OSM    C2S14755   0.659   2.031   6.509  0.0605  0.2283 -0.6323
  136OSM    H2S14756   0.588   2.116   6.519 -0.7388 -0.3649 -1.2372
  136OSM    C3S14757   0.569   1.914   6.551  0.0709 -0.3470  0.0180
  136OSM    H3S14758   0.617   1.814   6.549  0.9367  0.0426  0.8337
  136OSM     O314759   0.454   1.895   6.467  0.8335 -0.3495  0.3988
  136OSM    HO314760   0.475   1.954   6.394 -0.0437 -0.4158  0.0744
  136OSM    C4S14761   0.504   1.929   6.682 -0.2390 -0.0923  0.5074
  136OSM    H4S14762   0.415   1.994   6.677 -0.3606 -0.3507 -2.5453
  136OSM    C5S14763   0.542   1.872   6.798 -0.4012  0.0729  0.1546
  136OSM    H5S14764   0.635   1.813   6.793  0.4928  1.5218 -1.4483
  136OSM    C6S14765   0.481   1.899   6.935  0.3767  0.0961  0.6455
  136OSM    H6S14766   0.464   1.799   6.980 -2.7499  0.2521  0.0245
  136OSM    H6T14767   0.382   1.949   6.932 -0.6670 -1.8721 -0.1556
  136OSM    C7S14768   0.578   1.983   7.023 -0.2832 -0.3902  0.4572
  136OSM    H7S14769   0.583   2.090   6.993  0.6395 -0.7638 -0.7950
  136OSM    H7T14770   0.685   1.956   7.014 -0.4421 -0.7430 -0.4722
  136OSM    C8S14771   0.558   1.972   7.174 -0.4067  0.2472 -0.2788
  136OSM    H8S14772   0.457   2.013   7.197 -0.0278  1.5749 -0.8998
  136OSM    H8T14773   0.638   2.040   7.210  1.0061 -1.2953 -0.3801
  136OSM    C9S14774   0.581   1.842   7.247 -0.5280 -0.3880 -0.0349
  136OSM    H9S14775   0.686   1.830   7.214  0.3633  4.5184  0.1897
  136OSM    H9T14776   0.518   1.765   7.198 -0.4658 -0.7715  0.4850
  136OSM   C10S14777   0.573   1.862   7.396 -0.3519  0.2442  0.4391
  136OSM   H10S14778   0.476   1.912   7.419 -0.5001  1.0533 -1.7683
  136OSM   H10T14779   0.657   1.930   7.419  1.3941 -1.5503 -0.3394
  136OSM   C11S14780   0.591   1.740   7.485 -0.1308  0.1019  0.0830
  136OSM   H11S14781   0.674   1.678   7.446 -0.9266 -0.3751 -0.9203
  136OSM   H11T14782   0.502   1.673   7.486 -1.4075  1.6505  3.2672
  136OSM   C12S14783   0.617   1.775   7.629  0.5049  0.6884 -0.2264
  136OSM   H12S14784   0.523   1.808   7.678 -0.3808 -0.5512 -1.0301
  136OSM   H12T14785   0.686   1.861   7.644  2.2144 -0.9861  2.2143
  136OSM   C13S14786   0.653   1.658   7.723 -0.0777 -0.2193 -0.2163
  136OSM   H13S14787   0.749   1.609   7.696  0.8878  1.3561  0.2897
  136OSM   H13T14788   0.576   1.582   7.694 -0.3406 -0.0801  0.1204
  136OSM   C14S14789   0.645   1.693   7.869  0.6316 -0.2193  0.1929
  136OSM   H14S14790   0.565   1.763   7.903  0.6510 -0.8523  1.6151
  136OSM   H14T14791   0.725   1.762   7.903 -0.4324 -0.3558  3.3817
  136OSM   C15S14792   0.634   1.572   7.960 -0.4018  0.3903 -0.1162
  136OSM   H15S14793   0.705   1.495   7.922 -0.8400  0.7858 -1.8283
  136OSM   H15T14794   0.532   1.527   7.954 -0.2568  0.1313 -0.8407
  136OSM   C16S14795   0.674   1.611   8.105  0.0030  0.3428 -0.4428
  136OSM   H16S14796   0.611   1.694   8.144 -0.8190  0.0679 -1.1247
  136OSM   H16T14797   0.778   1.647   8.106  0.5041 -1.0458  0.9022
  136OSM   C17S14798   0.665   1.487   8.189 -0.1214 -0.3741  0.3668
  136OSM   H17S14799   0.739   1.413   8.149 -1.1870 -0.0609 -2.4040
  136OSM   H17T14800   0.566   1.437   8.182  0.5098 -2.0608  2.2694
  136OSM   C18S14801   0.703   1.512   8.325  0.1532  0.1573 -0.0210
  136OSM   H18S14802   0.644   1.599   8.361  0.4348 -0.3019  1.6440
  136OSM   H18T14803   0.811   1.535   8.339  0.3445 -0.6456 -0.1111
  136OSM   H18U14804   0.671   1.423   8.383  1.7759 -1.4583 -1.4814
  136OSM    C1F14805   0.844   2.159   6.599 -0.5053  0.4219 -0.2669
  136OSM     OF14806   0.802   2.262   6.549 -0.3860  0.0289 -0.3062
  136OSM    C2F14807   0.973   2.159   6.677  0.5729  0.2646 -0.4308
  136OSM    H2F14808   1.060   2.142   6.610  1.3748 -0.7813  0.8374
  136OSM    H2G14809   0.968   2.075   6.749 -3.1759  1.3419  0.8072
  136OSM    C3F14810   1.000   2.287   6.758 -0.0556 -0.0187  0.4501
  136OSM    H3F14811   0.987   2.371   6.686  0.0948 -0.9899 -0.7577
  136OSM    H3G14812   1.106   2.310   6.783  0.0723  1.6175 -1.3278
  136OSM    C4F14813   0.901   2.326   6.875  0.0296 -0.0510  0.0210
  136OSM    H4F14814   0.806   2.299   6.824  0.8249 -2.1270 -0.4441
  136OSM    H4G14815   0.912   2.436   6.882  0.4723 -0.1429  0.8926
  136OSM    C5F14816   0.943   2.282   7.014  0.5935  0.7173  0.1755
  136OSM    H5F14817   1.036   2.334   7.046  1.0478 -0.2172  0.4112
  136OSM    H5G14818   0.951   2.171   7.011 -0.7978  0.6251 -1.7014
  136OSM    C6F14819   0.825   2.291   7.116 -0.5383  0.3284  0.3869
  136OSM    H6F14820   0.857   2.250   7.214 -1.8579 -1.3262  0.1771
  136OSM    H6G14821   0.744   2.219   7.090 -2.6769  2.6560  0.2057
  136OSM    C7F14822   0.765   2.434   7.113  0.4031  0.0350  0.1046
  136OSM    H7F14823   0.689   2.425   7.032  1.3962  1.0768 -0.9741
  136OSM    H7G14824   0.830   2.520   7.088 -1.2947  1.7418  1.2627
  136OSM    C8F14825   0.699   2.475   7.253  0.3179 -0.1650  0.1139
  136OSM    H8F14826   0.676   2.584   7.251  1.9369  0.2204  0.9888
  136OSM    H8G14827   0.788   2.468   7.319  0.3102  0.7077  0.2282
  136OSM    C9F14828   0.583   2.382   7.297  0.3157  0.1902  0.1701
  136OSM    H9F14829   0.503   2.391   7.222 -0.2884  0.4637  0.8305
  136OSM   C10F14830   0.562   2.294   7.396 -0.5400  0.5860  0.0491
  136OSM   H10F14831   0.461   2.255   7.418 -0.9286  1.6127  0.1674
  136OSM   C11F14832   0.663   2.276   7.506 -0.7062  0.3867  0.2826
  136OSM   H11F14833   0.695   2.376   7.541  0.6677 -0.0058  0.2290
  136OSM   H11G14834   0.756   2.231   7.465  0.6133  2.2381  1.0820
  136OSM   C12F14835   0.599   2.196   7.629 -0.0047  0.3796  0.4495
  136OSM   H12F14836   0.560   2.094   7.612 -0.1099  0.5534 -0.3967
  136OSM   H12G14837   0.503   2.243   7.657 -1.1126 -0.8776 -1.0550
  136OSM   C13F14838   0.695   2.200   7.748  0.3154 -0.1134  0.5910
  136OSM   H13F14839   0.759   2.291   7.753 -0.3961  0.3687  1.3399
  136OSM   H13G14840   0.766   2.118   7.723  1.3834  0.4725  1.5462
  136OSM   C14F14841   0.628   2.183   7.884 -0.1823  0.6575  0.0762
  136OSM   H14F14842   0.590   2.079   7.894  0.8736  0.3163  0.6588
  136OSM   H14G14843   0.546   2.257   7.891 -1.6638 -0.8173 -0.7820
  136OSM   C15F14844   0.729   2.194   7.995 -0.5009 -0.9534 -0.0336
  136OSM   H15F14845   0.775   2.295   7.998  0.7077 -1.4656 -0.6731
  136OSM   H15G14846   0.812   2.122   7.979 -0.0186 -1.2477  3.0607
  136OSM   C16F14847   0.671   2.172   8.134 -0.0210 -0.0124 -0.3514
  136OSM   H16F14848   0.607   2.081   8.125 -0.4376 -0.0360  2.1974
  136OSM   H16G14849   0.595   2.247   8.166  1.3917  1.5094 -0.4650
  136OSM   C17F14850   0.783   2.133   8.239 -0.2601 -0.2759  0.6502
  136OSM   H17F14851   0.870   2.201   8.255 -1.7265  2.5654 -2.2901
  136OSM   H17G14852   0.817   2.035   8.200 -3.0913 -0.6448 -1.1731
  136OSM   C18F14853   0.717   2.114   8.368 -0.3182  0.2475 -0.2548
  136OSM   H18F14854   0.626   2.050   8.371  0.4460 -0.8501  1.2310
  136OSM   H18G14855   0.678   2.209   8.409  0.8999  0.0791  1.3944
  136OSM   H18H14856   0.785   2.083   8.451 -0.8871 -1.1981 -0.2885
  137OSM      N14857   4.503   6.228   6.194 -0.0506 -0.0320  0.2582
  137OSM    C1514858   4.460   6.271   6.329 -0.4688 -0.1382 -0.1455
  137OSM   H15A14859   4.538   6.261   6.404 -0.4595  1.5067  0.0988
  137OSM   H15B14860   4.366   6.225   6.356 -0.0629 -0.0396  1.5679
  137OSM   H15C14861   4.442   6.378   6.334  1.8040  0.3769 -1.4724
  137OSM    C1414862   4.497   6.078   6.191  0.4711 -0.8776 -0.5720
  137OSM   H14A14863   4.543   6.042   6.282 -0.0641  1.3566  0.6730
  137OSM   H14B14864   4.530   6.036   6.097 -0.1905 -3.2433  0.1942
  137OSM   H14C14865   4.391   6.057   6.189  0.1529  0.6335 -1.8738
  137OSM    C1314866   4.420   6.288   6.089  0.8277 -0.1725  0.9069
  137OSM   H13A14867   4.323   6.242   6.081  1.5344 -1.6140  0.2097
  137OSM   H13B14868   4.451   6.272   5.987 -0.4771 -0.4899  0.5382
  137OSM   H13C14869   4.417   6.391   6.119 -0.6775 -0.8375  3.3673
  137OSM    C1214870   4.648   6.263   6.178 -0.3592 -0.3366  0.5850
  137OSM   H12A14871   4.668   6.368   6.158 -0.1740 -0.9086 -2.6307
  137OSM   H12B14872   4.675   6.212   6.087  2.0302 -0.6281  1.3800
  137OSM    C1114873   4.750   6.231   6.296 -0.0979  0.3154  0.4088
  137OSM   H11A14874   4.848   6.240   6.245  0.2024  1.7643  1.1881
  137OSM   H11B14875   4.748   6.126   6.333 -0.6092  1.3395  3.5694
  137OSM      P14876   4.811   6.454   6.409 -0.3021 -0.3605 -0.0544
  137OSM    O1314877   4.945   6.412   6.454  0.4007 -0.4621  0.4806
  137OSM    O1414878   4.797   6.528   6.284  0.1717 -0.7500  0.7558
  137OSM    O1114879   4.747   6.554   6.522 -0.1087  0.6976 -0.1873
  137OSM    O1214880   4.725   6.326   6.407 -0.3710 -0.3665  0.0390
  137OSM    C1S14881   4.608   6.554   6.544  0.1731 -0.0654 -0.5998
  137OSM    H1S14882   4.542   6.506   6.469  0.3271  2.1798 -2.2879
  137OSM    H1T14883   4.579   6.659   6.568  1.1652 -0.0593  0.6601
  137OSM     NF14884   4.429   6.513   6.722  0.4580  0.2227 -0.0389
  137OSM    HNF14885   4.420   6.567   6.805 -0.7294 -1.0999  0.7417
  137OSM    C2S14886   4.568   6.483   6.683  0.4023 -0.2815 -0.0393
  137OSM    H2S14887   4.583   6.374   6.674 -0.4073 -0.7269  2.9076
  137OSM    C3S14888   4.667   6.513   6.801  0.5064 -0.5826  0.5034
  137OSM    H3S14889   4.671   6.624   6.810  2.4412 -0.6867  1.4935
  137OSM     O314890   4.803   6.473   6.768  0.0543 -0.1316 -0.3210
  137OSM    HO314891   4.792   6.464   6.673  2.6851 -0.4041 -0.6823
  137OSM    C4S14892   4.635   6.439   6.926  0.7494 -0.2785  0.9917
  137OSM    H4S14893   4.674   6.336   6.926 -0.7962 -0.9084 -0.5440
  137OSM    C5S14894   4.572   6.498   7.030 -0.6913  0.3931  0.1101
  137OSM    H5S14895   4.551   6.605   7.015 -0.3848  0.4296 -0.0495
  137OSM    C6S14896   4.532   6.439   7.160  0.1909  0.4624 -0.0350
  137OSM    H6S14897   4.545   6.329   7.161 -0.9577  0.3177 -0.1401
  137OSM    H6T14898   4.427   6.461   7.188  0.5096  2.8211 -0.5125
  137OSM    C7S14899   4.620   6.497   7.273  0.4054 -0.4873 -0.6842
  137OSM    H7S14900   4.613   6.607   7.266  0.6582 -0.4817 -0.8520
  137OSM    H7T14901   4.727   6.475   7.254  0.5863  0.7777 -1.2149
  137OSM    C8S14902   4.590   6.458   7.419  0.0455  0.1161 -0.4675
  137OSM    H8S14903   4.635   6.357   7.430 -2.3206 -1.2617 -2.4006
  137OSM    H8T14904   4.480   6.442   7.428 -0.0955  1.6140  1.0169
  137OSM    C9S14905   4.632   6.551   7.530 -0.1638 -0.9379 -0.3278
  137OSM    H9S14906   4.589   6.653   7.523  2.1165  0.0704 -0.5563
  137OSM    H9T14907   4.741   6.573   7.529  0.5794 -4.1150  0.2226
  137OSM   C10S14908   4.593   6.486   7.670 -0.4073  0.2640  0.1130
  137OSM   H10S14909   4.628   6.381   7.674 -1.3943 -0.1700 -1.5746
  137OSM   H10T14910   4.482   6.488   7.676 -0.3636  1.7122  1.2038
  137OSM   C11S14911   4.658   6.563   7.787 -0.1101  0.0410 -0.1565
  137OSM   H11S14912   4.634   6.671   7.777  2.7455  0.9846  1.7418
  137OSM   H11T14913   4.768   6.549   7.792  0.1749  2.3692  2.2198
  137OSM   C12S14914   4.600   6.513   7.925 -0.3744 -0.1261 -0.4339
  137OSM   H12S14915   4.628   6.406   7.930 -0.4282 -0.1367 -0.3598
  137OSM   H12T14916   4.492   6.520   7.901 -0.2216  0.7241 -0.9146
  137OSM   C13S14917   4.646   6.602   8.046 -0.3525 -0.3181 -0.5959
  137OSM   H13S14918   4.606   6.703   8.026  2.1596  0.8666  0.0220
  137OSM   H13T14919   4.757   6.603   8.049 -0.3543 -0.6465 -0.3988
  137OSM   C14S14920   4.594   6.542   8.176 -0.3323 -0.4171  0.4910
  137OSM   H14S14921   4.632   6.604   8.260  0.9275 -0.2286 -0.1917
  137OSM   H14T14922   4.624   6.436   8.188 -1.8154 -0.8139  0.9171
  137OSM   C15S14923   4.440   6.537   8.185  0.4120 -0.5332  0.1596
  137OSM   H15S14924   4.405   6.463   8.110  1.2880  0.6325 -1.4399
  137OSM   H15T14925   4.412   6.639   8.154  0.4781 -0.5604  0.0151
  137OSM   C16S14926   4.379   6.480   8.313 -0.2084  0.5081  0.2879
  137OSM   H16S14927   4.421   6.534   8.401  0.1452  0.7117 -0.0077
  137OSM   H16T14928   4.420   6.377   8.315  0.3553  0.6962 -0.9664
  137OSM   C17S14929   4.227   6.466   8.327  0.5074  0.1311  0.2155
  137OSM   H17S14930   4.170   6.432   8.238 -0.5310  1.2512  0.4392
  137OSM   H17T14931   4.177   6.561   8.353 -2.4748 -1.1555 -0.4030
  137OSM   C18S14932   4.205   6.372   8.447  0.1057  0.3095  0.3674
  137OSM   H18S14933   4.265   6.408   8.533  1.2114 -0.5114 -0.0370
  137OSM   H18T14934   4.242   6.271   8.420 -0.7533 -0.1351  0.8093
  137OSM   H18U14935   4.101   6.367   8.487  0.0708 -2.2032  0.1115
  137OSM    C1F14936   4.321   6.478   6.647  0.3318 -0.0389 -0.7467
  137OSM     OF14937   4.330   6.438   6.532  0.0674  0.1549  0.5352
  137OSM    C2F14938   4.186   6.496   6.716  0.0127 -0.3341 -0.1542
  137OSM    H2F14939   4.116   6.529   6.635  0.6989 -1.8660 -1.4420
  137OSM    H2G14940   4.193   6.573   6.795 -2.2849 -0.6211  0.4132
  137OSM    C3F14941   4.134   6.360   6.770  0.1881 -0.4832  0.6572
  137OSM    H3F14942   4.165   6.279   6.701  1.7210  0.6040  0.0185
  137OSM    H3G14943   4.023   6.371   6.775  0.1225 -1.3772  1.3265
  137OSM    C4F14944   4.187   6.331   6.913 -0.1661  0.7306 -0.0085
  137OSM    H4F14945   4.297   6.342   6.925 -0.0971 -0.2112  0.3367
  137OSM    H4G14946   4.170   6.224   6.938 -0.7211  0.8101 -0.0358
  137OSM    C5F14947   4.103   6.405   7.017 -0.4088  1.0252 -0.4287
  137OSM    H5F14948   3.994   6.387   7.008 -0.3373 -0.5960  1.2108
  137OSM    H5G14949   4.137   6.511   7.014  0.5744  0.7444  0.1310
  137OSM    C6F14950   4.131   6.353   7.163 -0.5100 -1.3830 -0.3890
  137OSM    H6F14951   4.238   6.371   7.183 -0.3677 -2.6472  0.0824
  137OSM    H6G14952   4.121   6.243   7.178  1.7487 -1.5004  0.5663
  137OSM    C7F14953   4.050   6.430   7.272 -0.8848 -0.0799  0.3494
  137OSM    H7F14954   3.949   6.384   7.263 -1.1223  0.0494  1.9488
  137OSM    H7G14955   4.038   6.538   7.249  3.0278  0.7514  1.4422
  137OSM    C8F14956   4.100   6.412   7.414 -0.0746 -0.5028  0.4046
  137OSM    H8F14957   4.190   6.474   7.434 -0.5647 -0.4861  2.8374
  137OSM    H8G14958   4.139   6.310   7.432  1.2300 -0.4783 -1.9629
  137OSM    C9F14959   3.989   6.438   7.523 -1.1020 -0.4879 -0.0479
  137OSM    H9F14960   3.892   6.391   7.503 -0.4358 -1.3438 -1.4816
  137OSM   C10F14961   4.004   6.511   7.640  0.0237  0.5640  0.4749
  137OSM   H10F14962   3.919   6.503   7.709  1.7888  2.6721  3.1149
  137OSM   C11F14963   4.125   6.583   7.690 -0.2499  0.1588  0.3420
  137OSM   H11F14964   4.215   6.570   7.626  0.8243 -0.8304  1.9870
  137OSM   H11G14965   4.144   6.558   7.796 -1.8287  0.1250  0.6465
  137OSM   C12F14966   4.093   6.735   7.699 -0.6738  0.3791  0.0762
  137OSM   H12F14967   3.990   6.772   7.713  0.3308  3.0943  0.9723
  137OSM   H12G14968   4.121   6.783   7.602  1.1047 -0.7869 -0.0432
  137OSM   C13F14969   4.180   6.810   7.803 -0.4752 -0.2536  0.8301
  137OSM   H13F14970   4.162   6.911   7.761 -0.0069 -1.1725 -1.8095
  137OSM   H13G14971   4.286   6.791   7.775 -0.6100  1.4874 -1.0268
  137OSM   C14F14972   4.154   6.783   7.955 -0.2061  1.0304 -0.5572
  137OSM   H14F14973   4.171   6.675   7.971 -2.0389  0.5743 -1.4349
  137OSM   H14G14974   4.047   6.809   7.969  0.2119  2.2007  0.6731
  137OSM   C15F14975   4.241   6.867   8.045 -0.2431 -0.3404 -0.3699
  137OSM   H15F14976   4.251   6.972   8.011 -0.0366  0.4714  1.9946
  137OSM   H15G14977   4.337   6.812   8.041 -0.6124 -0.9299 -2.8252
  137OSM   C16F14978   4.187   6.856   8.189 -0.7369  0.3246  0.5996
  137OSM   H16F14979   4.171   6.750   8.218  0.4024 -0.2309 -0.6860
  137OSM   H16G14980   4.088   6.907   8.181  0.2276  1.9855 -1.8774
  137OSM   C17F14981   4.267   6.938   8.288  0.6182  0.1901  0.3199
  137OSM   H17F14982   4.239   7.045   8.271 -0.2638 -0.4075 -2.6475
  137OSM   H17G14983   4.374   6.914   8.274  0.5765 -0.4737  1.1082
  137OSM   C18F14984   4.218   6.898   8.424  0.0804  0.5412 -0.8111
  137OSM   H18F14985   4.107   6.906   8.426 -0.0932  0.9333 -4.3129
  137OSM   H18G14986   4.270   6.951   8.506  0.0214 -0.3266 -0.1988
  137OSM   H18H14987   4.250   6.797   8.456  2.9762  1.9144  1.0279
  138OSM      N14988   2.980   0.179   6.319 -0.1505  0.3066  0.0715
  138OSM    C1514989   2.929   0.105   6.204 -0.2436 -0.5040 -0.7901
  138OSM   H15A14990   2.942  -0.001   6.222  0.8685 -0.2925 -0.2364
  138OSM   H15B14991   2.989   0.137   6.120  0.4272  2.1075  0.5454
  138OSM   H15C14992   2.827   0.130   6.179 -0.1167 -0.0657 -0.8749
  138OSM    C1414993   2.991   0.326   6.288  0.5392  0.1217  0.0511
  138OSM   H14A14994   3.067   0.343   6.213  1.1499 -1.4716  0.2595
  138OSM   H14B14995   3.012   0.385   6.376 -0.8238  0.5292  0.1297
  138OSM   H14C14996   2.902   0.366   6.242  1.1336 -0.3982 -1.6475
  138OSM    C1314997   2.883   0.169   6.426  0.4598 -0.7243  0.1959
  138OSM   H13A14998   2.781   0.188   6.395  0.2118  2.5494  2.5282
  138OSM   H13B14999   2.913   0.234   6.507  2.6651  0.3626 -1.3949
  138OSM   H13C15000   2.880   0.065   6.457  2.0618 -0.4568  1.3542
  138OSM    C1215001   3.108   0.118   6.365 -0.3375  0.9947 -0.2298
  138OSM   H12A15002   3.093   0.015   6.394  0.5338  0.6304 -1.0165
  138OSM   H12B15003   3.146   0.161   6.456  1.4252 -1.5574  0.3518
  138OSM    C1115004   3.236   0.126   6.262  0.5776 -0.0297  0.5197
  138OSM   H11A15005   3.201   0.080   6.167  3.8261 -0.4445 -0.5947
  138OSM   H11B15006   3.314   0.065   6.312 -0.8992 -1.5275  1.1100
  138OSM      P15007   3.417   0.312   6.285  0.1598 -0.0250  0.5306
  138OSM    O1315008   3.533   0.245   6.222  0.0553  0.0936  0.9150
  138OSM    O1415009   3.419   0.460   6.283 -0.4441  0.9633  0.1793
  138OSM    O1115010   3.410   0.258   6.432 -1.0851  0.8639  0.3145
  138OSM    O1215011   3.279   0.257   6.226  0.0239  0.0282 -0.2880
  138OSM    C1S15012   3.352   0.338   6.540  0.0597 -0.0973 -0.4162
  138OSM    H1S15013   3.252   0.294   6.561  0.2026  0.5375  1.7873
  138OSM    H1T15014   3.328   0.440   6.502  1.7640  0.6563  0.4387
  138OSM     NF15015   3.370   0.418   6.782  0.0818 -0.4074  0.2658
  138OSM    HNF15016   3.389   0.515   6.796  0.2540 -0.0710 -1.9643
  138OSM    C2S15017   3.442   0.348   6.670 -0.5964  0.0264  0.0957
  138OSM    H2S15018   3.466   0.243   6.698 -2.2287 -0.7208 -1.1545
  138OSM    C3S15019   3.584   0.412   6.633 -0.1653  0.7136  0.2946
  138OSM    H3S15020   3.572   0.515   6.592 -0.1261  1.5809  2.3283
  138OSM     O315021   3.647   0.335   6.530  0.0325 -0.2098 -0.0221
  138OSM    HO315022   3.570   0.292   6.493 -0.7680  0.9496  0.2268
  138OSM    C4S15023   3.678   0.404   6.746 -0.1035 -0.6509  0.5132
  138OSM    H4S15024   3.717   0.304   6.771 -1.0949 -0.4993  2.8911
  138OSM    C5S15025   3.730   0.511   6.805 -0.1269 -0.1241 -0.7900
  138OSM    H5S15026   3.696   0.613   6.781 -1.3286 -0.1887  0.4822
  138OSM    C6S15027   3.834   0.498   6.917 -0.1910  0.1532 -0.8402
  138OSM    H6S15028   3.937   0.514   6.879 -0.0134 -3.1466 -2.1228
  138OSM    H6T15029   3.839   0.393   6.951  0.5056  0.6336  0.6110
  138OSM    C7S15030   3.804   0.597   7.035  0.2703 -0.2531  0.0619
  138OSM    H7S15031   3.694   0.607   7.046  0.1844 -0.6373 -0.4075
  138OSM    H7T15032   3.845   0.699   7.017 -0.2897  0.1490  0.9736
  138OSM    C8S15033   3.880   0.545   7.163  1.3810  0.5614 -0.2351
  138OSM    H8S15034   3.988   0.525   7.148  1.2246 -2.0921  1.5352
  138OSM    H8T15035   3.845   0.440   7.174  2.4554  0.2829  0.5692
  138OSM    C9S15036   3.856   0.624   7.287  0.4167 -0.2588 -0.0879
  138OSM    H9S15037   3.745   0.635   7.288  0.5160  1.0453  1.0393
  138OSM    H9T15038   3.894   0.728   7.273 -2.5848  0.7152 -2.0261
  138OSM   C10S15039   3.898   0.548   7.417  0.3956 -0.6166  0.0165
  138OSM   H10S15040   3.843   0.452   7.431 -0.3626 -0.4544 -1.6349
  138OSM   H10T15041   3.871   0.606   7.508 -0.4901 -0.9789 -0.0102
  138OSM   C11S15042   4.045   0.521   7.411 -0.4491  0.0170 -0.4157
  138OSM   H11S15043   4.104   0.607   7.373 -0.8427  0.1893 -0.6489
  138OSM   H11T15044   4.059   0.429   7.351  1.7320 -0.3731  0.6170
  138OSM   C12S15045   4.116   0.483   7.540  0.0235  0.0889  0.0821
  138OSM   H12S15046   4.223   0.459   7.520  0.6322  2.5586  0.1353
  138OSM   H12T15047   4.068   0.387   7.570  3.0274 -2.3802 -2.1770
  138OSM   C13S15048   4.116   0.589   7.649  0.2417  0.0975  0.6753
  138OSM   H13S15049   4.018   0.640   7.645  1.1623  1.8448 -1.0113
  138OSM   H13T15050   4.194   0.655   7.606  0.2117 -0.3950 -0.1577
  138OSM   C14S15051   4.163   0.543   7.783 -0.2963  0.6584 -0.1581
  138OSM   H14S15052   4.257   0.486   7.769 -0.6595 -0.4753  1.7041
  138OSM   H14T15053   4.094   0.462   7.815 -0.0137  0.1785 -0.7646
  138OSM   C15S15054   4.183   0.655   7.895  0.2388 -0.1527  0.2247
  138OSM   H15S15055   4.089   0.710   7.919  0.0314 -0.4709  0.1487
  138OSM   H15T15056   4.243   0.736   7.849 -0.8474  1.2300  1.1640
  138OSM   C16S15057   4.260   0.607   8.019 -0.5603 -0.8562 -0.1899
  138OSM   H16S15058   4.274   0.698   8.081 -0.0732 -1.1599  0.1543
  138OSM   H16T15059   4.363   0.571   7.997 -0.0268 -0.8416  2.0436
  138OSM   C17S15060   4.189   0.507   8.114 -0.9855 -0.3362  0.7434
  138OSM   H17S15061   4.261   0.464   8.187 -0.6674  0.3911  0.8663
  138OSM   H17T15062   4.150   0.432   8.042 -0.0128 -0.8112  0.6943
  138OSM   C18S15063   4.066   0.558   8.194 -0.0223 -0.2160  0.3924
  138OSM   H18S15064   4.052   0.483   8.275  2.4391  0.0832  1.2042
  138OSM   H18T15065   3.977   0.558   8.128 -0.2552  1.0418  0.6764
  138OSM   H18U15066   4.081   0.660   8.235 -1.4045  0.0832  0.1923
  138OSM    C1F15067   3.270   0.361   6.853 -1.3424 -0.5553  0.8681
  138OSM     OF15068   3.209   0.260   6.814 -0.6429 -0.1542 -0.2159
  138OSM    C2F15069   3.229   0.438   6.976 -0.1928  0.4873  0.3689
  138OSM    H2F15070   3.325   0.476   7.018 -0.0290 -0.9675  1.3982
  138OSM    H2G15071   3.188   0.372   7.056 -1.7804 -1.7086 -2.1137
  138OSM    C3F15072   3.137   0.562   6.955  0.0315 -0.7397  0.5129
  138OSM    H3F15073   3.032   0.550   6.921 -0.3058  1.6701  0.5524
  138OSM    H3G15074   3.180   0.621   6.871 -2.1587 -0.2942 -0.3392
  138OSM    C4F15075   3.119   0.622   7.095 -0.5307 -1.4949 -0.3596
  138OSM    H4F15076   3.046   0.705   7.083 -0.5465 -1.3427  0.6721
  138OSM    H4G15077   3.215   0.657   7.138 -0.1881 -0.4419 -1.8856
  138OSM    C5F15078   3.060   0.523   7.196  0.1405  0.0820 -0.3817
  138OSM    H5F15079   3.133   0.449   7.236  0.3224  0.2319 -0.4332
  138OSM    H5G15080   2.976   0.468   7.149  1.1893  0.8775 -3.3712
  138OSM    C6F15081   3.012   0.582   7.333  0.3204  0.5453  0.4302
  138OSM    H6F15082   2.942   0.666   7.313  1.7719  1.6373 -0.2767
  138OSM    H6G15083   3.103   0.618   7.386  0.7631 -1.3854  1.0819
  138OSM    C7F15084   2.926   0.475   7.418  0.6135 -0.8758  0.5598
  138OSM    H7F15085   2.973   0.374   7.425 -2.5323 -2.3949  1.7559
  138OSM    H7G15086   2.828   0.463   7.367  0.8197  0.0713 -0.0920
  138OSM    C8F15087   2.902   0.515   7.563 -0.3722  0.1409  0.3712
  138OSM    H8F15088   2.839   0.606   7.561  0.3173  0.6353  0.5326
  138OSM    H8G15089   3.001   0.551   7.600 -0.0194  0.1320 -0.5301
  138OSM    C9F15090   2.832   0.414   7.648 -0.3497 -0.0066  0.1953
  138OSM    H9F15091   2.728   0.398   7.618  0.7708 -1.3693 -3.5094
  138OSM   C10F15092   2.879   0.352   7.759 -0.9111  0.8598  0.3278
  138OSM   H10F15093   2.812   0.293   7.823  1.4096 -1.8643  0.4523
  138OSM   C11F15094   3.020   0.357   7.813  0.3662  0.2794  0.5981
  138OSM   H11F15095   3.018   0.385   7.921  0.2420 -1.0544  0.9690
  138OSM   H11G15096   3.087   0.438   7.777 -0.6956  1.4042  1.0734
  138OSM   C12F15097   3.099   0.223   7.786  0.8587  0.4428  0.1620
  138OSM   H12F15098   3.034   0.138   7.817  1.0566  0.5474  0.8965
  138OSM   H12G15099   3.188   0.215   7.852  1.3021 -0.6312 -0.5466
  138OSM   C13F15100   3.127   0.217   7.633 -0.0421  0.0957 -0.7144
  138OSM   H13F15101   3.031   0.206   7.579  1.2541 -3.5918 -2.5578
  138OSM   H13G15102   3.176   0.118   7.623 -2.5425 -1.1182 -1.5982
  138OSM   C14F15103   3.231   0.317   7.571 -0.8133 -0.5974  0.4183
  138OSM   H14F15104   3.329   0.327   7.621 -1.0960  0.9463  0.7211
  138OSM   H14G15105   3.179   0.415   7.563  0.5979  0.1444 -0.0861
  138OSM   C15F15106   3.272   0.270   7.428 -0.1588 -0.1792  0.2006
  138OSM   H15F15107   3.184   0.253   7.362  1.0571  0.3885 -1.6415
  138OSM   H15G15108   3.310   0.166   7.432  0.5270  0.1020  1.1554
  138OSM   C16F15109   3.384   0.359   7.364 -0.5931 -0.9165 -0.4837
  138OSM   H16F15110   3.469   0.376   7.433 -1.1974  1.1517 -0.1969
  138OSM   H16G15111   3.340   0.459   7.343  1.5373  0.1143 -0.3484
  138OSM   C17F15112   3.442   0.289   7.234  0.6046 -0.3674 -0.5342
  138OSM   H17F15113   3.349   0.292   7.173  0.2737  1.8801 -0.0248
  138OSM   H17G15114   3.465   0.184   7.262 -0.6924 -0.8753 -1.2660
  138OSM   C18F15115   3.546   0.357   7.160 -0.0814  0.3291  0.1877
  138OSM   H18F15116   3.557   0.330   7.053 -1.0822 -2.1607  0.6443
  138OSM   H18G15117   3.648   0.333   7.199  0.7443  1.9604 -0.8592
  138OSM   H18H15118   3.520   0.465   7.165  1.2277  0.7299 -0.9778
  139OSM      N15119   2.890   2.060   6.072  0.5766 -0.5521 -0.0915
  139OSM    C1515120   2.830   2.134   5.961  0.0063 -0.0456  0.8719
  139OSM   H15A15121   2.824   2.240   5.982 -3.1398  0.9750 -3.7404
  139OSM   H15B15122   2.728   2.102   5.941  0.0505  0.2398  0.1902
  139OSM   H15C15123   2.888   2.140   5.870 -0.6535  1.8542  0.5299
  139OSM    C1415124   2.788   2.057   6.181 -0.0403 -0.3274 -0.0127
  139OSM   H14A15125   2.824   1.997   6.263 -2.9851 -1.4910  0.5607
  139OSM   H14B15126   2.696   2.014   6.146 -0.1879  0.0881 -0.1382
  139OSM   H14C15127   2.759   2.155   6.214 -0.5154  0.0228 -1.4072
  139OSM    C1315128   2.906   1.912   6.027  0.5161 -0.2907 -0.0936
  139OSM   H13A15129   2.802   1.893   6.005  0.6288  0.3728 -1.2834
  139OSM   H13B15130   2.943   1.843   6.102 -0.3059  0.3244  0.9104
  139OSM   H13C15131   2.954   1.916   5.931  1.1759 -1.1036  0.1891
  139OSM    C1215132   3.021   2.113   6.117 -0.2060  0.0780  0.2598
  139OSM   H12A15133   3.098   2.078   6.050 -3.0057 -3.4361 -1.4891
  139OSM   H12B15134   3.034   2.063   6.212 -2.5928 -0.5551  0.3110
  139OSM    C1115135   3.033   2.270   6.136 -0.3271  0.1740  0.5454
  139OSM   H11A15136   3.016   2.311   6.035 -0.3437 -0.4279  0.3038
  139OSM   H11B15137   3.138   2.295   6.163 -0.6484  3.1308 -0.5340
  139OSM      P15138   2.849   2.443   6.193 -0.5762  0.2172 -0.0363
  139OSM    O1315139   2.908   2.558   6.262 -0.4551 -0.0875 -0.3998
  139OSM    O1415140   2.822   2.453   6.051 -0.3396  0.4964  0.1405
  139OSM    O1115141   2.712   2.402   6.268 -0.2102  0.1139  0.5883
  139OSM    O1215142   2.936   2.318   6.223 -0.7378 -0.3125  0.5143
  139OSM    C1S15143   2.710   2.354   6.405 -0.3818  0.3172 -0.5295
  139OSM    H1S15144   2.771   2.424   6.466  0.7616 -0.8681 -0.2667
  139OSM    H1T15145   2.754   2.252   6.414 -0.4071  0.1433 -2.0589
  139OSM     NF15146   2.578   2.326   6.618 -0.2781 -0.5035  0.1210
  139OSM    HNF15147   2.543   2.238   6.648  0.0488 -0.7553 -0.2325
  139OSM    C2S15148   2.568   2.365   6.478  0.5323  0.3059 -0.0948
  139OSM    H2S15149   2.536   2.471   6.478 -1.1468 -0.1630 -1.3209
  139OSM    C3S15150   2.462   2.281   6.392  0.5340 -0.0102 -0.5717
  139OSM    H3S15151   2.499   2.178   6.369  1.9186  0.7266 -1.8179
  139OSM     O315152   2.443   2.348   6.270 -0.5270 -0.0094 -0.0165
  139OSM    HO315153   2.533   2.363   6.238 -0.2035  0.2180  0.9717
  139OSM    C4S15154   2.328   2.271   6.461 -0.3242 -0.1952  0.3478
  139OSM    H4S15155   2.263   2.359   6.456 -2.1591 -1.5528 -2.6725
  139OSM    C5S15156   2.287   2.170   6.543  0.4364  0.2288  0.1244
  139OSM    H5S15157   2.349   2.081   6.564  0.6421 -0.4675 -2.9211
  139OSM    C6S15158   2.155   2.176   6.608  0.6494  0.0606 -0.5209
  139OSM    H6S15159   2.095   2.091   6.569  0.4520  0.0178 -0.1236
  139OSM    H6T15160   2.094   2.264   6.579  1.0959  0.3175 -0.6800
  139OSM    C7S15161   2.151   2.152   6.763  0.2897  0.3290  0.7538
  139OSM    H7S15162   2.210   2.229   6.817 -0.4335  1.4018  0.0351
  139OSM    H7T15163   2.206   2.056   6.778  0.0054 -0.3276 -1.9505
  139OSM    C8S15164   2.012   2.132   6.822 -0.5432  0.0667  0.0107
  139OSM    H8S15165   1.974   2.042   6.770  0.7129 -1.1070  1.0622
  139OSM    H8T15166   1.953   2.219   6.787 -2.3035 -1.2460 -0.4015
  139OSM    C9S15167   1.991   2.081   6.967  0.5455 -0.0524  0.7095
  139OSM    H9S15168   2.041   1.982   6.972  1.2407  0.0704 -2.0955
  139OSM    H9T15169   1.882   2.066   6.975  0.6218  0.0700  2.1180
  139OSM   C10S15170   2.034   2.177   7.079 -0.3506 -0.4553  0.4707
  139OSM   H10S15171   1.985   2.277   7.075  0.2250 -0.1889 -2.5007
  139OSM   H10T15172   2.138   2.206   7.050 -1.2346  1.0048 -1.4813
  139OSM   C11S15173   2.038   2.102   7.213 -0.1421  0.1152 -0.1582
  139OSM   H11S15174   2.107   2.155   7.282 -0.2969  0.3653 -0.1941
  139OSM   H11T15175   2.077   1.999   7.200  0.0471  0.3567 -1.5884
  139OSM   C12S15176   1.904   2.108   7.289 -0.3459  0.2055 -0.1755
  139OSM   H12S15177   1.841   2.028   7.245 -1.1859  0.7896 -0.0477
  139OSM   H12T15178   1.844   2.199   7.267 -0.3579  0.3888  0.6164
  139OSM   C13S15179   1.902   2.093   7.445 -1.1246 -0.4695 -0.4037
  139OSM   H13S15180   1.974   2.171   7.478 -0.9870 -0.7170 -0.1192
  139OSM   H13T15181   1.926   1.990   7.478 -2.0857 -0.6240 -0.1304
  139OSM   C14S15182   1.763   2.118   7.500  0.2275 -0.1435  0.3346
  139OSM   H14S15183   1.693   2.044   7.457  0.8147 -0.2884 -0.3783
  139OSM   H14T15184   1.736   2.211   7.447  2.4019 -0.0750 -0.7661
  139OSM   C15S15185   1.753   2.126   7.653  0.2256  0.2879  0.4729
  139OSM   H15S15186   1.828   2.195   7.696  1.1254 -0.1295 -0.3790
  139OSM   H15T15187   1.771   2.029   7.703  1.2491 -0.3403 -1.0634
  139OSM   C16S15188   1.608   2.160   7.694  0.0401 -0.3677 -0.2376
  139OSM   H16S15189   1.541   2.079   7.658  0.3390 -1.5758  1.7648
  139OSM   H16T15190   1.587   2.263   7.657  0.3672 -0.6476 -1.2299
  139OSM   C17S15191   1.588   2.170   7.844  0.4915 -0.7448  0.1777
  139OSM   H17S15192   1.647   2.253   7.889 -0.7697 -0.5034  1.4765
  139OSM   H17T15193   1.634   2.082   7.893 -0.2522 -1.8020 -0.9723
  139OSM   C18S15194   1.441   2.186   7.879 -0.7720  0.3404  0.1863
  139OSM   H18S15195   1.374   2.109   7.837  0.9837 -0.0639 -2.0685
  139OSM   H18T15196   1.405   2.288   7.852  0.2870  0.5099 -0.6482
  139OSM   H18U15197   1.432   2.182   7.990 -0.9730 -2.7762  0.1195
  139OSM    C1F15198   2.646   2.395   6.710 -0.1308 -0.0483  0.7424
  139OSM     OF15199   2.713   2.498   6.690 -0.7946  0.0486  0.2553
  139OSM    C2F15200   2.630   2.338   6.853 -0.0861 -0.5023  0.0751
  139OSM    H2F15201   2.685   2.242   6.859  0.0596 -0.5521 -1.4956
  139OSM    H2G15202   2.524   2.331   6.883 -0.1712  2.6214  0.8846
  139OSM    C3F15203   2.693   2.436   6.955  0.4812 -0.0066 -0.0657
  139OSM    H3F15204   2.655   2.539   6.937  0.1033 -0.3390 -1.2569
  139OSM    H3G15205   2.803   2.435   6.943  0.6296  1.3858  0.8970
  139OSM    C4F15206   2.667   2.404   7.100 -0.2721  0.5089  0.3226
  139OSM    H4F15207   2.715   2.308   7.126 -0.3047  0.5464  0.5195
  139OSM    H4G15208   2.557   2.389   7.099 -0.3077  0.7280 -0.4883
  139OSM    C5F15209   2.711   2.522   7.185  0.3933  0.5810 -0.6565
  139OSM    H5F15210   2.633   2.599   7.201  1.6169  1.4411  1.6395
  139OSM    H5G15211   2.798   2.572   7.137  0.2632  1.0023 -0.4605
  139OSM    C6F15212   2.760   2.479   7.326  0.2845  0.3871  0.4501
  139OSM    H6F15213   2.824   2.552   7.381 -2.2809  1.4457  2.2218
  139OSM    H6G15214   2.814   2.383   7.314 -2.0108 -0.9611  0.3467
  139OSM    C7F15215   2.643   2.457   7.420 -0.3905  0.2029  0.2975
  139OSM    H7F15216   2.575   2.386   7.368  1.1168 -1.1351  0.0644
  139OSM    H7G15217   2.578   2.546   7.431 -1.4830 -0.4631 -0.6185
  139OSM    C8F15218   2.695   2.392   7.553  0.0813 -0.0770  0.2890
  139OSM    H8F15219   2.773   2.324   7.514  0.1837  0.9109 -1.3399
  139OSM    H8G15220   2.613   2.337   7.603  0.7590 -1.5317 -0.1656
  139OSM    C9F15221   2.753   2.499   7.636  0.5157  0.2022 -0.1964
  139OSM    H9F15222   2.825   2.568   7.591  0.1082  1.2433  0.7136
  139OSM   C10F15223   2.731   2.522   7.772  0.1753  0.2859  0.8300
  139OSM   H10F15224   2.776   2.607   7.826  0.4200 -0.2741  1.5315
  139OSM   C11F15225   2.637   2.435   7.855 -0.5925 -0.3780  0.3526
  139OSM   H11F15226   2.639   2.331   7.817  1.2913  0.1033 -1.0098
  139OSM   H11G15227   2.538   2.486   7.861 -0.1624  0.3126  3.7417
  139OSM   C12F15228   2.687   2.448   7.997  0.8768  0.5963 -0.0102
  139OSM   H12F15229   2.650   2.542   8.042  1.3690  0.0796  1.5270
  139OSM   H12G15230   2.798   2.438   8.002  0.7283 -0.8554  0.8584
  139OSM   C13F15231   2.629   2.335   8.078  0.6378  0.0677  0.1779
  139OSM   H13F15232   2.678   2.237   8.063 -1.8814 -1.8000  3.0028
  139OSM   H13G15233   2.532   2.308   8.033  0.4501 -0.4050  0.8409
  139OSM   C14F15234   2.603   2.356   8.227  0.3882  0.2300  0.0677
  139OSM   H14F15235   2.640   2.454   8.264 -0.3745  0.3377  0.5553
  139OSM   H14G15236   2.655   2.288   8.298  2.7997  2.2272  0.3578
  139OSM   C15F15237   2.455   2.339   8.246  0.1587 -0.0968 -0.5201
  139OSM   H15F15238   2.425   2.236   8.215  2.8085 -0.7585 -1.1415
  139OSM   H15G15239   2.407   2.410   8.176 -1.0116 -1.8864 -1.6407
  139OSM   C16F15240   2.416   2.369   8.389 -0.3251 -0.2927 -0.4629
  139OSM   H16F15241   2.436   2.475   8.418  0.2525 -0.1238 -1.4286
  139OSM   H16G15242   2.490   2.315   8.453  1.0303  2.1945  0.2261
  139OSM   C17F15243   2.274   2.313   8.431  0.1702 -0.4489  0.4959
  139OSM   H17F15244   2.264   2.214   8.383 -1.7329 -0.0963  0.0987
  139OSM   H17G15245   2.192   2.370   8.383 -0.4113 -2.1633 -0.6251
  139OSM   C18F15246   2.260   2.294   8.581  0.7172  0.3029  0.1227
  139OSM   H18F15247   2.321   2.211   8.623 -0.2412 -0.8533 -0.6983
  139OSM   H18G15248   2.155   2.265   8.603  1.0836 -1.4752 -0.3337
  139OSM   H18H15249   2.292   2.378   8.646  4.3392 -2.3366  2.1448
  140OSM      N15250   2.547   3.609   6.278  0.4637  0.1431 -0.4919
  140OSM    C1515251   2.449   3.707   6.347 -0.3719  0.0628  0.5429
  140OSM   H15A15252   2.396   3.769   6.276  0.1732 -2.1176 -1.9133
  140OSM   H15B15253   2.492   3.773   6.421 -0.3154  0.3988  0.2150
  140OSM   H15C15254   2.365   3.663   6.399 -0.9393  0.3405 -0.1176
  140OSM    C1415255   2.585   3.502   6.371 -0.0792 -0.2809  0.7354
  140OSM   H14A15256   2.494   3.453   6.401 -1.1120  2.0002  1.5291
  140OSM   H14B15257   2.630   3.546   6.459 -2.7521  3.3275  0.4721
  140OSM   H14C15258   2.636   3.430   6.307 -2.2325  0.7202 -2.3283
  140OSM    C1315259   2.465   3.553   6.163 -1.0746  0.5673 -0.5352
  140OSM   H13A15260   2.513   3.478   6.101  0.8879  2.4276 -1.4379
  140OSM   H13B15261   2.450   3.636   6.096 -0.7552  0.6840 -0.4658
  140OSM   H13C15262   2.370   3.513   6.194  0.1253 -0.4732  2.0466
  140OSM    C1215263   2.666   3.685   6.226  0.5883  0.2394 -0.2691
  140OSM   H12A15264   2.636   3.740   6.138  0.7408  1.2456  0.2961
  140OSM   H12B15265   2.745   3.613   6.208  1.1801  0.5929  0.8256
  140OSM    C1115266   2.741   3.768   6.324 -0.3821 -0.1335 -0.7692
  140OSM   H11A15267   2.778   3.706   6.408 -1.5794 -0.1786 -0.2459
  140OSM   H11B15268   2.685   3.851   6.373  0.7396  0.5746 -0.6538
  140OSM      P15269   2.916   3.956   6.312 -0.1807 -0.3926  0.1825
  140OSM    O1315270   3.038   3.986   6.231  0.2098 -0.9778 -0.3486
  140OSM    O1415271   2.822   4.068   6.309  0.3221  0.0443 -0.3405
  140OSM    O1115272   2.963   3.930   6.461 -0.6156  0.2012 -0.5519
  140OSM    O1215273   2.847   3.827   6.250 -0.0504 -0.3056 -0.1440
  140OSM    C1S15274   2.889   3.983   6.570 -0.5125  0.4634  0.5277
  140OSM    H1S15275   2.782   3.956   6.571 -0.0429 -1.7644  3.3243
  140OSM    H1T15276   2.891   4.094   6.574  0.0980  0.5681 -1.4052
  140OSM     NF15277   2.895   4.007   6.825 -0.5534 -0.9588  0.3409
  140OSM    HNF15278   2.969   4.043   6.881 -2.1559  3.4862 -0.0147
  140OSM    C2S15279   2.944   3.930   6.707  0.0700 -0.5816 -0.4199
  140OSM    H2S15280   2.898   3.830   6.719  1.5781 -1.2261  0.2740
  140OSM    C3S15281   3.095   3.913   6.710 -0.0328  0.1716 -0.1366
  140OSM    H3S15282   3.141   4.012   6.728 -0.4733  0.3005  0.2849
  140OSM     O315283   3.159   3.861   6.598  0.1108 -0.2030  0.2270
  140OSM    HO315284   3.093   3.880   6.531  1.8999 -0.6610 -1.8085
  140OSM    C4S15285   3.132   3.841   6.843 -0.1759 -0.6904 -0.1112
  140OSM    H4S15286   3.156   3.913   6.923  0.3639  0.0812 -0.9438
  140OSM    C5S15287   3.136   3.707   6.858  0.1553  0.2422  0.0575
  140OSM    H5S15288   3.101   3.640   6.778 -2.8599  0.7618  0.8231
  140OSM    C6S15289   3.158   3.638   6.991  0.4053  0.2813 -0.3922
  140OSM    H6S15290   3.156   3.707   7.078  0.3727 -1.9060  1.4326
  140OSM    H6T15291   3.264   3.607   6.977  0.4031  0.0915  0.0219
  140OSM    C7S15292   3.067   3.517   7.013 -0.8215 -0.1196 -0.1199
  140OSM    H7S15293   3.066   3.446   6.928 -0.8705 -0.1856 -0.0639
  140OSM    H7T15294   2.963   3.555   7.023 -0.6875  0.2947 -0.2632
  140OSM    C8S15295   3.088   3.441   7.144  0.0329  0.7517 -1.3695
  140OSM    H8S15296   3.193   3.435   7.181 -0.0741  1.5721 -0.9254
  140OSM    H8T15297   3.052   3.336   7.132 -0.4513  0.8903 -1.1538
  140OSM    C9S15298   2.999   3.487   7.256  0.0079 -0.1615 -0.0759
  140OSM    H9S15299   2.895   3.460   7.227  0.8333 -2.7708 -0.9099
  140OSM    H9T15300   3.017   3.596   7.267  1.4523 -0.1674 -1.8952
  140OSM   C10S15301   3.026   3.420   7.394 -0.1315  0.2479 -0.1861
  140OSM   H10S15302   3.135   3.429   7.417 -0.0729 -0.8966  0.0202
  140OSM   H10T15303   3.002   3.312   7.383  0.0306  0.3137 -1.2062
  140OSM   C11S15304   2.943   3.487   7.508  0.1267 -0.0154  0.4264
  140OSM   H11S15305   2.839   3.498   7.471  0.3671 -3.1595 -1.5163
  140OSM   H11T15306   2.978   3.592   7.515  1.3060 -0.2797 -1.1447
  140OSM   C12S15307   2.964   3.414   7.644  0.1365 -1.2639  0.1896
  140OSM   H12S15308   3.070   3.424   7.675 -0.3807  1.0647  1.4783
  140OSM   H12T15309   2.941   3.306   7.635 -1.6780 -1.0273  1.4908
  140OSM   C13S15310   2.879   3.466   7.761 -0.6722 -0.2027 -0.0069
  140OSM   H13S15311   2.777   3.474   7.719  0.2161 -1.7818 -2.6747
  140OSM   H13T15312   2.919   3.560   7.805 -0.4871  0.2740 -1.1580
  140OSM   C14S15313   2.878   3.366   7.876 -0.1575  0.2366 -0.4958
  140OSM   H14S15314   2.983   3.337   7.896 -0.7121 -1.6501 -0.1305
  140OSM   H14T15315   2.827   3.278   7.832  0.6064  1.3851 -3.9400
  140OSM   C15S15316   2.810   3.415   8.008 -0.6080  0.0825  0.1064
  140OSM   H15S15317   2.700   3.426   7.990 -0.3062  2.6823 -0.5943
  140OSM   H15T15318   2.860   3.498   8.063  1.7969 -0.8559 -0.5658
  140OSM   C16S15319   2.811   3.301   8.109 -0.5937 -0.2550 -0.1606
  140OSM   H16S15320   2.906   3.244   8.116 -0.2358  0.5057  1.7638
  140OSM   H16T15321   2.731   3.235   8.068 -0.0670  0.3705 -2.2758
  140OSM   C17S15322   2.764   3.335   8.248 -0.0937  0.4565 -0.8022
  140OSM   H17S15323   2.691   3.418   8.235 -0.5844 -0.0060 -1.0261
  140OSM   H17T15324   2.843   3.365   8.320 -0.7670 -0.0554  0.1744
  140OSM   C18S15325   2.688   3.216   8.314 -0.4975  0.0225  0.9007
  140OSM   H18S15326   2.658   3.227   8.420  1.0731  0.5707  1.3090
  140OSM   H18T15327   2.750   3.124   8.316  3.5366  2.3862 -1.5368
  140OSM   H18U15328   2.603   3.199   8.244 -0.2380 -0.2592  0.6442
  140OSM    C1F15329   2.770   4.027   6.866 -0.4206  0.3642  0.4089
  140OSM     OF15330   2.676   3.999   6.793 -0.1504 -0.1949 -0.4820
  140OSM    C2F15331   2.743   4.093   6.997 -0.8208  1.0028  0.8228
  140OSM    H2F15332   2.666   4.171   6.984 -2.3353 -0.4457  0.8324
  140OSM    H2G15333   2.833   4.140   7.043 -0.3466  2.1554 -1.1408
  140OSM    C3F15334   2.676   4.005   7.107  0.0619 -0.1204  0.3055
  140OSM    H3F15335   2.599   3.939   7.061  1.8038 -2.4981  0.5930
  140OSM    H3G15336   2.621   4.082   7.165 -3.0593  1.4724 -4.2278
  140OSM    C4F15337   2.778   3.923   7.191 -0.3499  0.5579  0.1016
  140OSM    H4F15338   2.844   3.855   7.132 -1.9664  0.5873 -1.8394
  140OSM    H4G15339   2.720   3.863   7.263 -0.6202  2.4987  1.5940
  140OSM    C5F15340   2.873   4.014   7.272 -0.5179  1.0662 -0.1673
  140OSM    H5F15341   2.808   4.056   7.352 -2.3422  2.9380 -2.4949
  140OSM    H5G15342   2.912   4.103   7.219  0.1416  0.5314 -0.6013
  140OSM    C6F15343   3.000   3.938   7.328  0.4528  0.4559 -0.4696
  140OSM    H6F15344   2.978   3.831   7.346  0.8725  0.4508 -0.0104
  140OSM    H6G15345   3.023   3.990   7.423  0.4552  0.1312 -0.2940
  140OSM    C7F15346   3.113   3.947   7.232 -0.5503 -0.6449  0.2783
  140OSM    H7F15347   3.142   4.052   7.210 -0.9975 -0.9069 -1.7295
  140OSM    H7G15348   3.092   3.899   7.134  1.8933  0.1417 -0.7342
  140OSM    C8F15349   3.252   3.888   7.273 -0.0385  0.3799  0.3606
  140OSM    H8F15350   3.325   3.911   7.192  0.3512  2.2097  1.1949
  140OSM    H8G15351   3.252   3.779   7.294  0.6457  0.8380  3.0222
  140OSM    C9F15352   3.307   3.957   7.392  0.0841 -0.4539 -0.0728
  140OSM    H9F15353   3.370   4.043   7.362  1.1593 -0.8291  1.0345
  140OSM   C10F15354   3.300   3.934   7.527 -0.2455  0.0791  0.0375
  140OSM   H10F15355   3.341   4.015   7.589 -1.4599  2.1253 -1.6851
  140OSM   C11F15356   3.236   3.818   7.597  0.0048  0.4675 -1.1163
  140OSM   H11F15357   3.315   3.757   7.645 -1.1554  0.1647  0.5108
  140OSM   H11G15358   3.188   3.748   7.526 -1.6245  2.8134 -2.4635
  140OSM   C12F15359   3.138   3.840   7.720  0.2162  0.6240  0.9621
  140OSM   H12F15360   3.115   3.743   7.769  0.2418  0.5196  0.7708
  140OSM   H12G15361   3.041   3.870   7.674  0.2481 -1.0266 -0.3018
  140OSM   C13F15362   3.186   3.932   7.825 -0.1887 -0.2151 -0.4027
  140OSM   H13F15363   3.123   3.940   7.916  1.5202 -1.1079  0.9191
  140OSM   H13G15364   3.180   4.030   7.773 -2.9202  0.9870  1.9424
  140OSM   C14F15365   3.327   3.903   7.884  0.3908  0.3902  0.6045
  140OSM   H14F15366   3.395   3.916   7.797 -2.0684  1.5040 -1.2773
  140OSM   H14G15367   3.332   3.801   7.928  1.4791  0.6945  1.2194
  140OSM   C15F15368   3.373   3.993   7.993 -0.3659  0.0747  0.4105
  140OSM   H15F15369   3.317   3.971   8.087 -1.5565  1.2900  0.0128
  140OSM   H15G15370   3.344   4.093   7.953  2.3696  0.6092 -0.4666
  140OSM   C16F15371   3.529   3.983   8.027  0.1520 -0.1083 -0.4828
  140OSM   H16F15372   3.583   3.990   7.930 -1.0648 -0.8795 -1.2470
  140OSM   H16G15373   3.538   3.882   8.072 -1.2836 -0.5953 -1.2085
  140OSM   C17F15374   3.573   4.089   8.133 -0.2273 -0.0544 -0.2089
  140OSM   H17F15375   3.493   4.099   8.209  0.0901  0.0732  0.1137
  140OSM   H17G15376   3.591   4.186   8.083  2.9205  0.1587  1.0876
  140OSM   C18F15377   3.698   4.053   8.216 -0.2604 -0.7514 -0.1695
  140OSM   H18F15378   3.717   4.130   8.294 -2.4571  0.8275 -1.0832
  140OSM   H18G15379   3.790   4.056   8.154 -0.4843  1.0737 -0.4534
  140OSM   H18H15380   3.682   3.950   8.255 -0.3263 -0.5539  0.3252
  141OSM      N15381   4.578   0.074   6.166 -0.8670 -0.7923  0.1157
  141OSM    C1515382   4.683   0.137   6.069  0.4047 -0.3036  0.4594
  141OSM   H15A15383   4.789   0.127   6.083  0.8713  1.9765 -0.9461
  141OSM   H15B15384   4.689   0.245   6.075 -0.9358  0.0377 -2.5583
  141OSM   H15C15385   4.665   0.116   5.964 -0.3048 -1.3494  0.7728
  141OSM    C1415386   4.446   0.138   6.148 -0.1564  0.0053 -0.1186
  141OSM   H14A15387   4.443   0.246   6.156  1.0270 -0.0706  2.9572
  141OSM   H14B15388   4.388   0.113   6.236  0.2933 -2.1552 -0.3853
  141OSM   H14C15389   4.393   0.100   6.062 -0.3524 -0.3137  0.1393
  141OSM    C1315390   4.566  -0.070   6.149 -0.4320  0.8183  0.1815
  141OSM   H13A15391   4.662  -0.119   6.155 -0.6811 -0.1945 -2.6343
  141OSM   H13B15392   4.515  -0.088   6.056 -0.0765  4.4940 -0.9114
  141OSM   H13C15393   4.503  -0.112   6.225  1.4184  0.2390  1.4809
  141OSM    C1215394   4.626   0.107   6.307 -0.1814  0.0576 -0.0046
  141OSM   H12A15395   4.655   0.211   6.311  0.1218  0.0293 -1.2391
  141OSM   H12B15396   4.719   0.054   6.323  0.4288  0.4836 -1.9490
  141OSM    C1115397   4.524   0.085   6.425 -0.1186  0.7013 -0.4730
  141OSM   H11A15398   4.582   0.107   6.517 -1.9636  1.7355  0.5096
  141OSM   H11B15399   4.489  -0.020   6.428 -0.2349  0.7578  0.6303
  141OSM      P15400   4.276   0.141   6.483 -0.1035 -0.3053  0.4810
  141OSM    O1315401   4.171   0.239   6.458 -0.2628  0.0026  0.4104
  141OSM    O1415402   4.245   0.001   6.439 -0.5155 -0.6082  0.0051
  141OSM    O1115403   4.304   0.131   6.640  0.3405  0.0465 -0.0324
  141OSM    O1215404   4.418   0.176   6.412 -0.6286  0.2651 -0.2251
  141OSM    C1S15405   4.368   0.244   6.704  0.5164 -0.2825  0.1267
  141OSM    H1S15406   4.298   0.328   6.687  0.3197 -0.4354  0.1809
  141OSM    H1T15407   4.467   0.267   6.658 -0.0165  0.4508 -0.6926
  141OSM     NF15408   4.410   0.355   6.923 -0.5269 -0.2689 -0.3791
  141OSM    HNF15409   4.508   0.376   6.920 -0.4944 -0.0877  1.1350
  141OSM    C2S15410   4.368   0.228   6.861  0.0117 -0.1422  0.5313
  141OSM    H2S15411   4.259   0.211   6.878 -0.5579  0.4337 -2.1527
  141OSM    C3S15412   4.446   0.101   6.914 -0.7412  0.4574  0.2523
  141OSM    H3S15413   4.548   0.099   6.870 -0.8294  1.2790 -0.0120
  141OSM     O315414   4.398  -0.028   6.872  0.0609 -0.4878  0.3782
  141OSM    HO315415   4.338   0.003   6.803  1.9013  0.0396 -1.0461
  141OSM    C4S15416   4.451   0.097   7.061  0.4403  0.0402 -0.6031
  141OSM    H4S15417   4.535   0.160   7.096  1.1545 -0.7880 -0.7769
  141OSM    C5S15418   4.376   0.031   7.155 -0.1470 -0.2618 -0.6049
  141OSM    H5S15419   4.284  -0.016   7.117  1.0914 -1.6796 -2.0015
  141OSM    C6S15420   4.392   0.046   7.312 -0.5056  1.1812  0.6276
  141OSM    H6S15421   4.448  -0.045   7.344  0.1984  1.9736  1.6753
  141OSM    H6T15422   4.291   0.040   7.360  0.3966 -0.6957  2.4931
  141OSM    C7S15423   4.471   0.166   7.372 -0.0859 -0.1597  0.0866
  141OSM    H7S15424   4.429   0.267   7.352 -0.8279 -0.4818 -0.0359
  141OSM    H7T15425   4.578   0.162   7.344 -0.2784 -0.3376 -0.6503
  141OSM    C8S15426   4.457   0.159   7.528  0.2997  0.4054  0.6278
  141OSM    H8S15427   4.497   0.063   7.568  2.3904  0.7624 -0.5191
  141OSM    H8T15428   4.348   0.162   7.551  0.4813 -0.0555  1.5961
  141OSM    C9S15429   4.518   0.280   7.604 -0.2911  0.8871 -0.1312
  141OSM    H9S15430   4.490   0.384   7.574  1.8619  1.1945 -1.3170
  141OSM    H9T15431   4.628   0.271   7.589 -0.1934 -0.5039  1.2278
  141OSM   C10S15432   4.484   0.252   7.758  0.2641 -0.3204  0.8179
  141OSM   H10S15433   4.543   0.161   7.779  0.1282 -0.8925 -1.1330
  141OSM   H10T15434   4.376   0.226   7.767  0.3909 -0.4933  1.9362
  141OSM   C11S15435   4.527   0.368   7.847  0.6404  0.1506 -0.3784
  141OSM   H11S15436   4.456   0.452   7.833  0.2747 -0.3568 -1.7439
  141OSM   H11T15437   4.631   0.393   7.817  1.0192  0.9653  1.4726
  141OSM   C12S15438   4.531   0.328   7.992 -1.0127 -0.9108  0.5204
  141OSM   H12S15439   4.586   0.231   7.998 -0.3832 -0.6024 -0.1026
  141OSM   H12T15440   4.426   0.301   8.019 -1.8145  0.1140 -1.3765
  141OSM   C13S15441   4.610   0.429   8.084 -0.4785  0.7387  0.5624
  141OSM   H13S15442   4.556   0.525   8.071 -1.7689  0.0263  0.4335
  141OSM   H13T15443   4.712   0.431   8.040 -0.3919 -1.7834  0.4951
  141OSM   C14S15444   4.611   0.386   8.230 -0.2825  1.0137 -0.6617
  141OSM   H14S15445   4.512   0.337   8.245  0.1197  0.9165  2.0308
  141OSM   H14T15446   4.612   0.466   8.307  2.4679  0.3522  0.0908
  141OSM   C15S15447   4.716   0.280   8.258 -0.3686 -0.4971 -0.2812
  141OSM   H15S15448   4.805   0.334   8.295 -1.2472  0.9472 -0.1933
  141OSM   H15T15449   4.745   0.218   8.171 -1.7926 -0.3192 -0.9108
  141OSM   C16S15450   4.678   0.181   8.372  0.6022  0.4451 -1.1552
  141OSM   H16S15451   4.579   0.140   8.340  0.9547  1.7078 -4.2857
  141OSM   H16T15452   4.668   0.238   8.466  0.0790 -0.6091 -0.5469
  141OSM   C17S15453   4.776   0.069   8.402  0.1233  0.1427 -0.2027
  141OSM   H17S15454   4.805   0.025   8.304 -4.5955 -1.2029 -1.2315
  141OSM   H17T15455   4.725  -0.015   8.453  3.3377 -1.3634  0.8146
  141OSM   C18S15456   4.906   0.119   8.472  0.8365  0.3974 -0.0089
  141OSM   H18S15457   4.955   0.190   8.402 -0.1539 -0.4963 -1.6674
  141OSM   H18T15458   4.980   0.041   8.497 -0.1249 -1.2620 -1.9851
  141OSM   H18U15459   4.889   0.185   8.560 -1.5085 -0.0910 -0.0422
  141OSM    C1F15460   4.324   0.458   6.924 -0.4857  0.1249 -0.6055
  141OSM     OF15461   4.213   0.457   6.867 -0.2180 -0.3827 -0.4645
  141OSM    C2F15462   4.377   0.585   6.990  0.0769 -0.2151  0.1807
  141OSM    H2F15463   4.463   0.611   6.924 -0.7551  0.4528 -0.6653
  141OSM    H2G15464   4.412   0.550   7.089 -0.3024  1.4800  0.9508
  141OSM    C3F15465   4.264   0.687   7.023 -0.2120 -0.0299 -0.2997
  141OSM    H3F15466   4.168   0.638   7.050 -0.9212  0.5407 -1.6831
  141OSM    H3G15467   4.238   0.759   6.942  0.1839 -0.6243 -0.9646
  141OSM    C4F15468   4.303   0.774   7.140 -0.3238 -0.9228 -0.8204
  141OSM    H4F15469   4.382   0.844   7.105 -1.4050  2.5924  2.9360
  141OSM    H4G15470   4.350   0.717   7.223  3.0703 -2.3537 -3.4918
  141OSM    C5F15471   4.186   0.859   7.199  0.2267  0.9599 -0.1692
  141OSM    H5F15472   4.089   0.814   7.168  0.6987 -1.8718  2.0824
  141OSM    H5G15473   4.187   0.954   7.140 -1.6257  1.5704  0.6983
  141OSM    C6F15474   4.186   0.893   7.345  0.1920  0.2048  0.0832
  141OSM    H6F15475   4.279   0.953   7.357  1.1928 -1.6338  2.2805
  141OSM    H6G15476   4.204   0.802   7.405  0.8940  1.5987  2.1101
  141OSM    C7F15477   4.063   0.964   7.393 -0.2348 -0.2043  0.0034
  141OSM    H7F15478   3.981   0.890   7.407  0.5331 -1.4958 -1.9544
  141OSM    H7G15479   4.043   1.045   7.321 -1.8715  0.9982  1.7020
  141OSM    C8F15480   4.084   1.019   7.536  0.4904 -0.0895 -0.6219
  141OSM    H8F15481   4.168   1.091   7.539  0.3005  0.1016  0.3284
  141OSM    H8G15482   4.101   0.931   7.601  0.7823 -0.4545 -1.1829
  141OSM    C9F15483   3.961   1.101   7.574 -0.3303  1.0995  0.0797
  141OSM    H9F15484   3.943   1.159   7.483  0.9754 -1.4811 -1.9515
  141OSM   C10F15485   3.880   1.076   7.676  0.8366 -0.1105  0.2725
  141OSM   H10F15486   3.801   1.149   7.696  2.1995  1.6787 -0.5780
  141OSM   C11F15487   3.889   0.959   7.774  0.5572 -0.1656 -0.3137
  141OSM   H11F15488   3.987   0.961   7.825 -1.0319  0.7314  2.9850
  141OSM   H11G15489   3.882   0.858   7.727  0.0864 -1.6099  2.6254
  141OSM   C12F15490   3.787   0.967   7.883 -0.4302  0.0001 -0.0866
  141OSM   H12F15491   3.685   0.977   7.839  0.9036  2.0857 -3.1119
  141OSM   H12G15492   3.829   1.053   7.940 -0.0507 -0.4687  0.3499
  141OSM   C13F15493   3.793   0.856   7.989  0.0508 -0.1556  0.7018
  141OSM   H13F15494   3.896   0.852   8.031  0.9418 -0.1530 -1.3505
  141OSM   H13G15495   3.771   0.759   7.939  0.1357  1.1351 -1.9866
  141OSM   C14F15496   3.697   0.867   8.110  0.0684  0.2411  0.2139
  141OSM   H14F15497   3.617   0.937   8.079 -0.0317  1.5250  3.0837
  141OSM   H14G15498   3.745   0.927   8.190  1.2711  0.7233 -0.8278
  141OSM   C15F15499   3.644   0.726   8.164 -0.2219 -0.1916  0.3522
  141OSM   H15F15500   3.726   0.688   8.229 -1.1864  1.0216  2.3875
  141OSM   H15G15501   3.622   0.657   8.080 -0.9041 -0.8680  1.0641
  141OSM   C16F15502   3.520   0.749   8.255 -0.8994  0.1362 -0.4349
  141OSM   H16F15503   3.430   0.773   8.194 -0.8655  0.7833 -0.2281
  141OSM   H16G15504   3.547   0.826   8.330  0.2893 -1.9124  1.3490
  141OSM   C17F15505   3.481   0.627   8.346 -0.5029  0.4439 -0.3703
  141OSM   H17F15506   3.407   0.663   8.421  0.7802  0.2115  1.0488
  141OSM   H17G15507   3.569   0.603   8.409  0.9589  0.3014 -2.3378
  141OSM   C18F15508   3.421   0.511   8.272  0.0750  0.9675  0.3404
  141OSM   H18F15509   3.497   0.481   8.197  0.2586  0.2240  0.8064
  141OSM   H18G15510   3.330   0.542   8.216 -0.1288  0.5917  0.4606
  141OSM   H18H15511   3.391   0.420   8.329  0.6796  0.6915  0.2182
  142OSM      N15512   2.683   0.766   5.824  0.3497 -0.1368  0.3510
  142OSM    C1515513   2.812   0.702   5.847  0.2685 -0.3816 -0.3488
  142OSM   H15A15514   2.842   0.640   5.764  1.0183 -0.4315 -0.0512
  142OSM   H15B15515   2.815   0.648   5.940  1.2622  1.2461  0.6246
  142OSM   H15C15516   2.891   0.775   5.857  0.5687 -0.7476 -0.0200
  142OSM    C1415517   2.688   0.830   5.687  0.2106  0.5392 -0.0228
  142OSM   H14A15518   2.767   0.903   5.694  0.8933 -0.0670 -1.0884
  142OSM   H14B15519   2.597   0.885   5.669 -2.0820 -2.6380  1.0083
  142OSM   H14C15520   2.709   0.760   5.608  0.2375 -1.3744  1.5874
  142OSM    C1315521   2.586   0.652   5.822  1.1351  0.6345 -0.5445
  142OSM   H13A15522   2.579   0.591   5.911  0.0531  0.8844 -0.4406
  142OSM   H13B15523   2.599   0.581   5.741  1.3287  1.8044 -1.5602
  142OSM   H13C15524   2.484   0.683   5.804  0.8142  0.0533  0.2286
  142OSM    C1215525   2.653   0.849   5.946 -0.6964  0.5138 -0.1029
  142OSM   H12A15526   2.553   0.888   5.937 -1.0712 -0.4128 -0.0516
  142OSM   H12B15527   2.717   0.936   5.946 -0.3648  0.2910  1.2480
  142OSM    C1115528   2.669   0.788   6.087  0.3805  0.6182  0.1001
  142OSM   H11A15529   2.596   0.705   6.099  0.7047  0.3692  0.3651
  142OSM   H11B15530   2.632   0.868   6.156 -2.6596  1.4802 -2.2976
  142OSM      P15531   2.832   0.616   6.200  0.0382  0.1155  0.1834
  142OSM    O1315532   2.816   0.499   6.112  0.4853 -0.0496 -0.2825
  142OSM    O1415533   2.963   0.628   6.262  0.3377  0.6004 -0.2097
  142OSM    O1115534   2.717   0.623   6.312  0.2275  0.3350 -0.3689
  142OSM    O1215535   2.799   0.749   6.119  0.0339 -0.2241 -0.4963
  142OSM    C1S15536   2.698   0.505   6.389  0.4873  0.0613 -0.5724
  142OSM    H1S15537   2.788   0.449   6.423 -1.3732 -1.8286  1.5459
  142OSM    H1T15538   2.639   0.426   6.338  1.6601 -1.6224  0.5179
  142OSM     NF15539   2.619   0.463   6.611  0.0929 -0.3140  0.2761
  142OSM    HNF15540   2.535   0.409   6.619  0.2376 -0.4127  1.1649
  142OSM    C2S15541   2.623   0.566   6.514  0.0219 -0.5752 -0.2773
  142OSM    H2S15542   2.684   0.650   6.554 -1.1707  0.0507  0.2944
  142OSM    C3S15543   2.486   0.623   6.482  0.0819  0.0162 -0.7230
  142OSM    H3S15544   2.424   0.534   6.457  2.1289 -1.6114 -0.3102
  142OSM     O315545   2.486   0.705   6.366  0.5271 -0.0410  0.0867
  142OSM    HO315546   2.577   0.699   6.335  1.3062  2.0240  1.7325
  142OSM    C4S15547   2.435   0.689   6.604 -0.2626 -0.6065 -1.0693
  142OSM    H4S15548   2.478   0.656   6.700 -2.8012  1.7686  1.0415
  142OSM    C5S15549   2.344   0.793   6.603  0.4259 -0.1101 -0.1547
  142OSM    H5S15550   2.309   0.835   6.507 -0.3604 -1.0521 -0.2993
  142OSM    C6S15551   2.283   0.862   6.731 -0.5532  0.0406  0.1135
  142OSM    H6S15552   2.189   0.911   6.701  0.4058  1.5651 -0.5255
  142OSM    H6T15553   2.348   0.947   6.761 -1.5782  0.4310  1.3048
  142OSM    C7S15554   2.264   0.766   6.848 -0.5109 -0.0459  0.1476
  142OSM    H7S15555   2.354   0.705   6.870 -2.0705 -3.2164 -1.5106
  142OSM    H7T15556   2.194   0.685   6.818  0.2914 -1.8450  2.7557
  142OSM    C8S15557   2.215   0.826   6.979  0.5132  0.2288  0.2133
  142OSM    H8S15558   2.117   0.879   6.968 -0.1089 -1.2232 -2.0184
  142OSM    H8T15559   2.285   0.902   7.018 -0.3356  0.7206  0.8186
  142OSM    C9S15560   2.185   0.726   7.085  0.6298 -0.0600 -1.2528
  142OSM    H9S15561   2.278   0.676   7.120 -0.8139 -1.6251  0.6045
  142OSM    H9T15562   2.128   0.637   7.049 -1.5538  0.3222  1.0297
  142OSM   C10S15563   2.098   0.780   7.192  0.0092 -0.2134  0.3357
  142OSM   H10S15564   1.993   0.785   7.157 -0.2574 -0.6344  1.0323
  142OSM   H10T15565   2.129   0.882   7.224  1.3042  0.0013 -1.4916
  142OSM   C11S15566   2.090   0.691   7.321  0.6044  0.7353 -1.1521
  142OSM   H11S15567   2.194   0.678   7.356  0.2256 -1.3038 -0.6646
  142OSM   H11T15568   2.022   0.605   7.298 -2.4318  2.8986 -0.9491
  142OSM   C12S15569   2.028   0.760   7.445  0.1684 -0.6890 -0.1931
  142OSM   H12S15570   1.923   0.789   7.423 -0.0064 -1.2753 -0.1277
  142OSM   H12T15571   2.091   0.852   7.450 -0.1315 -0.2953 -2.4705
  142OSM   C13S15572   2.031   0.679   7.572  0.0590 -0.1772  0.0756
  142OSM   H13S15573   2.138   0.659   7.598  0.9007 -1.7599 -3.8735
  142OSM   H13T15574   1.982   0.580   7.558 -0.8911  0.5021 -1.6138
  142OSM   C14S15575   1.969   0.763   7.686 -0.2810 -0.0226 -0.2045
  142OSM   H14S15576   1.866   0.797   7.661 -1.3525 -0.6083  2.9437
  142OSM   H14T15577   2.038   0.850   7.687  2.2271 -1.8919  0.9340
  142OSM   C15S15578   1.989   0.710   7.829 -0.2108 -0.1691  0.0240
  142OSM   H15S15579   2.095   0.682   7.847 -0.3314  0.3605  1.7122
  142OSM   H15T15580   1.926   0.621   7.846  0.2615 -0.1608  2.0336
  142OSM   C16S15581   1.952   0.813   7.946  0.1188  0.7566  0.5643
  142OSM   H16S15582   1.841   0.811   7.947  0.1274 -1.4049  0.4045
  142OSM   H16T15583   1.989   0.915   7.920  0.3993  0.0576 -2.0523
  142OSM   C17S15584   2.003   0.774   8.086  0.1297  0.6960 -0.1248
  142OSM   H17S15585   1.982   0.854   8.161 -0.8416 -0.3666  0.7639
  142OSM   H17T15586   2.111   0.748   8.086  0.1133  0.6012  0.8512
  142OSM   C18S15587   1.948   0.650   8.150 -0.3367 -0.0003 -0.4911
  142OSM   H18S15588   1.842   0.647   8.117  0.0913 -1.9089 -1.8747
  142OSM   H18T15589   1.956   0.652   8.261  2.0535  2.9189 -0.5827
  142OSM   H18U15590   1.986   0.554   8.109  0.3188 -0.1987  0.5245
  142OSM    C1F15591   2.723   0.432   6.685 -0.2828  0.3681  0.7400
  142OSM     OF15592   2.824   0.498   6.685 -0.3391 -0.3023  0.6240
  142OSM    C2F15593   2.705   0.310   6.769 -0.8642 -0.0562 -0.4837
  142OSM    H2F15594   2.749   0.221   6.719  0.3277 -0.7678  1.7381
  142OSM    H2G15595   2.604   0.281   6.805  0.3714 -1.3515  2.2096
  142OSM    C3F15596   2.792   0.323   6.897 -0.5310 -0.1043 -0.5805
  142OSM    H3F15597   2.741   0.392   6.969 -0.7437 -1.0707  0.2160
  142OSM    H3G15598   2.892   0.368   6.879 -0.1138 -0.9285 -0.3751
  142OSM    C4F15599   2.814   0.189   6.961  0.4030  0.3535 -0.5106
  142OSM    H4F15600   2.892   0.140   6.899 -0.3944  1.6933 -2.7136
  142OSM    H4G15601   2.729   0.124   6.929 -0.1699  0.6828  0.3158
  142OSM    C5F15602   2.844   0.182   7.112 -0.5493 -0.4355  0.7682
  142OSM    H5F15603   2.765   0.236   7.167 -0.3663  0.9427 -0.2593
  142OSM    H5G15604   2.936   0.241   7.134 -1.2451  1.4240 -0.9667
  142OSM    C6F15605   2.843   0.030   7.153 -0.3124 -0.1539  0.6635
  142OSM    H6F15606   2.911  -0.030   7.089 -0.8819 -1.5624  1.3481
  142OSM    H6G15607   2.742  -0.010   7.131 -0.2110 -0.3367  0.5314
  142OSM    C7F15608   2.893   0.010   7.295 -0.2437  0.2195  0.3447
  142OSM    H7F15609   2.996   0.052   7.297 -0.5212  0.8878  1.7391
  142OSM    H7G15610   2.891  -0.094   7.332 -1.9066 -0.4197 -1.3833
  142OSM    C8F15611   2.820   0.095   7.389  0.4628 -0.5309 -0.8866
  142OSM    H8F15612   2.852   0.197   7.360 -1.3095 -0.0603 -1.3213
  142OSM    H8G15613   2.850   0.086   7.496 -0.4291  2.3363 -0.3176
  142OSM    C9F15614   2.668   0.067   7.387 -0.1923  0.6783  0.3920
  142OSM    H9F15615   2.604   0.125   7.318 -2.6139  0.8178  2.6106
  142OSM   C10F15616   2.595  -0.004   7.472 -0.1087 -0.0125  0.1323
  142OSM   H10F15617   2.487   0.010   7.464  0.0059  1.3898  0.7221
  142OSM   C11F15618   2.661  -0.071   7.592 -0.6445  0.2150 -0.1680
  142OSM   H11F15619   2.764  -0.105   7.565 -1.2467 -1.4625 -0.5132
  142OSM   H11G15620   2.602  -0.163   7.615 -0.2704 -0.0578 -0.2746
  142OSM   C12F15621   2.660   0.011   7.723  0.2443  0.2558 -0.5718
  142OSM   H12F15622   2.555   0.016   7.757  0.2721 -0.7704 -0.3082
  142OSM   H12G15623   2.693   0.116   7.707 -0.1212  0.3483 -0.7097
  142OSM   C13F15624   2.746  -0.054   7.840  0.3098  1.1939  0.6298
  142OSM   H13F15625   2.854  -0.036   7.819  1.1268 -1.9722  1.4898
  142OSM   H13G15626   2.732  -0.163   7.858  2.6883  0.9744  1.6427
  142OSM   C14F15627   2.719   0.003   7.977 -0.0249  0.5019 -0.0488
  142OSM   H14F15628   2.613  -0.019   8.002  0.2328 -0.0872  0.5759
  142OSM   H14G15629   2.724   0.113   7.959  0.0976  0.3846 -0.7279
  142OSM   C15F15630   2.814  -0.047   8.091  0.0250  0.2162  0.2221
  142OSM   H15F15631   2.921  -0.035   8.063  0.5141 -1.9885  0.9668
  142OSM   H15G15632   2.810  -0.156   8.109  2.3834 -0.2547 -1.5830
  142OSM   C16F15633   2.772   0.021   8.219 -0.6596 -0.4128 -0.4998
  142OSM   H16F15634   2.688  -0.036   8.265 -1.4312  0.9933 -0.0992
  142OSM   H16G15635   2.719   0.115   8.192 -3.5474 -1.5437  0.7372
  142OSM   C17F15636   2.878   0.042   8.319  0.5345 -0.2108  0.5011
  142OSM   H17F15637   2.840   0.099   8.406  0.1557  0.8634 -0.3454
  142OSM   H17G15638   2.952   0.099   8.257 -1.9092 -0.4113 -2.8917
  142OSM   C18F15639   2.952  -0.086   8.368  0.1435  0.2026 -0.5149
  142OSM   H18F15640   2.890  -0.153   8.431  0.3218  0.5731  0.0596
  142OSM   H18G15641   3.047  -0.062   8.421  0.6739  0.5148 -1.5829
  142OSM   H18H15642   2.977  -0.150   8.281  2.3883 -1.6461  1.3743
  143OSM      N15643   4.037   3.504   5.920 -0.5830 -0.3710 -0.3826
  143OSM    C1515644   4.166   3.564   5.884 -0.2422  1.0021 -0.1220
  143OSM   H15A15645   4.247   3.492   5.883 -1.6028 -0.6098 -1.5480
  143OSM   H15B15646   4.196   3.651   5.940  0.7554  0.9117 -0.4859
  143OSM   H15C15647   4.155   3.600   5.783  0.5506 -0.4477 -0.7526
  143OSM    C1415648   3.933   3.614   5.907  0.2150  0.4291  0.1161
  143OSM   H14A15649   3.839   3.567   5.931 -1.4466  3.2196 -0.4076
  143OSM   H14B15650   3.926   3.660   5.809  0.4536  0.5677  0.1631
  143OSM   H14C15651   3.948   3.704   5.965 -0.2969  0.6403 -0.0729
  143OSM    C1315652   3.998   3.399   5.818 -0.3403  0.0410  0.9023
  143OSM   H13A15653   3.911   3.343   5.848  0.0296 -0.9363  0.1947
  143OSM   H13B15654   4.086   3.336   5.809 -0.5374 -0.0515 -0.5571
  143OSM   H13C15655   3.982   3.456   5.728 -0.7808  0.2741  1.1239
  143OSM    C1215656   4.047   3.453   6.059  0.5639 -0.0290  0.2692
  143OSM   H12A15657   4.088   3.533   6.118 -0.5096  0.5141  0.3029
  143OSM   H12B15658   4.123   3.377   6.065  0.9403  0.3898  0.8377
  143OSM    C1115659   3.921   3.399   6.126  0.1253  0.0910 -0.1450
  143OSM   H11A15660   3.954   3.367   6.226 -1.6234  1.5527  0.9697
  143OSM   H11B15661   3.881   3.311   6.070 -0.0211  0.4823 -0.6723
  143OSM      P15662   3.764   3.576   6.256  0.3079  0.4834  0.1710
  143OSM    O1315663   3.824   3.709   6.261  0.1992  0.2018  0.1987
  143OSM    O1415664   3.619   3.573   6.245  0.1919 -0.4053 -0.9443
  143OSM    O1115665   3.813   3.487   6.374  0.1635 -0.4871  0.2924
  143OSM    O1215666   3.819   3.503   6.135 -0.2737 -0.5759 -0.0285
  143OSM    C1S15667   3.750   3.527   6.502  0.2683  0.0255 -0.2234
  143OSM    H1S15668   3.640   3.544   6.499  0.1942 -0.4140 -0.1016
  143OSM    H1T15669   3.801   3.621   6.530 -0.2746  0.3491 -0.2956
  143OSM     NF15670   3.741   3.469   6.750 -0.3903  0.2049  0.6848
  143OSM    HNF15671   3.799   3.511   6.819  0.0192 -0.5395  0.8016
  143OSM    C2S15672   3.796   3.431   6.622 -0.6937  0.9966  0.7541
  143OSM    H2S15673   3.753   3.331   6.599  2.0340 -0.6033  2.1906
  143OSM    C3S15674   3.952   3.412   6.627  0.0796  0.0834 -0.1172
  143OSM    H3S15675   3.990   3.513   6.655 -2.1287  0.8070  0.4796
  143OSM     O315676   4.016   3.380   6.497  0.3034  0.6415 -0.1819
  143OSM    HO315677   3.962   3.422   6.429 -0.4685 -0.6575 -0.4148
  143OSM    C4S15678   3.992   3.314   6.734  0.2247 -0.9288  0.1524
  143OSM    H4S15679   4.024   3.360   6.829  0.6275  0.0655 -0.4476
  143OSM    C5S15680   3.993   3.180   6.717  1.2089 -0.2089 -0.1923
  143OSM    H5S15681   3.959   3.138   6.621 -2.0478  0.0880  0.7054
  143OSM    C6S15682   4.047   3.070   6.810  0.4931 -0.2473  0.6302
  143OSM    H6S15683   4.146   3.031   6.778 -0.7692 -0.7966 -3.1115
  143OSM    H6T15684   3.983   2.983   6.787  0.3678 -0.0344  0.1557
  143OSM    C7S15685   4.051   3.104   6.957  0.3628 -0.2738  0.2289
  143OSM    H7S15686   3.977   3.185   6.975 -1.1967 -1.3185 -1.1650
  143OSM    H7T15687   4.151   3.151   6.968  1.0697 -1.5960 -0.4034
  143OSM    C8S15688   4.029   2.994   7.055 -0.4499  0.1447 -0.4421
  143OSM    H8S15689   4.109   2.920   7.033  1.5494  1.8841  0.6401
  143OSM    H8T15690   3.939   2.933   7.035 -0.3646 -0.7406  1.7007
  143OSM    C9S15691   4.036   3.036   7.202 -0.0015  0.4302  0.2154
  143OSM    H9S15692   3.945   3.099   7.218  0.6713  1.4672  0.0649
  143OSM    H9T15693   4.134   3.085   7.219  0.8258 -0.7997 -0.8456
  143OSM   C10S15694   4.040   2.917   7.295 -0.2532 -0.5975 -0.1295
  143OSM   H10S15695   4.127   2.850   7.278  1.7553  0.4393  4.4996
  143OSM   H10T15696   3.941   2.866   7.288 -1.2646  0.8153  2.4956
  143OSM   C11S15697   4.056   2.967   7.439  0.3807  0.7505 -0.6028
  143OSM   H11S15698   3.995   3.054   7.474  1.4434  0.3010  2.7994
  143OSM   H11T15699   4.162   2.997   7.451  0.6242  0.1543 -1.2123
  143OSM   C12S15700   4.022   2.851   7.538 -0.2164 -0.3305  0.2640
  143OSM   H12S15701   4.082   2.759   7.522 -0.9460 -0.7648 -0.0396
  143OSM   H12T15702   3.924   2.822   7.495  0.7275 -1.2847 -1.3175
  143OSM   C13S15703   4.025   2.896   7.687 -0.4793  0.0126  1.0135
  143OSM   H13S15704   3.943   2.971   7.689  0.2470  0.8388  0.1904
  143OSM   H13T15705   4.118   2.952   7.708 -0.5849 -0.1814  2.0762
  143OSM   C14S15706   4.010   2.790   7.792 -0.2006 -0.5468  0.9279
  143OSM   H14S15707   4.103   2.729   7.787  0.0152 -0.1283 -2.8582
  143OSM   H14T15708   3.919   2.729   7.771 -1.2824  1.3494 -0.1200
  143OSM   C15S15709   3.998   2.856   7.927 -0.2402  0.7883  0.3967
  143OSM   H15S15710   3.907   2.917   7.950  1.6109  2.8670  2.7949
  143OSM   H15T15711   4.096   2.899   7.957  0.5770 -0.4133 -0.4769
  143OSM   C16S15712   3.983   2.732   8.021  0.2458 -0.1742  0.3636
  143OSM   H16S15713   4.071   2.668   8.001  0.6204  0.7472 -1.1087
  143OSM   H16T15714   3.892   2.672   8.001 -0.8289  1.3687  0.4164
  143OSM   C17S15715   3.983   2.776   8.169  0.1011 -0.1400 -0.0437
  143OSM   H17S15716   3.894   2.840   8.186 -0.8255 -1.1868 -0.9022
  143OSM   H17T15717   4.076   2.834   8.191 -0.0730 -0.5611  1.9600
  143OSM   C18S15718   3.978   2.659   8.261  0.0962  0.5701 -0.1627
  143OSM   H18S15719   3.886   2.608   8.226 -1.1769  2.3189  0.5110
  143OSM   H18T15720   3.969   2.682   8.369  1.6326  0.1764  0.0785
  143OSM   H18U15721   4.078   2.610   8.258  1.4370  3.1068  0.5034
  143OSM    C1F15722   3.614   3.479   6.773 -0.7454  0.5351 -0.6391
  143OSM     OF15723   3.531   3.445   6.691 -0.0497  0.4736 -0.6171
  143OSM    C2F15724   3.583   3.545   6.900  0.7570 -1.2509 -0.1062
  143OSM    H2F15725   3.478   3.581   6.892  0.5819 -2.1433 -2.8219
  143OSM    H2G15726   3.634   3.642   6.913  0.8262 -1.2272 -0.5367
  143OSM    C3F15727   3.581   3.444   7.012  0.5682  0.1548  0.3105
  143OSM    H3F15728   3.683   3.407   7.034  0.6132  0.3788  0.4791
  143OSM    H3G15729   3.528   3.350   6.983  0.8163  0.0043  0.3457
  143OSM    C4F15730   3.527   3.492   7.143  0.1311  0.3656  0.0817
  143OSM    H4F15731   3.430   3.543   7.125  0.3753 -0.1625 -3.3781
  143OSM    H4G15732   3.595   3.570   7.183  0.4936  0.5618 -0.8844
  143OSM    C5F15733   3.498   3.390   7.258 -0.2712 -0.2104  0.0870
  143OSM    H5F15734   3.587   3.325   7.273 -0.0633  0.7652  4.4612
  143OSM    H5G15735   3.413   3.333   7.215 -0.5636  0.0445  0.3163
  143OSM    C6F15736   3.459   3.451   7.394  0.0738  0.2172 -0.2871
  143OSM    H6F15737   3.362   3.503   7.380 -0.9859 -1.3014  1.0625
  143OSM    H6G15738   3.541   3.517   7.431  0.3181 -1.0095  1.5002
  143OSM    C7F15739   3.421   3.337   7.490  0.7008 -0.0395 -0.7115
  143OSM    H7F15740   3.496   3.255   7.484  0.1686 -0.7514  1.4920
  143OSM    H7G15741   3.321   3.296   7.464  0.2644 -1.1316  2.3493
  143OSM    C8F15742   3.401   3.393   7.637  0.3376  0.3884 -0.1070
  143OSM    H8F15743   3.333   3.481   7.628 -0.7486 -0.3071  1.0121
  143OSM    H8G15744   3.505   3.419   7.670  0.6916 -0.4644 -0.5328
  143OSM    C9F15745   3.341   3.285   7.733  0.2694 -0.7203  0.3249
  143OSM    H9F15746   3.368   3.183   7.702  0.1868 -0.1671 -1.7648
  143OSM   C10F15747   3.278   3.312   7.850 -0.3232  0.2340 -0.3144
  143OSM   H10F15748   3.256   3.219   7.904 -0.7283 -0.4535 -1.6238
  143OSM   C11F15749   3.256   3.445   7.917  0.1997  0.3355 -0.7778
  143OSM   H11F15750   3.151   3.481   7.909 -0.1787 -0.1262  1.5400
  143OSM   H11G15751   3.326   3.511   7.862  0.4532  0.2690 -0.5361
  143OSM   C12F15752   3.294   3.448   8.067  0.6636  1.0006  0.0028
  143OSM   H12F15753   3.397   3.411   8.086 -0.9538 -3.1324  1.7482
  143OSM   H12G15754   3.232   3.367   8.111  1.1947 -0.3687 -1.6131
  143OSM   C13F15755   3.263   3.583   8.141  0.1974  0.5197  0.9770
  143OSM   H13F15756   3.157   3.613   8.129  0.4224  0.7668 -0.5105
  143OSM   H13G15757   3.315   3.662   8.083 -1.6207  0.4056 -0.9193
  143OSM   C14F15758   3.317   3.583   8.282 -0.2340  0.2737 -0.1926
  143OSM   H14F15759   3.422   3.545   8.287 -0.6904 -0.9080  1.7272
  143OSM   H14G15760   3.267   3.497   8.332 -1.2559  0.2513 -1.2128
  143OSM   C15F15761   3.294   3.715   8.355  0.3612  0.1186  0.2706
  143OSM   H15F15762   3.194   3.750   8.323  0.5671 -0.0240 -0.5509
  143OSM   H15G15763   3.367   3.791   8.321  0.3200  0.1766  0.3108
  143OSM   C16F15764   3.285   3.692   8.510 -0.2211  0.5626  0.0915
  143OSM   H16F15765   3.196   3.628   8.524  0.9024 -0.9145  0.8308
  143OSM   H16G15766   3.274   3.787   8.566 -3.2798  0.4452 -0.1383
  143OSM   C17F15767   3.406   3.610   8.566 -0.5335 -0.1210 -0.1512
  143OSM   H17F15768   3.496   3.669   8.542 -1.1179 -0.1909 -2.7974
  143OSM   H17G15769   3.413   3.513   8.513  3.7170 -0.1630  0.1410
  143OSM   C18F15770   3.398   3.571   8.711 -0.3044 -0.0541 -0.3841
  143OSM   H18F15771   3.299   3.539   8.750  0.2352 -2.2394 -0.6221
  143OSM   H18G15772   3.427   3.661   8.769 -1.3484  0.9468 -1.3811
  143OSM   H18H15773   3.465   3.484   8.733 -0.4764 -0.2852 -0.7712
  144OSM      N15774   3.508   0.869   6.153 -0.4911  0.2973 -0.5711
  144OSM    C1515775   3.587   0.950   6.054  0.0205  0.0261 -0.2808
  144OSM   H15A15776   3.586   1.051   6.092 -2.6564 -0.6626  1.8018
  144OSM   H15B15777   3.546   0.949   5.955 -0.8016 -0.1596  0.0554
  144OSM   H15C15778   3.690   0.918   6.050 -0.1153 -0.6669  1.0376
  144OSM    C1415779   3.366   0.921   6.152 -0.0787  0.6538 -0.3461
  144OSM   H14A15780   3.296   0.879   6.223  0.9595 -0.8104 -0.1310
  144OSM   H14B15781   3.314   0.914   6.058  0.2566  2.7059 -0.7285
  144OSM   H14C15782   3.363   1.026   6.175 -0.8676  0.4584  0.5073
  144OSM    C1315783   3.517   0.727   6.120  0.5617  0.4699 -0.8523
  144OSM   H13A15784   3.456   0.665   6.184  0.1166  1.2978 -0.4453
  144OSM   H13B15785   3.615   0.687   6.139 -1.3071 -4.0811  0.6133
  144OSM   H13C15786   3.478   0.710   6.021  2.5934 -1.1781 -1.4256
  144OSM    C1215787   3.577   0.881   6.292  0.5143 -0.3606  1.3396
  144OSM   H12A15788   3.661   0.813   6.297  1.4360  0.3738 -1.7427
  144OSM   H12B15789   3.507   0.842   6.364 -0.2302 -0.9416  0.3424
  144OSM    C1115790   3.614   1.019   6.334 -0.1457  0.5226  0.8732
  144OSM   H11A15791   3.703   1.051   6.276  0.2128 -0.5362  0.8295
  144OSM   H11B15792   3.637   0.998   6.441 -2.0385 -0.9225  1.0509
  144OSM      P15793   3.521   1.255   6.275 -0.2419  0.3129 -0.5288
  144OSM    O1315794   3.531   1.249   6.131  0.2531 -0.5821 -0.5066
  144OSM    O1415795   3.401   1.328   6.337 -0.1437  0.3524 -0.1262
  144OSM    O1115796   3.656   1.306   6.336 -0.5417  0.1126 -0.6737
  144OSM    O1215797   3.509   1.112   6.332  0.1925  0.4921 -0.5282
  144OSM    C1S15798   3.667   1.370   6.462 -0.6923  0.2881 -0.9651
  144OSM    H1S15799   3.570   1.407   6.502 -1.3901 -2.6406  0.2693
  144OSM    H1T15800   3.737   1.455   6.447  1.2275 -0.8357  1.1223
  144OSM     NF15801   3.712   1.330   6.703  0.6707 -0.3627  0.1905
  144OSM    HNF15802   3.780   1.391   6.744 -0.3204  0.1205  1.1923
  144OSM    C2S15803   3.728   1.274   6.567 -1.0942 -0.1171 -0.6859
  144OSM    H2S15804   3.667   1.181   6.563 -0.9080 -0.2024 -1.7655
  144OSM    C3S15805   3.874   1.225   6.528  0.3720  0.4292  0.7041
  144OSM    H3S15806   3.930   1.320   6.545 -2.3260  1.9136  1.8487
  144OSM     O315807   3.896   1.183   6.394  0.0986  0.0611 -0.4548
  144OSM    HO315808   3.814   1.208   6.351  0.0174  1.7828  0.6103
  144OSM    C4S15809   3.918   1.111   6.612 -0.4176 -0.7013  0.4711
  144OSM    H4S15810   3.852   1.023   6.617  1.4685 -2.2324 -0.5238
  144OSM    C5S15811   4.029   1.111   6.693  0.6177 -0.4002  0.0742
  144OSM    H5S15812   4.087   1.205   6.701 -0.6968  0.3869  0.9124
  144OSM    C6S15813   4.067   1.005   6.794  0.3212  0.3316 -1.6353
  144OSM    H6S15814   4.159   1.022   6.854 -0.6031 -0.4991  0.1120
  144OSM    H6T15815   4.095   0.914   6.736 -1.3672 -1.4346  0.1681
  144OSM    C7S15816   3.953   0.964   6.888 -0.4199 -0.1056  0.5661
  144OSM    H7S15817   3.984   0.880   6.953 -1.1711 -0.6907  0.1814
  144OSM    H7T15818   3.862   0.926   6.837 -1.4691  2.5337  0.2767
  144OSM    C8S15819   3.893   1.085   6.960 -0.8449 -0.3214  0.8611
  144OSM    H8S15820   3.828   1.147   6.895  1.7223  1.7643  0.1070
  144OSM    H8T15821   3.976   1.141   7.008 -1.4643  1.2135  0.2007
  144OSM    C9S15822   3.791   1.036   7.066 -0.0302  0.4653  0.3191
  144OSM    H9S15823   3.759   1.116   7.136 -1.9560  0.1495 -0.1437
  144OSM    H9T15824   3.831   0.965   7.142 -0.9001  0.1898  0.5348
  144OSM   C10S15825   3.663   0.972   7.005 -0.1342 -0.4079 -0.1163
  144OSM   H10S15826   3.677   0.868   6.969 -1.1801 -0.1304 -1.4053
  144OSM   H10T15827   3.630   1.039   6.923  0.8909 -0.0521 -0.2485
  144OSM   C11S15828   3.546   0.956   7.105 -0.0231  0.0512 -0.2149
  144OSM   H11S15829   3.451   0.918   7.062 -1.1991 -1.4821  3.2791
  144OSM   H11T15830   3.535   1.053   7.158  1.5375  0.2222 -0.1450
  144OSM   C12S15831   3.574   0.858   7.224 -0.5527 -1.3177  0.8735
  144OSM   H12S15832   3.668   0.892   7.274 -0.7058  1.5755 -0.5857
  144OSM   H12T15833   3.589   0.756   7.182  0.8248 -0.3999 -1.0449
  144OSM   C13S15834   3.457   0.862   7.319  0.3189  0.0655  0.1106
  144OSM   H13S15835   3.363   0.827   7.270  0.8300  0.2212 -1.0040
  144OSM   H13T15836   3.443   0.961   7.367  1.6784 -0.3865  1.4970
  144OSM   C14S15837   3.490   0.770   7.442 -0.3501 -0.5301  0.0832
  144OSM   H14S15838   3.492   0.668   7.399 -2.3742  0.4292 -2.6282
  144OSM   H14T15839   3.399   0.769   7.505 -0.9164  0.6570 -0.6714
  144OSM   C15S15840   3.598   0.816   7.538  0.0486  0.5120  1.2183
  144OSM   H15S15841   3.601   0.925   7.516 -1.3705  0.4717  0.7140
  144OSM   H15T15842   3.699   0.775   7.516  1.0181  1.9249  2.8027
  144OSM   C16S15843   3.564   0.773   7.679 -0.1528  0.7831  0.5421
  144OSM   H16S15844   3.474   0.825   7.717 -1.8674  0.2195 -2.4631
  144OSM   H16T15845   3.659   0.782   7.737 -0.1444  0.4330  0.5877
  144OSM   C17S15846   3.523   0.619   7.683 -0.4288 -0.5485  0.3106
  144OSM   H17S15847   3.585   0.566   7.607  0.5778  1.8341 -0.6576
  144OSM   H17T15848   3.418   0.613   7.648 -0.8035 -0.4329  1.3807
  144OSM   C18S15849   3.539   0.564   7.823 -0.5517 -0.5187  0.8991
  144OSM   H18S15850   3.480   0.614   7.903  0.3022 -0.8864  1.7764
  144OSM   H18T15851   3.645   0.573   7.856 -0.7844 -0.0855  1.5573
  144OSM   H18U15852   3.510   0.457   7.824 -0.5042 -0.5643 -0.7713
  144OSM    C1F15853   3.587   1.338   6.757 -0.0894 -0.7926 -0.1367
  144OSM     OF15854   3.502   1.256   6.719 -0.3912  0.4886 -0.0514
  144OSM    C2F15855   3.560   1.445   6.864 -0.9118 -0.5831  0.6168
  144OSM    H2F15856   3.578   1.538   6.806  2.1357 -0.2163  1.9656
  144OSM    H2G15857   3.636   1.442   6.945 -0.2411  1.8157  0.1798
  144OSM    C3F15858   3.415   1.436   6.914 -0.7850 -0.3859 -0.4919
  144OSM    H3F15859   3.392   1.329   6.934 -2.6031 -0.5105 -2.8104
  144OSM    H3G15860   3.351   1.457   6.826  0.9861  0.5554 -1.5928
  144OSM    C4F15861   3.378   1.524   7.033 -0.2310  0.0288 -0.4571
  144OSM    H4F15862   3.379   1.631   7.002  3.8135  0.2988  0.0802
  144OSM    H4G15863   3.459   1.510   7.108 -0.1476  0.4257 -0.4686
  144OSM    C5F15864   3.239   1.478   7.094  0.2779  0.3922  0.5293
  144OSM    H5F15865   3.244   1.373   7.130 -0.2095 -0.6258 -2.1689
  144OSM    H5G15866   3.164   1.484   7.012  0.6071  1.1045  0.2672
  144OSM    C6F15867   3.188   1.570   7.204 -0.6526 -0.6590  0.3174
  144OSM    H6F15868   3.078   1.557   7.213 -0.5581 -1.2367  0.7631
  144OSM    H6G15869   3.194   1.672   7.162 -1.2885 -0.3768  0.8849
  144OSM    C7F15870   3.255   1.561   7.337  0.4795  0.1204 -0.5430
  144OSM    H7F15871   3.363   1.581   7.320  0.8589 -0.1122  1.2891
  144OSM    H7G15872   3.258   1.455   7.369  4.2746 -0.8194 -3.2611
  144OSM    C8F15873   3.198   1.652   7.457 -0.1733  0.2609  0.8681
  144OSM    H8F15874   3.221   1.758   7.432 -0.3385  0.5321  1.8337
  144OSM    H8G15875   3.253   1.616   7.546 -1.6640 -1.1638  1.2524
  144OSM    C9F15876   3.052   1.625   7.481  0.0262  0.1624  0.3917
  144OSM    H9F15877   2.997   1.662   7.394  2.7062  0.2157 -1.3975
  144OSM   C10F15878   2.987   1.551   7.574 -0.3334  0.8072 -0.3876
  144OSM   H10F15879   2.881   1.526   7.564  0.5296 -3.6637 -0.3917
  144OSM   C11F15880   3.055   1.480   7.691  0.2326  0.2763  0.1178
  144OSM   H11F15881   3.155   1.445   7.658 -1.1896 -2.6890 -1.3908
  144OSM   H11G15882   2.987   1.395   7.710  0.4545 -0.7375 -3.1117
  144OSM   C12F15883   3.062   1.570   7.819  0.5002  0.6039  0.2883
  144OSM   H12F15884   2.963   1.619   7.835 -0.2533 -1.0438  0.8651
  144OSM   H12G15885   3.122   1.663   7.803 -1.8082  2.1721  0.2088
  144OSM   C13F15886   3.101   1.492   7.948 -0.2439  0.1301  0.1016
  144OSM   H13F15887   3.211   1.485   7.958 -0.0562 -0.9269 -1.9543
  144OSM   H13G15888   3.057   1.390   7.937  3.1829 -1.4593 -0.1251
  144OSM   C14F15889   3.048   1.560   8.077 -0.0404 -0.7120  0.5083
  144OSM   H14F15890   2.939   1.572   8.061  0.4801  0.3359 -3.2635
  144OSM   H14G15891   3.095   1.660   8.068  0.2042 -0.9170 -0.6838
  144OSM   C15F15892   3.078   1.491   8.207  0.6462  0.2754  0.2470
  144OSM   H15F15893   3.016   1.542   8.283 -0.0544 -0.1235 -0.0384
  144OSM   H15G15894   3.187   1.500   8.224  0.5124  1.2428  0.6467
  144OSM   C16F15895   3.046   1.341   8.207  0.6208 -0.6686 -0.5582
  144OSM   H16F15896   3.080   1.283   8.118 -1.3519 -0.0788 -1.7578
  144OSM   H16G15897   2.937   1.338   8.189  0.3574  0.7102  0.5980
  144OSM   C17F15898   3.085   1.267   8.338  0.2928 -0.1309 -0.0513
  144OSM   H17F15899   3.015   1.291   8.421 -1.1469 -1.4205 -0.8588
  144OSM   H17G15900   3.191   1.283   8.367  0.4239 -2.3024  0.8262
  144OSM   C18F15901   3.075   1.110   8.323 -0.2414 -0.3066 -0.3764
  144OSM   H18F15902   2.984   1.078   8.268  0.0072 -2.8721  0.5528
  144OSM   H18G15903   3.060   1.075   8.427 -2.7620  3.0438  0.5735
  144OSM   H18H15904   3.165   1.065   8.277  0.0682  0.1980 -0.2732
  145SAPE     N15905   0.978   4.766  10.709  0.7200  0.3560 -0.2174
  145SAPE   HN115906   0.905   4.828  10.750  0.8692  0.5037 -0.1718
  145SAPE   HN215907   0.972   4.672  10.752  0.9332  1.0121  1.3037
  145SAPE   HN315908   1.067   4.783  10.760 -0.0493 -2.5177  2.4147
  145SAPE   C1215909   0.979   4.776  10.561  0.7756 -0.5522  0.1221
  145SAPE  H12A15910   1.058   4.709  10.521 -0.1268 -1.0853 -0.8067
  145SAPE  H12B15911   1.001   4.881  10.531 -2.1241  0.2423  0.4599
  145SAPE   C1115912   0.833   4.755  10.504  0.4648  0.4647  0.8564
  145SAPE  H11A15913   0.843   4.749  10.394  1.5675  2.5911  0.7881
  145SAPE  H11B15914   0.768   4.843  10.521 -0.0917  0.5247 -1.3346
  145SAPE     P15915   0.631   4.627  10.595  0.3263  0.5562 -0.2534
  145SAPE   O1315916   0.617   4.567  10.733 -0.1551  0.0856  0.8496
  145SAPE   O1415917   0.561   4.758  10.578 -0.3401  0.2438 -0.4740
  145SAPE   O1215918   0.780   4.633  10.552 -0.7145 -0.3412 -0.3281
  145SAPE   O1115919   0.556   4.529  10.497  0.3050  0.0091 -0.2390
  145SAPE    C115920   0.620   4.423  10.436 -0.4070  0.4032  0.1878
  145SAPE    HA15921   0.729   4.426  10.457  0.1619  1.3691 -2.5286
  145SAPE    HB15922   0.582   4.325  10.473 -0.2586  0.7576  1.3270
  145SAPE    C215923   0.583   4.420  10.282 -0.0336  0.0505  0.0405
  145SAPE    HS15924   0.473   4.412  10.271  0.1631 -0.3075 -2.0654
  145SAPE   O2115925   0.651   4.309  10.219  0.3100 -0.7555 -0.2496
  145SAPE   C2115926   0.580   4.231  10.150  0.2130 -0.2881  0.0935
  145SAPE   O2215927   0.462   4.229  10.144  0.4401  0.4921 -0.2120
  145SAPE   C2215928   0.676   4.140  10.088 -0.0499  0.0353  0.1353
  145SAPE   H2R15929   0.777   4.154  10.131  1.0436 -1.5174 -1.8078
  145SAPE   H2S15930   0.644   4.037  10.114 -0.2469 -0.2709 -1.2355
  145SAPE    C315931   0.649   4.543  10.225  0.2556 -0.0787  0.9531
  145SAPE    HX15932   0.755   4.537  10.258  0.0982  0.2185  1.5225
  145SAPE    HY15933   0.609   4.640  10.263  0.2858 -0.1039  1.0486
  145SAPE   O3115934   0.629   4.538  10.077  0.6628 -0.3750 -0.2466
  145SAPE   C3115935   0.689   4.639  10.008  0.4779 -0.3909  0.7379
  145SAPE   O3215936   0.775   4.712  10.045 -0.1721  0.1277 -0.0691
  145SAPE   C3215937   0.625   4.635   9.858 -0.3310 -0.3580  0.6067
  145SAPE   H2X15938   0.518   4.661   9.871 -0.5733 -1.3897  0.7585
  145SAPE   H2Y15939   0.638   4.533   9.817  1.1321  0.7246 -1.9049
  145SAPE   C2315940   0.697   4.155   9.935 -0.2578 -0.5714 -0.0709
  145SAPE   H3R15941   0.597   4.163   9.888 -0.6045  1.0671  0.8588
  145SAPE   H3S15942   0.750   4.062   9.907  1.2172 -0.3948  1.9062
  145SAPE   C2415943   0.787   4.278   9.897  0.4324  0.4472 -0.1485
  145SAPE   H4R15944   0.889   4.259   9.936 -0.5323 -1.6336  1.5947
  145SAPE   H4S15945   0.757   4.366   9.958  2.5866  1.7006 -0.8034
  145SAPE   C2515946   0.777   4.297   9.748 -0.0168  0.1816 -0.4350
  145SAPE   H5R15947   0.675   4.296   9.706 -1.1913 -0.0389  2.2020
  145SAPE   C2615948   0.882   4.308   9.668 -0.8190  0.1839  0.3840
  145SAPE   H6R15949   0.875   4.309   9.558 -0.1999 -0.3900  0.3353
  145SAPE   C2715950   1.029   4.293   9.694 -0.0679 -0.3492  0.5789
  145SAPE   H7R15951   1.080   4.290   9.595 -1.4636 -0.0378 -0.1776
  145SAPE   H7S15952   1.052   4.193   9.738 -2.0489 -0.0374  2.4950
  145SAPE   C2815953   1.093   4.389   9.796  0.2138 -1.1041  0.5202
  145SAPE   H8R15954   1.049   4.388   9.897  1.1874  1.5317  1.0523
  145SAPE   C2915955   1.187   4.482   9.770  0.3995 -0.2840  0.1814
  145SAPE   H9R15956   1.223   4.546   9.853  2.5471  0.8791 -1.5440
  145SAPE  C21015957   1.244   4.508   9.631  0.6057  0.4325 -0.4861
  145SAPE  H10R15958   1.277   4.613   9.643 -1.1281  0.9812 -0.2365
  145SAPE  H10S15959   1.167   4.502   9.550  0.1795  0.7504 -0.1118
  145SAPE  C21115960   1.363   4.440   9.574 -0.2678  0.2332 -0.1437
  145SAPE  H11R15961   1.446   4.424   9.644  1.0895 -0.5084 -1.8585
  145SAPE  C21215962   1.384   4.398   9.447 -0.0396 -0.1217  0.0600
  145SAPE  H12R15963   1.480   4.346   9.431  0.0804  0.1384 -0.0733
  145SAPE  C21315964   1.288   4.410   9.331  0.2153  0.0198  0.7462
  145SAPE  H13R15965   1.186   4.372   9.355  0.4442 -1.0629  0.0462
  145SAPE  H13S15966   1.325   4.340   9.254 -2.2189 -0.1988 -0.3177
  145SAPE  C21415967   1.288   4.547   9.269 -0.4746  0.7243  0.0103
  145SAPE  H14R15968   1.280   4.632   9.339 -0.4355  0.8858 -0.1805
  145SAPE  C21515969   1.249   4.576   9.145  0.1509  0.4293  0.0701
  145SAPE  H15R15970   1.271   4.672   9.098  0.6254  1.3995  2.1733
  145SAPE  C21615971   1.209   4.469   9.043  0.7282 -0.7220  0.9161
  145SAPE  H16R15972   1.125   4.411   9.087 -0.4091 -1.0908 -1.6072
  145SAPE  H16S15973   1.301   4.409   9.027  1.2539  0.6764 -1.7942
  145SAPE  C21715974   1.172   4.517   8.905  0.5030 -0.7778  0.3517
  145SAPE  H17R15975   1.150   4.437   8.832 -3.6353  0.9099 -0.5446
  145SAPE  H17S15976   1.252   4.584   8.866 -0.9681  1.0469  0.3045
  145SAPE  C21815977   1.037   4.595   8.906  0.2727 -0.0006 -0.5225
  145SAPE  H18R15978   1.032   4.677   8.982  0.8062  2.6021 -3.1387
  145SAPE  H18S15979   0.960   4.521   8.938  0.1596 -0.3743 -1.6167
  145SAPE  C21915980   0.979   4.663   8.777 -0.3208  0.9675 -0.0964
  145SAPE  H19R15981   0.891   4.711   8.824 -1.9861 -3.5187  2.0124
  145SAPE  H19S15982   0.940   4.580   8.714  0.5397  0.3417  0.1628
  145SAPE  C22015983   1.068   4.744   8.689 -0.2650  0.2070  0.1165
  145SAPE  H20R15984   1.013   4.800   8.610 -0.9934  2.1549  1.9164
  145SAPE  H20S15985   1.151   4.684   8.647  1.4011  1.9798  0.7692
  145SAPE  H20T15986   1.125   4.814   8.752  3.0919 -0.5787 -1.8220
  145SAPE   C3315987   0.676   4.745   9.770 -0.2823 -0.6264 -0.0747
  145SAPE   H3X15988   0.787   4.759   9.770 -0.4645  1.0962  0.6693
  145SAPE   H3Y15989   0.636   4.843   9.804 -1.3288 -1.0065 -0.1894
  145SAPE   C3415990   0.634   4.736   9.621 -0.4822  0.8736 -0.2727
  145SAPE   H4X15991   0.635   4.835   9.570 -0.4495  1.2395  0.4357
  145SAPE   H4Y15992   0.525   4.713   9.616 -0.6824  1.8027 -0.3206
  145SAPE   C3515993   0.715   4.632   9.540 -0.0001  0.4673 -0.6822
  145SAPE   H5X15994   0.705   4.531   9.587  0.8292  1.7191  2.4242
  145SAPE   H5Y15995   0.820   4.669   9.544  0.2988 -0.4770  1.8764
  145SAPE   C3615996   0.681   4.610   9.391  0.0938 -0.0044  0.1184
  145SAPE   H6X15997   0.586   4.557   9.372 -0.8351  1.8326 -0.6623
  145SAPE   H6Y15998   0.759   4.540   9.353  0.8856  0.2317  1.2354
  145SAPE   C3715999   0.681   4.744   9.317  0.5051 -0.7618  0.2208
  145SAPE   H7X16000   0.764   4.812   9.348  0.4787 -0.5304 -0.1935
  145SAPE   H7Y16001   0.585   4.799   9.333  0.2508 -0.7206 -1.2662
  145SAPE   C3816002   0.696   4.717   9.166 -0.2922 -0.0954 -0.4175
  145SAPE   H8X16003   0.609   4.651   9.144 -0.7634 -1.0576  3.6527
  145SAPE   H8Y16004   0.789   4.658   9.153  0.2421  0.7503 -0.5381
  145SAPE   C3916005   0.699   4.851   9.088  0.5242 -0.9752 -0.3909
  145SAPE   H9X16006   0.807   4.876   9.084  0.8772 -2.5614 -2.0320
  145SAPE   H9Y16007   0.652   4.937   9.140 -2.4383 -2.6906  0.0162
  145SAPE  C31016008   0.641   4.842   8.951  0.6642  0.3971 -0.2405
  145SAPE  H10X16009   0.537   4.803   8.949  1.0803 -0.7435 -0.3925
  145SAPE  H10Y16010   0.704   4.769   8.896  0.4581 -0.0360  0.0869
  145SAPE  C31116011   0.630   4.971   8.866 -0.2396 -0.3126 -0.0339
  145SAPE  H11X16012   0.601   5.058   8.930 -1.3950 -0.3995 -0.4225
  145SAPE  H11Y16013   0.543   4.958   8.798 -1.2420  1.4029  0.8530
  145SAPE  C31216014   0.760   5.009   8.791  0.1358  0.3845  0.0808
  145SAPE  H12X16015   0.811   4.918   8.752 -2.4968 -1.4050  0.5881
  145SAPE  H12Y16016   0.840   5.051   8.855 -0.5960  1.0481  0.5732
  145SAPE  C31316017   0.721   5.119   8.686 -0.0631  0.4497  0.0800
  145SAPE  H13X16018   0.669   5.208   8.727 -1.4175 -0.9652  1.5500
  145SAPE  H13Y16019   0.643   5.065   8.628 -0.2610  0.1666  0.6049
  145SAPE  C31416020   0.840   5.163   8.603  0.4479 -0.0311 -0.5017
  145SAPE  H14X16021   0.915   5.082   8.589 -0.7968 -0.9928 -1.9795
  145SAPE  H14Y16022   0.886   5.241   8.667  1.8213 -0.5005 -0.8775
  145SAPE  C31516023   0.815   5.208   8.461 -0.3484  0.1028 -0.2140
  145SAPE  H15X16024   0.897   5.275   8.428 -1.1667  0.9888 -0.5050
  145SAPE  H15Y16025   0.724   5.273   8.463 -1.7653 -1.7993  1.4753
  145SAPE  C31616026   0.790   5.098   8.360  0.0934  0.0893  0.5390
  145SAPE  H16X16027   0.709   5.028   8.387  0.6338 -1.2413 -1.1251
  145SAPE  H16Y16028   0.875   5.027   8.356 -0.7857 -1.0891  1.6508
  145SAPE  C31716029   0.770   5.163   8.221  0.2215 -0.6301 -0.0109
  145SAPE  H17X16030   0.867   5.205   8.188 -0.8585  2.3733  0.2898
  145SAPE  H17Y16031   0.694   5.244   8.226 -1.4816 -2.1386 -0.2210
  145SAPE  C31816032   0.728   5.059   8.120  0.3350 -0.1616  0.3610
  145SAPE  H18X16033   0.621   5.041   8.143  0.5024 -1.1485  0.4272
  145SAPE  H18Y16034   0.795   4.971   8.114 -0.9352 -1.0976 -0.8535
  145SAPE  H18Z16035   0.732   5.113   8.023  0.8869  0.6309  0.8189
  146SAPE     N16036   0.351   4.104  10.611 -0.1365  0.4255 -0.2811
  146SAPE   HN116037   0.391   4.009  10.593 -0.7007 -0.3182  2.0787
  146SAPE   HN216038   0.313   4.140  10.521 -0.4417 -0.8250 -0.6801
  146SAPE   HN316039   0.439   4.152  10.638  0.9290 -2.9044  3.1679
  146SAPE   C1216040   0.234   4.124  10.709 -0.6426 -0.0743 -0.8662
  146SAPE  H12A16041   0.231   4.235  10.720  1.9970  0.0789 -1.0183
  146SAPE  H12B16042   0.269   4.082  10.805 -0.2812  1.5404 -0.2621
  146SAPE   C1116043   0.109   4.054  10.656 -0.6801  0.3080  0.3501
  146SAPE  H11A16044   0.082   4.109  10.563 -1.9295  0.9767  1.0891
  146SAPE  H11B16045   0.031   4.073  10.733  0.8962  0.1504  2.0594
  146SAPE     P16046   0.070   3.818  10.765 -0.0415 -0.1821 -0.1176
  146SAPE   O1316047   0.053   3.684  10.715  0.1511  0.5972  0.2814
  146SAPE   O1416048   0.161   3.847  10.875 -0.0745  0.1667 -0.2539
  146SAPE   O1216049   0.119   3.914  10.638 -0.0317  0.2850 -0.0432
  146SAPE   O1116050  -0.071   3.870  10.811  0.1888  0.1616 -0.0655
  146SAPE    C116051  -0.195   3.825  10.771  0.0690  0.6129  0.4433
  146SAPE    HA16052  -0.192   3.714  10.761 -1.0954  0.6007  0.1284
  146SAPE    HB16053  -0.259   3.842  10.859 -1.0988 -0.2871 -0.1948
  146SAPE    C216054  -0.272   3.892  10.651  0.5192  0.7732 -0.3633
  146SAPE    HS16055  -0.371   3.852  10.621  0.1633  1.4021 -0.0584
  146SAPE   O2116056  -0.183   3.888  10.537 -0.3009  0.2021 -0.0207
  146SAPE   C2116057  -0.183   3.766  10.482 -0.2042 -0.6380 -0.1398
  146SAPE   O2216058  -0.247   3.671  10.521 -0.1276 -0.5142  0.4512
  146SAPE   C2216059  -0.086   3.774  10.361  0.4167  0.4870 -0.0155
  146SAPE   H2R16060  -0.059   3.881  10.352  2.7987 -0.1668 -1.4034
  146SAPE   H2S16061   0.011   3.722  10.377 -0.8022 -2.9246 -2.4024
  146SAPE    C316062  -0.300   4.043  10.686 -0.3292  0.1946 -0.0455
  146SAPE    HX16063  -0.199   4.088  10.690 -1.1712  2.3590 -1.2829
  146SAPE    HY16064  -0.344   4.054  10.787 -0.4337  0.8726 -0.1598
  146SAPE   O3116065  -0.374   4.112  10.583 -0.2546  0.1666 -0.1021
  146SAPE   C3116066  -0.504   4.096  10.586  0.1676  0.2641  0.9694
  146SAPE   O3216067  -0.567   4.035  10.673 -0.3898  0.0494 -0.1759
  146SAPE   C3216068  -0.565   4.168  10.464  0.1944  0.6231  0.6863
  146SAPE   H2X16069  -0.510   4.265  10.464  0.7029  0.3397 -0.2537
  146SAPE   H2Y16070  -0.668   4.190  10.498  0.5524  1.0702  1.5346
  146SAPE   C2316071  -0.143   3.697  10.240  0.2655  0.3146  0.8717
  146SAPE   H3R16072  -0.163   3.590  10.262  0.4894 -0.1019 -0.8063
  146SAPE   H3S16073  -0.070   3.682  10.158 -1.1542  0.2463 -0.4263
  146SAPE   C2416074  -0.262   3.764  10.173  0.5219  0.2151 -1.0803
  146SAPE   H4R16075  -0.336   3.786  10.252 -0.3515 -0.1714 -1.7783
  146SAPE   H4S16076  -0.312   3.681  10.119  0.0616 -0.8943  0.9533
  146SAPE   C2516077  -0.223   3.882  10.084  0.2206  0.3969 -0.0530
  146SAPE   H5R16078  -0.182   3.974  10.128 -0.5015  0.6089  0.2054
  146SAPE   C2616079  -0.227   3.889   9.949 -0.3380  0.6920  0.0771
  146SAPE   H6R16080  -0.206   3.978   9.887 -2.0799 -0.1084 -1.7738
  146SAPE   C2716081  -0.262   3.779   9.856 -0.2716  0.6142 -0.2726
  146SAPE   H7R16082  -0.317   3.694   9.902 -2.0856  0.1911 -2.9208
  146SAPE   H7S16083  -0.165   3.734   9.828 -0.7744  0.5034 -1.9738
  146SAPE   C2816084  -0.343   3.817   9.738  0.2658  0.2782 -0.0382
  146SAPE   H8R16085  -0.450   3.821   9.765  0.8064 -1.0487  2.6734
  146SAPE   C2916086  -0.291   3.878   9.625  0.5828  0.3030  0.1594
  146SAPE   H9R16087  -0.355   3.924   9.548 -0.3774 -1.5062 -0.1717
  146SAPE  C21016088  -0.151   3.912   9.601 -0.0523 -0.0316  0.3419
  146SAPE  H10R16089  -0.129   3.879   9.497 -0.0095  1.8792 -0.2908
  146SAPE  H10S16090  -0.084   3.866   9.676 -0.2364 -0.3820  0.2927
  146SAPE  C21116091  -0.139   4.064   9.613 -0.4722 -0.6106  0.1329
  146SAPE  H11R16092  -0.122   4.108   9.712 -0.4439  3.1923 -1.3655
  146SAPE  C21216093  -0.145   4.151   9.511 -0.3135 -0.3665 -0.1693
  146SAPE  H12R16094  -0.120   4.254   9.538  2.8740 -0.8805 -0.6890
  146SAPE  C21316095  -0.176   4.130   9.366 -0.2363  0.7889 -0.0188
  146SAPE  H13R16096  -0.258   4.192   9.326 -1.6079  0.0819  1.5654
  146SAPE  H13S16097  -0.211   4.026   9.347  2.7363 -0.2328 -0.4145
  146SAPE  C21416098  -0.044   4.145   9.292  0.8481  0.2243 -0.5703
  146SAPE  H14R16099   0.037   4.081   9.327  0.5571  0.1343 -0.0402
  146SAPE  C21516100  -0.020   4.224   9.194  0.3570 -0.6123  0.1222
  146SAPE  H15R16101   0.072   4.204   9.136  0.2572 -3.6434  0.8376
  146SAPE  C21616102  -0.109   4.323   9.120  0.2228 -0.6796 -0.2252
  146SAPE  H16R16103  -0.047   4.400   9.069 -1.2379 -1.6019 -3.6734
  146SAPE  H16S16104  -0.156   4.370   9.209 -0.0563  0.3038 -0.8781
  146SAPE  C21716105  -0.214   4.261   9.022 -0.4836 -0.0218 -0.8069
  146SAPE  H17R16106  -0.282   4.339   8.980 -1.4528 -1.3521 -1.8304
  146SAPE  H17S16107  -0.277   4.191   9.081  1.6567 -1.1122  0.2721
  146SAPE  C21816108  -0.145   4.189   8.912 -0.5852  0.3079  0.2968
  146SAPE  H18R16109  -0.089   4.099   8.944  2.4151  1.7070 -0.6684
  146SAPE  H18S16110  -0.063   4.254   8.874  0.5879 -1.4176 -0.2795
  146SAPE  C21916111  -0.240   4.153   8.797 -0.6460  0.1932  0.0605
  146SAPE  H19R16112  -0.301   4.234   8.750  0.2196  0.7065 -0.1940
  146SAPE  H19S16113  -0.306   4.068   8.824 -1.3682  0.8217  0.3167
  146SAPE  C22016114  -0.150   4.109   8.684 -0.5032  0.2258 -0.4831
  146SAPE  H20R16115  -0.099   4.016   8.716 -0.2906 -0.1883 -1.9489
  146SAPE  H20S16116  -0.086   4.193   8.647 -0.6800  0.2115 -0.8203
  146SAPE  H20T16117  -0.217   4.083   8.600 -0.6098  0.3026 -0.4241
  146SAPE   C3316118  -0.543   4.107  10.326 -0.0449 -0.8497  0.3240
  146SAPE   H3X16119  -0.611   4.020  10.318  0.0263 -1.0690  1.8549
  146SAPE   H3Y16120  -0.435   4.085  10.312 -0.5832 -2.7234 -1.2413
  146SAPE   C3416121  -0.588   4.207  10.225  0.2344 -0.8667 -0.0821
  146SAPE   H4X16122  -0.525   4.299  10.238 -1.2371  0.1445  0.1264
  146SAPE   H4Y16123  -0.693   4.235  10.249  0.1674 -0.1512 -1.1402
  146SAPE   C3516124  -0.582   4.162  10.080 -0.0517  0.3365 -0.0908
  146SAPE   H5X16125  -0.605   4.056  10.058 -1.7963  1.3664 -4.1209
  146SAPE   H5Y16126  -0.476   4.181  10.050  0.7864 -0.5985  2.0704
  146SAPE   C3616127  -0.694   4.228   9.998 -0.1010 -0.8466  0.1088
  146SAPE   H6X16128  -0.688   4.339   9.996 -2.2331 -0.6382  1.5849
  146SAPE   H6Y16129  -0.785   4.193  10.052 -1.1121  0.9991 -0.3155
  146SAPE   C3716130  -0.701   4.179   9.850  0.2491 -0.2923  0.8066
  146SAPE   H7X16131  -0.790   4.228   9.804  0.8409 -0.6253 -0.7321
  146SAPE   H7Y16132  -0.718   4.070   9.843 -3.2808  0.1629  0.1471
  146SAPE   C3816133  -0.568   4.194   9.769 -0.5359  0.1628  0.1466
  146SAPE   H8X16134  -0.483   4.142   9.819  0.7632  0.9282 -1.1983
  146SAPE   H8Y16135  -0.545   4.302   9.762  1.9438 -0.4032 -3.8401
  146SAPE   C3916136  -0.582   4.128   9.633  0.1435 -0.1594 -0.0720
  146SAPE   H9X16137  -0.692   4.130   9.616  0.0877  0.6413  0.3548
  146SAPE   H9Y16138  -0.541   4.025   9.625 -1.4078 -0.7386 -1.1207
  146SAPE  C31016139  -0.530   4.212   9.519  0.1785 -0.1348 -0.6677
  146SAPE  H10X16140  -0.420   4.205   9.505  0.1404 -1.2132 -0.5277
  146SAPE  H10Y16141  -0.549   4.320   9.534 -1.0256 -0.6327  2.0252
  146SAPE  C31116142  -0.590   4.172   9.382 -0.2049 -0.3529 -0.1626
  146SAPE  H11X16143  -0.701   4.164   9.381 -0.1504 -1.3060 -1.0076
  146SAPE  H11Y16144  -0.561   4.067   9.358 -1.5033 -0.5069 -1.1957
  146SAPE  C31216145  -0.539   4.269   9.277  0.4561  0.0234  0.6989
  146SAPE  H12X16146  -0.431   4.292   9.290  0.6643  3.1651 -4.0244
  146SAPE  H12Y16147  -0.598   4.364   9.283  0.7490  0.3865 -1.3949
  146SAPE  C31316148  -0.567   4.201   9.138  0.7364 -0.1364 -0.3775
  146SAPE  H13X16149  -0.656   4.136   9.147  0.1697  0.2401 -2.5300
  146SAPE  H13Y16150  -0.482   4.132   9.119  1.3449 -0.2989  2.5200
  146SAPE  C31416151  -0.589   4.301   9.030  0.5731  0.8452  0.0510
  146SAPE  H14X16152  -0.496   4.361   9.022  0.9650 -0.0223 -2.5811
  146SAPE  H14Y16153  -0.673   4.357   9.077 -0.2171 -1.1682  1.1765
  146SAPE  C31516154  -0.635   4.241   8.902 -0.2895 -0.4534  0.3474
  146SAPE  H15X16155  -0.721   4.177   8.932  0.1758 -0.9716  0.5838
  146SAPE  H15Y16156  -0.555   4.174   8.864  0.2658  0.1257  0.4698
  146SAPE  C31616157  -0.686   4.332   8.798  0.5540  0.1685 -0.9111
  146SAPE  H16X16158  -0.620   4.421   8.789  1.9436 -0.3001  2.6996
  146SAPE  H16Y16159  -0.779   4.374   8.843  1.6678 -0.2692  2.0524
  146SAPE  C31716160  -0.723   4.258   8.670 -0.5515  0.1303  0.0860
  146SAPE  H17X16161  -0.637   4.222   8.609  1.2828  0.8899  2.0959
  146SAPE  H17Y16162  -0.759   4.339   8.604  2.3247  1.1140 -0.3853
  146SAPE  C31816163  -0.825   4.140   8.681  0.7495  0.8481 -0.0971
  146SAPE  H18X16164  -0.921   4.181   8.720  1.3702  2.6057 -0.2884
  146SAPE  H18Y16165  -0.794   4.066   8.758  0.2554 -0.5882 -1.2432
  146SAPE  H18Z16166  -0.829   4.089   8.583  1.2710 -0.7648  0.6845
  147SAPE     N16167   0.910   1.284  10.820  0.0823  0.1582 -0.1756
  147SAPE   HN116168   0.981   1.212  10.798 -0.4808 -0.0532 -1.3650
  147SAPE   HN216169   0.950   1.340  10.899 -1.8064 -0.1169  1.0431
  147SAPE   HN316170   0.818   1.241  10.841  0.6589 -0.3222  1.5884
  147SAPE   C1216171   0.891   1.364  10.693  0.3248  0.2443  0.0297
  147SAPE  H12A16172   0.885   1.291  10.609  0.3667  1.0253 -0.6616
  147SAPE  H12B16173   0.983   1.424  10.677  0.4455 -0.3039 -1.5536
  147SAPE   C1116174   0.756   1.445  10.713 -0.4974 -0.3701 -0.0056
  147SAPE  H11A16175   0.673   1.374  10.734 -0.4539 -0.5289 -0.3579
  147SAPE  H11B16176   0.728   1.511  10.627  0.4801  0.1252  0.0407
  147SAPE     P16177   0.664   1.602  10.899  0.0565  0.3567 -0.0060
  147SAPE   O1316178   0.588   1.499  10.975  0.1690 -0.6550 -0.2508
  147SAPE   O1416179   0.724   1.715  10.971 -1.0379  0.1204  0.2020
  147SAPE   O1216180   0.782   1.530  10.823 -0.0859  0.2442  0.0971
  147SAPE   O1116181   0.563   1.655  10.785 -0.1080  0.5190 -0.6329
  147SAPE    C116182   0.619   1.764  10.707 -0.3398  0.4527 -0.4744
  147SAPE    HA16183   0.620   1.856  10.769 -2.8471 -0.8273  1.6524
  147SAPE    HB16184   0.725   1.745  10.678 -0.2198 -0.0316  0.2601
  147SAPE    C216185   0.528   1.790  10.586  0.6083  0.5537 -0.0547
  147SAPE    HS16186   0.426   1.778  10.629 -0.0044 -0.1705 -1.6043
  147SAPE   O2116187   0.554   1.678  10.495  0.4334  0.0148  0.2875
  147SAPE   C2116188   0.453   1.629  10.429 -0.6650 -0.0969  0.0188
  147SAPE   O2216189   0.340   1.669  10.428  0.1017  0.0354  0.3917
  147SAPE   C2216190   0.506   1.509  10.357  0.0568 -0.0709  0.4644
  147SAPE   H2R16191   0.605   1.531  10.311 -0.1990  1.4677  0.5885
  147SAPE   H2S16192   0.529   1.434  10.435  1.4785  0.7460  0.8553
  147SAPE    C316193   0.536   1.935  10.525  0.1665 -0.4369  0.8691
  147SAPE    HX16194   0.642   1.955  10.497  0.5280 -2.0505  0.9420
  147SAPE    HY16195   0.512   1.996  10.615 -1.6393  0.4798 -0.1843
  147SAPE   O3116196   0.433   1.971  10.428 -0.2597 -0.4591  0.6204
  147SAPE   C3116197   0.478   1.952  10.303 -0.5494 -0.7351 -0.2125
  147SAPE   O3216198   0.595   1.920  10.273  0.0886 -0.5036  0.5818
  147SAPE   C3216199   0.366   1.984  10.206 -0.4538 -0.2722 -0.6007
  147SAPE   H2X16200   0.289   2.037  10.267  0.3185 -1.1438  1.2197
  147SAPE   H2Y16201   0.312   1.893  10.172  0.0829 -0.2914 -1.4240
  147SAPE   C2316202   0.401   1.469  10.250 -0.2214  1.0201  0.3401
  147SAPE   H3R16203   0.294   1.458  10.279 -0.5700 -3.0188 -1.7600
  147SAPE   H3S16204   0.437   1.372  10.210 -0.3811  1.1377 -0.0919
  147SAPE   C2416205   0.398   1.566  10.125 -0.0773  0.1717 -0.2327
  147SAPE   H4R16206   0.501   1.599  10.098 -0.0575  0.2009 -0.1209
  147SAPE   H4S16207   0.341   1.649  10.173 -1.4811 -0.5751 -0.5615
  147SAPE   C2516208   0.326   1.507  10.006 -0.1013  0.4192  0.4591
  147SAPE   H5R16209   0.231   1.453  10.013  1.3604 -2.4335 -0.3495
  147SAPE   C2616210   0.361   1.512   9.875  0.7323 -0.5747 -0.4394
  147SAPE   H6R16211   0.301   1.454   9.803 -1.2429 -0.9095  1.3626
  147SAPE   C2716212   0.488   1.577   9.816  0.2484  0.6707 -0.7451
  147SAPE   H7R16213   0.550   1.502   9.762  2.0463  0.2823  1.6581
  147SAPE   H7S16214   0.565   1.601   9.892 -0.3090 -0.6091  0.2559
  147SAPE   C2816215   0.462   1.698   9.735 -0.3451  0.8140  0.2317
  147SAPE   H8R16216   0.470   1.786   9.801 -2.8872  1.0993  0.2564
  147SAPE   C2916217   0.443   1.703   9.605  0.4706  0.5784 -0.4316
  147SAPE   H9R16218   0.440   1.802   9.558 -2.0873  0.7948  0.0598
  147SAPE  C21016219   0.440   1.589   9.505 -0.5456 -0.4035  0.3044
  147SAPE  H10R16220   0.334   1.576   9.473 -0.5230 -0.6559  0.3316
  147SAPE  H10S16221   0.463   1.493   9.555  0.2408 -0.8549 -0.8856
  147SAPE  C21116222   0.525   1.600   9.379  0.4192 -0.2199 -0.3226
  147SAPE  H11R16223   0.612   1.533   9.366  2.5804  1.9545  1.8561
  147SAPE  C21216224   0.498   1.682   9.274  0.0113 -0.1533 -0.4543
  147SAPE  H12R16225   0.579   1.702   9.203  0.1310  0.9841 -0.0350
  147SAPE  C21316226   0.378   1.773   9.257 -0.2481  0.2454  0.0400
  147SAPE  H13R16227   0.418   1.871   9.224 -1.7660  0.4746 -1.1920
  147SAPE  H13S16228   0.327   1.776   9.356  1.2996  1.9654  0.8442
  147SAPE  C21416229   0.285   1.705   9.155  0.7504  0.6214 -0.1230
  147SAPE  H14R16230   0.265   1.599   9.176 -0.1361  1.1108  1.7689
  147SAPE  C21516231   0.215   1.755   9.047  0.0511 -0.1741  0.1090
  147SAPE  H15R16232   0.154   1.680   8.994  0.4912 -0.6764  0.3091
  147SAPE  C21616233   0.223   1.898   9.003 -0.3984  0.0080  0.3543
  147SAPE  H16R16234   0.268   1.961   9.083 -0.3055  2.1345 -1.2868
  147SAPE  H16S16235   0.126   1.948   8.979 -1.2410 -2.6701 -2.5418
  147SAPE  C21716236   0.313   1.913   8.879  0.7020 -0.0603  0.3401
  147SAPE  H17R16237   0.271   1.855   8.794 -0.9801 -1.1163  1.8239
  147SAPE  H17S16238   0.410   1.865   8.904  0.3812 -1.2787 -0.6746
  147SAPE  C21816239   0.329   2.052   8.828 -0.2979 -0.7115  0.3271
  147SAPE  H18R16240   0.386   2.108   8.906  0.7546  0.1220 -0.9879
  147SAPE  H18S16241   0.233   2.108   8.821  0.2629  0.6775  2.6759
  147SAPE  C21916242   0.397   2.050   8.696 -1.3444 -0.3556 -0.6528
  147SAPE  H19R16243   0.399   2.155   8.660  1.7484 -0.2339 -0.3524
  147SAPE  H19S16244   0.342   1.997   8.615 -0.7566 -1.7277 -0.1912
  147SAPE  C22016245   0.545   2.002   8.702 -0.8672  0.9245 -0.2397
  147SAPE  H20R16246   0.551   1.892   8.714  1.8276  0.8139 -1.6429
  147SAPE  H20S16247   0.584   2.044   8.797 -1.5798 -1.2901  1.0848
  147SAPE  H20T16248   0.600   2.033   8.610 -0.9349  1.1554 -0.2044
  147SAPE   C3316249   0.408   2.082  10.084 -0.0630  0.3378  0.3951
  147SAPE   H3X16250   0.472   2.160  10.131  0.1732  0.3549  0.0472
  147SAPE   H3Y16251   0.315   2.118  10.036 -1.7353 -1.5968  1.9998
  147SAPE   C3416252   0.486   2.007   9.975 -0.3441  0.8783  0.0878
  147SAPE   H4X16253   0.426   1.919   9.942  1.4615  0.1366 -1.3687
  147SAPE   H4Y16254   0.568   1.944  10.017 -1.2415 -2.9354 -3.2097
  147SAPE   C3516255   0.547   2.089   9.868  0.4792 -0.6912 -0.5801
  147SAPE   H5X16256   0.594   2.012   9.803 -0.7897  0.4009 -2.8735
  147SAPE   H5Y16257   0.630   2.157   9.900  0.7669 -0.7555 -1.1748
  147SAPE   C3616258   0.455   2.163   9.780  0.0490 -0.1524  0.2452
  147SAPE   H6X16259   0.395   2.233   9.843 -1.9393 -0.9041 -0.7186
  147SAPE   H6Y16260   0.386   2.088   9.735  1.0781 -0.7436 -0.3853
  147SAPE   C3716261   0.523   2.248   9.662  0.3726  0.5950 -0.7741
  147SAPE   H7X16262   0.583   2.321   9.720 -0.7924 -0.0243  1.3192
  147SAPE   H7Y16263   0.441   2.301   9.610  0.4142 -0.8982 -2.4584
  147SAPE   C3816264   0.597   2.154   9.569  0.1477  0.8455 -0.6764
  147SAPE   H8X16265   0.547   2.055   9.570  1.9025 -0.1010 -1.2838
  147SAPE   H8Y16266   0.698   2.139   9.614 -0.0895 -0.2987 -0.4897
  147SAPE   C3916267   0.605   2.205   9.424 -0.0483 -0.8848 -0.7550
  147SAPE   H9X16268   0.696   2.159   9.381  0.7654 -0.5030  0.4925
  147SAPE   H9Y16269   0.610   2.316   9.427 -1.3871 -0.8174 -0.1562
  147SAPE  C31016270   0.487   2.159   9.339 -0.4409  0.2376  0.0574
  147SAPE  H10X16271   0.399   2.216   9.377  0.1854  1.4230 -0.2432
  147SAPE  H10Y16272   0.469   2.051   9.359  2.4870 -0.3105  0.1686
  147SAPE  C31116273   0.505   2.182   9.188 -0.3980 -0.0896  0.2852
  147SAPE  H11X16274   0.404   2.186   9.143 -0.1510 -0.8736 -0.3726
  147SAPE  H11Y16275   0.558   2.100   9.135  0.7986  0.4209  0.6510
  147SAPE  C31216276   0.578   2.306   9.136  0.6976  0.5798 -0.3938
  147SAPE  H12X16277   0.675   2.315   9.191  0.0721  1.9480  0.5517
  147SAPE  H12Y16278   0.513   2.396   9.140 -2.2472 -1.4389  2.3945
  147SAPE  C31316279   0.617   2.298   8.982 -0.9872 -0.2605 -0.4121
  147SAPE  H13X16280   0.531   2.255   8.926 -1.4114  1.2875 -0.9938
  147SAPE  H13Y16281   0.700   2.225   8.989 -1.1972 -0.3956  0.9246
  147SAPE  C31416282   0.667   2.425   8.908 -0.6343  0.3553 -0.1029
  147SAPE  H14X16283   0.776   2.440   8.924 -0.1746  0.2332 -2.7178
  147SAPE  H14Y16284   0.608   2.513   8.940  0.0550  1.2031 -1.0927
  147SAPE  C31516285   0.633   2.419   8.759  0.4393 -0.4276  0.1224
  147SAPE  H15X16286   0.524   2.400   8.746 -0.0919  3.4938 -3.0636
  147SAPE  H15Y16287   0.692   2.345   8.700  1.7671  0.8564 -0.2055
  147SAPE  C31616288   0.646   2.553   8.680  0.2557 -0.9754 -0.0004
  147SAPE  H16X16289   0.571   2.626   8.715  1.6424 -0.4659  2.0729
  147SAPE  H16Y16290   0.625   2.534   8.572 -1.4799  0.2265  0.0876
  147SAPE  C31716291   0.787   2.622   8.677  0.3388  0.4387  0.0165
  147SAPE  H17X16292   0.802   2.655   8.782 -2.2091  0.4329  0.4450
  147SAPE  H17Y16293   0.772   2.714   8.617 -1.7280 -0.2270 -0.5616
  147SAPE  C31816294   0.911   2.544   8.628 -0.1834  0.1939  0.9653
  147SAPE  H18X16295   0.999   2.612   8.623 -0.6953  0.8599  0.8589
  147SAPE  H18Y16296   0.886   2.508   8.526 -1.3954  0.9499  0.9740
  147SAPE  H18Z16297   0.934   2.461   8.699  1.5943  0.6592  0.9755
  148SAPE     N16298   4.856   3.071  10.521  0.0041 -0.0873  0.5424
  148SAPE   HN116299   4.862   2.982  10.573  0.6197  1.3752  3.1725
  148SAPE   HN216300   4.803   3.066  10.432  1.0514  0.2567 -0.1235
  148SAPE   HN316301   4.955   3.101  10.510 -0.5431  1.3230 -0.9482
  148SAPE   C1216302   4.790   3.173  10.605  0.2805  0.3953  0.1237
  148SAPE  H12A16303   4.827   3.164  10.710 -1.0346 -0.1313  0.5682
  148SAPE  H12B16304   4.685   3.142  10.620  0.3900  1.0526  2.9522
  148SAPE   C1116305   4.789   3.309  10.538 -0.2394  0.5995  0.2598
  148SAPE  H11A16306   4.889   3.346  10.509  0.5140 -1.1956  0.4387
  148SAPE  H11B16307   4.746   3.381  10.612  1.6013  1.1587  0.8408
  148SAPE     P16308   4.570   3.381  10.407 -0.0234  0.3165  0.0808
  148SAPE   O1316309   4.507   3.351  10.274 -0.5181 -0.3027 -0.3128
  148SAPE   O1416310   4.485   3.359  10.525  0.6766 -0.2533  0.4112
  148SAPE   O1216311   4.708   3.303  10.421 -0.2257  0.6773 -0.2799
  148SAPE   O1116312   4.625   3.531  10.409  0.6189 -0.2495 -0.3421
  148SAPE    C116313   4.737   3.560  10.330  0.9058  1.1383  0.3444
  148SAPE    HA16314   4.832   3.532  10.380  0.1912  1.7110  2.1091
  148SAPE    HB16315   4.726   3.513  10.230  3.2428 -1.0167  0.9844
  148SAPE    C216316   4.741   3.716  10.290  0.0636  0.6298  0.2146
  148SAPE    HS16317   4.755   3.772  10.386 -1.0876 -1.3220  1.5930
  148SAPE   O2116318   4.616   3.742  10.224 -0.3985 -0.2610 -0.3971
  148SAPE   C2116319   4.573   3.871  10.231 -0.1837 -0.0552 -0.3774
  148SAPE   O2216320   4.632   3.966  10.273 -0.1259 -0.2308  0.6008
  148SAPE   C2216321   4.439   3.886  10.165  0.0418  0.1316 -0.6279
  148SAPE   H2R16322   4.425   3.810  10.086  1.3797 -0.6771 -0.1293
  148SAPE   H2S16323   4.379   3.854  10.253  2.2203 -1.3874  0.4034
  148SAPE    C316324   4.864   3.758  10.203  0.3201 -1.0371  0.3174
  148SAPE    HX16325   4.956   3.767  10.264 -0.9149  1.3148  1.9800
  148SAPE    HY16326   4.853   3.865  10.176  2.3011 -1.0338 -0.6033
  148SAPE   O3116327   4.881   3.667  10.096 -0.9071  0.4563  0.2510
  148SAPE   C3116328   4.809   3.689   9.985  0.2335 -0.2561  0.6118
  148SAPE   O3216329   4.732   3.783   9.965 -0.6266 -0.0634  0.5573
  148SAPE   C3216330   4.845   3.590   9.873 -0.1370  0.0123  0.1585
  148SAPE   H2X16331   4.794   3.494   9.895 -0.3289 -0.0657 -0.6039
  148SAPE   H2Y16332   4.954   3.574   9.883 -0.5217 -2.4489  0.9722
  148SAPE   C2316333   4.418   4.023  10.102  0.0271 -0.7776  0.5411
  148SAPE   H3R16334   4.417   4.102  10.180 -0.8555  1.6269 -1.7413
  148SAPE   H3S16335   4.316   4.035  10.057 -0.0682 -0.1770  0.9005
  148SAPE   C2416336   4.528   4.053   9.997  0.0972  0.0965  0.2283
  148SAPE   H4R16337   4.632   4.031  10.032  1.7017  3.7446 -1.6426
  148SAPE   H4S16338   4.519   4.163   9.985 -0.2849  0.0079 -0.3142
  148SAPE   C2516339   4.510   3.987   9.863 -0.9847  0.1514  0.3549
  148SAPE   H5R16340   4.541   3.881   9.870 -0.5330  0.2506 -0.0706
  148SAPE   C2616341   4.500   4.052   9.744 -0.6156  0.1469  0.7589
  148SAPE   H6R16342   4.499   3.991   9.653 -2.4579 -0.8733  1.4143
  148SAPE   C2716343   4.503   4.205   9.734  0.1927  0.3417 -0.4516
  148SAPE   H7R16344   4.533   4.238   9.632 -0.2868  1.5125 -0.2286
  148SAPE   H7S16345   4.580   4.242   9.805 -0.0128 -2.8534  1.6065
  148SAPE   C2816346   4.375   4.268   9.779 -0.0541 -0.0550  0.6155
  148SAPE   H8R16347   4.348   4.245   9.883 -1.3688  0.9959  0.5313
  148SAPE   C2916348   4.294   4.335   9.693 -0.0832  0.6701 -0.0951
  148SAPE   H9R16349   4.196   4.365   9.732  0.2330  0.5651  0.8273
  148SAPE  C21016350   4.313   4.371   9.545  0.0445 -1.2747 -0.1225
  148SAPE  H10R16351   4.418   4.354   9.514  0.8945  4.0144 -1.0588
  148SAPE  H10S16352   4.327   4.481   9.544 -1.0436 -1.0404  2.4055
  148SAPE  C21116353   4.230   4.322   9.425 -0.3108 -0.4093 -0.1231
  148SAPE  H11R16354   4.126   4.300   9.453  0.1578 -1.5139  0.8543
  148SAPE  C21216355   4.269   4.320   9.293  0.3482 -0.5643  0.7692
  148SAPE  H12R16356   4.197   4.275   9.222 -0.2801 -1.9818  2.2421
  148SAPE  C21316357   4.406   4.358   9.237 -0.3270  0.7148 -0.3698
  148SAPE  H13R16358   4.452   4.441   9.296 -1.0526  1.0259 -0.2239
  148SAPE  H13S16359   4.380   4.406   9.140 -1.2458  0.5357 -0.2233
  148SAPE  C21416360   4.494   4.235   9.234  0.0588 -0.6927  0.3332
  148SAPE  H14R16361   4.546   4.214   9.329 -0.1334  1.2724  0.9030
  148SAPE  C21516362   4.524   4.164   9.125 -0.2093  0.4760  0.0143
  148SAPE  H15R16363   4.601   4.085   9.134  0.4704  0.8494 -2.0452
  148SAPE  C21616364   4.463   4.182   8.991 -0.0487 -0.3729  0.6455
  148SAPE  H16R16365   4.535   4.186   8.907  0.7596  1.4603  1.3519
  148SAPE  H16S16366   4.406   4.278   8.986 -0.6778 -0.6271  2.2142
  148SAPE  C21716367   4.360   4.073   8.950  0.2869 -0.1603  0.4820
  148SAPE  H17R16368   4.325   4.099   8.848  0.3756  0.0123  0.4958
  148SAPE  H17S16369   4.270   4.062   9.015 -0.4529 -0.9553 -0.6424
  148SAPE  C21816370   4.431   3.937   8.937 -0.1901 -0.2315 -0.0847
  148SAPE  H18R16371   4.440   3.897   9.041 -2.7923  1.8087  1.0489
  148SAPE  H18S16372   4.532   3.948   8.892  0.6852 -3.5997  0.7858
  148SAPE  C21916373   4.354   3.837   8.848  0.1445  0.0905 -0.4601
  148SAPE  H19R16374   4.264   3.819   8.911  0.3804  0.4148 -0.0294
  148SAPE  H19S16375   4.398   3.735   8.853  0.6049  0.3164  0.2323
  148SAPE  C22016376   4.303   3.876   8.710 -0.1589  0.0208  0.7175
  148SAPE  H20R16377   4.233   3.962   8.717 -0.1076 -0.0120  1.8705
  148SAPE  H20S16378   4.248   3.792   8.663 -1.1355  0.2640  1.3970
  148SAPE  H20T16379   4.388   3.895   8.641 -0.1949 -1.4338  0.2415
  148SAPE   C3316380   4.821   3.640   9.731 -0.1608 -0.3404 -0.9157
  148SAPE   H3X16381   4.883   3.731   9.715  0.8366 -0.7818  0.2200
  148SAPE   H3Y16382   4.714   3.668   9.730  0.1208  0.8390 -2.6203
  148SAPE   C3416383   4.842   3.539   9.622  0.0439 -0.0686 -0.0589
  148SAPE   H4X16384   4.756   3.471   9.643  0.4449 -2.1547 -4.1879
  148SAPE   H4Y16385   4.943   3.494   9.637  0.3394  0.6765  0.2100
  148SAPE   C3516386   4.823   3.587   9.483  0.2143  0.6584  0.3211
  148SAPE   H5X16387   4.906   3.656   9.454  0.8080 -0.2617 -0.2133
  148SAPE   H5Y16388   4.734   3.653   9.479  1.1136  2.0477  1.9372
  148SAPE   C3616389   4.816   3.463   9.394  0.1699  0.1111 -0.4928
  148SAPE   H6X16390   4.711   3.429   9.394 -0.2748  1.3714 -2.4597
  148SAPE   H6Y16391   4.883   3.390   9.445 -0.1985  0.1329  0.0288
  148SAPE   C3716392   4.849   3.491   9.249 -0.5845 -0.2286  0.0896
  148SAPE   H7X16393   4.950   3.537   9.240 -0.2604 -1.3191 -3.4159
  148SAPE   H7Y16394   4.770   3.559   9.211  0.3095  0.3049 -0.8866
  148SAPE   C3816395   4.843   3.365   9.164 -0.4738 -0.6271 -0.4730
  148SAPE   H8X16396   4.747   3.311   9.173 -1.2442  0.5496 -1.3935
  148SAPE   H8Y16397   4.920   3.296   9.206 -0.3344  0.9405  2.1103
  148SAPE   C3916398   4.862   3.402   9.011 -0.3535  0.0072 -0.1597
  148SAPE   H9X16399   4.873   3.307   8.956 -1.3652 -1.7540  2.4780
  148SAPE   H9Y16400   4.961   3.450   8.996  1.5115 -2.5700  2.6396
  148SAPE  C31016401   4.744   3.484   8.948  0.8066  0.3017 -0.4360
  148SAPE  H10X16402   4.741   3.582   9.000  2.2603 -0.1270  0.5279
  148SAPE  H10Y16403   4.658   3.421   8.978  1.8545 -0.3310  1.4307
  148SAPE  C31116404   4.763   3.517   8.806  0.1444  0.5909  0.0618
  148SAPE  H11X16405   4.764   3.427   8.741 -1.9626 -0.1175  0.9342
  148SAPE  H11Y16406   4.851   3.583   8.790  0.5390  1.1652  3.7638
  148SAPE  C31216407   4.639   3.597   8.767 -0.8386 -0.3166 -0.1470
  148SAPE  H12X16408   4.637   3.683   8.838 -1.5358 -0.4072 -0.0496
  148SAPE  H12Y16409   4.546   3.539   8.778 -0.3204 -1.1240  0.0936
  148SAPE  C31316410   4.644   3.654   8.622 -0.5220 -0.6161  0.0117
  148SAPE  H13X16411   4.730   3.724   8.626 -0.5031 -0.5974 -0.5441
  148SAPE  H13Y16412   4.552   3.716   8.609 -0.2834 -0.3963 -0.6739
  148SAPE  C31416413   4.657   3.548   8.516 -0.6524 -0.2263 -0.0690
  148SAPE  H14X16414   4.741   3.483   8.546 -0.2614  0.4749  0.3823
  148SAPE  H14Y16415   4.683   3.607   8.426 -0.4850  2.7177  1.7661
  148SAPE  C31516416   4.525   3.472   8.491 -0.8001  0.5731 -0.3929
  148SAPE  H15X16417   4.488   3.440   8.591 -3.0077  1.0383 -1.0003
  148SAPE  H15Y16418   4.552   3.386   8.427 -3.1190  1.0707 -2.1741
  148SAPE  C31616419   4.422   3.558   8.418  0.4195  0.1843 -0.0293
  148SAPE  H16X16420   4.467   3.592   8.322  1.5931  2.7150  1.3231
  148SAPE  H16Y16421   4.381   3.643   8.477 -0.8933 -1.2870  1.2776
  148SAPE  C31716422   4.291   3.477   8.406  0.7407  0.4533  0.1523
  148SAPE  H17X16423   4.256   3.432   8.501  1.5317  1.1132  0.7697
  148SAPE  H17Y16424   4.304   3.389   8.340  0.4992  0.5139  0.0241
  148SAPE  C31816425   4.178   3.566   8.355 -0.0635  0.1287  0.4960
  148SAPE  H18X16426   4.204   3.596   8.251  0.8671 -2.1436 -0.0004
  148SAPE  H18Y16427   4.166   3.658   8.416 -0.5180 -0.8177  1.8692
  148SAPE  H18Z16428   4.076   3.522   8.357 -0.0999  0.2119  0.4575
  149SAPE     N16429   3.426   5.062  11.088  0.4744  0.1927  0.0605
  149SAPE   HN116430   3.384   4.978  11.133  1.3650 -0.2875  0.0287
  149SAPE   HN216431   3.524   5.029  11.081 -0.0921 -1.5232 -0.2457
  149SAPE   HN316432   3.404   5.140  11.153 -0.6965  0.2951 -0.4419
  149SAPE   C1216433   3.365   5.090  10.951  0.2943 -0.0366 -0.7673
  149SAPE  H12A16434   3.255   5.078  10.955  0.0836  1.5629  3.4157
  149SAPE  H12B16435   3.416   5.017  10.884  0.3883 -1.3074  0.6317
  149SAPE   C1116436   3.392   5.236  10.925 -0.2233 -1.1713  0.6269
  149SAPE  H11A16437   3.381   5.267  10.819 -1.3471 -0.6805  0.8682
  149SAPE  H11B16438   3.500   5.255  10.944  0.1114 -0.1044 -1.9897
  149SAPE     P16439   3.286   5.468  10.999  0.0560 -0.2124  0.2580
  149SAPE   O1316440   3.148   5.496  10.961 -0.2883  0.2106 -0.1544
  149SAPE   O1416441   3.333   5.529  11.123 -0.1594 -0.8216 -0.2718
  149SAPE   O1216442   3.300   5.308  11.005 -0.6128 -0.3255  0.1691
  149SAPE   O1116443   3.377   5.526  10.888  0.2406  0.7112  0.3691
  149SAPE    C116444   3.360   5.668  10.848  0.7761  0.1508 -0.0699
  149SAPE    HA16445   3.254   5.702  10.848  0.4305 -0.8621  1.0054
  149SAPE    HB16446   3.423   5.727  10.917  1.6649 -2.0945  1.1444
  149SAPE    C216447   3.402   5.702  10.700 -0.5015 -0.1799  0.1882
  149SAPE    HS16448   3.420   5.812  10.709  0.7012 -0.3724  0.2707
  149SAPE   O2116449   3.303   5.656  10.608  0.6109  0.1678 -0.5291
  149SAPE   C2116450   3.218   5.752  10.569 -0.3055  0.3684  0.8513
  149SAPE   O2216451   3.225   5.870  10.596  0.6161 -0.0492 -1.4780
  149SAPE   C2216452   3.106   5.690  10.486 -0.3185  0.3620  0.2565
  149SAPE   H2R16453   3.146   5.615  10.414 -0.2946  0.5848  0.0376
  149SAPE   H2S16454   3.036   5.651  10.563 -0.9785 -0.6341 -0.8213
  149SAPE    C316455   3.553   5.651  10.663  0.4569  0.2288  0.1054
  149SAPE    HX16456   3.552   5.541  10.681 -3.2083  0.0775 -0.1535
  149SAPE    HY16457   3.622   5.697  10.736  1.6691 -2.4533  0.7714
  149SAPE   O3116458   3.582   5.683  10.522 -0.5222 -0.1532 -0.0636
  149SAPE   C3116459   3.712   5.651  10.504  0.8884  0.0928 -0.4398
  149SAPE   O3216460   3.788   5.595  10.582 -0.3598  0.4923 -0.5106
  149SAPE   C3216461   3.746   5.691  10.358 -0.2686  0.6040 -0.3163
  149SAPE   H2X16462   3.741   5.801  10.340 -0.2774  0.7282  0.4081
  149SAPE   H2Y16463   3.676   5.658  10.279 -0.8376  1.0117  0.0115
  149SAPE   C2316464   3.016   5.788  10.411  0.4443 -0.6570 -0.2307
  149SAPE   H3R16465   2.993   5.874  10.477 -0.2837  0.6767 -2.1521
  149SAPE   H3S16466   2.920   5.741  10.380 -1.5642  3.0168 -0.0537
  149SAPE   C2416467   3.076   5.845  10.279  0.2010 -0.4314  1.2702
  149SAPE   H4R16468   3.004   5.919  10.239 -0.8478 -1.3299  1.4486
  149SAPE   H4S16469   3.083   5.768  10.199 -1.2992  0.6396  0.0465
  149SAPE   C2516470   3.208   5.918  10.294  0.2878  0.1881  0.0666
  149SAPE   H5R16471   3.210   5.999  10.369  0.1959  0.3143 -0.0663
  149SAPE   C2616472   3.324   5.902  10.230  0.4061 -0.1114 -0.2090
  149SAPE   H6R16473   3.409   5.966  10.256  0.2331  0.6542 -1.4517
  149SAPE   C2716474   3.360   5.807  10.120 -0.5053  0.4318  0.0776
  149SAPE   H7R16475   3.335   5.705  10.156  0.9252  1.0256  3.0590
  149SAPE   H7S16476   3.470   5.806  10.129 -0.6177 -1.1693  1.6989
  149SAPE   C2816477   3.297   5.832   9.987  0.1954 -0.7746  0.6848
  149SAPE   H8R16478   3.188   5.849   9.987  0.3544  0.4145 -0.6852
  149SAPE   C2916479   3.361   5.825   9.873 -0.2563  0.2896 -0.5011
  149SAPE   H9R16480   3.309   5.842   9.777  1.0208  0.3440 -1.2170
  149SAPE  C21016481   3.506   5.790   9.854 -1.1405 -0.1678 -0.0272
  149SAPE  H10R16482   3.502   5.687   9.814  0.2455  0.0434 -0.7513
  149SAPE  H10S16483   3.567   5.788   9.946  0.2035  0.6197 -0.8722
  149SAPE  C21116484   3.576   5.872   9.747  0.0928 -0.4081  0.2628
  149SAPE  H11R16485   3.623   5.969   9.771  2.9323 -1.4491 -0.6523
  149SAPE  C21216486   3.593   5.839   9.613 -0.3517 -0.2269 -0.4106
  149SAPE  H12R16487   3.636   5.908   9.538  0.2071  1.3752  1.2947
  149SAPE  C21316488   3.544   5.709   9.546 -0.1953 -0.6597 -0.2336
  149SAPE  H13R16489   3.517   5.632   9.621  0.2038  1.0902  1.8085
  149SAPE  H13S16490   3.620   5.655   9.487 -0.4032 -0.4283 -0.7220
  149SAPE  C21416491   3.416   5.757   9.468 -0.3855 -0.3876 -0.7393
  149SAPE  H14R16492   3.337   5.772   9.543  0.6694 -0.9439  0.5293
  149SAPE  C21516493   3.402   5.781   9.341 -0.1517 -0.2815  0.3171
  149SAPE  H15R16494   3.303   5.810   9.302  1.3841  0.0751 -3.8214
  149SAPE  C21616495   3.517   5.779   9.244 -0.6608  0.1613  0.3577
  149SAPE  H16R16496   3.485   5.748   9.142  1.2312 -1.4494  0.1998
  149SAPE  H16S16497   3.587   5.702   9.282  0.9159  0.8991 -0.9558
  149SAPE  C21716498   3.592   5.906   9.243 -0.2673  0.0701  0.2392
  149SAPE  H17R16499   3.639   5.935   9.340 -0.4478  1.4820 -0.0703
  149SAPE  H17S16500   3.523   5.988   9.215  2.3879  1.6430 -2.2915
  149SAPE  C21816501   3.699   5.904   9.128 -0.2130  0.3253 -0.7741
  149SAPE  H18R16502   3.643   5.855   9.045 -0.2059 -0.4579 -0.3261
  149SAPE  H18S16503   3.780   5.834   9.156 -0.9743 -0.8342 -1.3676
  149SAPE  C21916504   3.754   6.036   9.085  0.1963 -0.0310  0.1290
  149SAPE  H19R16505   3.664   6.095   9.059 -1.7515 -2.6039  0.5482
  149SAPE  H19S16506   3.830   6.022   9.005  1.8965 -1.9194  1.9481
  149SAPE  C22016507   3.818   6.110   9.201 -0.2799 -0.2490 -0.2298
  149SAPE  H20R16508   3.753   6.171   9.267 -1.5175 -0.3986 -1.2843
  149SAPE  H20S16509   3.898   6.176   9.161 -0.8657  0.0819 -0.8909
  149SAPE  H20T16510   3.872   6.037   9.264  1.4671 -0.1011 -1.4756
  149SAPE   C3316511   3.891   5.641  10.341  0.6677 -0.0474 -0.7987
  149SAPE   H3X16512   3.909   5.532  10.332  1.2227  0.0089 -0.4248
  149SAPE   H3Y16513   3.951   5.683  10.425 -0.1428 -0.1741 -0.1493
  149SAPE   C3416514   3.963   5.694  10.220 -0.0554 -0.3802  0.3521
  149SAPE   H4X16515   4.066   5.653  10.228 -0.5062 -1.5716  0.3060
  149SAPE   H4Y16516   3.958   5.803  10.237 -1.3878 -0.6573  2.1534
  149SAPE   C3516517   3.892   5.663  10.089  0.0891  0.7969 -0.3351
  149SAPE   H5X16518   3.962   5.710  10.017  1.7756 -0.5873  0.3265
  149SAPE   H5Y16519   3.790   5.708  10.093 -0.2525  0.6353 -4.1113
  149SAPE   C3616520   3.874   5.516  10.048  1.1640 -0.5364  0.4274
  149SAPE   H6X16521   3.804   5.473  10.123  0.3864  0.4387  0.2737
  149SAPE   H6Y16522   3.973   5.467  10.063  1.1200 -0.5513  0.6731
  149SAPE   C3716523   3.813   5.492   9.912 -0.7777 -1.0469 -0.5192
  149SAPE   H7X16524   3.709   5.532   9.909 -0.1289  0.8714  0.6556
  149SAPE   H7Y16525   3.822   5.383   9.895  0.0546 -1.1121  0.2527
  149SAPE   C3816526   3.893   5.566   9.801  0.0969 -0.1509 -0.1006
  149SAPE   H8X16527   4.003   5.548   9.796  0.1590  0.2428 -0.1704
  149SAPE   H8Y16528   3.883   5.676   9.814 -1.6681 -0.4605  1.5223
  149SAPE   C3916529   3.846   5.527   9.658 -0.2935 -0.0827 -0.0652
  149SAPE   H9X16530   3.742   5.566   9.654  0.1796  1.4007  1.2207
  149SAPE   H9Y16531   3.857   5.417   9.641  0.4482  0.1015 -0.8152
  149SAPE  C31016532   3.923   5.605   9.548 -0.2390  0.3097 -0.1374
  149SAPE  H10X16533   4.029   5.624   9.574 -0.3695 -0.1202  0.7537
  149SAPE  H10Y16534   3.873   5.705   9.550 -1.6723 -0.3925  1.1854
  149SAPE  C31116535   3.920   5.542   9.408 -0.2409  0.8278  0.0438
  149SAPE  H11X16536   3.812   5.535   9.382  0.1366 -2.1274 -1.1500
  149SAPE  H11Y16537   3.957   5.438   9.416 -2.1402 -0.0688 -1.8798
  149SAPE  C31216538   4.004   5.626   9.304 -0.2162  0.0049 -0.7364
  149SAPE  H12X16539   4.114   5.618   9.315 -0.0438  0.1914 -2.1417
  149SAPE  H12Y16540   3.969   5.731   9.320  0.7537  0.8459 -3.5396
  149SAPE  C31316541   3.971   5.599   9.156  0.2548  0.4698 -0.2001
  149SAPE  H13X16542   3.861   5.600   9.170  0.3409  0.2107  0.5498
  149SAPE  H13Y16543   3.992   5.492   9.133  1.5927  0.3625  1.3025
  149SAPE  C31416544   4.014   5.699   9.049 -0.6153 -0.1617 -0.3605
  149SAPE  H14X16545   4.124   5.697   9.037 -0.3335 -0.0705  1.7754
  149SAPE  H14Y16546   3.991   5.801   9.087  1.2592  0.0647  0.2491
  149SAPE  C31516547   3.955   5.683   8.903  0.2708  0.2635  0.2835
  149SAPE  H15X16548   4.003   5.766   8.847  2.1900 -0.2766  1.0381
  149SAPE  H15Y16549   3.848   5.706   8.920  0.2051  0.6889 -0.6074
  149SAPE  C31616550   3.967   5.543   8.849 -0.5509 -0.7719  0.6883
  149SAPE  H16X16551   3.913   5.464   8.905  1.8591 -3.1363 -0.1093
  149SAPE  H16Y16552   4.075   5.520   8.861 -0.6697 -0.5110  2.6472
  149SAPE  C31716553   3.917   5.526   8.701 -0.1061  0.7544  0.0810
  149SAPE  H17X16554   3.961   5.600   8.631  2.9441 -0.4795  0.5480
  149SAPE  H17Y16555   3.807   5.545   8.697 -0.0609  1.0193  0.1337
  149SAPE  C31816556   3.941   5.387   8.632 -0.0087 -0.0330  0.6141
  149SAPE  H18X16557   3.934   5.313   8.715  2.9739 -0.2154  0.8012
  149SAPE  H18Y16558   4.048   5.387   8.602  0.6448  0.6812  2.8120
  149SAPE  H18Z16559   3.865   5.366   8.554 -0.1528  3.5879 -0.3527
  150SAPE     N16560   2.150   3.086  10.703  0.4177  0.0565 -0.2184
  150SAPE   HN116561   2.113   3.012  10.765  1.3883  0.5933  1.0696
  150SAPE   HN216562   2.230   3.035  10.661  0.6472 -2.3160  2.7906
  150SAPE   HN316563   2.189   3.166  10.757 -0.7950  1.8766 -1.8937
  150SAPE   C1216564   2.055   3.146  10.596 -0.7591  0.0868 -0.5587
  150SAPE  H12A16565   2.057   3.072  10.514  0.3680 -0.2681 -0.2267
  150SAPE  H12B16566   2.089   3.245  10.560 -1.0080 -0.0542 -1.1848
  150SAPE   C1116567   1.916   3.167  10.640  0.6944 -0.8087 -0.4709
  150SAPE  H11A16568   1.860   3.071  10.631 -1.1280  0.0159  1.2345
  150SAPE  H11B16569   1.857   3.230  10.570 -1.7705  0.2006  2.2880
  150SAPE     P16570   1.891   3.372  10.795  0.0838 -0.1417  0.4138
  150SAPE   O1316571   1.769   3.422  10.732 -0.4391 -0.4122  0.0771
  150SAPE   O1416572   1.897   3.382  10.944 -0.1806 -0.1669 -0.1805
  150SAPE   O1216573   1.902   3.221  10.767  0.3090  0.2863  0.5922
  150SAPE   O1116574   2.022   3.441  10.736 -0.1793 -0.1910  0.4258
  150SAPE    C116575   2.057   3.577  10.758 -0.0143 -0.1364  0.5041
  150SAPE    HA16576   1.971   3.634  10.800 -0.7247 -0.4018 -0.5384
  150SAPE    HB16577   2.125   3.587  10.845 -2.7600 -2.2678  3.1132
  150SAPE    C216578   2.104   3.626  10.625 -0.2419 -0.5583  0.6338
  150SAPE    HS16579   2.162   3.717  10.652  0.0713 -0.0753 -1.4766
  150SAPE   O2116580   2.001   3.642  10.526 -0.2699  0.7279  0.3922
  150SAPE   C2116581   1.941   3.763  10.524  0.6949 -0.4401 -0.2282
  150SAPE   O2216582   1.965   3.854  10.598  0.5430  0.3254 -0.3538
  150SAPE   C2216583   1.812   3.759  10.430  0.3856  0.1789 -1.0166
  150SAPE   H2R16584   1.846   3.701  10.341  1.6014 -0.8232  0.0591
  150SAPE   H2S16585   1.743   3.690  10.482 -2.2063  1.3057 -2.7720
  150SAPE    C316586   2.211   3.526  10.562  0.1335 -0.2429  0.3225
  150SAPE    HX16587   2.157   3.431  10.544  0.6751 -0.3859 -0.6055
  150SAPE    HY16588   2.286   3.488  10.634  1.3494 -0.1573 -0.8614
  150SAPE   O3116589   2.273   3.571  10.443  0.1376 -0.3159  0.2749
  150SAPE   C3116590   2.365   3.664  10.462  0.0083  0.5582 -0.8006
  150SAPE   O3216591   2.393   3.711  10.570 -0.0602  0.4280  0.1732
  150SAPE   C3216592   2.426   3.706  10.322  0.7555  0.7529 -0.3899
  150SAPE   H2X16593   2.339   3.739  10.261  0.3282 -0.6481 -0.5679
  150SAPE   H2Y16594   2.465   3.612  10.278  2.5116  1.5109 -0.5408
  150SAPE   C2316595   1.765   3.896  10.382 -1.1340 -0.0678 -0.4815
  150SAPE   H3R16596   1.849   3.968  10.369  0.6282 -2.1302 -1.1349
  150SAPE   H3S16597   1.696   3.949  10.452 -0.6726  0.2995 -0.3003
  150SAPE   C2416598   1.678   3.890  10.250 -0.0879  0.1178  0.5407
  150SAPE   H4R16599   1.750   3.858  10.171 -0.6491 -1.6425  0.7022
  150SAPE   H4S16600   1.652   3.997  10.239 -0.9670 -0.1818 -0.5149
  150SAPE   C2516601   1.565   3.801  10.254  0.6809 -0.5609  0.2200
  150SAPE   H5R16602   1.489   3.831  10.327  0.9921 -0.3120  0.4425
  150SAPE   C2616603   1.534   3.699  10.176  0.0594  0.1141 -0.1729
  150SAPE   H6R16604   1.444   3.640  10.200  0.2780 -0.2936 -0.3548
  150SAPE   C2716605   1.611   3.653  10.053  0.2827 -0.0352  0.3165
  150SAPE   H7R16606   1.619   3.543  10.053 -0.4673 -0.1058  1.1833
  150SAPE   H7S16607   1.714   3.687  10.073  0.1084  0.7613 -0.0803
  150SAPE   C2816608   1.572   3.716   9.915  0.0913 -0.4964  0.7171
  150SAPE   H8R16609   1.497   3.796   9.930  1.1592  0.8128 -0.6648
  150SAPE   C2916610   1.618   3.690   9.790 -0.1054 -0.8118 -0.6294
  150SAPE   H9R16611   1.577   3.759   9.715 -2.2271 -2.4153 -1.0329
  150SAPE  C21016612   1.719   3.587   9.762  0.2292  0.2275 -0.3787
  150SAPE  H10R16613   1.736   3.525   9.853  0.8320  1.0250  0.0634
  150SAPE  H10S16614   1.811   3.627   9.714  1.6198 -2.3122 -0.0376
  150SAPE  C21116615   1.661   3.491   9.661 -0.4956 -0.0929 -0.2436
  150SAPE  H11R16616   1.634   3.389   9.694 -0.5663  0.3197  1.0045
  150SAPE  C21216617   1.637   3.515   9.528  0.2331 -0.0524 -0.4461
  150SAPE  H12R16618   1.584   3.435   9.474 -0.0197  0.2078 -0.5850
  150SAPE  C21316619   1.660   3.635   9.443 -0.3764 -0.4902 -0.1146
  150SAPE  H13R16620   1.690   3.721   9.507 -2.4602  1.3164 -1.4561
  150SAPE  H13S16621   1.563   3.657   9.394 -0.2742 -0.4915 -0.3185
  150SAPE  C21416622   1.761   3.598   9.334 -0.4890 -0.4590  1.0379
  150SAPE  H14R16623   1.854   3.550   9.367  0.2743 -0.0019 -0.3541
  150SAPE  C21516624   1.745   3.596   9.199 -0.6345 -0.8096 -0.1331
  150SAPE  H15R16625   1.830   3.549   9.146  1.1900 -0.2367  2.1002
  150SAPE  C21616626   1.622   3.644   9.119  0.2257  0.1262  0.1555
  150SAPE  H16R16627   1.548   3.706   9.174 -1.6531 -0.4548 -1.6229
  150SAPE  H16S16628   1.569   3.554   9.082  1.4789 -0.8006  0.5593
  150SAPE  C21716629   1.680   3.732   9.003 -0.2124  0.2674 -0.2658
  150SAPE  H17R16630   1.744   3.814   9.043  0.9811 -1.4049  1.4225
  150SAPE  H17S16631   1.600   3.792   8.955  0.5282  1.6031  0.1358
  150SAPE  C21816632   1.741   3.665   8.878  0.1302  0.3896  0.0492
  150SAPE  H18R16633   1.670   3.583   8.856  1.6560 -1.4925  1.6659
  150SAPE  H18S16634   1.832   3.609   8.909  0.9102  1.4383 -0.2617
  150SAPE  C21916635   1.783   3.747   8.763  0.4612  0.4166  0.7782
  150SAPE  H19R16636   1.693   3.784   8.710  0.7414  0.5482  0.3941
  150SAPE  H19S16637   1.841   3.686   8.692 -2.9478 -0.4043 -1.5422
  150SAPE  C22016638   1.857   3.878   8.791 -0.2029  0.5124  0.0092
  150SAPE  H20R16639   1.937   3.873   8.867 -1.1482 -0.7715  0.9638
  150SAPE  H20S16640   1.795   3.947   8.853  1.7709 -0.8533  3.8298
  150SAPE  H20T16641   1.890   3.920   8.693  0.9055 -0.9861 -0.3014
  150SAPE   C3316642   2.551   3.792  10.327 -0.2005  0.5373  0.0456
  150SAPE   H3X16643   2.593   3.802  10.429  0.0071  4.7076 -0.2823
  150SAPE   H3Y16644   2.528   3.898  10.305 -0.0721  1.0351  2.1029
  150SAPE   C3416645   2.662   3.745  10.235 -0.3853 -0.2185  0.4844
  150SAPE   H4X16646   2.745   3.817  10.218  1.7469 -2.8988 -1.4011
  150SAPE   H4Y16647   2.617   3.730  10.135  0.7243 -1.2500  0.1130
  150SAPE   C3516648   2.732   3.616  10.285  0.3643  0.2377  0.1552
  150SAPE   H5X16649   2.664   3.534  10.318 -0.0833  1.4447  2.3960
  150SAPE   H5Y16650   2.788   3.642  10.377 -0.7976 -0.8526  1.2162
  150SAPE   C3616651   2.824   3.553  10.183  0.5611  0.2456 -0.9732
  150SAPE   H6X16652   2.759   3.504  10.107  3.1844 -0.9501 -2.5856
  150SAPE   H6Y16653   2.885   3.471  10.227 -0.6129 -1.4241 -2.3102
  150SAPE   C3716654   2.925   3.642  10.104  0.2349  1.0938  0.4014
  150SAPE   H7X16655   2.997   3.700  10.165  2.1679  2.1509 -2.6333
  150SAPE   H7Y16656   2.877   3.717  10.037  0.1075  0.3155 -0.4021
  150SAPE   C3816657   3.013   3.550  10.020 -0.3290 -0.5233  0.0035
  150SAPE   H8X16658   2.948   3.464   9.993 -0.6629 -0.3358  0.2072
  150SAPE   H8Y16659   3.100   3.509  10.074 -0.3526 -0.5843 -0.0048
  150SAPE   C3916660   3.072   3.614   9.893 -0.4591  0.2213  0.1246
  150SAPE   H9X16661   3.098   3.720   9.914 -3.0634  1.0807 -0.6148
  150SAPE   H9Y16662   2.990   3.612   9.817  1.9779 -0.1107 -2.6975
  150SAPE  C31016663   3.203   3.542   9.836 -0.4300 -0.0823  0.1514
  150SAPE  H10X16664   3.181   3.434   9.830 -0.7134 -0.0881  1.1013
  150SAPE  H10Y16665   3.284   3.552   9.912  0.1483  3.3477 -0.7300
  150SAPE  C31116666   3.254   3.595   9.706 -0.3283 -0.2538  0.4911
  150SAPE  H11X16667   3.301   3.695   9.714  0.7938 -0.5906 -1.3006
  150SAPE  H11Y16668   3.177   3.602   9.626  2.5005  1.0905 -2.2989
  150SAPE  C31216669   3.376   3.508   9.665 -0.0091  0.7148  0.0227
  150SAPE  H12X16670   3.351   3.408   9.623  0.3982  0.6607 -0.0875
  150SAPE  H12Y16671   3.446   3.503   9.751 -0.5406  3.3219  0.7017
  150SAPE  C31316672   3.452   3.576   9.551  0.1021 -0.0905  0.2600
  150SAPE  H13X16673   3.550   3.524   9.548 -0.3540 -0.9263 -0.9061
  150SAPE  H13Y16674   3.474   3.684   9.565  1.2413 -0.2983  0.1912
  150SAPE  C31416675   3.391   3.542   9.409 -0.4742  0.5795 -0.1253
  150SAPE  H14X16676   3.299   3.598   9.384 -0.5725 -0.1169 -1.4377
  150SAPE  H14Y16677   3.357   3.437   9.392 -2.7598  1.0581  1.0875
  150SAPE  C31516678   3.492   3.575   9.300 -0.3092  0.0233  0.3583
  150SAPE  H15X16679   3.467   3.548   9.195 -0.8511  1.3522  0.1349
  150SAPE  H15Y16680   3.591   3.529   9.321  0.7798  2.0755  0.0245
  150SAPE  C31616681   3.531   3.719   9.296 -0.2644  0.8077 -0.8013
  150SAPE  H16X16682   3.595   3.731   9.386 -2.1729 -0.0629  0.7567
  150SAPE  H16Y16683   3.442   3.781   9.321  0.0447  0.3215  1.7979
  150SAPE  C31716684   3.609   3.766   9.176  0.3050 -0.0753 -0.0900
  150SAPE  H17X16685   3.708   3.715   9.180 -0.0170 -0.6525  0.6917
  150SAPE  H17Y16686   3.637   3.872   9.196 -0.5181  0.7523 -2.8921
  150SAPE  C31816687   3.541   3.757   9.033 -0.0723  0.2431  0.8094
  150SAPE  H18X16688   3.459   3.832   9.027  0.3216  0.5921 -0.6297
  150SAPE  H18Y16689   3.491   3.659   9.024  0.5679 -0.2004  1.9884
  150SAPE  H18Z16690   3.620   3.774   8.956  1.2375 -1.2580  1.7717
  151SAPE     N16691   5.028   2.182  10.824  0.0244 -0.1889 -0.5379
  151SAPE   HN116692   4.934   2.157  10.788  0.5701  1.0657 -3.1191
  151SAPE   HN216693   5.091   2.099  10.819 -1.3282 -1.3315  0.7246
  151SAPE   HN316694   5.031   2.219  10.921  0.6500 -3.7971  0.9822
  151SAPE   C1216695   5.097   2.272  10.721 -0.3258  0.3544  0.5909
  151SAPE  H12A16696   5.199   2.289  10.762  0.3558 -0.7350 -0.5772
  151SAPE  H12B16697   5.046   2.371  10.722 -0.4520  0.2957  0.2148
  151SAPE   C1116698   5.093   2.200  10.584  0.7336  0.1859  0.0675
  151SAPE  H11A16699   5.138   2.099  10.590  0.2606 -0.0205  0.2210
  151SAPE  H11B16700   5.151   2.258  10.509  1.0316 -0.1766  0.0167
  151SAPE     P16701   4.886   2.072  10.486 -0.2475  0.2964  0.1383
  151SAPE   O1316702   4.922   1.963  10.583 -0.1677  0.6939 -0.7073
  151SAPE   O1416703   4.744   2.111  10.467  0.8594  0.7794  0.0127
  151SAPE   O1216704   4.958   2.202  10.536 -0.0817  0.2356 -0.0382
  151SAPE   O1116705   4.958   2.047  10.354 -0.4107  0.2852 -0.4995
  151SAPE    C116706   4.989   2.137  10.252  0.1376 -0.3688  0.4727
  151SAPE    HA16707   4.977   2.241  10.289 -0.4455  1.1348 -3.3978
  151SAPE    HB16708   5.094   2.125  10.217  0.9692  0.4040  2.5718
  151SAPE    C216709   4.901   2.128  10.124 -1.1772 -0.2876 -0.0941
  151SAPE    HS16710   4.792   2.130  10.144 -1.2952  0.2160 -0.7379
  151SAPE   O2116711   4.945   2.011  10.046  0.0800  0.7681  0.4436
  151SAPE   C2116712   4.891   1.899  10.085  0.6098  0.5253 -0.5827
  151SAPE   O2216713   4.800   1.889  10.168 -0.3097  0.0092  0.3124
  151SAPE   C2216714   4.955   1.784  10.011  0.6159 -0.0130 -0.1048
  151SAPE   H2R16715   5.058   1.807   9.976  0.0802 -0.2278 -1.9034
  151SAPE   H2S16716   4.952   1.697  10.080 -1.8784 -1.4414 -1.8530
  151SAPE    C316717   4.930   2.253  10.041  0.0105 -0.6426  0.6085
  151SAPE    HX16718   5.038   2.281  10.040 -0.3257  0.8331 -1.1310
  151SAPE    HY16719   4.883   2.339  10.094 -1.7755 -0.7190 -0.7511
  151SAPE   O3116720   4.880   2.243   9.908  0.0372  0.4690  0.1223
  151SAPE   C3116721   4.746   2.245   9.889 -0.0871 -0.1684 -0.5169
  151SAPE   O3216722   4.665   2.250   9.983  0.1300 -0.4466  0.3459
  151SAPE   C3216723   4.718   2.224   9.746  0.2379  0.4154  0.5181
  151SAPE   H2X16724   4.642   2.143   9.742  2.2935 -1.8231  2.9155
  151SAPE   H2Y16725   4.809   2.187   9.696  0.6412 -0.6958  1.9820
  151SAPE   C2316726   4.876   1.742   9.883  0.7702  0.1068  0.2553
  151SAPE   H3R16727   4.778   1.693   9.903  0.8843 -0.4343 -0.4679
  151SAPE   H3S16728   4.925   1.655   9.834 -2.4833  0.0830 -3.4448
  151SAPE   C2416729   4.858   1.857   9.781 -0.3878  0.3765 -0.5923
  151SAPE   H4R16730   4.783   1.924   9.830 -0.0699 -0.0889  0.5574
  151SAPE   H4S16731   4.794   1.808   9.704 -2.0322  1.1293  0.2340
  151SAPE   C2516732   4.988   1.912   9.726  0.2020  0.1464  0.4047
  151SAPE   H5R16733   5.059   1.942   9.804 -0.2859 -1.0880  1.3633
  151SAPE   C2616734   5.015   1.933   9.590  0.4084  0.1655 -0.0316
  151SAPE   H6R16735   5.116   1.947   9.550 -0.5723 -0.1666 -2.8128
  151SAPE   C2716736   4.916   1.914   9.472  0.4634  0.4034  0.2397
  151SAPE   H7R16737   4.952   1.975   9.386 -1.1691 -0.3764 -1.0409
  151SAPE   H7S16738   4.817   1.953   9.503  0.6537 -0.1328  1.5811
  151SAPE   C2816739   4.885   1.774   9.424  0.4932  0.1322  0.2942
  151SAPE   H8R16740   4.874   1.698   9.503 -0.8600  0.1370  0.1354
  151SAPE   C2916741   4.866   1.738   9.293  0.0267 -0.5879 -0.6309
  151SAPE   H9R16742   4.848   1.630   9.278  1.3682 -0.5819 -2.6230
  151SAPE  C21016743   4.872   1.822   9.171 -0.0457  0.1276  0.3115
  151SAPE  H10R16744   4.802   1.908   9.170  2.4427  2.2984  0.3101
  151SAPE  H10S16745   4.829   1.755   9.094 -1.2207  1.8783 -0.6230
  151SAPE  C21116746   5.017   1.873   9.142  0.2023 -0.2945  0.0143
  151SAPE  H11R16747   5.070   1.909   9.231  1.7891 -1.7558 -0.2694
  151SAPE  C21216748   5.074   1.874   9.023 -0.1288  0.8804  0.1073
  151SAPE  H12R16749   5.179   1.902   9.011  0.6512 -1.4261  0.9985
  151SAPE  C21316750   5.010   1.830   8.891  0.0768 -0.0515 -0.1236
  151SAPE  H13R16751   4.935   1.750   8.907 -2.6473  2.3144 -0.3166
  151SAPE  H13S16752   5.086   1.774   8.831  0.0415 -0.7403  0.4569
  151SAPE  C21416753   4.954   1.946   8.812  0.4793  0.4742 -0.6571
  151SAPE  H14R16754   4.885   2.004   8.874 -1.5193 -1.8608 -0.5472
  151SAPE  C21516755   4.981   1.989   8.691 -0.0353 -0.3144  0.2337
  151SAPE  H15R16756   4.927   2.078   8.655 -0.6914 -1.4251 -1.6740
  151SAPE  C21616757   5.070   1.932   8.582 -0.0558 -1.0438  0.0818
  151SAPE  H16R16758   5.001   1.911   8.497  0.9102  2.9499 -1.9223
  151SAPE  H16S16759   5.119   1.839   8.618 -0.7197 -1.1138  0.8246
  151SAPE  C21716760   5.176   2.043   8.561 -0.4824  0.7048 -0.5316
  151SAPE  H17R16761   5.251   2.052   8.643  2.0044 -2.1340 -2.2727
  151SAPE  H17S16762   5.129   2.143   8.566 -0.3620  0.7421  3.4382
  151SAPE  C21816763   5.240   2.033   8.418 -0.3908 -0.4637 -0.7989
  151SAPE  H18R16764   5.321   2.107   8.402 -0.0663 -0.6006  0.1286
  151SAPE  H18S16765   5.169   2.047   8.334  0.0249 -0.8358 -1.2192
  151SAPE  C21916766   5.310   1.899   8.390 -0.7225 -0.0230  0.9082
  151SAPE  H19R16767   5.266   1.816   8.449 -1.1658 -0.2321  0.2952
  151SAPE  H19S16768   5.418   1.887   8.412 -0.5869 -0.5748  0.0096
  151SAPE  C22016769   5.290   1.859   8.241 -0.4881  0.0844 -0.6251
  151SAPE  H20R16770   5.359   1.782   8.201 -0.7921  0.5921 -2.2439
  151SAPE  H20S16771   5.313   1.956   8.190  1.7900  0.0111  0.1373
  151SAPE  H20T16772   5.182   1.838   8.225 -0.4394 -2.7573  2.0343
  151SAPE   C3316773   4.666   2.351   9.678 -0.4042 -0.1160 -0.0727
  151SAPE   H3X16774   4.728   2.443   9.693  0.9942 -1.0027 -0.1773
  151SAPE   H3Y16775   4.575   2.369   9.739  0.2056  0.9390  0.5640
  151SAPE   C3416776   4.641   2.319   9.529 -0.6185  0.0465 -0.3359
  151SAPE   H4X16777   4.552   2.253   9.517 -1.2353  0.4447  1.5578
  151SAPE   H4Y16778   4.728   2.268   9.483 -0.7307 -0.7316  0.2857
  151SAPE   C3516779   4.620   2.450   9.441  0.6454  0.1666 -0.7389
  151SAPE   H5X16780   4.717   2.504   9.440  0.0302  1.3835  1.1815
  151SAPE   H5Y16781   4.550   2.515   9.497 -0.2310 -1.1621 -0.2436
  151SAPE   C3616782   4.556   2.411   9.304 -0.2496 -0.3274 -0.4792
  151SAPE   H6X16783   4.532   2.502   9.246  2.0063  0.0886 -0.8441
  151SAPE   H6Y16784   4.464   2.354   9.330 -0.1147  0.5348  2.2027
  151SAPE   C3716785   4.637   2.314   9.221  0.5452  0.0174  0.4502
  151SAPE   H7X16786   4.658   2.216   9.270  0.1949  0.1475  0.8633
  151SAPE   H7Y16787   4.733   2.370   9.217  2.1257 -2.3026  2.5101
  151SAPE   C3816788   4.576   2.279   9.086 -0.0699  0.3428  0.3909
  151SAPE   H8X16789   4.527   2.370   9.047 -0.3310  0.3646  0.7660
  151SAPE   H8Y16790   4.487   2.213   9.090  0.2735 -0.1631 -0.1538
  151SAPE   C3916791   4.679   2.219   8.982  0.1236 -0.0881  0.1366
  151SAPE   H9X16792   4.704   2.114   9.008  1.1351 -0.2857 -1.5498
  151SAPE   H9Y16793   4.770   2.282   8.969 -0.1170  0.2772  0.1803
  151SAPE  C31016794   4.634   2.216   8.836  0.0378  0.1256  0.5491
  151SAPE  H10X16795   4.714   2.162   8.780 -0.8132  0.4941 -1.0809
  151SAPE  H10Y16796   4.638   2.322   8.803 -0.6392 -0.5110 -1.8126
  151SAPE  C31116797   4.503   2.148   8.806  0.0112  0.9136  0.3530
  151SAPE  H11X16798   4.417   2.202   8.850 -0.7318 -0.5684  0.7965
  151SAPE  H11Y16799   4.486   2.042   8.835  0.8768  0.5235 -0.5029
  151SAPE  C31216800   4.477   2.148   8.648  0.2465 -0.5413  0.1880
  151SAPE  H12X16801   4.539   2.073   8.594 -2.3610 -0.1298 -3.7506
  151SAPE  H12Y16802   4.495   2.248   8.604 -0.9705 -0.0661  0.7270
  151SAPE  C31316803   4.324   2.114   8.634 -1.0180 -1.0973 -0.0353
  151SAPE  H13X16804   4.271   2.199   8.682 -0.5448  0.1129 -1.5514
  151SAPE  H13Y16805   4.293   2.018   8.679  0.0773 -1.0472  0.8747
  151SAPE  C31416806   4.293   2.121   8.485 -0.0600 -0.2499 -0.0697
  151SAPE  H14X16807   4.333   2.026   8.443 -0.9269 -0.3767 -0.6222
  151SAPE  H14Y16808   4.352   2.204   8.440  1.9946 -2.2021 -1.2222
  151SAPE  C31516809   4.139   2.129   8.453 -0.2263 -0.1500  0.3463
  151SAPE  H15X16810   4.120   2.141   8.344 -0.2275 -0.6054  0.2912
  151SAPE  H15Y16811   4.102   2.215   8.513 -1.6697 -0.9096  0.5990
  151SAPE  C31616812   4.065   1.998   8.506 -0.1131  0.0024  0.3573
  151SAPE  H16X16813   3.962   1.999   8.466 -0.0769  1.4581  0.2533
  151SAPE  H16Y16814   4.049   1.994   8.616 -2.4822  0.3296  0.0721
  151SAPE  C31716815   4.130   1.866   8.445  0.5471 -0.6549 -0.2667
  151SAPE  H17X16816   4.217   1.845   8.510 -0.1007 -0.1645  0.7831
  151SAPE  H17Y16817   4.176   1.892   8.347 -0.0787 -2.0717 -0.9663
  151SAPE  C31816818   4.035   1.745   8.416  0.6019  0.2833 -0.2725
  151SAPE  H18X16819   3.978   1.762   8.323  2.2693  0.4311 -1.3131
  151SAPE  H18Y16820   3.965   1.733   8.502  1.8146  3.3712  1.2911
  151SAPE  H18Z16821   4.104   1.658   8.410  1.4836  0.7294  2.2436
  152SAPE     N16822   5.701   2.393  10.884  0.2341  0.3029 -0.1387
  152SAPE   HN116823   5.709   2.339  10.973 -0.9076  0.7387  0.2616
  152SAPE   HN216824   5.674   2.486  10.923 -1.0147 -0.4920  1.0172
  152SAPE   HN316825   5.615   2.362  10.834 -0.5762  2.3885 -0.1614
  152SAPE   C1216826   5.832   2.386  10.804  0.4789 -0.1375 -0.6283
  152SAPE  H12A16827   5.828   2.302  10.731 -0.7568  2.7532 -4.2666
  152SAPE  H12B16828   5.906   2.360  10.882 -0.2387  1.6152  0.7210
  152SAPE   C1116829   5.858   2.512  10.725 -0.1030 -0.0990 -0.1974
  152SAPE  H11A16830   5.948   2.496  10.662  0.0513  2.3011 -0.6628
  152SAPE  H11B16831   5.891   2.597  10.788 -1.4469  0.9591 -0.8649
  152SAPE     P16832   5.683   2.691  10.631 -0.1097 -0.1644 -0.0256
  152SAPE   O1316833   5.541   2.662  10.636  0.1111 -0.2008  0.2748
  152SAPE   O1416834   5.743   2.774  10.740 -0.0265  0.2101  1.5236
  152SAPE   O1216835   5.746   2.545  10.640 -0.4969 -0.3716  1.1234
  152SAPE   O1116836   5.730   2.747  10.488 -0.0602 -0.4813 -0.7392
  152SAPE    C116837   5.799   2.668  10.393 -0.2785  0.3857  0.7132
  152SAPE    HA16838   5.908   2.668  10.416  0.3748  0.5851 -2.0292
  152SAPE    HB16839   5.766   2.563  10.377 -1.5298  0.5337  2.1710
  152SAPE    C216840   5.793   2.729  10.247 -0.9247 -1.0605 -0.0567
  152SAPE    HS16841   5.838   2.666  10.167  0.5357  0.2941 -0.3477
  152SAPE   O2116842   5.847   2.863  10.235  1.2295  0.5470  0.0302
  152SAPE   C2116843   5.976   2.856  10.233  0.4677 -0.9592 -0.2715
  152SAPE   O2216844   6.042   2.756  10.242 -0.1125 -0.6588 -0.4031
  152SAPE   C2216845   6.027   3.000  10.219 -0.5712  0.3487 -0.1286
  152SAPE   H2R16846   5.973   3.053  10.138  0.8650 -1.2145 -2.2200
  152SAPE   H2S16847   6.006   3.056  10.313  0.3524  2.7409 -1.2633
  152SAPE    C316848   5.649   2.746  10.204 -0.1473  0.2399 -0.0643
  152SAPE    HX16849   5.605   2.843  10.236 -2.2712 -0.5864 -0.2616
  152SAPE    HY16850   5.603   2.666  10.266  1.6242  0.6775  1.8902
  152SAPE   O3116851   5.639   2.709  10.066 -0.0122 -0.0612 -0.3930
  152SAPE   C3116852   5.634   2.812   9.972  0.5932  0.4434 -0.2972
  152SAPE   O3216853   5.620   2.931   9.990  0.1982  0.2868  0.2909
  152SAPE   C3216854   5.625   2.750   9.837 -0.8702 -0.3751  0.0271
  152SAPE   H2X16855   5.553   2.666   9.835 -2.3351  0.7738  1.5609
  152SAPE   H2Y16856   5.726   2.703   9.834 -0.6402  0.1472 -0.7636
  152SAPE   C2316857   6.179   3.025  10.204  0.0912  0.3082 -0.5139
  152SAPE   H3R16858   6.241   2.936  10.229  0.8614  0.9682 -0.0148
  152SAPE   H3S16859   6.209   3.109  10.270 -1.7563  0.3029  0.4022
  152SAPE   C2416860   6.227   3.082  10.064  0.6334  0.7927 -0.0764
  152SAPE   H4R16861   6.188   3.013   9.987 -2.0759  2.7605 -0.6017
  152SAPE   H4S16862   6.338   3.086  10.061  0.7027 -0.7719 -0.0330
  152SAPE   C2516863   6.165   3.214  10.017  0.3376 -0.1842 -0.2008
  152SAPE   H5R16864   6.197   3.305  10.069 -0.4904 -0.5532  0.9929
  152SAPE   C2616865   6.078   3.228   9.914  0.2680 -0.1520 -0.1931
  152SAPE   H6R16866   6.054   3.327   9.872  0.6246 -0.2313 -0.5843
  152SAPE   C2716867   6.019   3.131   9.817  0.0321  0.1040  0.4742
  152SAPE   H7R16868   6.029   3.026   9.850  0.5948 -0.3432 -1.0418
  152SAPE   H7S16869   6.094   3.126   9.735  0.3452 -1.0288  0.8164
  152SAPE   C2816870   5.880   3.161   9.767  0.2914  0.8864  1.0992
  152SAPE   H8R16871   5.796   3.138   9.834 -0.4819  1.0286  0.1844
  152SAPE   C2916872   5.842   3.200   9.642  0.3174  0.1299  0.1462
  152SAPE   H9R16873   5.735   3.214   9.625  0.3233 -1.5990 -1.7755
  152SAPE  C21016874   5.936   3.244   9.530  0.6754  0.3223  0.2485
  152SAPE  H10R16875   6.036   3.264   9.573  1.1504 -2.0391  0.3653
  152SAPE  H10S16876   5.906   3.348   9.504 -0.8741  0.1694  1.2856
  152SAPE  C21116877   5.941   3.150   9.407 -0.2505 -0.4445 -0.1279
  152SAPE  H11R16878   5.999   3.060   9.432 -0.3977 -0.2822  0.8512
  152SAPE  C21216879   5.900   3.161   9.281  0.1735 -0.6062  0.1193
  152SAPE  H12R16880   5.940   3.086   9.211  0.8801  1.3331 -1.6314
  152SAPE  C21316881   5.825   3.278   9.212  0.0237  0.7081 -0.1068
  152SAPE  H13R16882   5.875   3.300   9.115 -2.0898  2.0700 -0.9348
  152SAPE  H13S16883   5.833   3.369   9.275 -1.0067 -0.2174  1.4312
  152SAPE  C21416884   5.679   3.241   9.196  0.4277 -0.0566 -0.0013
  152SAPE  H14R16885   5.632   3.169   9.265 -1.3410  0.2008 -0.8703
  152SAPE  C21516886   5.599   3.285   9.095 -0.0714  0.4004  0.0618
  152SAPE  H15R16887   5.501   3.241   9.072  0.3228  0.0329 -0.9647
  152SAPE  C21616888   5.651   3.369   8.979 -0.1710 -0.3385 -0.2086
  152SAPE  H16R16889   5.754   3.345   8.946  0.2179  0.4633  0.3843
  152SAPE  H16S16890   5.660   3.473   9.016 -0.7230  0.2706 -1.6862
  152SAPE  C21716891   5.558   3.377   8.853 -0.3813  0.1739  0.0558
  152SAPE  H17R16892   5.601   3.457   8.789  1.0843  2.4495  3.5519
  152SAPE  H17S16893   5.453   3.400   8.879 -0.7229  0.0888 -1.1999
  152SAPE  C21816894   5.560   3.244   8.775 -0.5442 -0.0925 -0.1901
  152SAPE  H18R16895   5.532   3.153   8.832 -0.0559  0.1297  0.4159
  152SAPE  H18S16896   5.665   3.226   8.743 -0.0700 -0.9079  1.7006
  152SAPE  C21916897   5.457   3.250   8.660  0.8764  0.2637 -0.1886
  152SAPE  H19R16898   5.361   3.278   8.708  1.2749  0.6227  0.4192
  152SAPE  H19S16899   5.450   3.143   8.631  0.1219 -0.0745  1.1770
  152SAPE  C22016900   5.498   3.348   8.548  0.2752  0.0441 -0.2180
  152SAPE  H20R16901   5.415   3.351   8.474 -0.9239 -0.7131  1.0513
  152SAPE  H20S16902   5.595   3.308   8.511  0.2373 -0.0894 -0.1732
  152SAPE  H20T16903   5.526   3.449   8.586 -0.5881  0.1705  0.0885
  152SAPE   C3316904   5.607   2.853   9.727  0.2061 -0.3909 -0.0343
  152SAPE   H3X16905   5.682   2.935   9.734 -0.4643  0.2429 -0.2423
  152SAPE   H3Y16906   5.505   2.897   9.729 -0.6952 -2.3703  0.6098
  152SAPE   C3416907   5.627   2.784   9.587  0.5834  0.6424  0.7870
  152SAPE   H4X16908   5.731   2.744   9.578  0.2581  0.2175 -1.8763
  152SAPE   H4Y16909   5.614   2.862   9.510 -0.2310  1.0553  1.3304
  152SAPE   C3516910   5.527   2.676   9.557  0.2766 -0.3112  0.1774
  152SAPE   H5X16911   5.422   2.709   9.570  0.9539  2.4403 -0.6257
  152SAPE   H5Y16912   5.550   2.584   9.614  1.1587 -0.9842 -1.1979
  152SAPE   C3616913   5.542   2.624   9.411 -0.3997 -0.1671  0.4117
  152SAPE   H6X16914   5.650   2.612   9.387 -0.7068  1.1233 -1.9566
  152SAPE   H6Y16915   5.503   2.702   9.343 -1.1394 -0.1262  0.8707
  152SAPE   C3716916   5.482   2.486   9.387 -0.7969  0.1458 -0.0131
  152SAPE   H7X16917   5.378   2.480   9.425 -0.7301 -0.7701  0.0445
  152SAPE   H7Y16918   5.553   2.425   9.446 -1.8439  0.7172  1.9029
  152SAPE   C3816919   5.500   2.428   9.250 -0.3498 -0.1407 -0.5967
  152SAPE   H8X16920   5.451   2.330   9.264 -1.3324  0.6936  2.6003
  152SAPE   H8Y16921   5.610   2.414   9.242 -0.3646  0.6699 -3.4029
  152SAPE   C3916922   5.453   2.508   9.132 -0.2487 -0.4648  1.1536
  152SAPE   H9X16923   5.479   2.616   9.139  2.5073 -0.8547 -1.4196
  152SAPE   H9Y16924   5.342   2.500   9.122 -0.3381  0.6366  1.1790
  152SAPE  C31016925   5.517   2.444   9.004  0.4389  0.6246  0.1877
  152SAPE  H10X16926   5.455   2.469   8.916 -0.9310  0.8402  1.1775
  152SAPE  H10Y16927   5.525   2.334   9.017 -0.0392  0.3876 -1.3297
  152SAPE  C31116928   5.668   2.485   8.987  0.4109 -0.7346  0.1827
  152SAPE  H11X16929   5.736   2.490   9.075  0.5021  2.1241  0.0440
  152SAPE  H11Y16930   5.662   2.592   8.955  0.8779  0.3165  3.3118
  152SAPE  C31216931   5.737   2.403   8.872  0.2713  0.5137 -0.1009
  152SAPE  H12X16932   5.825   2.464   8.840 -0.6812  2.4260  0.7581
  152SAPE  H12Y16933   5.682   2.412   8.776  0.6343  3.6754 -0.1479
  152SAPE  C31316934   5.774   2.260   8.916 -0.7590 -0.1971 -0.0346
  152SAPE  H13X16935   5.689   2.193   8.892 -0.8848  0.4533 -1.4963
  152SAPE  H13Y16936   5.806   2.268   9.022  0.1241  1.1902 -0.3795
  152SAPE  C31416937   5.895   2.210   8.838  0.0087 -0.3313 -0.5121
  152SAPE  H14X16938   5.978   2.283   8.856  0.2542 -1.1159  1.8926
  152SAPE  H14Y16939   5.874   2.207   8.729 -1.6187 -2.7846 -0.2190
  152SAPE  C31516940   5.940   2.069   8.888  0.8486 -0.0142  0.4556
  152SAPE  H15X16941   5.860   1.997   8.862  1.6403 -0.5081 -0.7248
  152SAPE  H15Y16942   5.958   2.068   8.998 -1.4321  1.9925  0.9229
  152SAPE  C31616943   6.070   2.018   8.812 -0.0615  0.1982 -0.2075
  152SAPE  H16X16944   6.083   1.914   8.851  1.3431 -0.2462 -1.7759
  152SAPE  H16Y16945   6.157   2.079   8.842  0.1129 -0.4967  0.7592
  152SAPE  C31716946   6.056   1.995   8.669 -0.0550 -1.1060 -0.4270
  152SAPE  H17X16947   6.025   2.093   8.625 -0.9396  0.0334  2.4871
  152SAPE  H17Y16948   5.970   1.927   8.651 -0.0612 -1.1566 -0.2030
  152SAPE  C31816949   6.190   1.934   8.616 -0.0576 -0.1127 -0.1827
  152SAPE  H18X16950   6.230   1.851   8.678  0.6295  0.0259 -0.4283
  152SAPE  H18Y16951   6.278   2.002   8.623  0.3712 -0.5281 -1.3065
  152SAPE  H18Z16952   6.194   1.907   8.508 -1.8488 -0.0202 -0.3064
  153SAPE     N16953   6.707   1.986  10.959  0.6125 -0.3418  0.6449
  153SAPE   HN116954   6.809   1.977  10.980  1.3987  1.3742 -1.9141
  153SAPE   HN216955   6.649   1.957  11.040 -0.7924  1.7659  0.4687
  153SAPE   HN316956   6.699   1.917  10.882 -1.0024  0.0481  0.4273
  153SAPE   C1216957   6.676   2.123  10.914 -0.1858 -0.3319 -0.3818
  153SAPE  H12A16958   6.705   2.189  10.999 -2.3822  0.5519 -0.2705
  153SAPE  H12B16959   6.566   2.123  10.907 -0.1489 -1.0158 -1.1023
  153SAPE   C1116960   6.746   2.159  10.788  0.5053 -0.3538  0.5949
  153SAPE  H11A16961   6.685   2.245  10.753  0.5671 -0.0856  1.1264
  153SAPE  H11B16962   6.730   2.088  10.705 -1.9045 -0.4442  1.0870
  153SAPE     P16963   6.993   2.114  10.734  0.4540  0.4277  0.0121
  153SAPE   O1316964   7.129   2.165  10.769 -0.2537 -0.5436  0.9156
  153SAPE   O1416965   6.960   1.970  10.755 -0.5276  0.4874 -0.3423
  153SAPE   O1216966   6.885   2.196  10.807  0.5147 -0.0039 -0.5401
  153SAPE   O1116967   6.974   2.152  10.582  0.3841  0.3317 -0.3066
  153SAPE    C116968   6.932   2.285  10.540 -0.1187  0.1819 -0.5555
  153SAPE    HA16969   6.833   2.280  10.490 -0.8226 -2.0129  0.8656
  153SAPE    HB16970   6.924   2.360  10.622 -1.2347  1.4959 -1.8292
  153SAPE    C216971   7.028   2.353  10.443 -0.9983 -0.5067  0.5151
  153SAPE    HS16972   7.003   2.461  10.437 -0.4208 -0.3926  0.1405
  153SAPE   O2116973   7.011   2.308  10.307  0.9894 -0.3015  0.0344
  153SAPE   C2116974   6.897   2.347  10.244 -0.6504  0.4604 -0.6505
  153SAPE   O2216975   6.813   2.418  10.298 -0.6194 -0.3684 -0.2138
  153SAPE   C2216976   6.901   2.303  10.100  0.2611 -0.2233  0.2264
  153SAPE   H2R16977   6.997   2.328  10.050  0.7923 -0.1360  1.2864
  153SAPE   H2S16978   6.905   2.193  10.087  2.2358 -0.1958  0.2403
  153SAPE    C316979   7.181   2.340  10.468 -0.8197  0.2387 -0.3002
  153SAPE    HX16980   7.218   2.236  10.454  1.4785  1.1887 -1.8634
  153SAPE    HY16981   7.198   2.364  10.575  2.9805 -2.3351 -0.1009
  153SAPE   O3116982   7.248   2.438  10.385 -0.3613  0.8416 -0.0691
  153SAPE   C3116983   7.357   2.396  10.321  0.0813 -0.7396  0.4782
  153SAPE   O3216984   7.425   2.297  10.337  0.2401 -0.9657  0.2979
  153SAPE   C3216985   7.380   2.502  10.208  0.0252 -0.0459 -0.0092
  153SAPE   H2X16986   7.345   2.597  10.256 -1.0576 -0.0904 -0.6692
  153SAPE   H2Y16987   7.308   2.476  10.128 -2.0001  0.4310  1.5586
  153SAPE   C2316988   6.795   2.379  10.021 -0.5231  0.2184 -0.2170
  153SAPE   H3R16989   6.781   2.483  10.057  0.0051 -0.0250  0.7228
  153SAPE   H3S16990   6.698   2.326  10.032 -0.2349 -0.5544 -1.1912
  153SAPE   C2416991   6.829   2.393   9.870  0.1567  0.3301  0.0116
  153SAPE   H4R16992   6.727   2.399   9.826 -0.6304 -4.3211  0.6370
  153SAPE   H4S16993   6.866   2.303   9.816 -1.0106  0.6057 -1.3073
  153SAPE   C2516994   6.927   2.503   9.848 -0.4579  1.3024 -0.1908
  153SAPE   H5R16995   6.983   2.524   9.940  1.2654  0.0519 -0.8847
  153SAPE   C2616996   6.941   2.575   9.737 -0.4500  0.1224  0.4358
  153SAPE   H6R16997   7.027   2.642   9.725  0.2987 -0.9854 -0.5475
  153SAPE   C2716998   6.858   2.550   9.613 -0.2623 -0.3090  0.4638
  153SAPE   H7R16999   6.770   2.482   9.622 -1.7781  1.2096 -1.8916
  153SAPE   H7S17000   6.924   2.510   9.533  3.7302  1.8776  2.3805
  153SAPE   C2817001   6.800   2.682   9.562  0.0163 -0.7067 -0.1643
  153SAPE   H8R17002   6.787   2.758   9.640 -1.3005 -1.0058 -0.0814
  153SAPE   C2917003   6.763   2.721   9.429 -0.6907 -0.0902  0.3731
  153SAPE   H9R17004   6.735   2.826   9.416 -0.2755 -0.3075 -3.4494
  153SAPE  C21017005   6.772   2.628   9.311  0.4716 -0.0003  0.9755
  153SAPE  H10R17006   6.840   2.541   9.323  2.2879  1.3512  0.9529
  153SAPE  H10S17007   6.808   2.691   9.227 -1.0371 -0.5470 -0.1215
  153SAPE  C21117008   6.631   2.577   9.278  0.4787 -0.0293  0.4911
  153SAPE  H11R17009   6.600   2.497   9.347  0.2081 -0.9099 -0.6308
  153SAPE  C21217010   6.543   2.611   9.185  0.3038 -0.9211 -0.0115
  153SAPE  H12R17011   6.438   2.578   9.195 -0.0902 -0.0295 -0.9042
  153SAPE  C21317012   6.557   2.725   9.086  0.6439  0.7621 -0.5865
  153SAPE  H13R17013   6.514   2.695   8.988  1.2563 -0.3667 -0.5223
  153SAPE  H13S17014   6.663   2.740   9.057  0.0350 -1.0849 -4.3410
  153SAPE  C21417015   6.526   2.869   9.137 -0.8326  0.1597 -0.7265
  153SAPE  H14R17016   6.570   2.903   9.232  0.7447 -1.3134 -0.8688
  153SAPE  C21517017   6.444   2.962   9.083 -0.1962  0.8575  0.0247
  153SAPE  H15R17018   6.437   3.062   9.128  0.1579 -0.2679  2.7756
  153SAPE  C21617019   6.348   2.942   8.973  0.1510  0.1367  0.6116
  153SAPE  H16R17020   6.250   2.926   9.022  0.8348 -1.7840  1.4908
  153SAPE  H16S17021   6.369   2.847   8.919 -2.4306  0.9473 -2.0667
  153SAPE  C21717022   6.342   3.059   8.873 -0.6562  1.1221 -0.0510
  153SAPE  H17R17023   6.319   3.150   8.932 -0.9870 -0.7296  2.8968
  153SAPE  H17S17024   6.257   3.027   8.809  1.1801 -0.5719 -1.7905
  153SAPE  C21817025   6.473   3.071   8.786 -1.1695  0.2151 -0.0568
  153SAPE  H18R17026   6.520   2.975   8.758 -0.3726  0.2185  1.1714
  153SAPE  H18S17027   6.560   3.113   8.842 -1.1684  0.0862  0.0397
  153SAPE  C21917028   6.462   3.163   8.669  0.1712 -0.0924 -0.4117
  153SAPE  H19R17029   6.428   3.260   8.712  1.1327  1.1576 -2.3257
  153SAPE  H19S17030   6.382   3.124   8.603  0.8145 -2.0286 -0.1092
  153SAPE  C22017031   6.588   3.170   8.583  0.1409  0.5033 -0.4328
  153SAPE  H20R17032   6.624   3.068   8.562 -0.0395  0.6968 -1.7839
  153SAPE  H20S17033   6.675   3.224   8.628  0.1876  0.5736 -0.6045
  153SAPE  H20T17034   6.568   3.221   8.486  1.8247  0.6464 -0.7345
  153SAPE   C3317035   7.527   2.498  10.145 -0.8276  0.1010 -0.5198
  153SAPE   H3X17036   7.534   2.397  10.100 -0.6443  0.3328 -1.0248
  153SAPE   H3Y17037   7.605   2.506  10.224 -0.0504  1.4421 -1.3807
  153SAPE   C3417038   7.556   2.595  10.032 -0.0955  0.0396 -0.1716
  153SAPE   H4X17039   7.662   2.623  10.016 -0.0584 -0.5148 -0.9260
  153SAPE   H4Y17040   7.516   2.695  10.060  0.3861  0.1819  0.0349
  153SAPE   C3517041   7.500   2.550   9.897  0.1056  0.2447 -0.0883
  153SAPE   H5X17042   7.391   2.531   9.905  0.1341  0.3795  0.6950
  153SAPE   H5Y17043   7.550   2.457   9.863  0.3518 -0.4723  2.0929
  153SAPE   C3617044   7.529   2.657   9.793  0.6224 -0.0207 -0.0423
  153SAPE   H6X17045   7.638   2.663   9.776  0.4789 -0.5386 -1.2478
  153SAPE   H6Y17046   7.502   2.762   9.819 -2.4178 -1.0279  1.3632
  153SAPE   C3717047   7.463   2.630   9.657  0.0257  0.1912  0.1607
  153SAPE   H7X17048   7.511   2.535   9.625 -0.4057 -0.1352  0.4575
  153SAPE   H7Y17049   7.499   2.707   9.586  2.6598 -1.1407 -0.0496
  153SAPE   C3817050   7.314   2.612   9.658  0.1851  0.1544  0.3389
  153SAPE   H8X17051   7.272   2.709   9.691  1.4472  1.3283 -1.3642
  153SAPE   H8Y17052   7.296   2.530   9.731 -1.8552 -1.1348 -1.4841
  153SAPE   C3917053   7.243   2.574   9.519 -0.0965 -0.3892  0.7145
  153SAPE   H9X17054   7.154   2.513   9.547  0.9066 -1.2808  2.0602
  153SAPE   H9Y17055   7.311   2.513   9.457  1.5173  0.9851  1.0817
  153SAPE  C31017056   7.217   2.698   9.445  0.5429 -0.4799  0.1503
  153SAPE  H10X17057   7.296   2.774   9.458 -1.4882  1.5220  1.6848
  153SAPE  H10Y17058   7.128   2.735   9.502  1.3817 -0.3474  1.4228
  153SAPE  C31117059   7.184   2.674   9.296  0.7440 -0.0278  0.4657
  153SAPE  H11X17060   7.074   2.663   9.286  0.5665  0.7006  1.5046
  153SAPE  H11Y17061   7.234   2.582   9.258 -1.0324 -1.0301  0.4734
  153SAPE  C31217062   7.223   2.795   9.210 -0.2158  0.6597 -0.0321
  153SAPE  H12X17063   7.324   2.830   9.241  0.4615 -1.4970  0.3756
  153SAPE  H12Y17064   7.160   2.882   9.240  1.5914  1.5268  1.4484
  153SAPE  C31317065   7.201   2.770   9.062  0.2180  0.5777 -0.4029
  153SAPE  H13X17066   7.111   2.705   9.051  0.6826 -0.7818  2.6841
  153SAPE  H13Y17067   7.290   2.721   9.019  1.5557 -0.6337  3.3306
  153SAPE  C31417068   7.172   2.901   8.973  0.2064  0.1890  0.3004
  153SAPE  H14X17069   7.268   2.955   8.954  0.6138 -0.7398 -0.3590
  153SAPE  H14Y17070   7.113   2.967   9.041  2.2960  1.0002  1.4329
  153SAPE  C31517071   7.087   2.867   8.849  0.0518 -0.2852  0.4104
  153SAPE  H15X17072   6.993   2.814   8.873 -0.8223  1.0642  0.0872
  153SAPE  H15Y17073   7.148   2.796   8.788  0.3032 -0.0146  0.3454
  153SAPE  C31617074   7.060   3.000   8.768 -0.2536 -0.0449  0.2050
  153SAPE  H16X17075   7.162   3.035   8.742 -0.9167 -0.4253 -3.3367
  153SAPE  H16Y17076   7.018   3.066   8.847  0.4202 -1.2072  1.6006
  153SAPE  C31717077   6.964   2.990   8.657 -0.9224  0.4901  0.2145
  153SAPE  H17X17078   7.009   2.962   8.560 -0.9567  2.2771 -0.3446
  153SAPE  H17Y17079   6.933   3.090   8.621 -0.3175  0.8126  0.5719
  153SAPE  C31817080   6.833   2.923   8.681 -0.3337 -0.7802  0.3980
  153SAPE  H18X17081   6.842   2.821   8.723 -1.1708 -1.1152 -0.1987
  153SAPE  H18Y17082   6.771   2.908   8.590 -2.1207  1.7596  1.0892
  153SAPE  H18Z17083   6.773   2.992   8.744  0.4958  0.0913  0.2574
  154SAPE     N17084   4.348   2.552  10.836  0.1770 -0.4248  0.7816
  154SAPE   HN117085   4.315   2.617  10.761  1.1155  2.1518  2.4704
  154SAPE   HN217086   4.296   2.462  10.831  0.1601 -0.4089  0.6696
  154SAPE   HN317087   4.325   2.601  10.925 -3.5498 -0.4673  0.0263
  154SAPE   C1217088   4.491   2.526  10.831  0.8685  0.5433  0.6539
  154SAPE  H12A17089   4.509   2.486  10.729 -1.2147 -1.0249  0.8193
  154SAPE  H12B17090   4.514   2.448  10.906  2.0397  3.0235  3.0386
  154SAPE   C1117091   4.573   2.653  10.866 -0.3818  0.0602  0.1010
  154SAPE  H11A17092   4.679   2.626  10.886 -0.4413 -1.0696 -1.0401
  154SAPE  H11B17093   4.533   2.698  10.960 -1.2567 -0.1232 -0.1742
  154SAPE     P17094   4.685   2.744  10.641 -0.0004 -0.2124 -0.2855
  154SAPE   O1317095   4.608   2.752  10.509  0.5355  0.2543  0.2524
  154SAPE   O1417096   4.795   2.850  10.670  0.4803  0.6916  0.2714
  154SAPE   O1217097   4.572   2.749  10.757 -0.3820 -0.3415 -0.1526
  154SAPE   O1117098   4.745   2.597  10.657  0.6383 -0.8169  0.1491
  154SAPE    C117099   4.876   2.564  10.621 -0.3510  1.1805 -0.0678
  154SAPE    HA17100   4.958   2.603  10.684  0.0189  0.2782  0.0209
  154SAPE    HB17101   4.885   2.453  10.623  1.0655  1.2965  1.0490
  154SAPE    C217102   4.916   2.610  10.473  0.0305 -0.1450 -0.6107
  154SAPE    HS17103   4.918   2.720  10.482 -1.6494 -0.0463 -1.0926
  154SAPE   O2117104   4.814   2.577  10.371  0.0019 -0.5826 -0.4412
  154SAPE   C2117105   4.809   2.670  10.269  0.7871  0.2033 -0.2389
  154SAPE   O2217106   4.862   2.781  10.267  0.2388  0.2487  0.3833
  154SAPE   C2217107   4.726   2.602  10.165  0.3313 -0.7814 -0.2755
  154SAPE   H2R17108   4.800   2.556  10.097  0.6671  1.8625 -1.8232
  154SAPE   H2S17109   4.665   2.526  10.219  0.7416 -0.8882  0.0434
  154SAPE    C317110   5.060   2.556  10.434 -0.0501 -0.1803 -0.3363
  154SAPE    HX17111   5.062   2.447  10.410  0.9953 -0.7710  2.1003
  154SAPE    HY17112   5.122   2.578  10.524 -3.1964  0.3150  1.8892
  154SAPE   O3117113   5.113   2.639  10.325 -0.1820  0.0058  0.8079
  154SAPE   C3117114   5.168   2.572  10.227 -0.2795 -0.9729  0.4886
  154SAPE   O3217115   5.173   2.451  10.208 -0.1885  0.8368 -0.6309
  154SAPE   C3217116   5.236   2.675  10.135 -0.2029  0.2086 -0.6381
  154SAPE   H2X17117   5.345   2.674  10.160 -0.7141 -1.1762  1.8731
  154SAPE   H2Y17118   5.201   2.778  10.157  2.1202  0.7974  0.7081
  154SAPE   C2317119   4.646   2.708  10.079 -0.3050  0.5074  0.0453
  154SAPE   H3R17120   4.594   2.770  10.155 -0.0865  0.1115  0.5198
  154SAPE   H3S17121   4.573   2.644  10.025 -0.1190 -0.5145  0.9665
  154SAPE   C2417122   4.734   2.800   9.987  0.3482  0.2652  0.6307
  154SAPE   H4R17123   4.785   2.738   9.910  1.9657  1.6590  0.5252
  154SAPE   H4S17124   4.811   2.859  10.040 -0.7844  0.8748  1.6281
  154SAPE   C2517125   4.633   2.896   9.917  0.0103 -0.5317 -0.4601
  154SAPE   H5R17126   4.623   2.992   9.970 -0.6059 -1.4317  1.1485
  154SAPE   C2617127   4.559   2.882   9.802  0.0041  0.1312  0.0129
  154SAPE   H6R17128   4.498   2.970   9.777  2.0143  1.7793  0.5660
  154SAPE   C2717129   4.554   2.761   9.710  0.1434  0.1758 -0.4665
  154SAPE   H7R17130   4.597   2.667   9.749 -1.3964 -0.4728 -0.2644
  154SAPE   H7S17131   4.622   2.776   9.623  2.0007 -0.6245  0.7861
  154SAPE   C2817132   4.415   2.736   9.652  0.4557 -0.2167  1.1391
  154SAPE   H8R17133   4.368   2.638   9.670 -0.6113  0.1044  0.1849
  154SAPE   C2917134   4.353   2.820   9.566 -0.0312  0.4712  0.0522
  154SAPE   H9R17135   4.255   2.787   9.530  0.4283 -2.4128  1.2326
  154SAPE  C21017136   4.399   2.956   9.513 -0.5081 -0.4007  0.5979
  154SAPE  H10R17137   4.435   2.922   9.414 -1.2857 -1.7317  0.7564
  154SAPE  H10S17138   4.485   3.007   9.561 -3.1291  2.8357  2.3278
  154SAPE  C21117139   4.292   3.054   9.485  0.3959  0.2554 -0.3129
  154SAPE  H11R17140   4.189   3.026   9.511  0.9656 -1.2213  0.4729
  154SAPE  C21217141   4.315   3.184   9.460 -0.6927 -0.0844 -0.4697
  154SAPE  H12R17142   4.228   3.252   9.467  0.0759  1.0509 -1.4536
  154SAPE  C21317143   4.443   3.260   9.451  0.0833  0.0975  0.4330
  154SAPE  H13R17144   4.426   3.357   9.398 -0.3687  0.3959  1.1106
  154SAPE  H13S17145   4.510   3.205   9.381 -1.1575  0.0187 -0.7186
  154SAPE  C21417146   4.510   3.282   9.580  0.1412  0.6272  0.3703
  154SAPE  H14R17147   4.600   3.220   9.587 -0.5657 -0.5083 -0.3212
  154SAPE  C21517148   4.488   3.371   9.685  0.0446 -0.5164  0.2232
  154SAPE  H15R17149   4.546   3.358   9.778 -0.3282  0.2191  0.5604
  154SAPE  C21617150   4.368   3.463   9.693  0.1010 -0.2916  0.0772
  154SAPE  H16R17151   4.327   3.473   9.795  0.9107  0.8330  0.3166
  154SAPE  H16S17152   4.289   3.423   9.626  1.2263 -0.4970 -1.1822
  154SAPE  C21717153   4.400   3.608   9.650  0.0935  0.2000 -0.1059
  154SAPE  H17R17154   4.489   3.648   9.703 -0.2664  2.2885 -0.9820
  154SAPE  H17S17155   4.312   3.663   9.690  1.1074  1.6111  0.2549
  154SAPE  C21817156   4.408   3.635   9.496  0.0888  0.1755 -0.4429
  154SAPE  H18R17157   4.310   3.608   9.450 -0.2448 -0.9884  0.8884
  154SAPE  H18S17158   4.482   3.557   9.466 -0.9540 -0.3719 -1.6835
  154SAPE  C21917159   4.469   3.775   9.472 -0.5264 -0.7157  0.1970
  154SAPE  H19R17160   4.562   3.781   9.532  0.1017  0.5922 -0.8621
  154SAPE  H19S17161   4.409   3.859   9.514  0.8706  1.3997 -1.7380
  154SAPE  C22017162   4.489   3.820   9.329  0.0046  0.3939 -0.2457
  154SAPE  H20R17163   4.392   3.834   9.275 -0.3427 -1.1457 -0.0523
  154SAPE  H20S17164   4.535   3.736   9.273 -0.2898 -0.3039  0.5360
  154SAPE  H20T17165   4.543   3.917   9.326  0.7339  0.1235  2.3597
  154SAPE   C3317166   5.222   2.634   9.982  0.9625 -0.0086  0.0402
  154SAPE   H3X17167   5.258   2.530   9.967 -1.6833 -0.6526 -3.1434
  154SAPE   H3Y17168   5.287   2.706   9.928  0.3782 -0.3840 -1.2052
  154SAPE   C3417169   5.074   2.632   9.941 -0.6152  0.5629  0.2193
  154SAPE   H4X17170   5.017   2.723   9.970 -1.5656  1.0201 -2.6781
  154SAPE   H4Y17171   5.027   2.549   9.997 -2.1874  0.6704 -0.8696
  154SAPE   C3517172   5.055   2.598   9.799 -0.5208  0.4024  0.1056
  154SAPE   H5X17173   4.957   2.553   9.773  0.4337 -1.3856 -0.5144
  154SAPE   H5Y17174   5.130   2.520   9.773 -1.0827  0.0816 -0.5692
  154SAPE   C3617175   5.073   2.725   9.717 -0.2655  0.1076 -0.4034
  154SAPE   H6X17176   5.176   2.764   9.732 -0.3891 -0.2510  1.6786
  154SAPE   H6Y17177   4.995   2.794   9.754 -1.2340 -1.4510  0.5684
  154SAPE   C3717178   5.061   2.705   9.564 -0.4912 -0.7029  0.1047
  154SAPE   H7X17179   5.113   2.791   9.514 -1.5056 -0.7652 -1.1030
  154SAPE   H7Y17180   4.953   2.715   9.540 -0.8162 -1.2479  1.2890
  154SAPE   C3817181   5.129   2.582   9.501 -0.1402 -0.2561  0.1051
  154SAPE   H8X17182   5.231   2.566   9.543  0.1185  0.8400 -0.0736
  154SAPE   H8Y17183   5.134   2.612   9.395 -1.9851 -1.8474 -0.4991
  154SAPE   C3917184   5.054   2.444   9.500  0.7040  0.3636 -1.2148
  154SAPE   H9X17185   4.946   2.457   9.476  0.3117 -0.6414 -0.1009
  154SAPE   H9Y17186   5.058   2.408   9.605 -0.3246 -0.8481 -1.5592
  154SAPE  C31017187   5.109   2.330   9.416  0.2327  0.5498 -0.4896
  154SAPE  H10X17188   5.063   2.232   9.441 -1.6247  1.1781 -1.2772
  154SAPE  H10Y17189   5.218   2.314   9.429  0.2587  0.0714 -1.2557
  154SAPE  C31117190   5.083   2.354   9.257  0.6121 -0.5858  0.1239
  154SAPE  H11X17191   5.131   2.450   9.231 -0.6947  0.4571  1.3808
  154SAPE  H11Y17192   4.973   2.360   9.241  0.8333 -0.2057 -1.3956
  154SAPE  C31217193   5.143   2.244   9.171  0.3783 -0.3051 -0.0932
  154SAPE  H12X17194   5.132   2.144   9.218  0.6828  0.1569  0.9840
  154SAPE  H12Y17195   5.252   2.258   9.154  0.2033  0.3942 -0.7488
  154SAPE  C31317196   5.077   2.230   9.030 -0.2813  0.5763 -0.0454
  154SAPE  H13X17197   4.973   2.193   9.045  0.3003 -0.7184  1.0360
  154SAPE  H13Y17198   5.139   2.168   8.962 -1.2102  0.6327 -0.9611
  154SAPE  C31417199   5.072   2.362   8.949 -0.3075 -0.1343 -0.0998
  154SAPE  H14X17200   5.178   2.379   8.920 -0.4365 -1.1646 -1.2833
  154SAPE  H14Y17201   5.030   2.456   8.992 -0.2757  0.9490 -2.2987
  154SAPE  C31517202   5.024   2.356   8.803  0.6653 -0.1470 -0.9222
  154SAPE  H15X17203   4.913   2.368   8.796  0.3421 -0.6975  2.0048
  154SAPE  H15Y17204   5.053   2.251   8.781  0.3346 -0.9584  2.0551
  154SAPE  C31617205   5.095   2.452   8.710  0.0143 -0.8421  0.0803
  154SAPE  H16X17206   5.202   2.424   8.697 -0.0390 -0.1967 -2.0342
  154SAPE  H16Y17207   5.096   2.558   8.743 -0.2248 -1.4886  2.3894
  154SAPE  C31717208   5.051   2.449   8.562 -0.4596  0.2165  0.0216
  154SAPE  H17X17209   5.074   2.344   8.533 -1.0568 -1.2740  4.3140
  154SAPE  H17Y17210   5.119   2.518   8.508 -0.8188 -1.9023 -3.4875
  154SAPE  C31817211   4.903   2.484   8.528  0.4727  0.1949  0.1605
  154SAPE  H18X17212   4.877   2.589   8.553 -0.4457 -0.2927  1.3282
  154SAPE  H18Y17213   4.838   2.415   8.586  0.0720 -0.8979 -1.4934
  154SAPE  H18Z17214   4.876   2.458   8.423 -0.3431 -0.0857  0.4301
  155SAPE     N17215   0.942   3.602  11.009 -0.0946 -0.1858  0.8223
  155SAPE   HN117216   1.037   3.641  11.029 -0.5513  1.2642  0.3302
  155SAPE   HN217217   0.864   3.670  11.020 -1.1887 -0.9863 -1.4939
  155SAPE   HN317218   0.933   3.518  11.070 -0.5808 -2.0418 -1.6557
  155SAPE   C1217219   0.945   3.539  10.871  0.0250 -0.4416 -0.4705
  155SAPE  H12A17220   0.848   3.540  10.818  0.9072 -0.9782 -2.1514
  155SAPE  H12B17221   0.969   3.431  10.885  1.0992 -0.4877 -2.4061
  155SAPE   C1117222   1.057   3.592  10.782 -0.5005 -0.2077  0.5680
  155SAPE  H11A17223   1.048   3.559  10.676  1.7718  1.2960 -0.1627
  155SAPE  H11B17224   1.146   3.539  10.823 -1.6581 -2.0550  0.7967
  155SAPE     P17225   1.182   3.806  10.709  0.1135  0.4469 -0.2060
  155SAPE   O1317226   1.129   3.929  10.656 -0.0507 -0.5451 -0.2786
  155SAPE   O1417227   1.304   3.826  10.790 -0.5693 -0.4774  0.1657
  155SAPE   O1217228   1.073   3.727  10.797  0.0953  0.4200 -0.0999
  155SAPE   O1117229   1.216   3.705  10.591  0.4700  0.3773 -0.0902
  155SAPE    C117230   1.202   3.732  10.450  0.5532 -0.6166 -0.5104
  155SAPE    HA17231   1.210   3.841  10.428 -0.7377 -0.2078  0.8903
  155SAPE    HB17232   1.289   3.689  10.396  1.5361  0.2103  0.3540
  155SAPE    C217233   1.073   3.674  10.388  0.5067 -0.2939 -0.0335
  155SAPE    HS17234   0.988   3.703  10.453  2.3297  1.7983  1.5548
  155SAPE   O2117235   1.085   3.531  10.366  0.2697  0.4760 -0.0349
  155SAPE   C2117236   0.980   3.457  10.392  0.6500  0.2704  0.1591
  155SAPE   O2217237   0.874   3.491  10.442  0.0422  0.2520 -0.6183
  155SAPE   C2217238   0.985   3.312  10.330 -0.5694  0.6200  0.2869
  155SAPE   H2R17239   1.090   3.277  10.337 -1.1599 -0.9494  2.8021
  155SAPE   H2S17240   0.935   3.239  10.397 -1.7113  1.0199 -0.1104
  155SAPE    C317241   1.056   3.743  10.252  0.0299 -0.1756  0.2836
  155SAPE    HX17242   1.152   3.739  10.196  0.3012  0.2024  0.7106
  155SAPE    HY17243   1.022   3.846  10.275  0.3795 -0.5989  3.1053
  155SAPE   O3117244   0.963   3.676  10.166 -0.1331 -0.0498  0.1482
  155SAPE   C3117245   0.844   3.721  10.155  0.6381 -0.0042  0.2363
  155SAPE   O3217246   0.777   3.796  10.230 -0.4687 -0.2127 -0.3755
  155SAPE   C3217247   0.780   3.649  10.034 -0.3117 -0.1904  0.0010
  155SAPE   H2X17248   0.687   3.603  10.075 -0.1382 -0.1728  0.4171
  155SAPE   H2Y17249   0.849   3.578   9.984  1.7915  1.4203  0.5026
  155SAPE   C2317250   0.930   3.318  10.186  0.1637  0.5099 -0.0551
  155SAPE   H3R17251   0.984   3.394  10.125 -0.9858 -0.0969 -1.8801
  155SAPE   H3S17252   0.826   3.354  10.198  0.0554  1.2163 -2.4833
  155SAPE   C2417253   0.936   3.183  10.105  0.4373  0.6881 -0.5529
  155SAPE   H4R17254   1.043   3.151  10.104 -0.0806 -1.3127  1.4425
  155SAPE   H4S17255   0.909   3.215  10.002 -0.4597  0.9830 -0.2342
  155SAPE   C2517256   0.848   3.068  10.154 -0.1828 -0.1595 -0.2406
  155SAPE   H5R17257   0.863   3.036  10.259  1.4585  2.0012  0.2356
  155SAPE   C2617258   0.754   3.012  10.080 -0.1376  1.4610 -0.0012
  155SAPE   H6R17259   0.700   2.926  10.123  1.1913 -0.0313 -1.1643
  155SAPE   C2717260   0.713   3.034   9.942  0.1280 -0.2902  0.3706
  155SAPE   H7R17261   0.682   3.140   9.942  0.8024 -0.0876  0.7538
  155SAPE   H7S17262   0.620   2.974   9.924 -0.2454  0.5657 -0.6616
  155SAPE   C2817263   0.821   3.006   9.832  0.1302 -0.0973  0.1034
  155SAPE   H8R17264   0.925   2.994   9.865  0.2543  0.3747 -0.1255
  155SAPE   C2917265   0.794   3.001   9.700  0.3120 -0.2448 -0.3908
  155SAPE   H9R17266   0.877   2.994   9.628  2.4373  0.0041  1.8999
  155SAPE  C21017267   0.654   3.024   9.642 -0.6230 -0.0782  1.0611
  155SAPE  H10R17268   0.622   3.123   9.681 -2.2884 -0.2069  0.0893
  155SAPE  H10S17269   0.591   2.937   9.672  0.8847 -1.4263  0.4673
  155SAPE  C21117270   0.654   3.037   9.491 -0.4908  0.0093 -0.3836
  155SAPE  H11R17271   0.667   2.942   9.438 -0.7258  0.5228 -1.3880
  155SAPE  C21217272   0.656   3.147   9.412  0.3058 -0.2905  0.0778
  155SAPE  H12R17273   0.663   3.129   9.303  2.1326 -0.5515  0.2150
  155SAPE  C21317274   0.651   3.291   9.464  0.2803  0.6274  0.1483
  155SAPE  H13R17275   0.705   3.363   9.399  1.2315 -0.5368 -0.3895
  155SAPE  H13S17276   0.705   3.312   9.559 -1.1151  0.2809  1.0461
  155SAPE  C21417277   0.511   3.341   9.470  0.5469 -0.0276  0.2538
  155SAPE  H14R17278   0.460   3.288   9.552 -0.2552 -1.2151 -0.9649
  155SAPE  C21517279   0.439   3.410   9.382 -0.3026  0.1607 -0.0134
  155SAPE  H15R17280   0.332   3.423   9.407 -0.3675 -0.9610  0.3634
  155SAPE  C21617281   0.471   3.460   9.246  0.3639 -1.0336 -0.8092
  155SAPE  H16R17282   0.581   3.453   9.226  0.4792  2.6763 -2.1520
  155SAPE  H16S17283   0.453   3.569   9.244  2.2688 -0.6382 -4.0052
  155SAPE  C21717284   0.389   3.377   9.142  0.6870  0.9988 -0.5628
  155SAPE  H17R17285   0.281   3.379   9.165  0.2894 -1.2349 -1.9324
  155SAPE  H17S17286   0.404   3.268   9.128  0.6814  0.9228  0.0026
  155SAPE  C21817287   0.385   3.449   9.010 -0.3356  0.2688  0.3563
  155SAPE  H18R17288   0.491   3.465   8.978 -0.0298 -2.8707 -0.4980
  155SAPE  H18S17289   0.345   3.553   9.012  0.8494  0.7341  1.5388
  155SAPE  C21917290   0.302   3.369   8.901 -0.5489 -0.5313 -0.2319
  155SAPE  H19R17291   0.196   3.392   8.922  0.5208  3.6332  1.7098
  155SAPE  H19S17292   0.322   3.259   8.905 -0.0889 -0.5903 -2.5825
  155SAPE  C22017293   0.326   3.408   8.754  0.4821 -0.8847 -0.0434
  155SAPE  H20R17294   0.301   3.515   8.734  0.6121 -0.6263  1.0571
  155SAPE  H20S17295   0.258   3.348   8.691  1.9985 -0.1072 -2.5761
  155SAPE  H20T17296   0.430   3.388   8.719  0.5799 -0.0496 -0.2748
  155SAPE   C3317297   0.746   3.747   9.922 -0.0780  0.2198  0.4493
  155SAPE   H3X17298   0.839   3.802   9.895 -0.5693  0.7569 -0.1855
  155SAPE   H3Y17299   0.688   3.832   9.963  1.7572  2.2321 -0.9095
  155SAPE   C3417300   0.666   3.685   9.803 -0.0756  0.0971 -0.5895
  155SAPE   H4X17301   0.559   3.672   9.832  0.0587  0.3169  0.0360
  155SAPE   H4Y17302   0.694   3.579   9.788 -2.3063 -0.3915 -1.6446
  155SAPE   C3517303   0.699   3.744   9.671 -0.6048  0.3759 -0.3932
  155SAPE   H5X17304   0.803   3.713   9.648 -0.5119  0.3579  0.0431
  155SAPE   H5Y17305   0.703   3.855   9.674 -2.8646  0.5066 -0.4025
  155SAPE   C3617306   0.619   3.697   9.556  0.7802 -0.2223 -0.0603
  155SAPE   H6X17307   0.523   3.752   9.549  0.6888 -0.3451  0.2107
  155SAPE   H6Y17308   0.593   3.589   9.552 -0.7250  0.1470 -0.6753
  155SAPE   C3717309   0.697   3.731   9.423  0.3492  0.5197 -0.1826
  155SAPE   H7X17310   0.627   3.706   9.340 -1.1100 -0.3073  1.2478
  155SAPE   H7Y17311   0.783   3.662   9.409  0.9747  1.2190  0.1324
  155SAPE   C3817312   0.735   3.881   9.397 -0.8084 -0.6720 -0.1763
  155SAPE   H8X17313   0.791   3.928   9.481 -0.4284 -0.4163 -0.5692
  155SAPE   H8Y17314   0.641   3.939   9.400 -1.4113 -1.6652  0.4213
  155SAPE   C3917315   0.803   3.905   9.259 -0.0327  0.7203 -0.1593
  155SAPE   H9X17316   0.754   3.857   9.172 -0.1692  0.5998 -0.0164
  155SAPE   H9Y17317   0.904   3.859   9.269  0.4976  2.0928  1.2182
  155SAPE  C31017318   0.824   4.055   9.219 -0.6381  0.0927 -0.0128
  155SAPE  H10X17319   0.904   4.052   9.143 -1.0729 -0.1540 -0.4658
  155SAPE  H10Y17320   0.859   4.101   9.314 -3.1127  0.9700  0.5477
  155SAPE  C31117321   0.694   4.124   9.166  0.1009 -0.2788  0.3386
  155SAPE  H11X17322   0.611   4.118   9.240 -0.7617  1.4458 -0.4401
  155SAPE  H11Y17323   0.665   4.072   9.072 -2.1432  1.0472  0.2348
  155SAPE  C31217324   0.713   4.272   9.124 -0.5220  0.1034  0.0885
  155SAPE  H12X17325   0.781   4.279   9.036  0.5539 -0.9613  0.8039
  155SAPE  H12Y17326   0.757   4.329   9.208 -2.2377  2.1138 -0.2861
  155SAPE  C31317327   0.576   4.338   9.078  0.2435 -0.1698  0.0727
  155SAPE  H13X17328   0.594   4.447   9.082  1.7219 -0.3946  0.3486
  155SAPE  H13Y17329   0.500   4.318   9.156 -0.8061 -4.2010 -1.7238
  155SAPE  C31417330   0.529   4.285   8.947  0.0039 -0.1933 -0.4650
  155SAPE  H14X17331   0.510   4.176   8.953  2.3421 -0.6160  0.2768
  155SAPE  H14Y17332   0.607   4.290   8.868 -1.4180 -3.4282 -2.3132
  155SAPE  C31517333   0.406   4.369   8.898  0.1190 -0.5133 -0.7228
  155SAPE  H15X17334   0.417   4.478   8.916  0.2618 -0.8456  1.5002
  155SAPE  H15Y17335   0.321   4.337   8.962 -1.5511  2.9084 -0.9803
  155SAPE  C31617336   0.362   4.338   8.751 -0.0225 -0.4313  0.1070
  155SAPE  H16X17337   0.341   4.229   8.737 -0.4552 -0.1987 -1.1259
  155SAPE  H16Y17338   0.441   4.369   8.680  0.9589 -1.9782  0.4717
  155SAPE  C31717339   0.240   4.429   8.721  0.1933  0.0616  0.2636
  155SAPE  H17X17340   0.278   4.532   8.701  1.0887 -0.4556 -0.7904
  155SAPE  H17Y17341   0.173   4.442   8.808 -0.6177 -2.6055  0.0975
  155SAPE  C31817342   0.169   4.378   8.600  0.2354  0.1326  0.1208
  155SAPE  H18X17343   0.145   4.270   8.616  1.7871 -0.1287  0.8762
  155SAPE  H18Y17344   0.251   4.375   8.525  0.3354 -1.8486  0.2508
  155SAPE  H18Z17345   0.087   4.446   8.571 -0.6564 -1.6490 -1.8323
  156SAPE     N17346   5.724   5.676  10.797 -0.0297  0.0865  0.0672
  156SAPE   HN117347   5.772   5.738  10.729  0.2571  1.2009  1.2603
  156SAPE   HN217348   5.638   5.719  10.837  0.2687  0.5324  0.2401
  156SAPE   HN317349   5.789   5.656  10.875  0.0261 -0.3553 -0.0894
  156SAPE   C1217350   5.686   5.546  10.731 -0.4949 -0.2834 -0.3987
  156SAPE  H12A17351   5.661   5.475  10.813 -1.5467 -0.6297 -0.9986
  156SAPE  H12B17352   5.776   5.506  10.680 -0.4133  0.8138 -1.1478
  156SAPE   C1117353   5.557   5.545  10.640 -0.3691  0.3730  0.2470
  156SAPE  H11A17354   5.573   5.467  10.563  2.1535  0.5273  0.5033
  156SAPE  H11B17355   5.557   5.637  10.578 -1.7281 -0.4622 -1.0437
  156SAPE     P17356   5.359   5.662  10.778 -0.4202  0.0766  0.2131
  156SAPE   O1317357   5.233   5.604  10.825 -0.2950  0.3336 -0.6400
  156SAPE   O1417358   5.443   5.720  10.886  0.4831  0.2916 -0.0077
  156SAPE   O1217359   5.440   5.540  10.716 -0.5150 -0.3269 -0.1799
  156SAPE   O1117360   5.332   5.747  10.653 -0.0074  0.6642  0.0507
  156SAPE    C117361   5.231   5.723  10.557 -0.2138  0.3663  0.4325
  156SAPE    HA17362   5.140   5.695  10.615 -0.6043 -0.6462 -0.6221
  156SAPE    HB17363   5.203   5.810  10.494 -1.6798  0.2661  0.8923
  156SAPE    C217364   5.254   5.608  10.459  0.1024 -0.2094  0.0529
  156SAPE    HS17365   5.310   5.526  10.509 -0.1943 -0.3790  0.1026
  156SAPE   O2117366   5.346   5.666  10.366 -0.3827 -0.0657  0.5993
  156SAPE   C2117367   5.422   5.578  10.302 -0.6356 -0.2551  0.0638
  156SAPE   O2217368   5.427   5.459  10.318  1.1296 -0.7391 -0.0373
  156SAPE   C2217369   5.500   5.652  10.189  0.4446  0.5698 -0.3499
  156SAPE   H2R17370   5.500   5.761  10.215  1.1215  0.5709 -0.3326
  156SAPE   H2S17371   5.607   5.626  10.203  0.5657  0.7821 -0.8587
  156SAPE    C317372   5.115   5.575  10.398  0.3611 -0.1098  0.7473
  156SAPE    HX17373   5.069   5.668  10.359  0.6396  0.5846  2.0289
  156SAPE    HY17374   5.048   5.551  10.483 -0.1016  0.7274  0.6300
  156SAPE   O3117375   5.130   5.483  10.291  0.2999  0.3566  0.7396
  156SAPE   C3117376   5.103   5.353  10.316  0.3896  0.2900  0.0199
  156SAPE   O3217377   5.053   5.316  10.422 -0.0886 -0.1824  0.1026
  156SAPE   C3217378   5.123   5.283  10.185  1.2696 -0.0913 -0.3206
  156SAPE   H2X17379   5.211   5.215  10.196  2.1994  1.1376  0.0198
  156SAPE   H2Y17380   5.146   5.358  10.107  0.0982  0.6276 -0.0043
  156SAPE   C2317381   5.444   5.626  10.045 -0.0922 -0.5014  0.1962
  156SAPE   H3R17382   5.463   5.710   9.975 -1.2202 -0.8214 -0.5123
  156SAPE   H3S17383   5.335   5.619  10.064  0.5120 -1.0493  4.2933
  156SAPE   C2417384   5.513   5.503   9.975  0.8084  0.0024 -0.2785
  156SAPE   H4R17385   5.493   5.405  10.025  1.4898  0.2088  0.4279
  156SAPE   H4S17386   5.624   5.512   9.982  0.8410 -1.0206  0.8382
  156SAPE   C2517387   5.443   5.477   9.845 -0.0406 -0.3311 -0.1695
  156SAPE   H5R17388   5.337   5.450   9.839  0.0544 -0.7207 -0.1591
  156SAPE   C2617389   5.509   5.462   9.726  0.8801 -0.8292 -0.1644
  156SAPE   H6R17390   5.456   5.437   9.634  1.7907  3.2607 -2.0586
  156SAPE   C2717391   5.658   5.481   9.710 -0.1082 -0.2647  0.3095
  156SAPE   H7R17392   5.687   5.403   9.637  0.1811 -0.3792  0.5420
  156SAPE   H7S17393   5.715   5.443   9.798  2.0980 -3.2034 -2.1876
  156SAPE   C2817394   5.705   5.618   9.673  0.6390 -0.4265 -0.2222
  156SAPE   H8R17395   5.720   5.685   9.759 -1.2932  0.8795 -0.8420
  156SAPE   C2917396   5.749   5.673   9.554  1.1857 -0.6039 -0.5544
  156SAPE   H9R17397   5.765   5.782   9.544 -0.2544 -0.3452 -0.3733
  156SAPE  C21017398   5.747   5.599   9.422 -0.2800  0.2751  0.2988
  156SAPE  H10R17399   5.813   5.510   9.430 -0.5638  0.1220  1.0116
  156SAPE  H10S17400   5.799   5.662   9.347 -0.7416  0.4279  0.1040
  156SAPE  C21117401   5.614   5.560   9.365  0.0933  0.5949  0.2116
  156SAPE  H11R17402   5.521   5.576   9.422  0.8473 -1.8718  2.3210
  156SAPE  C21217403   5.607   5.511   9.240 -0.6862  0.8719 -0.0777
  156SAPE  H12R17404   5.513   5.483   9.191 -0.4827  2.4492 -1.4724
  156SAPE  C21317405   5.725   5.488   9.151 -0.5431 -0.3520  0.1745
  156SAPE  H13R17406   5.697   5.405   9.083  1.3033 -0.0386 -1.0403
  156SAPE  H13S17407   5.810   5.457   9.216 -0.4253  0.9199  0.6494
  156SAPE  C21417408   5.785   5.595   9.055  0.8470 -0.6055  0.1131
  156SAPE  H14R17409   5.830   5.686   9.099 -2.3829  0.8239  0.7755
  156SAPE  C21517410   5.793   5.584   8.921  0.5075 -0.2709  0.2629
  156SAPE  H15R17411   5.835   5.664   8.858 -4.0568  2.2340 -0.0247
  156SAPE  C21617412   5.748   5.462   8.841 -0.0323 -0.4514  0.1943
  156SAPE  H16R17413   5.690   5.390   8.902  1.4276  0.4131  2.7201
  156SAPE  H16S17414   5.839   5.404   8.812  0.6377  0.3272  0.7249
  156SAPE  C21717415   5.685   5.506   8.713  0.5383 -0.2928  0.2199
  156SAPE  H17R17416   5.739   5.599   8.683  1.4878  0.4827  3.8724
  156SAPE  H17S17417   5.581   5.535   8.737  0.7223 -2.3241  4.3924
  156SAPE  C21817418   5.691   5.401   8.605  0.4077 -0.5110 -0.4720
  156SAPE  H18R17419   5.685   5.301   8.654  1.5987 -0.4686 -0.2051
  156SAPE  H18S17420   5.792   5.394   8.558 -0.2946 -1.0561 -1.9670
  156SAPE  C21917421   5.596   5.427   8.486  0.2364  0.4022  0.2842
  156SAPE  H19R17422   5.620   5.349   8.411 -1.3007 -0.3262  0.5091
  156SAPE  H19S17423   5.613   5.532   8.453 -2.5561  0.9970  0.4747
  156SAPE  C22017424   5.442   5.421   8.511 -0.0284  0.2593  0.2927
  156SAPE  H20R17425   5.396   5.427   8.409 -1.4210  3.7900  0.9973
  156SAPE  H20S17426   5.413   5.513   8.565 -2.0747  0.2896 -0.7402
  156SAPE  H20T17427   5.418   5.327   8.565 -0.1216  0.3316  0.3768
  156SAPE   C3317428   4.994   5.208  10.147 -0.1293 -0.4302  0.7409
  156SAPE   H3X17429   4.900   5.251  10.188 -2.1850 -3.5667 -0.2836
  156SAPE   H3Y17430   4.989   5.110  10.198 -0.3519 -0.9262 -0.2036
  156SAPE   C3417431   4.978   5.184   9.996 -1.0160  0.1485 -0.9301
  156SAPE   H4X17432   5.073   5.147   9.951 -0.1512 -0.8381  1.5403
  156SAPE   H4Y17433   4.967   5.283   9.947 -0.4700 -0.4358 -2.2903
  156SAPE   C3517434   4.848   5.121   9.965 -0.4196 -0.6377 -0.7409
  156SAPE   H5X17435   4.763   5.168  10.020 -1.0638 -2.9441  0.3393
  156SAPE   H5Y17436   4.833   5.012   9.981 -2.4229 -0.0950  1.6997
  156SAPE   C3617437   4.809   5.131   9.814  0.2679  0.0794 -0.1894
  156SAPE   H6X17438   4.867   5.059   9.752  2.2957  2.3248 -1.0434
  156SAPE   H6Y17439   4.830   5.232   9.773  2.2171  0.3942  1.4470
  156SAPE   C3717440   4.660   5.108   9.775 -0.7724 -0.0437 -0.0706
  156SAPE   H7X17441   4.603   5.186   9.831 -0.5578  0.7248 -0.9152
  156SAPE   H7Y17442   4.632   5.003   9.800 -1.5712  0.1530 -0.1187
  156SAPE   C3817443   4.625   5.121   9.626 -0.3228  0.0786  0.1947
  156SAPE   H8X17444   4.612   5.230   9.615 -1.4148 -0.0126  0.4712
  156SAPE   H8Y17445   4.532   5.069   9.595 -0.0918 -1.7213  2.2458
  156SAPE   C3917446   4.739   5.086   9.528  0.5474 -0.4652  0.0446
  156SAPE   H9X17447   4.774   4.982   9.544  1.1168 -0.0701  1.5785
  156SAPE   H9Y17448   4.822   5.150   9.566  1.2502 -1.3431  0.0240
  156SAPE  C31017449   4.707   5.124   9.382 -0.0457  0.2566 -0.0479
  156SAPE  H10X17450   4.681   5.231   9.390 -1.0022  0.0775 -0.6221
  156SAPE  H10Y17451   4.619   5.075   9.336  0.5439 -0.2437 -0.6855
  156SAPE  C31117452   4.830   5.094   9.298 -0.6598 -0.3844 -0.7156
  156SAPE  H11X17453   4.846   4.987   9.322  2.0440  0.2230  0.5061
  156SAPE  H11Y17454   4.909   5.155   9.347 -3.5291  1.1563  2.4476
  156SAPE  C31217455   4.813   5.115   9.145 -0.6917  0.1418  0.1848
  156SAPE  H12X17456   4.825   5.223   9.123  0.0904 -0.5096 -3.1807
  156SAPE  H12Y17457   4.718   5.073   9.106 -0.7192 -0.6863  1.0993
  156SAPE  C31317458   4.928   5.044   9.075  0.6331  0.5171 -0.0369
  156SAPE  H13X17459   4.921   4.941   9.117 -1.6311 -0.0372 -1.5378
  156SAPE  H13Y17460   5.029   5.083   9.096  0.4698 -0.3918  2.8485
  156SAPE  C31417461   4.899   5.047   8.930  1.1469 -0.0211  0.8528
  156SAPE  H14X17462   4.936   5.147   8.898 -2.2579  0.7257 -1.2525
  156SAPE  H14Y17463   4.790   5.045   8.908  0.9455  3.1982  1.0219
  156SAPE  C31517464   4.972   4.947   8.848  0.4916  0.4910  0.0189
  156SAPE  H15X17465   4.914   4.934   8.754 -1.9756 -0.7137  1.6032
  156SAPE  H15Y17466   4.953   4.853   8.905 -1.7152  1.4765  1.0049
  156SAPE  C31617467   5.119   4.974   8.809 -0.1603 -0.0021 -0.4584
  156SAPE  H16X17468   5.172   4.995   8.905 -0.8033  0.0330 -0.1067
  156SAPE  H16Y17469   5.117   5.069   8.752 -0.8935 -0.5493 -1.3717
  156SAPE  C31717470   5.190   4.866   8.733  0.2340  0.4920 -0.5405
  156SAPE  H17X17471   5.140   4.769   8.754  2.6862 -0.7188  0.0082
  156SAPE  H17Y17472   5.292   4.857   8.776 -0.2975 -2.6895  0.2512
  156SAPE  C31817473   5.200   4.889   8.580  0.3288  0.8512 -0.4602
  156SAPE  H18X17474   5.167   4.991   8.552  2.2998  1.4874 -0.6655
  156SAPE  H18Y17475   5.135   4.816   8.526  1.8130 -1.3468  0.5495
  156SAPE  H18Z17476   5.304   4.869   8.545  0.4747  0.1620  0.3471
  157SAPE     N17477   4.895   0.931  10.743  0.2981 -0.4734 -0.3325
  157SAPE   HN117478   4.855   0.975  10.657 -0.5839  0.5178  0.5472
  157SAPE   HN217479   4.911   1.010  10.809 -3.0057 -2.0871  2.7271
  157SAPE   HN317480   4.974   0.867  10.724 -0.8623 -2.8940  2.2209
  157SAPE   C1217481   4.784   0.852  10.814  0.3528  0.4779 -0.1311
  157SAPE  H12A17482   4.737   0.925  10.883 -2.6376 -2.4109  1.2037
  157SAPE  H12B17483   4.831   0.769  10.871 -2.4264 -0.2509  1.3251
  157SAPE   C1117484   4.676   0.790  10.719 -0.5074 -0.2897 -0.0098
  157SAPE  H11A17485   4.613   0.729  10.787  0.4415 -2.3870 -0.9162
  157SAPE  H11B17486   4.721   0.725  10.640 -1.2976 -2.0960  0.9500
  157SAPE     P17487   4.619   0.969  10.524  0.1075 -0.1260 -0.5821
  157SAPE   O1317488   4.514   1.074  10.502 -0.0643  0.7850 -0.6848
  157SAPE   O1417489   4.763   1.009  10.506  0.7313  0.4441  0.4415
  157SAPE   O1217490   4.597   0.899  10.665 -0.8757 -0.0188 -0.3699
  157SAPE   O1117491   4.597   0.848  10.425  0.4884 -0.0929  0.5435
  157SAPE    C117492   4.471   0.783  10.439  0.1986  0.3713 -0.3397
  157SAPE    HA17493   4.488   0.683  10.485  0.2478  0.6528  0.2602
  157SAPE    HB17494   4.386   0.829  10.494 -0.3588 -1.1875  0.1737
  157SAPE    C217495   4.416   0.754  10.297  0.7579 -0.0437  0.2293
  157SAPE    HS17496   4.324   0.691  10.302  0.8375 -0.1688  0.1267
  157SAPE   O2117497   4.510   0.688  10.204 -0.4618 -0.2207 -0.4340
  157SAPE   C2117498   4.564   0.571  10.236 -0.0529 -0.4032  0.1996
  157SAPE   O2217499   4.523   0.500  10.325 -0.4349 -0.1749 -0.2351
  157SAPE   C2217500   4.682   0.541  10.138 -0.3835 -0.1521  0.4778
  157SAPE   H2R17501   4.651   0.592  10.044  1.4050  0.6034  0.2573
  157SAPE   H2S17502   4.767   0.593  10.189  0.0627 -0.5764  0.1749
  157SAPE    C317503   4.353   0.890  10.234 -0.2424 -0.1377 -0.0741
  157SAPE    HX17504   4.445   0.952  10.231  0.3801 -1.0341  0.0286
  157SAPE    HY17505   4.284   0.931  10.310 -0.4860  0.3306 -0.5465
  157SAPE   O3117506   4.299   0.877  10.097 -0.2405  0.4310  0.6490
  157SAPE   C3117507   4.182   0.819  10.098  0.0136 -0.2250  0.2121
  157SAPE   O3217508   4.127   0.763  10.191  0.1174  0.2742 -0.3276
  157SAPE   C3217509   4.110   0.810   9.961  0.2313  0.8784 -0.2126
  157SAPE   H2X17510   4.119   0.910   9.913  0.1430  0.5469 -0.9185
  157SAPE   H2Y17511   4.002   0.795   9.981  0.3349  0.7135  0.2452
  157SAPE   C2317512   4.709   0.397  10.126  0.1684  1.3196  0.5817
  157SAPE   H3R17513   4.617   0.335  10.118  0.5726  0.8231 -0.3430
  157SAPE   H3S17514   4.758   0.362  10.219  0.7674 -2.9159 -1.1057
  157SAPE   C2417515   4.804   0.368  10.013  0.2773 -0.0727  0.4790
  157SAPE   H4R17516   4.853   0.269  10.028 -0.7182 -0.6336  0.1372
  157SAPE   H4S17517   4.885   0.443  10.024  0.5593 -0.3320  0.2025
  157SAPE   C2517518   4.739   0.376   9.875 -0.3917  0.5359 -0.0545
  157SAPE   H5R17519   4.700   0.473   9.842 -2.1266 -0.0840  0.0765
  157SAPE   C2617520   4.739   0.272   9.791  0.3502 -0.7039  0.5928
  157SAPE   H6R17521   4.692   0.284   9.692 -0.3945 -2.6264  0.6673
  157SAPE   C2717522   4.793   0.124   9.804 -0.1147 -1.0028  0.7036
  157SAPE   H7R17523   4.873   0.125   9.882 -0.3432 -0.6417  0.9367
  157SAPE   H7S17524   4.827   0.088   9.705 -1.3929 -1.3161  0.3648
  157SAPE   C2817525   4.686   0.035   9.864 -0.3803  0.1463  0.1740
  157SAPE   H8R17526   4.694   0.011   9.971  2.4234 -1.4520 -0.2939
  157SAPE   C2917527   4.604  -0.044   9.787  0.6357  0.4436 -0.5041
  157SAPE   H9R17528   4.535  -0.114   9.837  1.0690 -0.5009 -1.1954
  157SAPE  C21017529   4.603  -0.058   9.634 -0.7762 -0.4682 -1.4497
  157SAPE  H10R17530   4.702  -0.090   9.596  0.5680  1.1615  0.4663
  157SAPE  H10S17531   4.600   0.047   9.599 -0.3440 -0.1712 -0.6116
  157SAPE  C21117532   4.486  -0.138   9.571  0.7830  0.0985  0.2789
  157SAPE  H11R17533   4.393  -0.134   9.629 -0.5818 -0.0979 -1.8083
  157SAPE  C21217534   4.486  -0.205   9.454  0.2550  0.7020  0.0717
  157SAPE  H12R17535   4.393  -0.254   9.422 -0.1514  1.9696 -0.7816
  157SAPE  C21317536   4.600  -0.221   9.355 -0.5039 -0.3470  0.0998
  157SAPE  H13R17537   4.699  -0.198   9.399 -0.0322 -2.2948  0.1317
  157SAPE  H13S17538   4.587  -0.142   9.278 -0.3668  0.5803  1.0008
  157SAPE  C21417539   4.599  -0.352   9.283  0.3807 -0.5207 -0.8011
  157SAPE  H14R17540   4.643  -0.441   9.330 -0.5672 -1.3381 -1.4112
  157SAPE  C21517541   4.547  -0.391   9.161 -0.2948  0.1902  0.7436
  157SAPE  H15R17542   4.558  -0.495   9.127 -2.9306  0.5804 -1.6784
  157SAPE  C21617543   4.468  -0.311   9.059 -1.0113  0.1185 -0.0429
  157SAPE  H16R17544   4.450  -0.210   9.101 -2.3160  0.0015 -0.2924
  157SAPE  H16S17545   4.369  -0.361   9.045 -0.3949 -0.8535 -1.1731
  157SAPE  C21717546   4.525  -0.306   8.920 -0.0072  0.1556  0.3342
  157SAPE  H17R17547   4.633  -0.280   8.921  0.1516 -0.4466 -0.5850
  157SAPE  H17S17548   4.475  -0.227   8.860  1.1420  0.6440 -0.0109
  157SAPE  C21817549   4.514  -0.441   8.842  0.4276 -1.4081  0.2003
  157SAPE  H18R17550   4.408  -0.474   8.845 -0.1197  0.2764  0.8617
  157SAPE  H18S17551   4.574  -0.515   8.897  0.6939 -0.1184  1.7046
  157SAPE  C21917552   4.555  -0.431   8.698 -0.0627 -0.0180  0.2131
  157SAPE  H19R17553   4.500  -0.348   8.648 -1.2086  0.3511  1.9911
  157SAPE  H19S17554   4.521  -0.520   8.641 -0.2218  0.0007  0.2764
  157SAPE  C22017555   4.707  -0.410   8.674 -1.0615 -0.8117  0.7276
  157SAPE  H20R17556   4.737  -0.409   8.567 -0.3441 -1.8357  0.9060
  157SAPE  H20S17557   4.770  -0.485   8.726 -2.2280 -1.5763  1.0697
  157SAPE  H20T17558   4.729  -0.307   8.711  0.8608 -0.8690 -0.1238
  157SAPE   C3317559   4.166   0.697   9.866  0.0219 -0.0465  1.2108
  157SAPE   H3X17560   4.135   0.721   9.762  0.1404 -1.4458  0.8410
  157SAPE   H3Y17561   4.127   0.599   9.899  0.5162 -0.0847  1.6851
  157SAPE   C3417562   4.316   0.666   9.856 -0.0622  1.2418  0.7386
  157SAPE   H4X17563   4.334   0.579   9.790  0.2838  0.7695  1.4441
  157SAPE   H4Y17564   4.349   0.632   9.956  0.4915  3.4496  1.3621
  157SAPE   C3517565   4.418   0.768   9.810  0.0113 -0.5430 -0.0600
  157SAPE   H5X17566   4.441   0.832   9.898 -0.7045 -2.1120  1.3217
  157SAPE   H5Y17567   4.364   0.833   9.738 -2.0021  1.1673  2.7856
  157SAPE   C3617568   4.543   0.707   9.748  0.1369 -0.3804  0.6564
  157SAPE   H6X17569   4.567   0.617   9.808 -1.5214 -1.0298  0.4085
  157SAPE   H6Y17570   4.636   0.766   9.762  0.5508 -0.9313  0.2906
  157SAPE   C3717571   4.522   0.670   9.598 -0.3249  0.8112 -0.3548
  157SAPE   H7X17572   4.417   0.637   9.587  0.2310 -1.3288  0.3210
  157SAPE   H7Y17573   4.584   0.580   9.576 -1.6539  0.3439 -2.4195
  157SAPE   C3817574   4.544   0.780   9.504  0.0618 -0.4461 -0.8066
  157SAPE   H8X17575   4.649   0.814   9.517  0.9072 -3.2656  0.7419
  157SAPE   H8Y17576   4.469   0.857   9.530 -1.9049 -2.6522  0.4681
  157SAPE   C3917577   4.515   0.741   9.360 -0.6051  0.1556 -0.3494
  157SAPE   H9X17578   4.412   0.699   9.351  0.0513 -1.3065 -1.4063
  157SAPE   H9Y17579   4.585   0.661   9.328 -0.6326  0.4867 -1.2710
  157SAPE  C31017580   4.531   0.852   9.254 -0.0180 -0.3125 -0.4236
  157SAPE  H10X17581   4.638   0.882   9.244 -0.7240  2.0319 -1.6434
  157SAPE  H10Y17582   4.491   0.944   9.301  0.2742 -0.6201  0.4450
  157SAPE  C31117583   4.473   0.829   9.117  0.6094  0.0993  0.9496
  157SAPE  H11X17584   4.434   0.924   9.073  1.5254 -0.3020 -0.8178
  157SAPE  H11Y17585   4.382   0.769   9.139  0.3323  0.0421 -0.2945
  157SAPE  C31217586   4.566   0.755   9.027  0.9147  0.1923  0.1470
  157SAPE  H12X17587   4.618   0.679   9.089  1.0431  0.5816  0.5155
  157SAPE  H12Y17588   4.636   0.817   8.967 -0.2629  0.9458 -0.4908
  157SAPE  C31317589   4.475   0.669   8.925 -0.5268  0.3859 -0.2101
  157SAPE  H13X17590   4.372   0.649   8.962 -0.5130 -1.0209 -0.8737
  157SAPE  H13Y17591   4.523   0.570   8.908  0.7936  1.4325 -3.3266
  157SAPE  C31417592   4.475   0.729   8.781  0.2329 -0.0432  0.1383
  157SAPE  H14X17593   4.571   0.734   8.725  1.2778  0.4544  1.8869
  157SAPE  H14Y17594   4.445   0.835   8.794  2.0737  0.6271 -0.7416
  157SAPE  C31517595   4.370   0.662   8.682 -0.5838  0.1792 -0.0872
  157SAPE  H15X17596   4.364   0.724   8.590 -1.1033  1.7829  0.9830
  157SAPE  H15Y17597   4.270   0.652   8.730 -1.2048  1.0620 -1.1389
  157SAPE  C31617598   4.412   0.524   8.629  0.2005 -0.2016  0.2637
  157SAPE  H16X17599   4.463   0.463   8.707  2.4941 -0.1634 -1.1170
  157SAPE  H16Y17600   4.498   0.528   8.559 -0.4082 -1.2174 -0.5787
  157SAPE  C31717601   4.311   0.453   8.543  0.6198 -0.0215 -0.2169
  157SAPE  H17X17602   4.374   0.364   8.524  0.7760 -0.6597  2.7856
  157SAPE  H17Y17603   4.281   0.499   8.446  1.8431 -1.0470 -1.1046
  157SAPE  C31817604   4.180   0.413   8.607 -0.0846  0.5922 -0.0955
  157SAPE  H18X17605   4.114   0.362   8.534 -1.0256 -0.3161  1.3437
  157SAPE  H18Y17606   4.128   0.503   8.646 -0.9208  0.8505 -1.7182
  157SAPE  H18Z17607   4.197   0.357   8.702 -0.7936  0.2051 -0.1922
  158SAPE     N17608   4.502   4.756  10.948  0.5526 -0.0922  0.0058
  158SAPE   HN117609   4.473   4.658  10.928  0.2225  0.3328 -1.8587
  158SAPE   HN217610   4.555   4.764  11.037 -3.2389 -0.0569  2.5016
  158SAPE   HN317611   4.416   4.813  10.958  0.3390 -0.3203 -0.4797
  158SAPE   C1217612   4.578   4.803  10.830  0.0666  0.5543  0.0945
  158SAPE  H12A17613   4.674   4.841  10.871  0.8854 -0.4801 -0.8219
  158SAPE  H12B17614   4.513   4.885  10.793  0.5975  2.3453  2.8158
  158SAPE   C1117615   4.605   4.695  10.724  0.2229  0.4361  0.9090
  158SAPE  H11A17616   4.668   4.748  10.649  0.6875 -0.4653  0.6438
  158SAPE  H11B17617   4.512   4.665  10.670  0.4155  2.6341 -0.7857
  158SAPE     P17618   4.719   4.464  10.684 -0.1620  0.2990 -0.3772
  158SAPE   O1317619   4.831   4.523  10.604 -0.3470 -0.2647 -0.5114
  158SAPE   O1417620   4.755   4.344  10.770  0.0439  0.5184 -0.3410
  158SAPE   O1217621   4.665   4.580  10.786  0.0719 -0.7275  0.0393
  158SAPE   O1117622   4.597   4.442  10.594  0.2615 -0.6938 -0.1508
  158SAPE    C117623   4.567   4.326  10.512 -0.9503 -0.6286  0.9303
  158SAPE    HA17624   4.656   4.263  10.493  0.5331  1.6434  0.0453
  158SAPE    HB17625   4.497   4.262  10.570 -0.4894 -2.2051 -0.1892
  158SAPE    C217626   4.518   4.347  10.368  0.0432 -0.4824  0.5664
  158SAPE    HS17627   4.552   4.258  10.311 -2.2817  0.1143 -1.9471
  158SAPE   O2117628   4.565   4.472  10.316 -0.6355 -0.0497  0.0658
  158SAPE   C2117629   4.689   4.477  10.278 -0.0505 -0.0449  0.1071
  158SAPE   O2217630   4.764   4.380  10.276 -0.0967 -0.6713  0.0362
  158SAPE   C2217631   4.731   4.616  10.254 -0.1235 -0.1977 -0.3511
  158SAPE   H2R17632   4.645   4.677  10.218 -0.5379  1.4688  3.0279
  158SAPE   H2S17633   4.756   4.658  10.353 -2.6660  1.4756 -0.3240
  158SAPE    C317634   4.366   4.344  10.350  0.2182  0.6859 -0.1225
  158SAPE    HX17635   4.347   4.377  10.246 -0.6894  1.7554  0.3527
  158SAPE    HY17636   4.325   4.423  10.418 -1.1410  0.0306 -0.1507
  158SAPE   O3117637   4.309   4.214  10.367  0.5985  0.3292  0.1747
  158SAPE   C3117638   4.230   4.199  10.471 -0.1604  0.3573 -0.0565
  158SAPE   O3217639   4.202   4.278  10.558 -0.0723 -1.1430 -0.6304
  158SAPE   C3217640   4.176   4.055  10.474  0.4563  0.3813 -0.8417
  158SAPE   H2X17641   4.192   4.016  10.576  0.5309  1.6618 -0.3470
  158SAPE   H2Y17642   4.222   3.983  10.403 -1.2874 -1.0991 -0.5556
  158SAPE   C2317643   4.857   4.625  10.166 -0.1447  0.6678 -1.0137
  158SAPE   H3R17644   4.927   4.544  10.194 -1.3367 -0.0214  0.0855
  158SAPE   H3S17645   4.903   4.726  10.172 -2.3242  1.7777 -1.9203
  158SAPE   C2417646   4.822   4.601  10.017  0.7733  0.3230 -0.3519
  158SAPE   H4R17647   4.751   4.679   9.981  0.9188 -0.4155 -2.3391
  158SAPE   H4S17648   4.775   4.503   9.998 -2.0434  1.6614 -0.8835
  158SAPE   C2517649   4.947   4.595   9.929  0.5076 -0.6637 -0.7102
  158SAPE   H5R17650   5.042   4.558   9.969  0.7621 -0.0372 -0.7138
  158SAPE   C2617651   4.945   4.644   9.798 -0.0604  0.0637 -0.4461
  158SAPE   H6R17652   5.026   4.609   9.733 -0.4152 -1.9230  0.1087
  158SAPE   C2717653   4.833   4.712   9.722  0.3896 -0.6333 -0.4524
  158SAPE   H7R17654   4.867   4.776   9.638  1.5499 -0.7523 -0.0918
  158SAPE   H7S17655   4.785   4.786   9.790  0.8275  0.4411 -1.2850
  158SAPE   C2817656   4.722   4.620   9.673 -0.4170  0.4501  0.3337
  158SAPE   H8R17657   4.669   4.559   9.747 -0.3196  1.1372  0.9903
  158SAPE   C2917658   4.676   4.599   9.549 -0.6090  0.3944  0.3304
  158SAPE   H9R17659   4.595   4.528   9.528  0.6038 -0.5579 -1.3644
  158SAPE  C21017660   4.736   4.675   9.427  0.6047  0.4139 -0.8227
  158SAPE  H10R17661   4.774   4.774   9.461 -0.4968  0.7877 -0.6316
  158SAPE  H10S17662   4.659   4.704   9.352  0.6501  0.5954 -0.8017
  158SAPE  C21117663   4.847   4.608   9.345  0.1764  0.7645 -0.1175
  158SAPE  H11R17664   4.934   4.586   9.408  0.2115  3.3559  0.8679
  158SAPE  C21217665   4.855   4.555   9.219 -0.5345  0.4128  0.1954
  158SAPE  H12R17666   4.952   4.514   9.190 -0.8887  0.1465 -0.6346
  158SAPE  C21317667   4.742   4.550   9.117  0.8154 -0.8158  0.3407
  158SAPE  H13R17668   4.653   4.581   9.175  1.6890  1.2350  0.6820
  158SAPE  H13S17669   4.746   4.445   9.081  1.5760 -0.4234 -0.8050
  158SAPE  C21417670   4.756   4.640   9.002  0.0887  0.5456  0.5582
  158SAPE  H14R17671   4.833   4.717   9.018  1.5933  0.2185 -3.6994
  158SAPE  C21517672   4.693   4.632   8.881 -0.0854 -0.5268  0.1949
  158SAPE  H15R17673   4.718   4.695   8.795 -2.2529 -0.6099 -0.5617
  158SAPE  C21617674   4.590   4.527   8.854 -0.1021 -0.0006  0.0684
  158SAPE  H16R17675   4.569   4.457   8.937 -0.2363 -0.6265 -0.4906
  158SAPE  H16S17676   4.641   4.472   8.772  0.7862 -0.5906  1.0061
  158SAPE  C21717677   4.455   4.589   8.803 -0.7446  0.0492 -0.3463
  158SAPE  H17R17678   4.483   4.660   8.723  1.6759  0.2695  0.6307
  158SAPE  H17S17679   4.413   4.645   8.888  2.7598  1.1640  0.8096
  158SAPE  C21817680   4.360   4.491   8.738  0.0743 -0.0258 -0.4724
  158SAPE  H18R17681   4.320   4.419   8.813  2.6499 -1.5653 -0.4366
  158SAPE  H18S17682   4.389   4.430   8.649  0.1644  2.3198 -2.1633
  158SAPE  C21917683   4.239   4.569   8.687  0.5056  0.1256 -0.4445
  158SAPE  H19R17684   4.165   4.501   8.640  1.4933 -1.6100  0.4153
  158SAPE  H19S17685   4.262   4.644   8.609  0.0125  0.6613 -0.0863
  158SAPE  C22017686   4.156   4.642   8.795  0.3253  0.6510  0.2451
  158SAPE  H20R17687   4.059   4.666   8.748  1.4710  1.1968 -1.9717
  158SAPE  H20S17688   4.204   4.739   8.821  0.7335  0.3501  0.6465
  158SAPE  H20T17689   4.151   4.574   8.883  1.3909  0.2033 -0.0248
  158SAPE   C3317690   4.021   4.060  10.452  0.2915 -0.0440  0.2955
  158SAPE   H3X17691   3.981   4.155  10.493  1.5339  1.4352 -1.7229
  158SAPE   H3Y17692   3.974   3.977  10.510  0.6907  0.3740  1.2377
  158SAPE   C3417693   3.979   4.059  10.299 -0.0618  0.1691  0.0157
  158SAPE   H4X17694   3.868   4.065  10.304 -0.2544 -0.9245 -1.9621
  158SAPE   H4Y17695   4.010   3.958  10.263  0.4068  0.2711  0.1218
  158SAPE   C3517696   4.029   4.179  10.219 -0.4562  0.2222  0.2490
  158SAPE   H5X17697   4.123   4.149  10.167 -1.1740 -0.7413 -0.5343
  158SAPE   H5Y17698   4.058   4.257  10.293  2.1198 -0.9758  0.6041
  158SAPE   C3617699   3.918   4.231  10.123  0.1581 -0.8152  0.6588
  158SAPE   H6X17700   3.844   4.291  10.180 -0.8540 -2.0533  0.6895
  158SAPE   H6Y17701   3.867   4.137  10.090 -1.4067 -0.4078  1.7886
  158SAPE   C3717702   3.980   4.308  10.005 -0.1046  0.0495  0.1614
  158SAPE   H7X17703   4.002   4.224   9.936 -1.6434  0.2545 -0.6468
  158SAPE   H7Y17704   4.077   4.355  10.028  0.6068 -1.6186  0.7097
  158SAPE   C3817705   3.879   4.394   9.932 -0.4640  0.0522  0.9208
  158SAPE   H8X17706   3.839   4.466  10.006 -3.6724 -4.0519  3.6157
  158SAPE   H8Y17707   3.792   4.333   9.898  1.0441 -0.5688 -2.2732
  158SAPE   C3917708   3.945   4.449   9.803 -0.7813  0.0282 -0.2095
  158SAPE   H9X17709   3.966   4.365   9.734 -1.6458 -1.0795  0.8217
  158SAPE   H9Y17710   4.038   4.501   9.834  0.1973 -1.9821  0.3774
  158SAPE  C31017711   3.846   4.545   9.736 -0.1687 -1.1163 -0.0321
  158SAPE  H10X17712   3.824   4.631   9.802 -1.1475 -1.2394 -0.1899
  158SAPE  H10Y17713   3.753   4.487   9.725 -0.4579 -1.0981  2.0134
  158SAPE  C31117714   3.909   4.613   9.615 -0.1396 -0.0671  0.3257
  158SAPE  H11X17715   4.020   4.613   9.614 -0.0356  3.2104 -0.1403
  158SAPE  H11Y17716   3.877   4.719   9.603  0.4937  0.0753 -0.1895
  158SAPE  C31217717   3.864   4.549   9.476  0.4644 -0.4977 -0.3500
  158SAPE  H12X17718   3.762   4.507   9.493  0.5334 -1.1062 -1.3399
  158SAPE  H12Y17719   3.930   4.462   9.452  0.8956  0.1406 -1.5293
  158SAPE  C31317720   3.859   4.654   9.370  0.2138 -0.0301 -0.1593
  158SAPE  H13X17721   3.957   4.705   9.353 -0.6885  1.3786 -1.3674
  158SAPE  H13Y17722   3.791   4.731   9.411  0.7165  0.6713 -0.6151
  158SAPE  C31417723   3.803   4.593   9.240 -0.0337  0.3261  0.1878
  158SAPE  H14X17724   3.759   4.676   9.181 -0.8441 -0.0263  0.2806
  158SAPE  H14Y17725   3.725   4.522   9.275  0.4650 -1.0116 -1.3389
  158SAPE  C31517726   3.903   4.514   9.158 -0.3398 -0.5466 -0.0155
  158SAPE  H15X17727   3.940   4.418   9.200 -2.4413 -2.4018 -2.1010
  158SAPE  H15Y17728   3.998   4.571   9.152  0.5636 -2.0593 -0.8255
  158SAPE  C31617729   3.861   4.484   9.016  0.6408 -0.6369 -1.0566
  158SAPE  H16X17730   3.780   4.407   9.021  0.2146 -0.1003  1.5434
  158SAPE  H16Y17731   3.944   4.427   8.969  1.4870  0.1199 -0.5129
  158SAPE  C31717732   3.823   4.600   8.923  0.4640 -0.3429 -0.1818
  158SAPE  H17X17733   3.908   4.670   8.934  0.7207 -0.9308  2.1169
  158SAPE  H17Y17734   3.730   4.638   8.972  1.4671  0.1380  1.4259
  158SAPE  C31817735   3.802   4.558   8.779  0.0849 -0.2181 -0.0307
  158SAPE  H18X17736   3.885   4.503   8.729 -1.6016 -1.0697 -2.0405
  158SAPE  H18Y17737   3.776   4.645   8.716  1.6808 -0.5190 -1.1713
  158SAPE  H18Z17738   3.719   4.485   8.786 -1.3805  1.4377  0.4788
  159SAPE     N17739   4.591   4.714   6.264  0.0692  0.7187 -0.8033
  159SAPE   HN117740   4.650   4.652   6.206  1.8566 -2.0655  3.4408
  159SAPE   HN217741   4.642   4.802   6.288 -2.3465  2.2330 -0.9336
  159SAPE   HN317742   4.583   4.661   6.353  1.3015 -1.5725 -1.9661
  159SAPE   C1217743   4.463   4.745   6.209  0.1708  0.0886 -0.1420
  159SAPE  H12A17744   4.418   4.644   6.196 -0.6821  0.5168 -0.5362
  159SAPE  H12B17745   4.480   4.798   6.113 -0.0858 -1.5869 -1.1633
  159SAPE   C1117746   4.382   4.830   6.308  0.1629 -0.3215  0.0444
  159SAPE  H11A17747   4.281   4.841   6.264  0.1072  1.6853  0.5939
  159SAPE  H11B17748   4.421   4.933   6.324  0.3442  0.1447 -2.8517
  159SAPE     P17749   4.272   4.794   6.548  0.1264 -0.7085 -0.2652
  159SAPE   O1317750   4.144   4.847   6.496 -0.2337 -0.3037 -0.4363
  159SAPE   O1417751   4.266   4.682   6.645  0.4420  0.0736 -0.1700
  159SAPE   O1217752   4.371   4.769   6.433  0.0384 -0.1747 -0.4014
  159SAPE   O1117753   4.341   4.918   6.626  0.5198  0.0013  0.2515
  159SAPE    C117754   4.484   4.929   6.633 -0.3230  0.0346 -0.2678
  159SAPE    HA17755   4.539   4.919   6.537 -0.3295  0.1361 -0.2820
  159SAPE    HB17756   4.508   5.028   6.678 -1.9185 -0.1211  1.0095
  159SAPE    C217757   4.551   4.831   6.740 -0.1706  0.2810  0.1808
  159SAPE    HS17758   4.527   4.728   6.706 -1.1792  1.1568 -1.9076
  159SAPE   O2117759   4.499   4.866   6.876 -0.1352 -0.0350  0.0102
  159SAPE   C2117760   4.513   4.768   6.956 -0.4989 -0.4091  0.1786
  159SAPE   O2217761   4.529   4.650   6.924  0.1244 -0.3357 -0.1735
  159SAPE   C2217762   4.493   4.811   7.097  0.5890 -0.4604  0.8433
  159SAPE   H2R17763   4.568   4.888   7.125  0.3882 -0.7217  2.1928
  159SAPE   H2S17764   4.400   4.872   7.090  0.3251 -1.0525 -1.9006
  159SAPE    C317765   4.710   4.846   6.733 -0.0057  0.2283 -0.4606
  159SAPE    HX17766   4.726   4.949   6.771 -1.1848  0.1600  0.2558
  159SAPE    HY17767   4.751   4.837   6.630  0.8627  2.5100 -0.3644
  159SAPE   O3117768   4.784   4.758   6.822 -0.4129  0.3448  0.4955
  159SAPE   C3117769   4.818   4.632   6.786 -0.0360 -0.5522 -0.3111
  159SAPE   O3217770   4.784   4.584   6.677 -0.4414 -0.4744 -0.8602
  159SAPE   C3217771   4.898   4.566   6.902  0.5809 -0.2998 -0.7929
  159SAPE   H2X17772   4.822   4.499   6.948 -1.0489  1.7705 -0.3291
  159SAPE   H2Y17773   4.937   4.632   6.983 -0.9314 -0.1169 -0.1914
  159SAPE   C2317774   4.469   4.699   7.203 -0.2719 -0.3131  0.3618
  159SAPE   H3R17775   4.571   4.666   7.233  0.5350  1.7145 -0.0269
  159SAPE   H3S17776   4.408   4.620   7.156 -2.2868  1.8229 -0.8078
  159SAPE   C2417777   4.394   4.749   7.334 -0.9464 -0.0480 -0.0162
  159SAPE   H4R17778   4.469   4.817   7.380 -0.0852 -1.0151  0.0434
  159SAPE   H4S17779   4.378   4.654   7.389 -0.6479 -1.0141 -1.5362
  159SAPE   C2517780   4.263   4.814   7.314 -0.0207  0.0710  0.0945
  159SAPE   H5R17781   4.174   4.751   7.299 -1.1334  1.1009  1.9043
  159SAPE   C2617782   4.232   4.941   7.334 -0.4681 -0.1021  0.1696
  159SAPE   H6R17783   4.129   4.979   7.329 -1.8455 -2.8616  3.6866
  159SAPE   C2717784   4.332   5.051   7.361  0.2597  0.0829  0.3999
  159SAPE   H7R17785   4.295   5.142   7.310  1.4212  0.1637 -0.3577
  159SAPE   H7S17786   4.428   5.032   7.307  0.6993  1.7892  0.5157
  159SAPE   C2817787   4.370   5.076   7.506 -0.2935  0.5186 -0.4068
  159SAPE   H8R17788   4.477   5.062   7.527  0.7051  3.0875 -2.9699
  159SAPE   C2917789   4.289   5.120   7.601  0.1186 -0.0989 -0.5935
  159SAPE   H9R17790   4.322   5.132   7.705 -1.1096 -1.3192 -0.0231
  159SAPE  C21017791   4.140   5.150   7.583 -0.0612 -0.4933 -0.3067
  159SAPE  H10R17792   4.114   5.161   7.476 -0.6341 -1.6160 -0.2998
  159SAPE  H10S17793   4.116   5.250   7.624  0.1143 -0.5309 -0.1056
  159SAPE  C21117794   4.064   5.034   7.638  0.0741  0.2609  0.6157
  159SAPE  H11R17795   4.077   4.947   7.571 -1.1791  1.8193 -1.7908
  159SAPE  C21217796   3.990   5.035   7.750 -0.5020  0.7199 -0.5033
  159SAPE  H12R17797   3.932   4.944   7.772 -0.3053  0.1294 -2.2724
  159SAPE  C21317798   3.975   5.155   7.843  0.1070  0.0577 -0.3115
  159SAPE  H13R17799   4.062   5.224   7.837  1.4572 -1.6661 -1.9812
  159SAPE  H13S17800   3.982   5.122   7.949  0.8434  2.8954  0.6008
  159SAPE  C21417801   3.851   5.231   7.818  0.4996  0.0589 -0.1762
  159SAPE  H14R17802   3.840   5.280   7.720  1.5138  1.4229  0.3606
  159SAPE  C21517803   3.742   5.229   7.902  0.5159 -0.0263 -0.6193
  159SAPE  H15R17804   3.653   5.294   7.889  0.4196 -0.0899 -0.2821
  159SAPE  C21617805   3.750   5.165   8.037  0.1739  0.7615 -0.3109
  159SAPE  H16R17806   3.836   5.207   8.094  1.5027 -0.0742 -1.6339
  159SAPE  H16S17807   3.780   5.058   8.030 -0.2471  0.5112  1.3315
  159SAPE  C21717808   3.605   5.164   8.096  0.0806 -0.2544  0.6600
  159SAPE  H17R17809   3.544   5.095   8.034 -1.4222 -1.9172  3.7573
  159SAPE  H17S17810   3.562   5.267   8.095  1.1919  0.2498  1.7228
  159SAPE  C21817811   3.601   5.108   8.238  0.0450  0.2116  0.0291
  159SAPE  H18R17812   3.650   5.009   8.226 -1.1264 -0.5460  1.1177
  159SAPE  H18S17813   3.496   5.105   8.274  0.4912 -0.0478  1.3420
  159SAPE  C21917814   3.684   5.195   8.344  0.1743  0.4645 -0.5186
  159SAPE  H19R17815   3.786   5.211   8.303  0.7811  3.5357  1.8493
  159SAPE  H19S17816   3.703   5.135   8.436  0.3726  2.3482  0.7254
  159SAPE  C22017817   3.635   5.335   8.378  0.2935 -0.0388  0.4442
  159SAPE  H20R17818   3.526   5.324   8.398 -1.0624  2.4613 -4.1297
  159SAPE  H20S17819   3.629   5.391   8.282  0.1392 -3.4600 -1.7349
  159SAPE  H20T17820   3.687   5.389   8.460 -0.5487  1.4403  0.0288
  159SAPE   C3317821   5.010   4.477   6.848 -0.0187  0.4518  0.5088
  159SAPE   H3X17822   5.084   4.550   6.811 -0.4358  0.8782  0.4938
  159SAPE   H3Y17823   4.975   4.409   6.768 -0.9430  1.1294  0.3159
  159SAPE   C3417824   5.067   4.384   6.948 -0.6575 -0.0351 -0.5827
  159SAPE   H4X17825   4.999   4.319   7.007 -0.4718  0.0376 -0.2868
  159SAPE   H4Y17826   5.123   4.450   7.018 -0.9698 -0.4455  0.0595
  159SAPE   C3517827   5.160   4.279   6.891 -0.6267  0.6744 -0.0016
  159SAPE   H5X17828   5.226   4.331   6.818 -1.1271  0.9788 -0.2401
  159SAPE   H5Y17829   5.096   4.213   6.828  0.1828  0.6204 -0.7790
  159SAPE   C3617830   5.242   4.195   6.991 -0.5534 -0.2729 -0.2172
  159SAPE   H6X17831   5.177   4.158   7.073  1.5755 -1.5833  0.9751
  159SAPE   H6Y17832   5.315   4.267   7.034 -1.3836 -0.3455  1.3950
  159SAPE   C3717833   5.329   4.088   6.927 -0.5880  0.1460 -0.3577
  159SAPE   H7X17834   5.398   4.124   6.848  1.9474  1.1905  2.1483
  159SAPE   H7Y17835   5.251   4.021   6.884 -1.2214  1.5842 -1.5171
  159SAPE   C3817836   5.420   4.007   7.025 -0.1294 -0.6482 -0.1488
  159SAPE   H8X17837   5.506   4.068   7.060 -1.5605  0.8140  0.9890
  159SAPE   H8Y17838   5.462   3.919   6.972 -1.5985 -0.7370 -1.2148
  159SAPE   C3917839   5.344   3.953   7.152 -0.7008  0.2322 -0.6532
  159SAPE   H9X17840   5.291   4.031   7.211  0.2186 -1.4263  2.5937
  159SAPE   H9Y17841   5.415   3.903   7.221  0.1038  2.2957  0.1235
  159SAPE  C31017842   5.234   3.851   7.116 -0.1100  0.3477 -0.1410
  159SAPE  H10X17843   5.182   3.901   7.031 -0.3110 -0.7425 -0.6740
  159SAPE  H10Y17844   5.172   3.830   7.205  0.6001  1.1213  0.5605
  159SAPE  C31117845   5.292   3.714   7.062  0.1434  0.1212  0.2564
  159SAPE  H11X17846   5.350   3.717   6.968  0.6548 -0.4424  0.5489
  159SAPE  H11Y17847   5.205   3.646   7.051  1.0923 -1.0179 -0.4468
  159SAPE  C31217848   5.379   3.643   7.168  0.1509 -0.2092 -0.0647
  159SAPE  H12X17849   5.322   3.625   7.261  0.4315 -1.8367 -0.1751
  159SAPE  H12Y17850   5.471   3.697   7.199  0.6191 -1.7525  1.3892
  159SAPE  C31317851   5.444   3.504   7.122  0.5892  0.7377  0.0937
  159SAPE  H13X17852   5.473   3.527   7.017 -1.0608  0.1321 -0.5243
  159SAPE  H13Y17853   5.362   3.429   7.115  0.9814  0.2807  0.3587
  159SAPE  C31417854   5.552   3.456   7.216  0.1772 -0.1993  0.5069
  159SAPE  H14X17855   5.634   3.531   7.211 -2.4615  3.0257  1.9667
  159SAPE  H14Y17856   5.590   3.361   7.172  1.5519  1.7021 -2.8061
  159SAPE  C31517857   5.520   3.449   7.364  0.1223 -0.0407 -0.2276
  159SAPE  H15X17858   5.437   3.376   7.378  0.7208 -0.4476  1.4360
  159SAPE  H15Y17859   5.479   3.546   7.398 -0.3179 -0.1465 -0.4516
  159SAPE  C31617860   5.639   3.420   7.464  0.3586  0.7053  0.3320
  159SAPE  H16X17861   5.727   3.482   7.435  1.0548  1.3970  3.4667
  159SAPE  H16Y17862   5.661   3.312   7.456 -0.2016  0.6989 -1.4988
  159SAPE  C31717863   5.608   3.457   7.609 -0.5097  0.3224  0.6485
  159SAPE  H17X17864   5.541   3.379   7.651  0.0930 -0.0094  1.0096
  159SAPE  H17Y17865   5.559   3.557   7.619  1.7406  1.4596  1.0615
  159SAPE  C31817866   5.732   3.454   7.704  0.5703 -0.2466  0.8104
  159SAPE  H18X17867   5.699   3.464   7.810 -1.5524 -2.4235  0.4290
  159SAPE  H18Y17868   5.804   3.534   7.675  0.6227 -0.3969  0.5332
  159SAPE  H18Z17869   5.781   3.355   7.709 -1.3508 -1.2156  1.5931
  160SAPE     N17870   5.155   6.766   6.620 -0.0137  0.3580 -0.5276
  160SAPE   HN117871   5.257   6.762   6.597  0.0343  1.4083 -0.5418
  160SAPE   HN217872   5.143   6.848   6.682  1.9365  0.9807 -0.8849
  160SAPE   HN317873   5.122   6.679   6.666  2.0241 -0.0343  0.3192
  160SAPE   C1217874   5.062   6.776   6.504  0.1716 -0.1641 -0.4640
  160SAPE  H12A17875   5.050   6.668   6.482 -1.3388  0.1536 -1.3272
  160SAPE  H12B17876   5.108   6.843   6.428  0.5835  2.9806  2.3075
  160SAPE   C1117877   4.923   6.834   6.545  0.0169 -0.0954  0.6542
  160SAPE  H11A17878   4.864   6.769   6.612  1.0672  0.2717  1.9700
  160SAPE  H11B17879   4.876   6.845   6.445  1.1597  3.1794  0.3349
  160SAPE     P17880   4.881   7.103   6.532  0.3167 -0.1698 -0.3175
  160SAPE   O1317881   4.841   7.075   6.396 -0.1678 -0.5192 -0.0850
  160SAPE   O1417882   4.772   7.168   6.611  0.0665  0.4175  0.1665
  160SAPE   O1217883   4.930   6.967   6.599 -0.1374  0.0335 -0.6607
  160SAPE   O1117884   5.000   7.213   6.524  0.5319 -0.0499 -0.5354
  160SAPE    C117885   5.118   7.196   6.598  0.8726  0.8223 -0.7662
  160SAPE    HA17886   5.156   7.092   6.591 -1.4009 -0.0360 -1.0055
  160SAPE    HB17887   5.195   7.265   6.555  1.1304  0.2417 -1.2452
  160SAPE    C217888   5.100   7.259   6.745 -0.3581  0.4754 -0.3761
  160SAPE    HS17889   5.207   7.269   6.775 -0.2675 -2.4646  0.6537
  160SAPE   O2117890   5.039   7.177   6.843  0.4295  0.3771  0.1775
  160SAPE   C2117891   5.063   7.043   6.855  0.2645 -0.4831 -0.2571
  160SAPE   O2217892   5.149   6.979   6.793 -0.3167 -0.2398  0.9714
  160SAPE   C2217893   4.977   6.976   6.972 -0.5295 -0.4796 -0.0911
  160SAPE   H2R17894   5.046   6.953   7.056  1.2624  0.9044 -1.1008
  160SAPE   H2S17895   4.904   7.054   7.004  0.4797  0.5464 -0.2235
  160SAPE    C317896   5.037   7.390   6.738 -0.1673 -0.3521  0.0688
  160SAPE    HX17897   4.936   7.388   6.693 -0.1866 -2.1039  0.1271
  160SAPE    HY17898   5.090   7.447   6.658 -0.0916  0.4642  0.6908
  160SAPE   O3117899   5.036   7.457   6.868 -0.2351  0.0154  0.1971
  160SAPE   C3117900   4.918   7.485   6.923  0.0326  0.2640 -0.3052
  160SAPE   O3217901   4.812   7.441   6.885  0.7342 -0.3271  0.1638
  160SAPE   C3217902   4.932   7.589   7.034  0.7427  0.2831 -0.3865
  160SAPE   H2X17903   4.975   7.680   6.986 -0.5346  1.4019  0.5335
  160SAPE   H2Y17904   5.008   7.545   7.102  1.4521  0.9315 -0.7432
  160SAPE   C2317905   4.907   6.846   6.925  0.0170 -0.7515 -0.5053
  160SAPE   H3R17906   4.978   6.781   6.869  1.1586  1.1599 -1.3897
  160SAPE   H3S17907   4.828   6.870   6.850  2.6227  0.0022 -3.2050
  160SAPE   C2417908   4.840   6.779   7.046 -0.4645  0.5546  0.2299
  160SAPE   H4R17909   4.770   6.703   7.005 -1.2992  0.8064  1.1577
  160SAPE   H4S17910   4.786   6.863   7.095  0.3127  1.8818 -1.1138
  160SAPE   C2517911   4.934   6.697   7.135  0.5825  0.4466  0.8583
  160SAPE   H5R17912   4.956   6.599   7.091  0.8817  1.7019 -2.0431
  160SAPE   C2617913   4.980   6.734   7.253 -0.4429  0.3212 -0.5500
  160SAPE   H6R17914   5.050   6.670   7.309 -0.3125  2.5249  1.9808
  160SAPE   C2717915   4.943   6.862   7.324 -0.0786  0.2449  0.4738
  160SAPE   H7R17916   4.921   6.941   7.250 -1.3545  0.5470  1.1550
  160SAPE   H7S17917   5.032   6.889   7.385 -0.2136 -2.7203  2.1702
  160SAPE   C2817918   4.829   6.834   7.422 -0.1466 -0.0138  0.0618
  160SAPE   H8R17919   4.748   6.768   7.388  0.2457 -2.0355  2.6950
  160SAPE   C2917920   4.814   6.875   7.551  0.5593  0.2472 -0.3035
  160SAPE   H9R17921   4.718   6.833   7.585  0.4111 -0.7649 -1.8870
  160SAPE  C21017922   4.902   6.970   7.627 -0.2286 -0.6617  0.7728
  160SAPE  H10R17923   4.925   7.052   7.555  0.4329 -1.4558  0.0498
  160SAPE  H10S17924   5.003   6.925   7.642  0.8981  1.4104  0.0049
  160SAPE  C21117925   4.846   7.021   7.755  0.3698  0.2747  0.3505
  160SAPE  H11R17926   4.791   7.116   7.752  0.6906  0.4674  0.4842
  160SAPE  C21217927   4.879   6.986   7.882  0.1250  0.4410  0.8525
  160SAPE  H12R17928   4.822   7.033   7.964  0.5354  1.1154  0.7589
  160SAPE  C21317929   4.972   6.869   7.917 -0.5032  0.6715  0.1260
  160SAPE  H13R17930   5.065   6.889   7.859 -2.7185  1.3589 -3.5212
  160SAPE  H13S17931   4.930   6.772   7.885 -0.0607  0.5665 -0.1471
  160SAPE  C21417932   4.994   6.855   8.067 -0.7638 -0.2571  1.0753
  160SAPE  H14R17933   4.924   6.785   8.117 -2.2602 -0.8339 -1.6508
  160SAPE  C21517934   5.081   6.926   8.138 -0.1365  0.0666  0.4543
  160SAPE  H15R17935   5.086   6.903   8.246 -1.6996 -1.5547  0.2266
  160SAPE  C21617936   5.167   7.037   8.084  0.0458  0.0993 -0.2285
  160SAPE  H16R17937   5.127   7.094   7.998  0.9554  0.8044 -0.2026
  160SAPE  H16S17938   5.262   6.998   8.041  1.1244  1.5275  0.7605
  160SAPE  C21717939   5.220   7.138   8.193  0.0474 -0.0443  0.1541
  160SAPE  H17R17940   5.299   7.203   8.150 -1.8417  3.6874  1.8527
  160SAPE  H17S17941   5.256   7.093   8.288  1.0328  4.3755  2.1005
  160SAPE  C21817942   5.110   7.235   8.248 -0.5832 -0.3190  0.5079
  160SAPE  H18R17943   5.024   7.174   8.280 -0.8906  0.1168  0.5271
  160SAPE  H18S17944   5.069   7.292   8.161 -0.1129  0.9358  1.0772
  160SAPE  C21917945   5.166   7.336   8.346 -0.7450 -0.0650  0.0342
  160SAPE  H19R17946   5.242   7.397   8.293  1.0070 -2.5018 -0.4608
  160SAPE  H19S17947   5.223   7.292   8.431 -3.2977 -1.2719  1.2223
  160SAPE  C22017948   5.063   7.432   8.406 -0.6943 -0.3995  0.6213
  160SAPE  H20R17949   4.977   7.369   8.439  0.4587 -2.6016 -0.3059
  160SAPE  H20S17950   5.016   7.494   8.327 -1.3335 -0.7107  0.7514
  160SAPE  H20T17951   5.106   7.495   8.486  2.8991  0.0452 -1.4538
  160SAPE   C3317952   4.804   7.631   7.114 -0.5740 -0.4007  0.2931
  160SAPE   H3X17953   4.767   7.544   7.172  1.2157 -1.3333  0.0924
  160SAPE   H3Y17954   4.718   7.672   7.056 -0.0184 -0.2118 -0.4041
  160SAPE   C3417955   4.852   7.745   7.216 -0.3792  0.0902  0.0498
  160SAPE   H4X17956   4.896   7.831   7.162  1.8097 -0.8087  0.2906
  160SAPE   H4Y17957   4.926   7.696   7.284  2.4959 -0.4233 -3.2042
  160SAPE   C3517958   4.728   7.808   7.277 -0.5759 -0.1136 -0.5300
  160SAPE   H5X17959   4.659   7.851   7.202 -1.4295 -1.3806 -0.4928
  160SAPE   H5Y17960   4.770   7.893   7.334  0.1181  0.1676 -1.4283
  160SAPE   C3617961   4.645   7.711   7.361  0.1635 -0.8360 -0.6967
  160SAPE   H6X17962   4.613   7.616   7.313  0.7191 -0.4454 -1.8704
  160SAPE   H6Y17963   4.558   7.769   7.400  1.3662  0.0964  0.7375
  160SAPE   C3717964   4.725   7.675   7.488 -0.8668 -0.6480  0.8334
  160SAPE   H7X17965   4.763   7.767   7.538 -1.5946  0.7146 -1.0008
  160SAPE   H7Y17966   4.822   7.622   7.469 -0.3455 -0.1243  1.9383
  160SAPE   C3817967   4.652   7.580   7.590 -0.1000 -0.0722  0.1977
  160SAPE   H8X17968   4.623   7.490   7.532 -2.1082  0.1843  0.7067
  160SAPE   H8Y17969   4.557   7.633   7.617  0.8466  1.4950  0.5760
  160SAPE   C3917970   4.727   7.544   7.720  0.3943 -0.3303  0.6644
  160SAPE   H9X17971   4.787   7.454   7.696  0.9445  0.2318 -0.1017
  160SAPE   H9Y17972   4.644   7.521   7.791 -0.0821  0.8047  0.4954
  160SAPE  C31017973   4.805   7.661   7.785 -1.1365  0.2148 -0.3098
  160SAPE  H10X17974   4.741   7.751   7.787 -0.5384  0.6783 -1.1097
  160SAPE  H10Y17975   4.889   7.686   7.716 -1.0793  0.6730 -0.0747
  160SAPE  C31117976   4.848   7.630   7.922  0.0853 -0.0761 -0.3378
  160SAPE  H11X17977   4.761   7.636   7.990 -1.4297  1.0733 -2.2745
  160SAPE  H11Y17978   4.919   7.709   7.955 -1.3170  1.1163 -0.0810
  160SAPE  C31217979   4.932   7.502   7.932 -0.1351 -0.4803  0.1454
  160SAPE  H12X17980   4.872   7.426   7.878  1.3232 -4.5697  3.7841
  160SAPE  H12Y17981   4.940   7.467   8.037  1.9024  3.1883  1.4162
  160SAPE  C31317982   5.079   7.501   7.883 -0.7618 -0.0296  0.0783
  160SAPE  H13X17983   5.133   7.551   7.965 -2.7875 -0.6010  1.8530
  160SAPE  H13Y17984   5.103   7.560   7.792  1.3100 -0.4298  0.3253
  160SAPE  C31417985   5.154   7.365   7.877 -0.3883 -0.0113 -0.4665
  160SAPE  H14X17986   5.107   7.297   7.802 -0.6585  0.3070 -0.5867
  160SAPE  H14Y17987   5.132   7.313   7.973 -1.6475  0.1754 -0.6373
  160SAPE  C31517988   5.306   7.375   7.843 -0.1491 -0.5679  0.6099
  160SAPE  H15X17989   5.357   7.429   7.926  0.1579 -0.9615  0.6778
  160SAPE  H15Y17990   5.317   7.425   7.744  2.1826 -0.4314  0.8807
  160SAPE  C31617991   5.368   7.235   7.819 -0.1499 -0.3591 -0.7186
  160SAPE  H16X17992   5.330   7.166   7.897  0.0507  0.7514  0.4003
  160SAPE  H16Y17993   5.478   7.250   7.825 -0.3337  1.0163 -0.2177
  160SAPE  C31717994   5.331   7.158   7.689  0.1289 -0.4373 -0.1840
  160SAPE  H17X17995   5.374   7.217   7.606 -1.8481  0.0449 -0.9242
  160SAPE  H17Y17996   5.221   7.147   7.680 -0.3391 -0.7774  3.8659
  160SAPE  C31817997   5.391   7.020   7.697 -0.6296  0.2443  0.1648
  160SAPE  H18X17998   5.498   7.027   7.727 -0.7470  0.6983  0.4855
  160SAPE  H18Y17999   5.378   6.959   7.605 -1.1249 -0.9284  0.9804
  160SAPE  H18Z18000   5.342   6.959   7.775 -3.5903 -0.2436 -1.8876
  161SAPE     N18001   6.421   3.185   6.016 -0.0356 -0.4821  0.4802
  161SAPE   HN118002   6.387   3.099   6.063  0.3097  0.3207  2.2708
  161SAPE   HN218003   6.365   3.261   6.060 -0.2479 -0.7274  0.6365
  161SAPE   HN318004   6.424   3.174   5.912  0.7596 -1.1574  0.5653
  161SAPE   C1218005   6.569   3.199   6.051 -0.1502 -0.4317  0.3999
  161SAPE  H12A18006   6.612   3.281   5.989  2.2129 -0.8609  1.3628
  161SAPE  H12B18007   6.610   3.104   6.012 -1.7188 -0.3506 -1.6386
  161SAPE   C1118008   6.598   3.222   6.201  0.3593  0.1213  0.5060
  161SAPE  H11A18009   6.567   3.321   6.240 -0.1277 -1.1324  3.5760
  161SAPE  H11B18010   6.707   3.208   6.219  0.1455 -0.6332  1.2655
  161SAPE     P18011   6.455   3.143   6.414 -0.0580  0.2778 -0.2316
  161SAPE   O1318012   6.358   3.253   6.404  0.3426 -0.1806  0.4610
  161SAPE   O1418013   6.394   3.013   6.452 -0.2925  0.3165 -0.0339
  161SAPE   O1218014   6.530   3.115   6.270 -0.3057 -0.7770  0.5079
  161SAPE   O1118015   6.569   3.175   6.512  0.6543 -0.2658  0.3764
  161SAPE    C118016   6.677   3.100   6.561 -0.2169  0.8649 -0.1621
  161SAPE    HA18017   6.729   3.053   6.475  0.0005  0.8340 -0.0148
  161SAPE    HB18018   6.757   3.165   6.602  1.7857  0.3698 -2.9657
  161SAPE    C218019   6.639   2.997   6.672 -0.3140  0.5310  0.3617
  161SAPE    HS18020   6.547   2.942   6.640 -1.3562  2.4413 -0.1030
  161SAPE   O2118021   6.629   3.071   6.801  0.0683  0.2296  0.6315
  161SAPE   C2118022   6.519   3.037   6.865 -0.1718 -0.0039 -0.0254
  161SAPE   O2218023   6.431   2.963   6.834  0.0026  0.0812  0.7109
  161SAPE   C2218024   6.542   3.090   7.007  0.2387  0.2249 -0.2333
  161SAPE   H2R18025   6.651   3.087   7.032  0.2064  0.0013 -0.1133
  161SAPE   H2S18026   6.508   3.196   7.006 -2.0419 -0.4627  0.1822
  161SAPE    C318027   6.749   2.883   6.690  0.9455 -0.6372  0.3503
  161SAPE    HX18028   6.840   2.936   6.726  0.1883  1.3791 -0.5510
  161SAPE    HY18029   6.787   2.844   6.594  0.2999  0.3316 -0.3175
  161SAPE   O3118030   6.711   2.783   6.786 -0.0148  0.1312 -0.9419
  161SAPE   C3118031   6.643   2.681   6.753  0.7928  0.0846 -0.3784
  161SAPE   O3218032   6.601   2.653   6.644 -0.3566 -0.1817  0.6213
  161SAPE   C3218033   6.649   2.588   6.877 -0.3640  0.3602  0.2337
  161SAPE   H2X18034   6.756   2.591   6.907  0.4099  0.0823 -2.2991
  161SAPE   H2Y18035   6.637   2.485   6.838  0.4988  0.8250 -1.3509
  161SAPE   C2318036   6.460   3.025   7.120 -0.2459 -0.0690 -0.2844
  161SAPE   H3R18037   6.479   2.916   7.129  0.8543  0.2797  2.3916
  161SAPE   H3S18038   6.357   3.050   7.088 -0.2793 -0.2621 -0.3290
  161SAPE   C2418039   6.511   3.099   7.252  0.5422 -0.4881  0.7066
  161SAPE   H4R18040   6.498   3.207   7.230 -3.5787 -0.6155  1.7428
  161SAPE   H4S18041   6.619   3.077   7.267  1.2567  1.9297 -0.3452
  161SAPE   C2518042   6.432   3.067   7.374 -0.1025  0.1618 -0.4031
  161SAPE   H5R18043   6.328   3.101   7.362  0.0347  0.2086 -1.5413
  161SAPE   C2618044   6.465   2.999   7.486 -0.3400  0.9066 -0.2556
  161SAPE   H6R18045   6.388   2.974   7.560 -0.7733  2.3972 -0.1623
  161SAPE   C2718046   6.601   2.946   7.522  0.1872  0.5610 -0.3210
  161SAPE   H7R18047   6.662   3.026   7.569 -1.1984  2.7629 -2.0460
  161SAPE   H7S18048   6.655   2.923   7.427 -2.3080  2.3486 -2.3050
  161SAPE   C2818049   6.586   2.828   7.618 -0.3278  0.3008  0.7951
  161SAPE   H8R18050   6.525   2.742   7.589  1.2252 -0.4905 -0.2503
  161SAPE   C2918051   6.653   2.813   7.734 -0.2557  0.4473 -0.3747
  161SAPE   H9R18052   6.621   2.731   7.800 -1.1970 -0.3886 -1.8271
  161SAPE  C21018053   6.762   2.897   7.797 -0.0968 -0.6043  0.1793
  161SAPE  H10R18054   6.726   2.926   7.899  2.0978 -0.4931  0.9738
  161SAPE  H10S18055   6.773   2.988   7.735 -2.1643 -0.1529  0.4025
  161SAPE  C21118056   6.891   2.823   7.808  0.0265  0.9308  0.9289
  161SAPE  H11R18057   6.886   2.714   7.795 -1.1080  1.0492  0.2495
  161SAPE  C21218058   7.011   2.869   7.833  0.1775  0.5667 -0.0750
  161SAPE  H12R18059   7.090   2.794   7.822 -0.2391  0.1135 -0.0440
  161SAPE  C21318060   7.045   3.015   7.862 -0.0655 -0.9269  0.4037
  161SAPE  H13R18061   6.952   3.075   7.872  1.1633  1.3304 -0.8057
  161SAPE  H13S18062   7.104   3.054   7.777  0.9287  0.2545  1.5851
  161SAPE  C21418063   7.132   3.026   7.988 -0.0317 -0.4137  0.5571
  161SAPE  H14R18064   7.238   3.007   7.968  0.4551 -1.0653  3.4391
  161SAPE  C21518065   7.088   3.037   8.112  0.5302 -0.3787 -0.1424
  161SAPE  H15R18066   7.161   3.062   8.191 -1.0164  0.7080  1.0255
  161SAPE  C21618067   6.946   3.052   8.160  0.2939 -0.2590  0.1141
  161SAPE  H16R18068   6.911   2.949   8.183 -0.9606  0.2824  0.7464
  161SAPE  H16S18069   6.872   3.091   8.086  0.2150 -1.7059 -0.6003
  161SAPE  C21718070   6.935   3.138   8.284  0.0838 -0.1184 -0.4962
  161SAPE  H17R18071   7.003   3.104   8.365  1.3249  0.1398 -1.3991
  161SAPE  H17S18072   6.832   3.124   8.324 -0.0781 -2.2509 -1.5438
  161SAPE  C21818073   6.945   3.291   8.261 -0.2255  0.8989  0.9609
  161SAPE  H18R18074   6.891   3.325   8.171 -1.5078 -2.3450  0.3709
  161SAPE  H18S18075   7.051   3.310   8.235 -0.0175 -2.7287 -1.5576
  161SAPE  C21918076   6.911   3.373   8.386  0.0716  0.0131  0.4841
  161SAPE  H19R18077   6.982   3.343   8.467  0.5629  0.6163  0.2824
  161SAPE  H19S18078   6.806   3.347   8.409 -0.5294 -0.2296 -2.2691
  161SAPE  C22018079   6.920   3.524   8.369  0.3026 -0.4551  0.5009
  161SAPE  H20R18080   7.022   3.564   8.346  1.9109 -4.0258  0.7093
  161SAPE  H20S18081   6.884   3.572   8.463  0.6157  1.6666 -0.4075
  161SAPE  H20T18082   6.853   3.559   8.288  0.6230  0.0094  0.4266
  161SAPE   C3318083   6.554   2.631   6.989  0.0180  0.2215  0.2445
  161SAPE   H3X18084   6.452   2.626   6.946  0.4037 -1.4457 -0.5552
  161SAPE   H3Y18085   6.577   2.734   7.024 -2.1949  0.4997  1.0037
  161SAPE   C3418086   6.558   2.553   7.122 -0.1166 -0.1600 -0.0887
  161SAPE   H4X18087   6.657   2.555   7.173  0.5233 -2.2553 -1.1345
  161SAPE   H4Y18088   6.541   2.446   7.097  0.9862 -0.5528  0.7270
  161SAPE   C3518089   6.441   2.596   7.205 -0.2258 -0.3191 -0.6618
  161SAPE   H5X18090   6.350   2.612   7.144 -1.1442 -0.1915  0.6812
  161SAPE   H5Y18091   6.455   2.695   7.254  2.7259  0.3709 -2.6100
  161SAPE   C3618092   6.421   2.505   7.330 -0.0295 -0.0941  0.3668
  161SAPE   H6X18093   6.387   2.402   7.303  0.5388 -0.3211  0.5012
  161SAPE   H6Y18094   6.344   2.552   7.396 -0.0578 -1.0006  1.0042
  161SAPE   C3718095   6.548   2.490   7.417  0.6614 -0.0781  0.0962
  161SAPE   H7X18096   6.602   2.587   7.421 -1.8990  1.4064  0.5941
  161SAPE   H7Y18097   6.610   2.409   7.373  2.0719  1.7128 -1.3351
  161SAPE   C3818098   6.520   2.454   7.562 -0.2875 -0.0320  0.3963
  161SAPE   H8X18099   6.467   2.356   7.562  1.9351 -1.3083 -0.5653
  161SAPE   H8Y18100   6.466   2.539   7.608  0.4558  1.8559 -2.0412
  161SAPE   C3918101   6.643   2.441   7.656 -0.2537 -1.1019  1.2251
  161SAPE   H9X18102   6.706   2.532   7.644 -2.1263  0.2391  0.9440
  161SAPE   H9Y18103   6.707   2.362   7.613  2.8454  1.5572  0.5069
  161SAPE  C31018104   6.613   2.412   7.802 -0.7933 -0.1358 -0.4683
  161SAPE  H10X18105   6.569   2.312   7.824  2.2482 -1.1338  1.7196
  161SAPE  H10Y18106   6.538   2.487   7.836  1.0177  2.1822 -1.2815
  161SAPE  C31118107   6.732   2.431   7.893  0.4408  0.4423  0.2780
  161SAPE  H11X18108   6.765   2.537   7.894 -1.0726  0.9384  1.0580
  161SAPE  H11Y18109   6.819   2.368   7.866 -0.5257 -1.0141  0.4645
  161SAPE  C31218110   6.721   2.397   8.046 -0.2261  0.7317 -0.2584
  161SAPE  H12X18111   6.820   2.397   8.097 -0.0689  1.9208 -0.5161
  161SAPE  H12Y18112   6.685   2.292   8.049 -4.0321  1.9111  0.6769
  161SAPE  C31318113   6.625   2.471   8.137  0.0943 -0.3157 -0.5331
  161SAPE  H13X18114   6.610   2.408   8.227  2.0067 -1.8296 -1.2045
  161SAPE  H13Y18115   6.525   2.482   8.091  0.2321  0.9809 -0.5713
  161SAPE  C31418116   6.686   2.613   8.175 -0.0312 -0.0270  0.1040
  161SAPE  H14X18117   6.672   2.687   8.093  0.9248  0.4360  0.3418
  161SAPE  H14Y18118   6.797   2.612   8.177 -0.0192 -1.5546  0.0856
  161SAPE  C31518119   6.637   2.671   8.303 -0.0627 -0.9586 -0.4670
  161SAPE  H15X18120   6.676   2.775   8.309 -1.5879 -0.4298  1.5817
  161SAPE  H15Y18121   6.676   2.612   8.388 -1.3986 -0.9208  0.1908
  161SAPE  C31618122   6.483   2.689   8.311 -0.4566  0.6401 -0.9261
  161SAPE  H16X18123   6.437   2.589   8.323 -0.1018  0.5738 -0.0195
  161SAPE  H16Y18124   6.446   2.727   8.213 -0.2856  0.0291 -1.2327
  161SAPE  C31718125   6.437   2.773   8.430 -0.3752 -0.3759 -1.0429
  161SAPE  H17X18126   6.347   2.830   8.400  0.7053  1.9478 -0.1008
  161SAPE  H17Y18127   6.514   2.850   8.455  1.4467 -2.8090  1.5441
  161SAPE  C31818128   6.414   2.709   8.570  0.1904 -0.1150 -0.6429
  161SAPE  H18X18129   6.333   2.634   8.562 -1.4305  1.4619  0.4054
  161SAPE  H18Y18130   6.382   2.789   8.640  3.5902 -0.3732  1.4674
  161SAPE  H18Z18131   6.512   2.665   8.600  0.1790  0.5428  0.4066
  162SAPE     N18132   6.386   5.738   6.311 -0.2510  0.0221  0.0371
  162SAPE   HN118133   6.469   5.761   6.253  1.5553  0.2395  2.5453
  162SAPE   HN218134   6.422   5.785   6.396 -1.5796  1.1603  0.0165
  162SAPE   HN318135   6.371   5.635   6.311 -0.9310  0.1125  0.3670
  162SAPE   C1218136   6.266   5.821   6.266 -0.1357 -0.7182 -0.1916
  162SAPE  H12A18137   6.203   5.839   6.356 -1.4877 -1.7891 -0.8936
  162SAPE  H12B18138   6.207   5.759   6.196  0.7126 -1.5411 -0.2002
  162SAPE   C1118139   6.308   5.960   6.219  0.2675  0.3482 -0.5327
  162SAPE  H11A18140   6.371   6.002   6.301 -1.5077  0.0094  1.0826
  162SAPE  H11B18141   6.216   6.019   6.201 -0.6500 -0.9380 -0.1937
  162SAPE     P18142   6.500   6.038   6.066 -0.1879  0.0400  0.1068
  162SAPE   O1318143   6.601   5.952   6.008  0.3100  0.3643  0.4229
  162SAPE   O1418144   6.448   6.153   5.995  0.2586 -0.1929 -0.0987
  162SAPE   O1218145   6.378   5.940   6.099 -0.6742 -0.0789  0.2495
  162SAPE   O1118146   6.560   6.098   6.206  0.0812  0.4766  0.0357
  162SAPE    C118147   6.700   6.100   6.235 -0.5196  0.1390  0.3319
  162SAPE    HA18148   6.759   6.094   6.141  0.0916 -0.8781  0.7635
  162SAPE    HB18149   6.727   6.201   6.274 -1.0373  0.8019 -0.9649
  162SAPE    C218150   6.749   5.991   6.329 -0.0248  0.1615  0.0893
  162SAPE    HS18151   6.702   5.896   6.296  1.3608 -1.4215  2.3223
  162SAPE   O2118152   6.715   6.037   6.460 -0.5068 -0.3096  0.2441
  162SAPE   C2118153   6.599   5.992   6.503 -0.8753  0.5574 -0.0508
  162SAPE   O2218154   6.533   5.909   6.441  0.7701 -0.3974 -0.3432
  162SAPE   C2218155   6.567   6.060   6.640  0.0148 -0.3887 -0.2467
  162SAPE   H2R18156   6.550   6.167   6.616  1.0023 -0.5496 -1.8272
  162SAPE   H2S18157   6.467   6.026   6.674 -0.6527  3.4377  2.2005
  162SAPE    C318158   6.904   5.979   6.324 -0.8472  0.1438 -0.2010
  162SAPE    HX18159   6.946   6.081   6.341 -0.7404 -0.1207  1.2365
  162SAPE    HY18160   6.935   5.953   6.220  2.5694  0.7894  0.5485
  162SAPE   O3118161   6.950   5.881   6.416  0.3032  0.0287 -0.1340
  162SAPE   C3118162   7.075   5.907   6.467  0.1148 -0.3181 -0.1320
  162SAPE   O3218163   7.149   5.994   6.418  0.1350 -0.7908 -0.2594
  162SAPE   C3218164   7.103   5.801   6.566 -0.0463 -0.3702  0.3495
  162SAPE   H2X18165   7.211   5.811   6.588 -0.2142  1.0496  0.6155
  162SAPE   H2Y18166   7.087   5.700   6.521  2.3809 -1.7171  2.2316
  162SAPE   C2318167   6.674   6.043   6.747 -0.2570  1.2702 -0.0300
  162SAPE   H3R18168   6.772   6.010   6.705  0.3887  1.5473  1.2207
  162SAPE   H3S18169   6.640   5.966   6.819  1.5879 -0.1502 -0.6034
  162SAPE   C2418170   6.694   6.163   6.831  0.1060  0.3129 -0.2413
  162SAPE   H4R18171   6.710   6.244   6.756 -0.1383 -0.0078 -0.6430
  162SAPE   H4S18172   6.787   6.158   6.893  1.4405 -0.1073 -2.1806
  162SAPE   C2518173   6.578   6.200   6.926  0.4062 -0.7389  0.2841
  162SAPE   H5R18174   6.503   6.273   6.892 -1.6340 -1.4460  2.9227
  162SAPE   C2618175   6.572   6.161   7.060 -0.1247  0.4580 -0.1502
  162SAPE   H6R18176   6.491   6.188   7.130 -0.7473 -1.2234 -0.1861
  162SAPE   C2718177   6.673   6.064   7.125 -0.1966  0.5235  0.1000
  162SAPE   H7R18178   6.746   6.039   7.046 -1.0616  1.5338 -1.0577
  162SAPE   H7S18179   6.624   5.967   7.150  0.5160  0.4375  1.2429
  162SAPE   C2818180   6.741   6.120   7.244  0.1529  0.1126  0.2193
  162SAPE   H8R18181   6.839   6.167   7.232 -0.1962  0.8046  0.0378
  162SAPE   C2918182   6.702   6.102   7.375  0.8846  0.1309  0.9904
  162SAPE   H9R18183   6.757   6.150   7.458  0.5057  2.8744 -0.2381
  162SAPE  C21018184   6.577   6.028   7.425  0.2490  0.6345 -0.4148
  162SAPE  H10R18185   6.498   6.034   7.348 -0.2991  0.5259  0.1309
  162SAPE  H10S18186   6.525   6.076   7.511  1.9394  0.5955  0.6876
  162SAPE  C21118187   6.618   5.890   7.472  0.3817 -0.1714  0.9219
  162SAPE  H11R18188   6.702   5.852   7.413  0.4900  0.9480  0.3111
  162SAPE  C21218189   6.556   5.823   7.574 -0.4214  0.2370  0.1271
  162SAPE  H12R18190   6.600   5.726   7.600  2.3359  1.1908 -0.5871
  162SAPE  C21318191   6.443   5.861   7.661 -0.0514 -0.4091 -0.2059
  162SAPE  H13R18192   6.397   5.773   7.711  0.8903 -0.2394  0.9961
  162SAPE  H13S18193   6.364   5.910   7.600 -0.3713  1.6712  1.7211
  162SAPE  C21418194   6.481   5.970   7.764  1.1006 -0.1631 -0.1568
  162SAPE  H14R18195   6.510   6.063   7.713  0.6325 -2.0291 -4.2766
  162SAPE  C21518196   6.482   5.951   7.895  0.0534  0.2990 -0.5364
  162SAPE  H15R18197   6.511   6.038   7.957 -1.6427  0.9348 -0.5698
  162SAPE  C21618198   6.446   5.830   7.966  0.2323  0.0177  0.3598
  162SAPE  H16R18199   6.358   5.790   7.912  0.9390  0.5732 -1.2547
  162SAPE  H16S18200   6.409   5.854   8.068 -1.1344 -0.3922 -0.0124
  162SAPE  C21718201   6.561   5.729   7.983 -0.2546  0.7603  0.1405
  162SAPE  H17R18202   6.594   5.695   7.883  0.6305 -1.3442  1.0816
  162SAPE  H17S18203   6.518   5.641   8.036 -0.7299  0.2771 -1.0102
  162SAPE  C21818204   6.682   5.781   8.060 -0.4551  0.2924 -0.5212
  162SAPE  H18R18205   6.701   5.890   8.049  1.4783  0.3766  2.4366
  162SAPE  H18S18206   6.764   5.720   8.016 -0.4880 -0.0067 -0.1651
  162SAPE  C21918207   6.667   5.773   8.215  0.5470  0.3607 -0.6583
  162SAPE  H19R18208   6.639   5.668   8.236 -1.8874  0.5996 -2.2705
  162SAPE  H19S18209   6.567   5.806   8.253 -0.4161 -2.1000 -0.8751
  162SAPE  C22018210   6.784   5.833   8.293 -0.9376 -0.3377 -0.4040
  162SAPE  H20R18211   6.875   5.775   8.264 -1.1430 -1.7284  1.5523
  162SAPE  H20S18212   6.772   5.815   8.402 -0.1397 -0.7414 -0.3736
  162SAPE  H20T18213   6.797   5.943   8.282  0.6263 -0.6425 -2.3744
  162SAPE   C3318214   7.019   5.811   6.698  0.1055 -0.0018 -0.0605
  162SAPE   H3X18215   7.035   5.721   6.762 -2.9972 -0.5983  0.0489
  162SAPE   H3Y18216   6.911   5.821   6.675 -0.1504  1.2343  1.5068
  162SAPE   C3418217   7.048   5.941   6.772  0.0564 -0.0974 -0.0136
  162SAPE   H4X18218   7.023   6.024   6.703  0.1053  0.8414  1.0625
  162SAPE   H4Y18219   7.158   5.939   6.787 -0.0457 -3.0951  0.8985
  162SAPE   C3518220   6.976   5.952   6.908 -0.1430  0.0152 -0.5943
  162SAPE   H5X18221   6.865   5.948   6.899 -0.0021 -1.3020 -2.0133
  162SAPE   H5Y18222   7.005   6.053   6.944  0.6458 -0.5137  0.3037
  162SAPE   C3618223   7.016   5.839   7.003 -0.4691 -0.2825  0.0297
  162SAPE   H6X18224   7.126   5.829   7.012 -0.1860  1.3913 -1.1632
  162SAPE   H6Y18225   6.977   5.742   6.965 -2.1248 -0.0388  0.9794
  162SAPE   C3718226   6.967   5.829   7.147 -0.3403 -0.1490 -0.3053
  162SAPE   H7X18227   6.857   5.816   7.157 -0.7517  1.0570 -2.5304
  162SAPE   H7Y18228   6.988   5.922   7.204  0.4152 -0.3162 -0.3014
  162SAPE   C3818229   7.020   5.717   7.231  0.2139 -0.6012 -0.3225
  162SAPE   H8X18230   7.130   5.704   7.219  0.6297  0.5069  1.7749
  162SAPE   H8Y18231   6.972   5.618   7.215  2.2243 -2.1659  2.3117
  162SAPE   C3918232   6.996   5.737   7.384  0.4460  0.0436 -0.6068
  162SAPE   H9X18233   6.888   5.754   7.406  0.2206 -0.8924 -0.9292
  162SAPE   H9Y18234   7.043   5.833   7.415 -2.3439  1.9137 -1.7215
  162SAPE  C31018235   7.031   5.608   7.453  0.1023 -0.2028 -0.0035
  162SAPE  H10X18236   7.142   5.610   7.445  0.0604 -1.7341 -1.6253
  162SAPE  H10Y18237   7.005   5.512   7.403  0.3912 -0.7081  0.8029
  162SAPE  C31118238   6.995   5.606   7.608  0.5201  0.3240  0.8247
  162SAPE  H11X18239   6.885   5.612   7.623  0.7904  1.7520  2.6111
  162SAPE  H11Y18240   7.039   5.699   7.650 -2.0899  1.0608  2.1264
  162SAPE  C31218241   7.055   5.484   7.683 -0.0489 -0.5128  0.3913
  162SAPE  H12X18242   7.164   5.469   7.671  0.5163  3.2596 -0.2789
  162SAPE  H12Y18243   7.004   5.393   7.646 -1.5362  0.7021 -0.6709
  162SAPE  C31318244   7.028   5.493   7.837  0.5799 -0.5863  0.5575
  162SAPE  H13X18245   6.921   5.523   7.844  0.3837 -1.2685  0.4946
  162SAPE  H13Y18246   7.085   5.578   7.881 -0.2325  0.3989 -0.2390
  162SAPE  C31418247   7.037   5.365   7.918 -0.7141  0.1161  0.2459
  162SAPE  H14X18248   7.144   5.336   7.924 -0.7589 -1.0981 -2.7510
  162SAPE  H14Y18249   6.973   5.293   7.862 -0.9601  0.2559  0.3469
  162SAPE  C31518250   6.980   5.371   8.057  1.2935 -0.8432  0.1573
  162SAPE  H15X18251   6.981   5.269   8.102  0.4193 -2.1247 -2.4444
  162SAPE  H15Y18252   6.872   5.395   8.048  1.6267  0.3174 -1.0688
  162SAPE  C31618253   7.062   5.464   8.140 -0.3565 -0.1801  0.0222
  162SAPE  H16X18254   7.068   5.568   8.101  1.9036  0.3949  1.7293
  162SAPE  H16Y18255   7.166   5.425   8.135  0.2244  1.3594 -0.6012
  162SAPE  C31718256   7.007   5.466   8.285  0.0273 -0.3292 -1.0857
  162SAPE  H17X18257   6.896   5.471   8.284 -0.0286  0.5530  1.7809
  162SAPE  H17Y18258   7.044   5.561   8.330 -1.3330  0.1799 -1.0090
  162SAPE  C31818259   7.059   5.335   8.358  0.3537  0.5455  1.0189
  162SAPE  H18X18260   7.012   5.242   8.317 -0.6920  2.9684 -4.0141
  162SAPE  H18Y18261   7.045   5.329   8.468 -0.8925 -0.5339  0.8329
  162SAPE  H18Z18262   7.167   5.333   8.333  0.1810  3.1679 -0.2836
  163SAPE     N18263   4.118   5.139   6.563  0.0220 -0.1274 -0.6530
  163SAPE   HN118264   4.053   5.062   6.538  0.1867 -0.9157  1.1478
  163SAPE   HN218265   4.102   5.220   6.500 -1.1238  0.2567  0.1073
  163SAPE   HN318266   4.214   5.104   6.544  0.0023  0.2938 -1.5962
  163SAPE   C1218267   4.104   5.178   6.710  0.2329 -0.0979 -0.5479
  163SAPE  H12A18268   4.147   5.278   6.730 -1.6210  0.7324 -0.4371
  163SAPE  H12B18269   4.176   5.114   6.765 -1.2843  0.0720  1.7709
  163SAPE   C1118270   3.958   5.180   6.764  0.6196 -0.0929 -0.1819
  163SAPE  H11A18271   3.906   5.276   6.740  2.6718  1.6004  1.7327
  163SAPE  H11B18272   3.965   5.187   6.874  1.3069  0.9576 -0.2776
  163SAPE     P18273   3.784   4.987   6.812  0.0641  0.2766  0.3353
  163SAPE   O1318274   3.663   5.058   6.851 -0.3438  0.6646 -0.1058
  163SAPE   O1418275   3.767   4.852   6.752 -0.3656 -0.0438  0.3273
  163SAPE   O1218276   3.875   5.072   6.717 -0.6237 -0.1532  0.0765
  163SAPE   O1118277   3.880   4.968   6.933  0.2668  0.1024  0.1175
  163SAPE    C118278   3.999   4.894   6.932  0.1398  0.2845  0.3295
  163SAPE    HA18279   4.037   4.872   6.830 -3.3854 -3.6567 -0.3977
  163SAPE    HB18280   4.081   4.950   6.982 -1.0567  2.0649  0.4196
  163SAPE    C218281   3.984   4.756   6.996  0.8842 -0.1305 -0.9527
  163SAPE    HS18282   3.898   4.710   6.943 -0.0708  1.0007 -0.4258
  163SAPE   O2118283   3.944   4.780   7.132 -0.1982  0.5269 -0.0713
  163SAPE   C2118284   3.878   4.683   7.180  0.4768  0.5373  0.1636
  163SAPE   O2218285   3.830   4.592   7.109  0.5988  0.2997 -0.2574
  163SAPE   C2218286   3.856   4.693   7.330  0.7403 -0.2895 -0.1225
  163SAPE   H2R18287   3.892   4.790   7.371 -1.9718 -0.1476  2.2028
  163SAPE   H2S18288   3.752   4.678   7.365  0.6096  1.1769  0.1785
  163SAPE    C318289   4.120   4.674   6.997 -0.0508  0.7574 -0.2244
  163SAPE    HX18290   4.178   4.753   7.048  0.7941  0.0283 -0.0432
  163SAPE    HY18291   4.151   4.651   6.893 -2.5458  3.5578 -1.7597
  163SAPE   O3118292   4.133   4.552   7.079 -0.0497  0.3156 -0.7341
  163SAPE   C3118293   4.100   4.443   7.020 -0.2593  0.4259  0.2333
  163SAPE   O3218294   4.038   4.434   6.916  0.8735  0.3347  0.1842
  163SAPE   C3218295   4.150   4.323   7.093  0.0850 -0.1357 -0.1172
  163SAPE   H2X18296   4.219   4.347   7.176 -0.1106 -2.2395  0.7186
  163SAPE   H2Y18297   4.212   4.271   7.016 -0.8172  0.3308 -1.1903
  163SAPE   C2318298   3.929   4.571   7.396  0.0298 -0.4978 -0.1895
  163SAPE   H3R18299   4.031   4.576   7.352 -0.1627  1.3162 -0.5100
  163SAPE   H3S18300   3.864   4.482   7.383 -2.3749  1.2149 -0.5498
  163SAPE   C2418301   3.947   4.594   7.550  0.0789 -0.5124  0.2302
  163SAPE   H4R18302   3.842   4.592   7.588  0.4653 -3.0230  1.3668
  163SAPE   H4S18303   3.990   4.694   7.571  0.4199 -0.9392  1.6522
  163SAPE   C2518304   4.028   4.486   7.622  0.0178 -0.0387  0.0095
  163SAPE   H5R18305   4.003   4.380   7.604  1.7646 -0.6408  0.8705
  163SAPE   C2618306   4.149   4.507   7.684  0.4854 -0.2903  0.0723
  163SAPE   H6R18307   4.197   4.423   7.736  2.0975  0.3032 -0.4081
  163SAPE   C2718308   4.223   4.641   7.697 -0.0651  0.6609  0.0303
  163SAPE   H7R18309   4.176   4.715   7.765  1.0312  1.3427  0.0620
  163SAPE   H7S18310   4.231   4.688   7.597  0.9404  1.9535  0.6907
  163SAPE   C2818311   4.372   4.625   7.731 -0.2495 -0.1867  0.2913
  163SAPE   H8R18312   4.422   4.542   7.678 -0.7861 -0.3339  0.0045
  163SAPE   C2918313   4.436   4.709   7.809  0.5068 -0.4909 -0.2119
  163SAPE   H9R18314   4.541   4.689   7.836  0.1000  0.2188  2.0783
  163SAPE  C21018315   4.381   4.832   7.870 -0.7465 -0.3226 -0.3415
  163SAPE  H10R18316   4.323   4.891   7.796  2.0009 -0.8781 -3.1811
  163SAPE  H10S18317   4.473   4.895   7.868 -1.4060  0.6430 -1.0271
  163SAPE  C21118318   4.324   4.818   8.012 -0.3216  0.1488 -0.1575
  163SAPE  H11R18319   4.222   4.777   8.015  0.0578 -0.8159 -0.1293
  163SAPE  C21218320   4.385   4.852   8.132  0.0302  0.6575  0.3689
  163SAPE  H12R18321   4.338   4.823   8.227 -0.1153 -3.4108 -0.7470
  163SAPE  C21318322   4.526   4.910   8.152 -0.3555 -0.4700  0.2334
  163SAPE  H13R18323   4.587   4.924   8.061  0.6739 -1.1259  0.8088
  163SAPE  H13S18324   4.582   4.832   8.208 -3.0036 -1.5116  1.6375
  163SAPE  C21418325   4.535   5.036   8.232  0.1100 -0.0817 -0.4665
  163SAPE  H14R18326   4.443   5.096   8.236  1.7408  2.6072 -1.2225
  163SAPE  C21518327   4.644   5.077   8.304  0.4860  0.3683  0.1067
  163SAPE  H15R18328   4.647   5.174   8.356  0.6818  0.3683  0.0945
  163SAPE  C21618329   4.780   5.004   8.313  0.1537 -0.6660 -1.4544
  163SAPE  H16R18330   4.859   5.077   8.285  0.2054 -0.4500 -0.7592
  163SAPE  H16S18331   4.788   4.915   8.246  3.1770 -3.5891  2.3120
  163SAPE  C21718332   4.797   4.944   8.460  0.1990 -0.0069 -0.2673
  163SAPE  H17R18333   4.769   5.031   8.524 -2.2799  0.3619 -1.6906
  163SAPE  H17S18334   4.907   4.934   8.470  0.0610 -1.0532  0.3398
  163SAPE  C21818335   4.711   4.820   8.499 -0.3475  0.3319 -0.1133
  163SAPE  H18R18336   4.617   4.844   8.445 -0.2429  0.9054 -0.0563
  163SAPE  H18S18337   4.676   4.810   8.604 -1.8684  0.2154 -0.6062
  163SAPE  C21918338   4.771   4.693   8.450  0.0084  0.3733 -0.2090
  163SAPE  H19R18339   4.830   4.642   8.529 -1.1139 -1.8557 -0.7285
  163SAPE  H19S18340   4.826   4.712   8.355 -1.6464 -0.1168 -1.3124
  163SAPE  C22018341   4.658   4.597   8.422  0.2114  0.6147  0.1237
  163SAPE  H20R18342   4.596   4.596   8.515  0.1312  1.4255  0.0831
  163SAPE  H20S18343   4.697   4.495   8.404 -0.8517  0.4737 -1.5313
  163SAPE  H20T18344   4.612   4.620   8.324  1.0495  1.6793 -0.0408
  163SAPE   C3318345   4.044   4.227   7.144  0.0059  0.0582  0.7398
  163SAPE   H3X18346   4.059   4.128   7.097  0.8335 -0.5550  2.2357
  163SAPE   H3Y18347   3.939   4.255   7.119  0.6514  1.1413 -0.9335
  163SAPE   C3418348   4.055   4.207   7.298 -0.1051 -0.8081  0.1641
  163SAPE   H4X18349   3.955   4.165   7.324  0.6346 -1.7872  1.5763
  163SAPE   H4Y18350   4.077   4.305   7.345  1.6335  0.1564 -2.4535
  163SAPE   C3518351   4.171   4.109   7.337 -0.4903 -0.0144 -0.5161
  163SAPE   H5X18352   4.268   4.137   7.291  1.0395 -1.6221  1.5245
  163SAPE   H5Y18353   4.133   4.022   7.280  2.4952 -1.3872 -0.6235
  163SAPE   C3618354   4.189   4.088   7.490 -0.3495 -0.2540  0.9871
  163SAPE   H6X18355   4.090   4.051   7.526 -1.4224 -0.2289 -1.7177
  163SAPE   H6Y18356   4.231   4.177   7.542  0.9098  0.1368 -0.6227
  163SAPE   C3718357   4.285   3.968   7.514 -0.3414  0.2180  0.6278
  163SAPE   H7X18358   4.381   3.978   7.459 -0.0725  0.5400  1.1462
  163SAPE   H7Y18359   4.240   3.881   7.463  2.0548 -0.7215 -0.0325
  163SAPE   C3818360   4.305   3.925   7.662  0.0047  0.2034  0.4950
  163SAPE   H8X18361   4.362   4.004   7.715 -2.7637  2.1208  0.7646
  163SAPE   H8Y18362   4.368   3.834   7.673 -0.5374 -0.0862  1.3036
  163SAPE   C3918363   4.184   3.924   7.752  0.6327  0.0926 -0.6184
  163SAPE   H9X18364   4.116   3.842   7.719  0.6285  0.4015 -1.3856
  163SAPE   H9Y18365   4.140   4.026   7.742 -1.3106 -0.0347  3.9317
  163SAPE  C31018366   4.226   3.903   7.900 -0.0459  0.8624  0.5437
  163SAPE  H10X18367   4.321   3.954   7.926 -0.0367  0.1795  1.9519
  163SAPE  H10Y18368   4.238   3.794   7.921 -0.7779  0.3799 -1.3291
  163SAPE  C31118369   4.114   3.956   7.994  0.0512  0.7061  0.1004
  163SAPE  H11X18370   4.020   3.907   7.961 -0.0495  0.0489  1.2948
  163SAPE  H11Y18371   4.101   4.065   7.974  0.1370  0.5359 -0.8957
  163SAPE  C31218372   4.142   3.919   8.134 -0.8586 -0.1235 -0.4162
  163SAPE  H12X18373   4.210   3.831   8.127 -1.8384 -0.9139 -0.2432
  163SAPE  H12Y18374   4.053   3.876   8.184  0.7616  0.7230  3.5400
  163SAPE  C31318375   4.226   4.027   8.210  0.1565  0.0619 -0.2245
  163SAPE  H13X18376   4.310   4.057   8.144  1.2156  3.9136  2.4867
  163SAPE  H13Y18377   4.265   3.981   8.304  1.4796  2.4105  0.4741
  163SAPE  C31418378   4.144   4.149   8.256 -0.1476 -0.4356 -0.0711
  163SAPE  H14X18379   4.073   4.107   8.330 -1.5363  0.9687 -0.5437
  163SAPE  H14Y18380   4.074   4.194   8.182  0.4620 -0.3221 -0.5854
  163SAPE  C31518381   4.229   4.241   8.339  0.3179 -0.6115  0.8226
  163SAPE  H15X18382   4.310   4.209   8.408  1.7292  1.0436  0.0261
  163SAPE  H15Y18383   4.159   4.292   8.408  1.8095 -0.9079  2.6239
  163SAPE  C31618384   4.282   4.360   8.254 -0.0118  0.3876  0.0962
  163SAPE  H16X18385   4.350   4.423   8.315  0.8258  0.3177 -0.7515
  163SAPE  H16Y18386   4.194   4.420   8.225 -0.0543  0.9607  1.3404
  163SAPE  C31718387   4.368   4.307   8.136 -0.4318  0.2008 -0.2232
  163SAPE  H17X18388   4.305   4.241   8.073 -1.9939  0.1924  1.2812
  163SAPE  H17Y18389   4.456   4.249   8.170  0.0325  2.0266  1.9312
  163SAPE  C31818390   4.417   4.420   8.046  0.3983 -0.2967  0.5635
  163SAPE  H18X18391   4.454   4.388   7.946 -0.4503  0.8275 -0.1510
  163SAPE  H18Y18392   4.492   4.481   8.102 -0.8338  1.5392  0.3281
  163SAPE  H18Z18393   4.335   4.488   8.012 -0.6261 -1.3031  0.9705
  164SAPE     N18394   3.579   2.603   6.348 -0.0826  0.1690 -0.1409
  164SAPE   HN118395   3.510   2.628   6.422 -0.6317  1.0226 -0.9253
  164SAPE   HN218396   3.613   2.509   6.376  0.4220 -0.1801 -1.8125
  164SAPE   HN318397   3.646   2.682   6.352  0.3397 -0.2252  2.0242
  164SAPE   C1218398   3.508   2.588   6.217 -0.4096 -0.2642 -0.0890
  164SAPE  H12A18399   3.440   2.676   6.211 -0.2336 -0.0974  0.3594
  164SAPE  H12B18400   3.433   2.506   6.216 -0.6420 -0.1042 -2.2600
  164SAPE   C1118401   3.610   2.569   6.097 -0.3632  0.6819  0.5727
  164SAPE  H11A18402   3.549   2.552   6.005  1.6773 -2.9521 -0.3209
  164SAPE  H11B18403   3.668   2.475   6.112 -0.0525  0.2630 -2.4828
  164SAPE     P18404   3.823   2.721   6.132  0.1440 -0.2525  0.1214
  164SAPE   O1318405   3.913   2.604   6.161  0.2412 -0.1565 -0.1733
  164SAPE   O1418406   3.884   2.834   6.052  0.0856 -0.7031 -0.2564
  164SAPE   O1218407   3.695   2.672   6.058  0.5446  0.6518  0.4831
  164SAPE   O1118408   3.767   2.780   6.267  0.4585 -0.6827 -0.3748
  164SAPE    C118409   3.701   2.912   6.285 -0.4304  0.4359 -0.1764
  164SAPE    HA18410   3.736   2.992   6.216 -1.3431  2.2776  1.3826
  164SAPE    HB18411   3.590   2.905   6.284 -0.4957  0.4298  1.9944
  164SAPE    C218412   3.725   2.949   6.432 -0.4890  1.1276 -0.4757
  164SAPE    HS18413   3.829   2.989   6.435  0.9354 -2.2682  0.4254
  164SAPE   O2118414   3.706   2.831   6.522 -0.1661 -0.1015 -0.1316
  164SAPE   C2118415   3.822   2.766   6.556 -0.0248 -0.8320 -0.0165
  164SAPE   O2218416   3.934   2.806   6.524  0.1999 -0.2649 -0.5791
  164SAPE   C2218417   3.789   2.639   6.642 -0.0698 -0.6530  0.6532
  164SAPE   H2R18418   3.739   2.682   6.731  1.2278  0.7963  0.7239
  164SAPE   H2S18419   3.719   2.571   6.589  1.7382 -3.1541  1.3000
  164SAPE    C318420   3.625   3.057   6.480 -0.0681 -0.1255 -0.5268
  164SAPE    HX18421   3.520   3.021   6.472 -0.4679  0.3810  1.7609
  164SAPE    HY18422   3.636   3.139   6.406 -0.5283 -0.4678 -0.9830
  164SAPE   O3118423   3.661   3.090   6.617  0.2178  0.2993  0.0525
  164SAPE   C3118424   3.591   3.019   6.714 -0.0621 -0.3738 -0.2608
  164SAPE   O3218425   3.506   2.934   6.695 -0.2851  0.0996  0.5683
  164SAPE   C3218426   3.624   3.078   6.849 -0.1203 -0.1533 -0.2207
  164SAPE   H2X18427   3.556   3.164   6.857 -0.8624 -0.8482  1.3694
  164SAPE   H2Y18428   3.727   3.120   6.847 -0.0367  0.2693  3.9320
  164SAPE   C2318429   3.918   2.563   6.676 -0.4882 -1.2979 -0.2745
  164SAPE   H3R18430   3.964   2.534   6.579  1.1970 -1.7014  0.6078
  164SAPE   H3S18431   3.906   2.461   6.718  2.4624 -1.1046  1.3417
  164SAPE   C2418432   4.016   2.628   6.773 -0.2242  0.3737 -1.1709
  164SAPE   H4R18433   4.062   2.718   6.726  0.6988  0.8628  0.6072
  164SAPE   H4S18434   4.099   2.554   6.776  1.1120  1.7653 -2.1762
  164SAPE   C2518435   3.957   2.668   6.901  0.0272 -0.0115 -0.9420
  164SAPE   H5R18436   3.889   2.752   6.882  1.3256  0.8490 -1.9205
  164SAPE   C2618437   3.998   2.638   7.025 -0.1110 -0.5993  0.0392
  164SAPE   H6R18438   3.940   2.680   7.108 -0.6046 -2.7336  0.8411
  164SAPE   C2718439   4.103   2.544   7.067 -0.3078 -0.1097 -0.9406
  164SAPE   H7R18440   4.160   2.599   7.145 -0.0756 -0.1957 -1.0490
  164SAPE   H7S18441   4.165   2.521   6.977  0.2922 -1.2442 -0.2526
  164SAPE   C2818442   4.048   2.414   7.122  1.0739  0.7595 -0.1432
  164SAPE   H8R18443   4.003   2.346   7.048 -0.6376  1.3061  0.3432
  164SAPE   C2918444   4.058   2.369   7.250  0.0153 -0.5927  0.1461
  164SAPE   H9R18445   4.005   2.274   7.267  2.0218 -2.6676 -3.7885
  164SAPE  C21018446   4.114   2.437   7.369  0.0296 -0.0990 -0.3261
  164SAPE  H10R18447   4.035   2.496   7.421 -0.1123  1.5734 -2.2999
  164SAPE  H10S18448   4.208   2.494   7.355  0.8997 -1.5706 -0.6727
  164SAPE  C21118449   4.164   2.329   7.465 -0.8435  0.5036 -0.1970
  164SAPE  H11R18450   4.215   2.241   7.422  0.0217 -0.4413  2.5001
  164SAPE  C21218451   4.163   2.345   7.600 -0.0658  0.5238  0.0781
  164SAPE  H12R18452   4.227   2.269   7.648 -1.3284 -0.2973  0.5121
  164SAPE  C21318453   4.103   2.450   7.687  0.7349 -0.5633 -1.0033
  164SAPE  H13R18454   4.058   2.526   7.620 -0.7499  0.3738  0.9736
  164SAPE  H13S18455   4.175   2.513   7.742 -0.6441  1.8092 -1.7840
  164SAPE  C21418456   3.983   2.402   7.762 -0.0959  0.9136  0.4560
  164SAPE  H14R18457   3.888   2.395   7.706 -0.3334 -1.7636  1.0140
  164SAPE  C21518458   3.974   2.372   7.889  0.1591 -0.2103  0.3901
  164SAPE  H15R18459   3.880   2.340   7.935 -0.6018  2.3360  0.7656
  164SAPE  C21618460   4.088   2.381   7.990  0.0857 -0.3248  0.2658
  164SAPE  H16R18461   4.073   2.455   8.071  0.2467 -0.0454  0.0409
  164SAPE  H16S18462   4.183   2.408   7.940  1.0620 -1.3165  1.5270
  164SAPE  C21718463   4.117   2.254   8.072  0.1330  0.2795 -0.5740
  164SAPE  H17R18464   4.025   2.223   8.126  1.7407 -1.8987  1.1141
  164SAPE  H17S18465   4.183   2.283   8.157  1.7167 -0.9587 -1.3381
  164SAPE  C21818466   4.182   2.145   7.983 -0.0251  0.2032 -0.2916
  164SAPE  H18R18467   4.270   2.199   7.941 -1.4481  1.4031 -1.8930
  164SAPE  H18S18468   4.113   2.115   7.901 -1.7910  0.9210  0.8482
  164SAPE  C21918469   4.215   2.014   8.068 -0.8141 -0.1037  0.0483
  164SAPE  H19R18470   4.123   1.994   8.127 -1.1525  1.7879  0.2432
  164SAPE  H19S18471   4.299   2.023   8.139  1.3682  0.1215 -2.4085
  164SAPE  C22018472   4.242   1.890   7.975  0.2897  0.2219  0.1471
  164SAPE  H20R18473   4.330   1.906   7.909  0.5191 -1.3089  0.0407
  164SAPE  H20S18474   4.143   1.882   7.925 -0.9404 -3.0955  2.6582
  164SAPE  H20T18475   4.255   1.795   8.032 -0.5253 -0.0666 -0.1355
  164SAPE   C3318476   3.624   2.984   6.966  1.3966 -0.3276  0.4279
  164SAPE   H3X18477   3.692   2.902   6.936  1.0115 -0.4618 -0.0958
  164SAPE   H3Y18478   3.521   2.943   6.973  1.8456 -1.4936  0.3965
  164SAPE   C3418479   3.648   3.040   7.099  0.3070 -0.3135 -0.1772
  164SAPE   H4X18480   3.560   3.107   7.112  0.6739  0.3579 -1.1003
  164SAPE   H4Y18481   3.741   3.098   7.116 -1.2310  2.4451 -0.5639
  164SAPE   C3518482   3.635   2.947   7.212 -0.5791 -0.2104  1.0557
  164SAPE   H5X18483   3.717   2.872   7.210  2.4329  2.8324 -1.2711
  164SAPE   H5Y18484   3.540   2.891   7.203 -0.6423  0.1465 -0.9491
  164SAPE   C3618485   3.656   3.029   7.342  0.2271 -0.2810  0.1357
  164SAPE   H6X18486   3.567   3.095   7.353  1.6890  1.7278  0.4658
  164SAPE   H6Y18487   3.740   3.100   7.331  1.4969 -1.6542  0.6547
  164SAPE   C3718488   3.654   2.938   7.464 -0.2721 -0.0911  0.4761
  164SAPE   H7X18489   3.750   2.883   7.455  0.2711  0.7376  1.0105
  164SAPE   H7Y18490   3.564   2.873   7.459 -0.6541  0.4257  0.5002
  164SAPE   C3818491   3.660   3.016   7.599 -0.3379  0.1422  0.2159
  164SAPE   H8X18492   3.583   3.096   7.597  0.1373  0.6074 -1.8568
  164SAPE   H8Y18493   3.762   3.060   7.605 -0.0576 -0.6515  1.7297
  164SAPE   C3918494   3.655   2.928   7.721 -0.0556 -0.9281 -0.5203
  164SAPE   H9X18495   3.745   2.863   7.720 -0.0936 -1.0705  1.6287
  164SAPE   H9Y18496   3.564   2.867   7.701 -0.7358 -0.4048  0.8889
  164SAPE  C31018497   3.632   3.003   7.850 -0.4875 -0.3059 -0.6229
  164SAPE  H10X18498   3.549   3.077   7.840 -1.7469 -1.3607  1.3582
  164SAPE  H10Y18499   3.724   3.057   7.881  0.7654 -0.6173 -3.4267
  164SAPE  C31118500   3.577   2.918   7.968 -0.3167  0.1107 -0.4008
  164SAPE  H11X18501   3.645   2.839   8.005  0.1052  0.6862  0.0567
  164SAPE  H11Y18502   3.484   2.866   7.934 -0.4077  0.0490 -0.0602
  164SAPE  C31218503   3.536   3.015   8.079 -0.1473  0.6551 -0.7138
  164SAPE  H12X18504   3.491   2.940   8.147  0.9215 -0.4401 -1.1613
  164SAPE  H12Y18505   3.455   3.083   8.044  0.5756  1.2080 -1.3554
  164SAPE  C31318506   3.653   3.087   8.148 -0.2094 -0.4564 -0.2614
  164SAPE  H13X18507   3.683   3.179   8.094  1.3117 -0.3529  0.6974
  164SAPE  H13Y18508   3.738   3.015   8.151  1.4522  1.3442 -1.4193
  164SAPE  C31418509   3.618   3.121   8.289 -0.3915 -0.0075  0.8979
  164SAPE  H14X18510   3.583   3.030   8.343  1.2822 -0.5259  1.1727
  164SAPE  H14Y18511   3.531   3.190   8.298 -1.8022 -1.7286  1.0280
  164SAPE  C31518512   3.737   3.185   8.366 -0.0261 -0.2430  0.4964
  164SAPE  H15X18513   3.761   3.290   8.340  1.7929 -0.8416 -0.4339
  164SAPE  H15Y18514   3.828   3.124   8.345 -0.2015 -0.9770  1.7082
  164SAPE  C31618515   3.727   3.179   8.521 -0.2751  0.5726 -0.5888
  164SAPE  H16X18516   3.673   3.084   8.537 -1.1789  1.4131  1.7625
  164SAPE  H16Y18517   3.652   3.253   8.556 -0.8791 -0.4145  0.2563
  164SAPE  C31718518   3.859   3.176   8.592  0.2991 -0.2495 -0.5659
  164SAPE  H17X18519   3.921   3.095   8.549  1.0615  0.0930 -0.1274
  164SAPE  H17Y18520   3.838   3.142   8.695 -2.0181 -1.3463 -1.3087
  164SAPE  C31818521   3.921   3.315   8.584  0.2581  0.2371  0.2441
  164SAPE  H18X18522   3.850   3.385   8.633 -0.5809  1.1594 -2.1531
  164SAPE  H18Y18523   3.945   3.354   8.482  1.8101 -1.4208 -0.0817
  164SAPE  H18Z18524   4.019   3.322   8.637  0.1304 -0.1827  0.5380
  165SAPE     N18525   0.950   4.727   5.777 -0.7716  0.5387 -0.7013
  165SAPE   HN118526   0.978   4.653   5.709  1.3661 -0.4611  1.1596
  165SAPE   HN218527   1.004   4.811   5.748  2.8384 -0.8581  1.3502
  165SAPE   HN318528   0.989   4.703   5.870 -1.0826  2.9483  0.1081
  165SAPE   C1218529   0.797   4.746   5.784  0.1143 -0.0799  0.1789
  165SAPE  H12A18530   0.755   4.649   5.817  0.2503  0.2240  1.3010
  165SAPE  H12B18531   0.769   4.765   5.679  0.4722 -0.5818 -0.0083
  165SAPE   C1118532   0.763   4.866   5.874  0.8913 -0.0703 -0.6465
  165SAPE  H11A18533   0.659   4.897   5.850  0.2773 -2.3473 -1.2125
  165SAPE  H11B18534   0.819   4.958   5.847  2.7077 -0.3172  1.8620
  165SAPE     P18535   0.673   4.802   6.119  0.3605 -0.1795  0.4940
  165SAPE   O1318536   0.634   4.923   6.193  0.0471 -0.3694  0.3773
  165SAPE   O1418537   0.568   4.719   6.050 -0.3266 -0.3017  0.1804
  165SAPE   O1218538   0.783   4.836   6.014 -0.4937 -0.3279  0.4294
  165SAPE   O1118539   0.745   4.704   6.219  0.1263  0.4380  0.6179
  165SAPE    C118540   0.866   4.743   6.282 -0.0429 -0.1926  0.4874
  165SAPE    HA18541   0.953   4.679   6.254  0.1085  0.9974 -2.0106
  165SAPE    HB18542   0.901   4.846   6.260  0.4401 -0.1724  1.3027
  165SAPE    C218543   0.850   4.747   6.437 -0.2271  0.1740  0.5005
  165SAPE    HS18544   0.950   4.742   6.485  0.1022 -2.1195 -0.3059
  165SAPE   O2118545   0.783   4.624   6.477 -0.0746 -0.2211  0.0588
  165SAPE   C2118546   0.867   4.516   6.460  0.1710  0.1261 -0.1995
  165SAPE   O2218547   0.987   4.522   6.428 -0.0440 -0.3433  0.0701
  165SAPE   C2218548   0.795   4.388   6.490  0.4044 -0.1239  0.2587
  165SAPE   H2R18549   0.686   4.398   6.507  0.3661  0.2304 -0.1769
  165SAPE   H2S18550   0.816   4.324   6.402 -1.5130  0.2948 -0.5606
  165SAPE    C318551   0.773   4.874   6.494 -0.3765 -0.7259  0.3305
  165SAPE    HX18552   0.672   4.870   6.447  1.1250  0.3289 -3.3120
  165SAPE    HY18553   0.827   4.966   6.465 -0.1855  0.4659  3.9960
  165SAPE   O3118554   0.777   4.864   6.632  0.8340 -0.2894 -0.4972
  165SAPE   C3118555   0.676   4.921   6.697  0.1712 -0.2807 -0.2383
  165SAPE   O3218556   0.582   4.981   6.646  0.1930 -0.1531 -0.3462
  165SAPE   C3218557   0.715   4.928   6.845  0.1692  0.4459 -0.4480
  165SAPE   H2X18558   0.710   5.036   6.871 -0.0242  0.6056 -1.1421
  165SAPE   H2Y18559   0.815   4.885   6.870 -0.4693 -0.7740  0.1058
  165SAPE   C2318560   0.853   4.320   6.615 -0.1278  0.4802  0.2665
  165SAPE   H3R18561   0.952   4.351   6.655  0.3025 -1.1936  0.6029
  165SAPE   H3S18562   0.862   4.213   6.588 -0.7418  0.3276  0.6310
  165SAPE   C2418563   0.749   4.321   6.742  0.9636 -0.0007  0.1726
  165SAPE   H4R18564   0.763   4.232   6.808 -0.0664 -0.4333 -0.1792
  165SAPE   H4S18565   0.650   4.298   6.697  2.2073 -1.5623 -1.9324
  165SAPE   C2518566   0.747   4.462   6.800 -0.3557  0.3897  0.7283
  165SAPE   H5R18567   0.685   4.537   6.750  2.9726  1.8215 -1.6306
  165SAPE   C2618568   0.830   4.505   6.900  0.0833  0.6577 -0.0372
  165SAPE   H6R18569   0.826   4.612   6.925  1.4109  0.3496  1.7632
  165SAPE   C2718570   0.926   4.422   6.978 -0.6724  0.2104  0.1464
  165SAPE   H7R18571   0.953   4.326   6.930  1.3769  0.5503  0.5099
  165SAPE   H7S18572   0.880   4.399   7.077 -0.2163 -2.8863 -0.2502
  165SAPE   C2818573   1.053   4.501   6.994  0.3666  0.2031  0.2349
  165SAPE   H8R18574   1.074   4.580   6.921  0.5962  2.2453  2.4010
  165SAPE   C2918575   1.139   4.505   7.098  0.1916  0.7031 -0.0228
  165SAPE   H9R18576   1.233   4.561   7.096  0.1968  0.6846 -0.4444
  165SAPE  C21018577   1.134   4.411   7.223 -0.5531 -0.7521 -0.2678
  165SAPE  H10R18578   1.091   4.311   7.200 -0.5358 -0.6630 -0.6845
  165SAPE  H10S18579   1.065   4.458   7.297  0.8921  0.2974  0.4580
  165SAPE  C21118580   1.258   4.376   7.287 -0.0970 -0.0453  0.1900
  165SAPE  H11R18581   1.314   4.309   7.219 -0.6260  0.3099 -0.6196
  165SAPE  C21218582   1.313   4.412   7.401 -0.3835 -0.0483 -0.2189
  165SAPE  H12R18583   1.415   4.377   7.420  0.3300  1.5070 -1.0041
  165SAPE  C21318584   1.248   4.501   7.511 -0.1929  0.2492 -0.2836
  165SAPE  H13R18585   1.168   4.558   7.459  0.4763  0.0289 -1.6053
  165SAPE  H13S18586   1.318   4.582   7.541 -1.9007  2.5124 -2.0933
  165SAPE  C21418587   1.186   4.415   7.619 -0.7967 -0.4469  0.2225
  165SAPE  H14R18588   1.152   4.317   7.583  1.7541 -1.3251 -0.0061
  165SAPE  C21518589   1.174   4.461   7.744  0.4677  0.0758  0.3570
  165SAPE  H15R18590   1.119   4.395   7.812 -0.0401 -2.6137 -2.4194
  165SAPE  C21618591   1.223   4.592   7.794 -0.4381 -0.3708 -0.5679
  165SAPE  H16R18592   1.153   4.630   7.872  0.4359 -0.2593  0.1817
  165SAPE  H16S18593   1.240   4.663   7.710 -0.4697  1.0630  0.5797
  165SAPE  C21718594   1.358   4.584   7.860 -0.7883  0.3922  1.1648
  165SAPE  H17R18595   1.408   4.682   7.874  4.5683 -1.1308 -3.6683
  165SAPE  H17S18596   1.426   4.541   7.785 -2.2139  0.5619 -0.2782
  165SAPE  C21818597   1.359   4.488   7.984  0.1317  0.2685 -0.0408
  165SAPE  H18R18598   1.334   4.384   7.955  0.6115 -0.0950  0.7876
  165SAPE  H18S18599   1.273   4.514   8.049  0.0002 -0.1748 -0.0393
  165SAPE  C21918600   1.496   4.491   8.051 -0.5279 -1.0671 -0.1900
  165SAPE  H19R18601   1.516   4.598   8.075 -1.9820 -0.8766  0.2241
  165SAPE  H19S18602   1.574   4.456   7.980 -1.5877 -1.1976 -1.3145
  165SAPE  C22018603   1.506   4.415   8.182  0.5711  0.6661  0.3138
  165SAPE  H20R18604   1.520   4.305   8.173  1.1754  0.7507  0.1366
  165SAPE  H20S18605   1.420   4.428   8.251 -1.6019  1.1566 -2.3493
  165SAPE  H20T18606   1.596   4.443   8.242  1.4927 -1.7712  0.1956
  165SAPE   C3318607   0.615   4.841   6.928 -0.3029 -0.6157  0.0241
  165SAPE   H3X18608   0.601   4.734   6.899  0.7774 -0.6029 -0.5773
  165SAPE   H3Y18609   0.514   4.886   6.928 -0.6504 -1.2054 -2.6074
  165SAPE   C3418610   0.669   4.842   7.069 -0.5698 -0.1601  0.2620
  165SAPE   H4X18611   0.674   4.949   7.101 -0.1878 -0.4160  1.1024
  165SAPE   H4Y18612   0.774   4.806   7.066 -0.1113  0.9688  1.4371
  165SAPE   C3518613   0.587   4.764   7.166 -0.2558 -0.0144 -0.2965
  165SAPE   H5X18614   0.587   4.659   7.129 -1.8352 -0.1070 -0.1252
  165SAPE   H5Y18615   0.481   4.797   7.167  0.2828  1.7735  0.0023
  165SAPE   C3618616   0.651   4.752   7.305  0.1154  0.4133  0.6130
  165SAPE   H6X18617   0.567   4.717   7.369 -1.1661  1.9768 -0.1189
  165SAPE   H6Y18618   0.679   4.849   7.350 -0.7818  0.7530  0.4637
  165SAPE   C3718619   0.767   4.648   7.325 -0.3096 -0.6552  0.0302
  165SAPE   H7X18620   0.867   4.696   7.312  0.4466 -1.6089  1.9382
  165SAPE   H7Y18621   0.762   4.574   7.243  0.8035 -0.1800 -0.4832
  165SAPE   C3818622   0.756   4.583   7.465 -0.6246  0.5299  0.1297
  165SAPE   H8X18623   0.832   4.502   7.471 -2.0457 -0.7574  2.1787
  165SAPE   H8Y18624   0.660   4.530   7.481  0.3448 -1.2191  0.3291
  165SAPE   C3918625   0.785   4.681   7.579 -0.9478 -1.0006  0.3594
  165SAPE   H9X18626   0.725   4.774   7.574  3.8826  2.4343 -1.5026
  165SAPE   H9Y18627   0.890   4.716   7.568 -1.0764 -0.1019  1.8026
  165SAPE  C31018628   0.777   4.631   7.727 -0.0811  0.3073  0.6986
  165SAPE  H10X18629   0.838   4.539   7.736 -1.5602 -0.7185  0.4703
  165SAPE  H10Y18630   0.671   4.617   7.757  0.1751 -2.1246  0.6914
  165SAPE  C31118631   0.857   4.728   7.817  0.1940 -0.4824 -0.4381
  165SAPE  H11X18632   0.825   4.834   7.821  0.5007 -0.3633 -0.9750
  165SAPE  H11Y18633   0.962   4.718   7.782  0.3009 -0.7105 -0.0660
  165SAPE  C31218634   0.860   4.669   7.964 -0.2533  0.0774  0.2510
  165SAPE  H12X18635   0.930   4.738   8.016  0.3535 -1.3552  1.4049
  165SAPE  H12Y18636   0.903   4.567   7.970 -0.7823 -0.3144 -1.9160
  165SAPE  C31318637   0.732   4.669   8.045 -0.1830  0.0375 -0.1688
  165SAPE  H13X18638   0.676   4.581   8.007  0.6037 -0.6740  0.2750
  165SAPE  H13Y18639   0.673   4.759   8.019  0.7756  0.1986 -1.9633
  165SAPE  C31418640   0.763   4.658   8.198  0.1722 -0.5720 -0.3513
  165SAPE  H14X18641   0.839   4.735   8.227 -0.4184 -0.8067  2.0848
  165SAPE  H14Y18642   0.805   4.557   8.214  2.6807  0.2289 -1.3615
  165SAPE  C31518643   0.645   4.681   8.290  0.3421 -0.1897 -0.4241
  165SAPE  H15X18644   0.572   4.602   8.261  0.9803 -1.4188  1.1269
  165SAPE  H15Y18645   0.599   4.780   8.274 -2.4863 -1.2976  0.2366
  165SAPE  C31618646   0.684   4.673   8.439 -0.3042 -0.3718  0.1516
  165SAPE  H16X18647   0.710   4.771   8.484  2.2554 -0.3099 -1.3186
  165SAPE  H16Y18648   0.767   4.600   8.449  0.4795  0.5070  0.1434
  165SAPE  C31718649   0.560   4.625   8.520 -0.1891 -0.6609  0.5682
  165SAPE  H17X18650   0.508   4.546   8.462  0.2471 -1.0307  0.6695
  165SAPE  H17Y18651   0.482   4.704   8.516 -1.8298 -2.2143  0.4670
  165SAPE  C31818652   0.605   4.585   8.662 -0.5250 -0.3230  0.7159
  165SAPE  H18X18653   0.662   4.491   8.644  2.2981  1.6542 -1.8663
  165SAPE  H18Y18654   0.520   4.567   8.731 -2.5737  3.2451 -0.6247
  165SAPE  H18Z18655   0.674   4.661   8.705  2.5420 -3.1102  1.1046
  166SAPE     N18656   6.329   0.487   5.915 -0.8395  0.5217  0.4431
  166SAPE   HN118657   6.372   0.562   5.856 -0.1107  1.1776  1.7731
  166SAPE   HN218658   6.390   0.479   5.999  0.0333  0.9064 -0.1336
  166SAPE   HN318659   6.328   0.395   5.866 -0.3256  0.7327  0.0195
  166SAPE   C1218660   6.194   0.539   5.933  0.4802 -0.1068  0.4902
  166SAPE  H12A18661   6.134   0.465   5.991  0.7046 -0.8372 -0.1799
  166SAPE  H12B18662   6.148   0.549   5.833 -2.2459  1.5128  1.7882
  166SAPE   C1118663   6.186   0.671   6.019 -0.4912 -0.2319 -0.5303
  166SAPE  H11A18664   6.199   0.635   6.123  0.8201  2.0686  0.1670
  166SAPE  H11B18665   6.085   0.717   6.024 -1.2328 -1.5317 -2.3746
  166SAPE     P18666   6.269   0.911   5.995  0.1313  0.2288 -0.2752
  166SAPE   O1318667   6.390   0.986   5.954 -0.6408 -0.4020 -0.5310
  166SAPE   O1418668   6.146   0.938   5.923 -0.6502 -0.1377  0.2003
  166SAPE   O1218669   6.297   0.756   5.989  0.1288  0.1864 -0.2201
  166SAPE   O1118670   6.235   0.936   6.147 -0.0907  0.1575 -0.0581
  166SAPE    C118671   6.324   1.009   6.228  0.8906 -0.5872  0.5541
  166SAPE    HA18672   6.412   1.052   6.176  0.1311 -0.5779 -0.7790
  166SAPE    HB18673   6.269   1.097   6.268  0.2377 -0.5968 -0.2829
  166SAPE    C218674   6.374   0.923   6.348 -0.6862  0.6411 -0.1430
  166SAPE    HS18675   6.293   0.882   6.412  0.3139 -0.9324  0.1985
  166SAPE   O2118676   6.466   0.997   6.432 -0.2679  0.3648  0.2854
  166SAPE   C2118677   6.411   1.105   6.500 -0.7330  0.4272  1.2452
  166SAPE   O2218678   6.295   1.136   6.491 -0.1189 -0.1810  0.0974
  166SAPE   C2218679   6.517   1.168   6.587  0.0762 -0.3663  0.2272
  166SAPE   H2R18680   6.608   1.104   6.582  0.1280 -0.4615  1.8464
  166SAPE   H2S18681   6.548   1.264   6.541 -2.6623 -0.7289 -2.8079
  166SAPE    C318682   6.439   0.789   6.296  0.0852  0.3057  0.3021
  166SAPE    HX18683   6.515   0.824   6.224  3.1807 -2.4143  1.9536
  166SAPE    HY18684   6.364   0.732   6.237 -0.0645 -0.3045  1.0664
  166SAPE   O3118685   6.502   0.714   6.401  0.6244  0.0300  0.3111
  166SAPE   C3118686   6.414   0.631   6.465 -0.3041 -0.1259  0.9617
  166SAPE   O3218687   6.292   0.636   6.452  0.6899  0.6135 -0.8139
  166SAPE   C3218688   6.502   0.532   6.550  0.2230 -0.8769  0.0259
  166SAPE   H2X18689   6.605   0.531   6.509 -0.0758 -1.7831 -0.7295
  166SAPE   H2Y18690   6.454   0.434   6.531 -1.9576  0.1085  0.1166
  166SAPE   C2318691   6.466   1.182   6.733  0.8015  0.3502 -0.3960
  166SAPE   H3R18692   6.377   1.249   6.736 -0.1248 -0.8776  0.8334
  166SAPE   H3S18693   6.545   1.229   6.795  0.4825 -0.5045  0.6836
  166SAPE   C2418694   6.417   1.058   6.806  0.1796 -0.0211 -0.8778
  166SAPE   H4R18695   6.320   1.021   6.765 -0.5554  1.5172 -0.5693
  166SAPE   H4S18696   6.393   1.093   6.908 -2.8195 -3.3844 -0.2081
  166SAPE   C2518697   6.536   0.957   6.809 -0.4357  0.7521 -0.2555
  166SAPE   H5R18698   6.595   0.954   6.716 -0.8496 -0.4575 -0.4972
  166SAPE   C2618699   6.578   0.878   6.911 -0.1694 -0.0322 -0.4231
  166SAPE   H6R18700   6.670   0.821   6.892 -0.7747 -0.8915 -0.8546
  166SAPE   C2718701   6.518   0.884   7.054  0.4477 -0.0427  0.4962
  166SAPE   H7R18702   6.473   0.983   7.075 -0.1558 -0.5711  1.7994
  166SAPE   H7S18703   6.608   0.869   7.118  0.3519  0.2618  0.7070
  166SAPE   C2818704   6.413   0.781   7.086  0.9415  0.3496  0.2729
  166SAPE   H8R18705   6.353   0.740   7.003 -2.5389 -0.4078  2.9383
  166SAPE   C2918706   6.396   0.728   7.200  0.6373 -0.5082 -0.5123
  166SAPE   H9R18707   6.324   0.646   7.214 -0.0715 -0.1685 -1.9322
  166SAPE  C21018708   6.468   0.750   7.329 -0.0019 -0.5183  0.3483
  166SAPE  H10R18709   6.572   0.785   7.311 -0.2536 -0.3380 -0.8382
  166SAPE  H10S18710   6.464   0.656   7.388 -1.7381  0.2668  1.5945
  166SAPE  C21118711   6.395   0.856   7.411  0.2199 -0.2753 -0.2117
  166SAPE  H11R18712   6.362   0.945   7.355  1.4859 -0.5897 -1.5193
  166SAPE  C21218713   6.376   0.854   7.541  0.5266 -0.7531  0.7668
  166SAPE  H12R18714   6.303   0.927   7.579 -3.0362 -2.4808 -2.0907
  166SAPE  C21318715   6.412   0.742   7.634 -0.5844 -0.2738 -0.0893
  166SAPE  H13R18716   6.411   0.775   7.740  0.8702  0.2381 -0.2123
  166SAPE  H13S18717   6.510   0.698   7.606 -2.3151 -2.6901 -2.9264
  166SAPE  C21418718   6.317   0.627   7.619  0.0779  0.6307  0.1808
  166SAPE  H14R18719   6.309   0.592   7.515  0.4744 -2.0669  1.0012
  166SAPE  C21518720   6.246   0.561   7.715  0.7794 -0.5373 -0.0017
  166SAPE  H15R18721   6.176   0.485   7.678  0.9010  0.6783 -3.0056
  166SAPE  C21618722   6.245   0.590   7.863 -0.6425 -0.4577  0.4943
  166SAPE  H16R18723   6.145   0.615   7.904 -0.7788  0.4441 -0.3735
  166SAPE  H16S18724   6.300   0.685   7.881 -0.3969 -0.1326 -1.7560
  166SAPE  C21718725   6.297   0.472   7.950  0.2642  0.2349 -0.5810
  166SAPE  H17R18726   6.403   0.443   7.933  1.1276  1.2902  2.4757
  166SAPE  H17S18727   6.233   0.382   7.941 -2.2629  1.8081  0.4725
  166SAPE  C21818728   6.276   0.511   8.093 -0.5663 -0.0848 -0.0975
  166SAPE  H18R18729   6.165   0.512   8.098 -0.7167 -3.3469 -0.2661
  166SAPE  H18S18730   6.319   0.611   8.115  0.0756 -0.2524 -0.5598
  166SAPE  C21918731   6.347   0.412   8.185  0.1491 -0.7932 -0.2526
  166SAPE  H19R18732   6.321   0.307   8.159 -1.1365 -1.0240  1.7406
  166SAPE  H19S18733   6.310   0.430   8.289  2.1439  0.4317  0.3195
  166SAPE  C22018734   6.497   0.440   8.194 -0.2508  0.0273  0.8081
  166SAPE  H20R18735   6.530   0.396   8.098 -1.8739 -2.4471  1.2991
  166SAPE  H20S18736   6.546   0.384   8.277  1.1442 -0.8686 -0.5667
  166SAPE  H20T18737   6.521   0.549   8.197  0.1757  0.0242 -1.2695
  166SAPE   C3318738   6.489   0.570   6.699  0.1120 -0.3099 -0.3931
  166SAPE   H3X18739   6.381   0.578   6.722 -0.2564  0.0685 -2.1223
  166SAPE   H3Y18740   6.520   0.676   6.712 -0.5350 -0.2525  0.7760
  166SAPE   C3418741   6.578   0.480   6.790  0.2210 -0.1806  0.2545
  166SAPE   H4X18742   6.620   0.545   6.870  2.5697  1.6838 -2.3291
  166SAPE   H4Y18743   6.665   0.453   6.727  0.7536  2.2348 -0.1377
  166SAPE   C3518744   6.509   0.351   6.842  0.3904  0.6526 -0.3884
  166SAPE   H5X18745   6.594   0.285   6.869  0.1243  0.7001  0.5920
  166SAPE   H5Y18746   6.464   0.298   6.755 -0.0414 -0.5779  0.5566
  166SAPE   C3618747   6.423   0.368   6.974  0.5729  0.2131  0.0584
  166SAPE   H6X18748   6.322   0.323   6.961 -0.0943  0.8214  2.6618
  166SAPE   H6Y18749   6.425   0.477   6.996  2.8348  0.0519  0.9977
  166SAPE   C3718750   6.491   0.300   7.087  0.2890  0.0780  0.2994
  166SAPE   H7X18751   6.601   0.311   7.089  0.3795 -0.9037  1.3885
  166SAPE   H7Y18752   6.470   0.191   7.081  3.0948 -0.5089 -0.1993
  166SAPE   C3818753   6.453   0.355   7.222 -0.2749  1.4270  0.3637
  166SAPE   H8X18754   6.345   0.334   7.238 -0.2756  0.6577 -0.5397
  166SAPE   H8Y18755   6.481   0.461   7.238  1.0205  1.0028  1.0351
  166SAPE   C3918756   6.517   0.268   7.333  0.3373  0.1508  0.1860
  166SAPE   H9X18757   6.628   0.274   7.329  0.2844  0.4195 -1.2377
  166SAPE   H9Y18758   6.483   0.164   7.314  0.2108  0.5899 -2.2196
  166SAPE  C31018759   6.473   0.319   7.470  0.1295  0.0770  0.0824
  166SAPE  H10X18760   6.363   0.338   7.470  0.2673  0.8965  0.1161
  166SAPE  H10Y18761   6.506   0.422   7.495 -0.2453  0.1861  0.1376
  166SAPE  C31118762   6.508   0.218   7.581  0.4244 -0.5255 -0.1555
  166SAPE  H11X18763   6.614   0.185   7.589  0.8354  0.4651 -1.2451
  166SAPE  H11Y18764   6.451   0.127   7.552 -2.0686  1.0873 -0.6357
  166SAPE  C31218765   6.458   0.251   7.728 -0.2331  0.3043 -0.6608
  166SAPE  H12X18766   6.360   0.303   7.728 -0.3323  0.2150  1.4329
  166SAPE  H12Y18767   6.538   0.308   7.780  1.2767 -1.2985 -1.1259
  166SAPE  C31318768   6.448   0.111   7.806  0.5067 -0.1670 -0.0535
  166SAPE  H13X18769   6.543   0.053   7.798 -0.8811 -2.7046  0.4763
  166SAPE  H13Y18770   6.369   0.052   7.755 -0.5942  0.8818  0.3990
  166SAPE  C31418771   6.401   0.125   7.950  0.0101  0.4728 -1.1904
  166SAPE  H14X18772   6.300   0.171   7.947 -1.1833 -1.7388  1.0596
  166SAPE  H14Y18773   6.473   0.183   8.011 -0.0316  1.4459 -2.0443
  166SAPE  C31518774   6.384  -0.011   8.032 -0.2434  0.5294 -0.0363
  166SAPE  H15X18775   6.401   0.020   8.137 -3.0960  1.2009  0.3064
  166SAPE  H15Y18776   6.472  -0.070   7.999  1.1316  1.3786  1.9896
  166SAPE  C31618777   6.257  -0.084   8.005 -0.1320 -0.0606  0.8917
  166SAPE  H16X18778   6.241  -0.085   7.895 -1.5945  2.3184  1.0095
  166SAPE  H16Y18779   6.166  -0.026   8.032 -0.6301  0.5670 -1.8599
  166SAPE  C31718780   6.270  -0.230   8.059 -0.0803 -0.1384 -0.2296
  166SAPE  H17X18781   6.357  -0.275   8.007  0.0952  0.7245 -0.6916
  166SAPE  H17Y18782   6.178  -0.290   8.039 -1.0745  0.6608  1.6311
  166SAPE  C31818783   6.296  -0.244   8.208 -0.2943 -0.5274  0.1243
  166SAPE  H18X18784   6.400  -0.206   8.226 -1.2159  1.5078  1.5879
  166SAPE  H18Y18785   6.290  -0.349   8.244 -1.0417 -0.0338  1.5060
  166SAPE  H18Z18786   6.216  -0.186   8.260 -0.3872  0.0432 -0.6397
  167SAPE     N18787   0.447   4.005   5.895 -0.6373  0.6328 -0.2071
  167SAPE   HN118788   0.515   3.995   5.972  1.5938  0.9952 -2.0273
  167SAPE   HN218789   0.408   3.910   5.876 -0.0108 -0.2300  2.3991
  167SAPE   HN318790   0.504   4.027   5.811  1.1786 -1.4789  0.3724
  167SAPE   C1218791   0.344   4.108   5.927  0.1597  0.4793 -0.3899
  167SAPE  H12A18792   0.271   4.087   5.846  1.6934  1.8761 -2.2396
  167SAPE  H12B18793   0.385   4.207   5.896  1.4959  0.0449 -0.0895
  167SAPE   C1118794   0.293   4.106   6.072 -0.5784 -0.9954 -0.7542
  167SAPE  H11A18795   0.251   4.008   6.102 -0.2314 -0.1133  3.1929
  167SAPE  H11B18796   0.213   4.182   6.087  0.9114  0.1281  2.2411
  167SAPE     P18797   0.477   4.035   6.241  0.1867 -0.1031  0.6680
  167SAPE   O1318798   0.545   3.949   6.141 -0.1602 -0.1924 -0.7577
  167SAPE   O1418799   0.563   4.113   6.329 -0.3015 -0.1665 -0.6894
  167SAPE   O1218800   0.393   4.138   6.167  0.1065  0.7839 -0.6718
  167SAPE   O1118801   0.371   3.951   6.320 -0.2489 -0.0923 -0.4664
  167SAPE    C118802   0.300   4.021   6.423 -0.3755  0.0803 -0.0267
  167SAPE    HA18803   0.271   4.120   6.381 -0.8052 -0.0945 -0.1513
  167SAPE    HB18804   0.200   3.973   6.433 -1.8057  2.8727  0.1753
  167SAPE    C218805   0.368   4.033   6.561 -0.6500  0.1925 -0.1455
  167SAPE    HS18806   0.462   4.092   6.556 -0.0413 -0.6234  0.9731
  167SAPE   O2118807   0.405   3.901   6.614  0.3343 -0.0404  0.0869
  167SAPE   C2118808   0.513   3.912   6.707  0.3824  0.8928  0.5446
  167SAPE   O2218809   0.565   4.013   6.732  0.0591  0.1253 -0.4011
  167SAPE   C2218810   0.549   3.768   6.757 -0.1048  0.5462  0.1903
  167SAPE   H2R18811   0.462   3.729   6.814  0.4751 -1.0143  0.0362
  167SAPE   H2S18812   0.547   3.703   6.667 -0.3122  1.2335 -0.3082
  167SAPE    C318813   0.273   4.106   6.658  0.1140  0.9246  0.0224
  167SAPE    HX18814   0.170   4.065   6.664  1.0715 -1.4596  1.4360
  167SAPE    HY18815   0.243   4.205   6.616 -1.3160  0.7023  0.4747
  167SAPE   O3118816   0.309   4.116   6.800 -0.1244 -0.4566  0.0338
  167SAPE   C3118817   0.334   4.239   6.841  0.5357 -0.0445 -0.0075
  167SAPE   O3218818   0.323   4.338   6.773 -0.8098 -1.0530 -0.4912
  167SAPE   C3218819   0.377   4.240   6.981 -0.1075  0.4678  1.1670
  167SAPE   H2X18820   0.419   4.138   6.995 -0.3400  0.2469  0.3204
  167SAPE   H2Y18821   0.289   4.245   7.048  0.1247 -0.9659  1.6010
  167SAPE   C2318822   0.685   3.757   6.818  0.2392  0.5526  0.7534
  167SAPE   H3R18823   0.748   3.843   6.787 -1.3002  1.7507  0.8088
  167SAPE   H3S18824   0.739   3.670   6.774 -0.0616  0.9610 -0.4535
  167SAPE   C2418825   0.691   3.753   6.972  0.9026  0.3565 -0.3083
  167SAPE   H4R18826   0.797   3.751   7.006  1.0293 -0.9779 -0.7144
  167SAPE   H4S18827   0.652   3.651   6.991 -2.1841  1.7571  1.5618
  167SAPE   C2518828   0.609   3.869   7.028  0.4046 -0.3763 -0.1818
  167SAPE   H5R18829   0.641   3.971   7.002  0.3325  0.5158  2.7693
  167SAPE   C2618830   0.511   3.858   7.124 -0.3436 -0.3074  0.6289
  167SAPE   H6R18831   0.459   3.941   7.175  0.0787  0.6819 -0.5057
  167SAPE   C2718832   0.465   3.729   7.187 -0.8924  0.4977 -0.5185
  167SAPE   H7R18833   0.421   3.660   7.112  0.5425  0.9242 -1.8016
  167SAPE   H7S18834   0.386   3.763   7.259 -1.7969  0.7035 -1.5848
  167SAPE   C2818835   0.562   3.649   7.275  1.8669 -0.1472  0.6122
  167SAPE   H8R18836   0.589   3.548   7.240  0.9789 -0.4838  0.8894
  167SAPE   C2918837   0.604   3.690   7.401  0.5204  0.3279 -0.5578
  167SAPE   H9R18838   0.665   3.619   7.457  0.2456  0.9007  0.4915
  167SAPE  C21018839   0.573   3.822   7.469 -0.0284 -0.0092  0.6068
  167SAPE  H10R18840   0.485   3.812   7.536 -1.9366  0.6423 -1.6992
  167SAPE  H10S18841   0.549   3.908   7.404  0.0393 -0.1448  0.4026
  167SAPE  C21118842   0.698   3.870   7.536 -0.5316  0.0330 -0.1650
  167SAPE  H11R18843   0.769   3.919   7.467 -0.3176  0.9481  0.6830
  167SAPE  C21218844   0.726   3.878   7.668 -0.1993  0.7759  0.2912
  167SAPE  H12R18845   0.827   3.913   7.694 -0.7691  1.9982  0.9325
  167SAPE  C21318846   0.634   3.827   7.776 -0.1046 -0.3970  0.1031
  167SAPE  H13R18847   0.691   3.819   7.871 -0.2946  2.1710  0.4791
  167SAPE  H13S18848   0.596   3.723   7.763  0.9035 -0.8166  0.4048
  167SAPE  C21418849   0.509   3.913   7.797  0.3067  0.6021  0.1173
  167SAPE  H14R18850   0.517   4.008   7.742  1.1779 -0.0672 -0.9786
  167SAPE  C21518851   0.411   3.893   7.879  1.2741  0.3629  0.0035
  167SAPE  H15R18852   0.340   3.977   7.877  0.2660 -0.4661  0.0433
  167SAPE  C21618853   0.384   3.770   7.968  0.6244  0.2818  0.7287
  167SAPE  H16R18854   0.437   3.678   7.936 -1.5825 -0.8932  0.2317
  167SAPE  H16S18855   0.275   3.749   7.974  0.8064 -1.4468 -1.2286
  167SAPE  C21718856   0.433   3.802   8.109  0.2282  0.5031 -0.1792
  167SAPE  H17R18857   0.357   3.865   8.160 -0.6971 -0.8366  0.1385
  167SAPE  H17S18858   0.527   3.861   8.107 -0.0143  0.8890 -0.5960
  167SAPE  C21818859   0.458   3.680   8.198  0.0900  0.2052 -0.4364
  167SAPE  H18R18860   0.560   3.643   8.174  0.7304  1.5672  0.0848
  167SAPE  H18S18861   0.383   3.600   8.178 -0.6841  0.9122 -0.4318
  167SAPE  C21918862   0.445   3.710   8.347 -0.1276  0.7982  0.7243
  167SAPE  H19R18863   0.345   3.748   8.380 -1.2078 -0.1298 -1.3151
  167SAPE  H19S18864   0.519   3.788   8.373 -0.7889  0.9236  2.4012
  167SAPE  C22018865   0.468   3.593   8.443 -0.5733 -0.3608 -0.8478
  167SAPE  H20R18866   0.425   3.614   8.544 -2.3928  3.6045 -2.2178
  167SAPE  H20S18867   0.576   3.587   8.467 -1.1645  0.2426  2.5386
  167SAPE  H20T18868   0.430   3.495   8.409 -2.3790 -0.1421  0.3892
  167SAPE   C3318869   0.471   4.359   7.022  0.6339 -0.0181  0.0234
  167SAPE   H3X18870   0.425   4.456   6.994 -0.0779 -0.2642  0.3210
  167SAPE   H3Y18871   0.564   4.345   6.962  0.2473  0.4669 -0.7031
  167SAPE   C3418872   0.512   4.363   7.172 -0.4981  0.9160  0.5266
  167SAPE   H4X18873   0.420   4.378   7.231 -1.4130  1.1019 -0.8950
  167SAPE   H4Y18874   0.579   4.451   7.184  0.8289 -0.0553  0.5270
  167SAPE   C3518875   0.584   4.240   7.222 -0.1373  0.6660  0.3364
  167SAPE   H5X18876   0.655   4.207   7.143  2.0941  1.0913  2.0619
  167SAPE   H5Y18877   0.511   4.157   7.236  1.0896 -0.0725  3.0153
  167SAPE   C3618878   0.648   4.255   7.365  0.9176 -0.0678 -0.2147
  167SAPE   H6X18879   0.735   4.324   7.358 -0.6219  1.8200 -2.6659
  167SAPE   H6Y18880   0.685   4.150   7.373  1.0722 -0.4433 -4.0910
  167SAPE   C3718881   0.557   4.283   7.483 -0.3575  1.1212 -0.6675
  167SAPE   H7X18882   0.477   4.207   7.493  1.2799 -0.3224  2.9852
  167SAPE   H7Y18883   0.513   4.385   7.479  0.4341  1.4816 -0.3818
  167SAPE   C3818884   0.629   4.272   7.624  0.2610 -0.1762  0.4046
  167SAPE   H8X18885   0.688   4.366   7.622 -0.6587  0.4157  0.6569
  167SAPE   H8Y18886   0.695   4.184   7.639  1.9604  0.3926 -2.7473
  167SAPE   C3918887   0.537   4.301   7.739 -0.5370 -0.2491 -0.4482
  167SAPE   H9X18888   0.445   4.238   7.729  0.4582 -1.6756 -0.8750
  167SAPE   H9Y18889   0.499   4.405   7.733 -0.6477 -0.2416  0.2896
  167SAPE  C31018890   0.617   4.282   7.871 -0.0226 -0.1778  0.3882
  167SAPE  H10X18891   0.718   4.328   7.866 -0.1907  0.1625  0.0993
  167SAPE  H10Y18892   0.646   4.174   7.864 -0.4654 -0.2596 -0.2883
  167SAPE  C31118893   0.540   4.317   7.996  0.1289  0.2526 -0.1318
  167SAPE  H11X18894   0.445   4.261   8.005  0.4011 -0.5259 -1.8239
  167SAPE  H11Y18895   0.513   4.425   7.994  0.6870  0.3994 -2.0174
  167SAPE  C31218896   0.627   4.279   8.116 -0.2184  0.2109  0.1710
  167SAPE  H12X18897   0.703   4.358   8.135  1.3877 -1.5610  1.5042
  167SAPE  H12Y18898   0.672   4.181   8.094 -2.4539 -0.7417 -0.5020
  167SAPE  C31318899   0.548   4.258   8.247  0.4945  0.3712  0.0551
  167SAPE  H13X18900   0.467   4.185   8.229  1.9592 -1.4095  0.3078
  167SAPE  H13Y18901   0.507   4.351   8.290  0.7343  0.4134  0.1932
  167SAPE  C31418902   0.637   4.204   8.361  0.1869 -0.4685 -1.2654
  167SAPE  H14X18903   0.719   4.278   8.371 -1.7687  1.6466 -0.0952
  167SAPE  H14Y18904   0.687   4.111   8.324  0.0680 -1.0260 -0.0741
  167SAPE  C31518905   0.549   4.180   8.483 -0.2080 -0.9330  0.8117
  167SAPE  H15X18906   0.472   4.101   8.469 -0.9401 -0.3980  1.6766
  167SAPE  H15Y18907   0.506   4.281   8.502  1.2629 -0.4516  1.8069
  167SAPE  C31618908   0.635   4.146   8.606 -0.1274 -0.8046 -0.2887
  167SAPE  H16X18909   0.576   4.159   8.700 -0.5922 -1.0998 -0.5386
  167SAPE  H16Y18910   0.723   4.214   8.614 -0.3722 -0.5411  0.2196
  167SAPE  C31718911   0.687   4.002   8.615 -0.4985 -0.0577  0.1150
  167SAPE  H17X18912   0.779   3.994   8.553  0.5991  2.3319  1.3264
  167SAPE  H17Y18913   0.618   3.920   8.585  0.8577 -1.3031  0.2508
  167SAPE  C31818914   0.728   3.968   8.760 -0.9558  0.2894  0.4096
  167SAPE  H18X18915   0.627   3.968   8.806 -1.3235 -3.5016 -0.0698
  167SAPE  H18Y18916   0.792   4.050   8.799  1.5466 -0.5213 -1.6701
  167SAPE  H18Z18917   0.777   3.871   8.779  2.6369  1.8310 -0.1270
  168SAPE     N18918   1.602   1.966   6.366  0.0931  0.0506 -0.3759
  168SAPE   HN118919   1.667   1.923   6.296  2.0603  2.4305 -0.1383
  168SAPE   HN218920   1.508   1.925   6.348  0.6453 -2.6623  2.0714
  168SAPE   HN318921   1.596   2.069   6.362 -0.8579 -0.0088 -0.7933
  168SAPE   C1218922   1.640   1.933   6.507 -0.2242  0.2156 -0.1435
  168SAPE  H12A18923   1.623   1.825   6.526  3.3770 -0.1913  1.7629
  168SAPE  H12B18924   1.569   1.991   6.570  0.0739 -0.5980  0.9667
  168SAPE   C1118925   1.786   1.980   6.529 -0.3397 -0.7987  0.9391
  168SAPE  H11A18926   1.820   1.939   6.627 -3.1949  0.8266  2.7696
  168SAPE  H11B18927   1.779   2.090   6.543  0.9199 -0.4963 -0.5768
  168SAPE     P18928   1.968   1.829   6.394 -0.0769  0.4531  0.3766
  168SAPE   O1318929   1.988   1.825   6.246  0.2040  1.3458 -0.2967
  168SAPE   O1418930   2.092   1.827   6.478  0.4191  0.5187 -0.0888
  168SAPE   O1218931   1.877   1.964   6.416  0.0718 -0.5649  0.0195
  168SAPE   O1118932   1.870   1.711   6.430  0.5969 -0.1238  0.3048
  168SAPE    C118933   1.904   1.572   6.418  0.0287  0.4634  0.7098
  168SAPE    HA18934   1.949   1.550   6.319 -0.4657  1.2935  0.2916
  168SAPE    HB18935   1.994   1.552   6.480  1.3865  4.0726  0.1095
  168SAPE    C218936   1.789   1.473   6.451  0.3571 -0.0651 -0.0745
  168SAPE    HS18937   1.713   1.481   6.370 -0.4433 -1.8293  0.4456
  168SAPE   O2118938   1.728   1.518   6.577 -0.5280  0.1935 -0.2709
  168SAPE   C2118939   1.648   1.439   6.634  0.1891 -0.3003  0.0891
  168SAPE   O2218940   1.576   1.355   6.585  0.1652 -0.0084 -0.4056
  168SAPE   C2218941   1.647   1.475   6.787 -0.6494  0.4103 -0.1694
  168SAPE   H2R18942   1.743   1.437   6.827 -0.7231  1.4225  1.0175
  168SAPE   H2S18943   1.624   1.583   6.797  0.3274  0.6448 -0.3777
  168SAPE    C318944   1.836   1.326   6.434 -0.1530 -0.4576 -1.0296
  168SAPE    HX18945   1.895   1.310   6.341  1.3113 -2.2893  0.1256
  168SAPE    HY18946   1.755   1.251   6.433  2.0645 -3.0089 -0.2396
  168SAPE   O3118947   1.915   1.294   6.551  0.6947 -0.1798  0.2483
  168SAPE   C3118948   1.940   1.163   6.569  0.1458 -0.5283  0.7822
  168SAPE   O3218949   1.904   1.069   6.497 -0.0087  0.0821  0.0326
  168SAPE   C3218950   2.012   1.148   6.700 -0.3840  0.9014 -0.0517
  168SAPE   H2X18951   2.013   1.243   6.756 -0.8066 -0.7593  2.9799
  168SAPE   H2Y18952   2.117   1.117   6.679 -0.5490  0.1713  0.1676
  168SAPE   C2318953   1.535   1.393   6.860  0.1181 -0.2789  0.0130
  168SAPE   H3R18954   1.551   1.286   6.835 -2.6569 -0.6955 -0.2701
  168SAPE   H3S18955   1.438   1.424   6.815  0.5830 -1.4013 -1.8942
  168SAPE   C2418956   1.525   1.382   7.015 -0.4630  0.5148  0.1296
  168SAPE   H4R18957   1.620   1.369   7.072 -1.1670 -0.6100  1.0777
  168SAPE   H4S18958   1.468   1.291   7.040  0.3809 -0.7637 -2.2576
  168SAPE   C2518959   1.469   1.505   7.076  0.4009 -0.1791  0.2761
  168SAPE   H5R18960   1.492   1.594   7.016  1.6113  0.6994  1.9576
  168SAPE   C2618961   1.388   1.520   7.187  0.1024  0.8857  0.1130
  168SAPE   H6R18962   1.353   1.623   7.206  3.0949  2.6742 -2.8901
  168SAPE   C2718963   1.340   1.412   7.283 -0.4338 -0.0967  0.1608
  168SAPE   H7R18964   1.379   1.312   7.256  1.2488  1.4552 -3.9116
  168SAPE   H7S18965   1.230   1.400   7.283 -0.5450  0.7664 -1.0259
  168SAPE   C2818966   1.400   1.458   7.414  0.3471  0.0728  0.2390
  168SAPE   H8R18967   1.501   1.501   7.410  1.4293 -1.4591  5.0896
  168SAPE   C2918968   1.355   1.452   7.541  0.0043  0.4455  0.1597
  168SAPE   H9R18969   1.422   1.489   7.620 -1.7380  0.3311  1.7594
  168SAPE  C21018970   1.226   1.390   7.599  0.5462  0.1848  0.6525
  168SAPE  H10R18971   1.181   1.330   7.517 -1.5780  2.6541 -0.1338
  168SAPE  H10S18972   1.154   1.469   7.628 -0.6767 -1.0400  1.0853
  168SAPE  C21118973   1.257   1.303   7.713  0.1058 -0.5447 -0.6547
  168SAPE  H11R18974   1.339   1.231   7.702 -0.0357 -0.8906  0.4141
  168SAPE  C21218975   1.203   1.311   7.838  0.7357 -0.7291  0.2814
  168SAPE  H12R18976   1.255   1.249   7.912  1.7098  0.4116  0.5678
  168SAPE  C21318977   1.101   1.410   7.891  0.0800  0.2537 -0.8217
  168SAPE  H13R18978   1.026   1.448   7.819  0.0852  3.2070  0.5522
  168SAPE  H13S18979   1.153   1.504   7.921 -1.7164  0.9821  0.1741
  168SAPE  C21418980   1.033   1.334   8.011  0.0887 -0.5106  0.2920
  168SAPE  H14R18981   0.963   1.250   7.998 -0.1802 -0.3445  0.6621
  168SAPE  C21518982   1.053   1.378   8.138 -0.1889  0.9408 -0.7267
  168SAPE  H15R18983   0.979   1.342   8.211 -0.6758 -1.2105 -2.1802
  168SAPE  C21618984   1.144   1.483   8.188  0.2903 -0.8351  0.1540
  168SAPE  H16R18985   1.087   1.578   8.193  0.8149 -0.4742 -0.5837
  168SAPE  H16S18986   1.226   1.489   8.114 -2.0539 -2.3579 -2.8055
  168SAPE  C21718987   1.207   1.472   8.333  0.5019  0.6825  0.1270
  168SAPE  H17R18988   1.117   1.470   8.399  1.4920  1.2482  1.5566
  168SAPE  H17S18989   1.257   1.568   8.359 -0.8097  1.2433  0.6796
  168SAPE  C21818990   1.297   1.355   8.367  0.0129  0.9865  0.0486
  168SAPE  H18R18991   1.228   1.268   8.363 -1.2712  1.9779 -0.0181
  168SAPE  H18S18992   1.329   1.358   8.474  1.6013  0.2965 -0.3666
  168SAPE  C21918993   1.420   1.329   8.286 -0.0794  0.0267  0.0005
  168SAPE  H19R18994   1.490   1.280   8.357 -1.1390 -1.0470  0.3429
  168SAPE  H19S18995   1.472   1.423   8.257 -3.7184  1.4740 -2.6738
  168SAPE  C22018996   1.389   1.245   8.173  0.1815 -0.0206 -0.6239
  168SAPE  H20R18997   1.332   1.301   8.095  1.9771  1.5214 -0.8932
  168SAPE  H20S18998   1.341   1.150   8.204  1.5972 -0.4824  0.2427
  168SAPE  H20T18999   1.487   1.214   8.131  0.6871 -1.7043  1.6091
  168SAPE   C3319000   1.954   1.034   6.791 -0.3600  0.2256 -0.2733
  168SAPE   H3X19001   2.002   1.027   6.891  2.2160  1.7872 -1.2785
  168SAPE   H3Y19002   1.966   0.934   6.744  0.0740  0.6398 -1.0799
  168SAPE   C3419003   1.804   1.069   6.821  1.1267  0.0788  0.1438
  168SAPE   H4X19004   1.743   1.023   6.740 -1.0661  1.6954  0.7716
  168SAPE   H4Y19005   1.793   1.180   6.812  0.9446  0.0751  0.3017
  168SAPE   C3519006   1.757   1.042   6.963 -0.5079 -0.9050 -0.3003
  168SAPE   H5X19007   1.787   0.937   6.983  2.3699 -0.2103 -0.5225
  168SAPE   H5Y19008   1.646   1.045   6.958 -0.5272 -0.2680  0.2949
  168SAPE   C3619009   1.797   1.137   7.080 -0.2654 -0.0386  0.6473
  168SAPE   H6X19010   1.776   1.245   7.065  1.0385 -0.1741 -3.2050
  168SAPE   H6Y19011   1.906   1.132   7.098 -0.1674  0.9592  0.3721
  168SAPE   C3719012   1.734   1.079   7.208  0.1500  0.5017 -0.6332
  168SAPE   H7X19013   1.783   0.981   7.225 -0.8180 -0.1479 -1.5235
  168SAPE   H7Y19014   1.625   1.057   7.197  0.2029 -0.7215  0.8708
  168SAPE   C3819015   1.758   1.163   7.328  0.2876  0.2777 -0.2027
  168SAPE   H8X19016   1.696   1.254   7.321  1.1422  0.7146 -3.3675
  168SAPE   H8Y19017   1.862   1.201   7.334 -0.2260  1.5375  1.8825
  168SAPE   C3919018   1.733   1.075   7.452 -1.0122  0.2035 -0.6117
  168SAPE   H9X19019   1.806   0.992   7.459  0.2917  1.2371 -1.3984
  168SAPE   H9Y19020   1.631   1.033   7.457 -0.7012 -0.3885  1.2232
  168SAPE  C31019021   1.757   1.164   7.580 -0.3888 -0.0384  0.0907
  168SAPE  H10X19022   1.719   1.267   7.565 -0.3650  0.0493  0.6007
  168SAPE  H10Y19023   1.865   1.167   7.607 -0.5474 -1.4043  1.0187
  168SAPE  C31119024   1.678   1.104   7.699  0.1944  0.5983  0.1436
  168SAPE  H11X19025   1.717   1.005   7.730  2.4964  0.6264 -2.3026
  168SAPE  H11Y19026   1.573   1.096   7.662  0.7198  0.4177 -1.3773
  168SAPE  C31219027   1.676   1.192   7.823 -0.2866  0.1530 -0.6291
  168SAPE  H12X19028   1.585   1.192   7.886 -0.0928  0.5664 -0.3462
  168SAPE  H12Y19029   1.715   1.295   7.806  0.4855 -0.1018 -0.4551
  168SAPE  C31319030   1.781   1.145   7.924 -0.1056  0.5137  0.1693
  168SAPE  H13X19031   1.884   1.136   7.883  0.9048  1.5662  2.3328
  168SAPE  H13Y19032   1.748   1.048   7.968  0.1243  1.1203  1.7242
  168SAPE  C31419033   1.794   1.232   8.048 -0.4283 -0.5318 -0.5877
  168SAPE  H14X19034   1.693   1.237   8.094  0.0062 -0.0523  0.3462
  168SAPE  H14Y19035   1.829   1.336   8.029 -0.4854 -0.2297  0.8192
  168SAPE  C31519036   1.896   1.178   8.145  0.0460  0.0701  0.0408
  168SAPE  H15X19037   1.984   1.150   8.083  0.8747 -1.0757  1.6679
  168SAPE  H15Y19038   1.841   1.090   8.185 -2.0265  0.5437 -1.6046
  168SAPE  C31619039   1.930   1.272   8.264  0.4537 -0.3040  0.3959
  168SAPE  H16X19040   1.950   1.373   8.221  0.0725  0.2384  1.4657
  168SAPE  H16Y19041   2.025   1.234   8.309  0.7254 -0.0315  0.0591
  168SAPE  C31719042   1.826   1.284   8.373  0.0197  0.5768  0.0606
  168SAPE  H17X19043   1.809   1.188   8.425  2.3336  0.6238  1.0084
  168SAPE  H17Y19044   1.733   1.318   8.323  0.1049 -0.7060 -1.0289
  168SAPE  C31819045   1.876   1.386   8.479  0.2366  0.0506 -0.8162
  168SAPE  H18X19046   1.793   1.396   8.552  0.5504 -2.6574  0.0350
  168SAPE  H18Y19047   1.900   1.478   8.422  0.4039 -1.3199 -3.0676
  168SAPE  H18Z19048   1.969   1.350   8.528  0.4469  1.9997  0.3084
  169SAPE     N19049   2.153   5.508   6.167 -0.6495 -0.0994 -0.0194
  169SAPE   HN119050   2.077   5.449   6.207 -0.5984 -0.2343 -0.1218
  169SAPE   HN219051   2.200   5.544   6.252 -1.1680 -3.6235  1.9480
  169SAPE   HN319052   2.119   5.585   6.106 -0.7658  0.0227  0.1976
  169SAPE   C1219053   2.239   5.425   6.075 -0.4645 -0.1945  0.8270
  169SAPE  H12A19054   2.335   5.478   6.060 -0.7690 -0.2812 -2.0332
  169SAPE  H12B19055   2.188   5.422   5.976  0.5700  1.0276  0.2300
  169SAPE   C1119056   2.258   5.282   6.121 -0.2050  0.2629  0.4906
  169SAPE  H11A19057   2.315   5.226   6.044 -2.1696 -1.9996  0.5572
  169SAPE  H11B19058   2.159   5.236   6.140  0.5839 -0.9617  1.8602
  169SAPE     P19059   2.479   5.289   6.263 -0.0284  0.2144 -0.0526
  169SAPE   O1319060   2.531   5.157   6.231 -0.2589 -0.3844 -0.5788
  169SAPE   O1419061   2.524   5.411   6.192  0.0267 -0.3682  0.3667
  169SAPE   O1219062   2.319   5.286   6.251 -0.4913 -0.0263 -0.4608
  169SAPE   O1119063   2.508   5.299   6.419  0.3718 -0.5432  0.1258
  169SAPE    C119064   2.426   5.371   6.513 -0.5328  0.4862 -0.2264
  169SAPE    HA19065   2.491   5.440   6.571 -0.3020  1.4866 -1.6125
  169SAPE    HB19066   2.347   5.437   6.471  1.5843  2.6929 -0.9836
  169SAPE    C219067   2.364   5.274   6.616 -0.3429 -0.3574 -0.2148
  169SAPE    HS19068   2.313   5.343   6.687 -0.8850 -1.1699  0.1933
  169SAPE   O2119069   2.465   5.203   6.693 -0.4955  0.1542  0.4954
  169SAPE   C2119070   2.438   5.194   6.821  0.2135  0.2050 -0.5854
  169SAPE   O2219071   2.338   5.241   6.874 -0.2526  0.2528  0.1203
  169SAPE   C2219072   2.540   5.105   6.885  0.5680  0.5540 -0.2582
  169SAPE   H2R19073   2.522   4.999   6.860  0.0954 -0.5445  3.8915
  169SAPE   H2S19074   2.638   5.135   6.842  0.9338 -3.6591 -2.9093
  169SAPE    C319075   2.258   5.186   6.547 -0.4327 -0.1212  0.6342
  169SAPE    HX19076   2.300   5.099   6.491  2.2483  1.9569 -0.8470
  169SAPE    HY19077   2.205   5.241   6.466  0.9143 -0.1507 -0.2960
  169SAPE   O3119078   2.158   5.129   6.634 -0.3575  0.8469 -0.1450
  169SAPE   C3119079   2.066   5.217   6.676 -0.5190  0.0740  0.3634
  169SAPE   O3219080   2.047   5.328   6.635 -0.3399  0.2114  0.0825
  169SAPE   C3219081   1.987   5.159   6.791  0.5007  1.0699  0.3138
  169SAPE   H2X19082   1.878   5.145   6.773  0.9455 -0.9608 -1.1477
  169SAPE   H2Y19083   1.992   5.236   6.871  0.6459 -0.7304  2.1116
  169SAPE   C2319084   2.543   5.118   7.038 -0.2377  0.4645  0.5141
  169SAPE   H3R19085   2.553   5.225   7.067 -0.9155  0.8053 -0.4219
  169SAPE   H3S19086   2.632   5.077   7.088 -0.4348  2.5145  2.7140
  169SAPE   C2419087   2.419   5.062   7.111  0.0811  0.7563  0.5563
  169SAPE   H4R19088   2.330   5.101   7.057  0.2189 -1.5437 -1.5295
  169SAPE   H4S19089   2.407   5.098   7.215  0.6864 -0.9793  1.2580
  169SAPE   C2519090   2.422   4.910   7.136 -0.1501 -0.7441  0.1874
  169SAPE   H5R19091   2.347   4.853   7.079  0.9188 -0.0545 -2.0222
  169SAPE   C2619092   2.485   4.834   7.231  0.3719 -0.0353  0.9108
  169SAPE   H6R19093   2.476   4.724   7.225  0.1177 -0.0211  1.0452
  169SAPE   C2719094   2.582   4.880   7.335 -0.0291 -0.8617  0.6988
  169SAPE   H7R19095   2.608   4.988   7.338  3.0526 -1.5535  1.9783
  169SAPE   H7S19096   2.677   4.830   7.309  0.5502  1.2914 -1.7014
  169SAPE   C2819097   2.529   4.843   7.473 -0.1948 -0.5134 -0.5087
  169SAPE   H8R19098   2.420   4.835   7.477 -0.3343  1.6063  1.5369
  169SAPE   C2919099   2.599   4.817   7.588  0.4524  0.2027  0.4849
  169SAPE   H9R19100   2.534   4.791   7.672 -1.6478  0.7801 -0.8734
  169SAPE  C21019101   2.747   4.808   7.597  0.0963  0.6582  0.3861
  169SAPE  H10R19102   2.780   4.910   7.629 -0.2157  1.1485 -0.8146
  169SAPE  H10S19103   2.800   4.810   7.500  2.4355  1.4012  1.6065
  169SAPE  C21119104   2.790   4.696   7.688  0.1343 -0.1387  0.2656
  169SAPE  H11R19105   2.804   4.595   7.646  0.4380  0.1261 -0.2688
  169SAPE  C21219106   2.815   4.705   7.817 -0.1052  0.0296  0.3152
  169SAPE  H12R19107   2.852   4.619   7.875  0.3749  1.0310  1.5609
  169SAPE  C21319108   2.797   4.833   7.896  0.5833  0.1174  0.0014
  169SAPE  H13R19109   2.711   4.896   7.867  0.9388  2.1680  2.8803
  169SAPE  H13S19110   2.888   4.895   7.884 -0.3877  1.5577 -0.1054
  169SAPE  C21419111   2.779   4.806   8.042  0.0508 -0.0077 -0.3239
  169SAPE  H14R19112   2.704   4.729   8.061  0.1670 -0.3547 -1.2392
  169SAPE  C21519113   2.827   4.867   8.145  0.1640  0.7547 -0.1326
  169SAPE  H15R19114   2.792   4.841   8.245  0.3150  0.7960 -0.0683
  169SAPE  C21619115   2.909   4.992   8.130  0.5931  0.6959  0.0129
  169SAPE  H16R19116   2.855   5.087   8.151 -0.9634  0.0881 -1.0504
  169SAPE  H16S19117   2.924   5.011   8.021  0.9865 -3.5888 -0.8475
  169SAPE  C21719118   3.042   4.994   8.204 -0.3798  0.2127 -0.1926
  169SAPE  H17R19119   3.098   5.087   8.178 -1.3049  0.8387  0.0144
  169SAPE  H17S19120   3.096   4.897   8.192  0.2043  0.3476  1.2001
  169SAPE  C21819121   3.030   4.999   8.356 -0.0405 -0.2249 -0.3684
  169SAPE  H18R19122   2.967   4.918   8.398  0.1720  0.7138  1.9142
  169SAPE  H18S19123   2.981   5.093   8.390 -0.5048  0.4928 -2.8366
  169SAPE  C21919124   3.168   4.991   8.432 -0.0684 -0.7764 -0.6251
  169SAPE  H19R19125   3.215   5.092   8.432  0.3199 -0.9139  1.4255
  169SAPE  H19S19126   3.243   4.916   8.400  4.3193  0.9767  4.2780
  169SAPE  C22019127   3.153   4.950   8.579  0.5345  0.5705 -0.6519
  169SAPE  H20R19128   3.224   5.004   8.645  0.2251 -0.2479  0.3961
  169SAPE  H20S19129   3.159   4.840   8.590 -0.3211  0.6122  0.4709
  169SAPE  H20T19130   3.047   4.959   8.614  1.0493  0.2560  1.1227
  169SAPE   C3319131   2.041   5.027   6.855  0.8232  0.0129 -0.4491
  169SAPE   H3X19132   2.152   5.032   6.861  0.9694 -2.4157 -0.2463
  169SAPE   H3Y19133   2.026   4.943   6.785  1.3139 -1.0863  0.7301
  169SAPE   C3419134   1.988   4.980   6.989  0.4831  0.5728  0.2923
  169SAPE   H4X19135   2.050   4.894   7.024 -3.1622 -2.3543  0.3219
  169SAPE   H4Y19136   1.883   4.944   6.975  1.5451 -1.8222 -2.4430
  169SAPE   C3519137   1.992   5.093   7.092  0.2138  0.0204 -0.4728
  169SAPE   H5X19138   1.912   5.169   7.082  2.2268  2.4310  0.4072
  169SAPE   H5Y19139   2.088   5.144   7.066  2.7096 -3.2465  1.4780
  169SAPE   C3619140   2.001   5.049   7.237  0.8297  0.3216  0.7112
  169SAPE   H6X19141   2.092   4.992   7.267  0.7901  0.5661  1.3032
  169SAPE   H6Y19142   1.914   4.981   7.248  1.1106  0.1544  2.0647
  169SAPE   C3719143   1.979   5.167   7.330  0.6678 -0.0453 -0.8692
  169SAPE   H7X19144   1.882   5.209   7.297 -0.6126  0.2319  2.8708
  169SAPE   H7Y19145   2.059   5.239   7.301  3.0591 -2.1242  0.1967
  169SAPE   C3819146   1.956   5.139   7.481  0.1299  0.0382  0.0778
  169SAPE   H8X19147   2.027   5.063   7.521  1.0345 -0.2378 -1.9192
  169SAPE   H8Y19148   1.853   5.101   7.500  0.4046 -1.4564 -1.1337
  169SAPE   C3919149   1.987   5.265   7.563 -0.5470  0.0871  0.2188
  169SAPE   H9X19150   1.955   5.230   7.664 -1.6825  0.6930  0.0927
  169SAPE   H9Y19151   1.916   5.344   7.528  0.1051  0.7696  0.4089
  169SAPE  C31019152   2.132   5.303   7.565  0.2031 -0.4592  0.2957
  169SAPE  H10X19153   2.152   5.345   7.464 -0.7834  1.7808  0.9617
  169SAPE  H10Y19154   2.194   5.214   7.590 -0.1829 -1.2811 -1.5002
  169SAPE  C31119155   2.160   5.423   7.650 -0.4470 -0.0718 -0.4246
  169SAPE  H11X19156   2.084   5.503   7.634 -0.0009  0.6100  0.7188
  169SAPE  H11Y19157   2.258   5.471   7.628 -1.1702  2.0767  0.7275
  169SAPE  C31219158   2.166   5.388   7.802 -0.4256  0.4408  0.9635
  169SAPE  H12X19159   2.235   5.302   7.816  0.4571  1.3497  2.4305
  169SAPE  H12Y19160   2.063   5.354   7.826 -0.5889  0.5878  0.4800
  169SAPE  C31319161   2.199   5.502   7.902 -0.0008 -0.5687 -0.2158
  169SAPE  H13X19162   2.130   5.585   7.874  1.5173  0.8771  0.1303
  169SAPE  H13Y19163   2.305   5.535   7.898 -1.0791  3.3808 -1.1724
  169SAPE  C31419164   2.177   5.458   8.042 -0.9623 -0.0259 -0.1768
  169SAPE  H14X19165   2.233   5.363   8.052 -4.3230 -2.3251 -1.2121
  169SAPE  H14Y19166   2.069   5.430   8.047 -0.7263 -1.6099 -2.2515
  169SAPE  C31519167   2.225   5.563   8.148  0.1003  0.4732  0.0677
  169SAPE  H15X19168   2.200   5.664   8.110 -1.4855  0.0695  0.0038
  169SAPE  H15Y19169   2.333   5.559   8.176 -0.5553  0.7018  2.8394
  169SAPE  C31619170   2.158   5.543   8.283  0.5536  0.3132  0.1635
  169SAPE  H16X19171   2.203   5.450   8.326 -1.6020 -1.1578 -0.6046
  169SAPE  H16Y19172   2.051   5.518   8.269  0.7111 -1.0125  1.0687
  169SAPE  C31719173   2.168   5.675   8.366  0.3450  0.4213  0.3915
  169SAPE  H17X19174   2.090   5.670   8.445 -0.8093  0.1158 -0.7323
  169SAPE  H17Y19175   2.159   5.764   8.300  0.4966  0.9189  1.0317
  169SAPE  C31819176   2.309   5.675   8.430  0.0004 -0.2264  0.0887
  169SAPE  H18X19177   2.298   5.609   8.518 -0.8468 -0.7432 -0.3881
  169SAPE  H18Y19178   2.333   5.778   8.465 -0.6667 -0.3401  0.9271
  169SAPE  H18Z19179   2.386   5.653   8.354 -0.4289  4.3993 -2.0635
  170SAPE     N19180   5.883   2.712   6.240  0.1184 -0.2038 -0.2908
  170SAPE   HN119181   5.886   2.678   6.338  0.8334  1.5211  0.3365
  170SAPE   HN219182   5.807   2.784   6.238 -1.2797 -1.6555 -0.9397
  170SAPE   HN319183   5.857   2.632   6.180 -0.4329 -2.1959  2.4181
  170SAPE   C1219184   6.019   2.761   6.199 -0.9131  0.4925  0.0245
  170SAPE  H12A19185   6.037   2.751   6.090 -0.5592 -1.9983  0.2522
  170SAPE  H12B19186   6.096   2.694   6.242 -2.2743 -0.6242  0.8038
  170SAPE   C1119187   6.029   2.900   6.262  0.6562  0.7565 -0.1456
  170SAPE  H11A19188   6.115   2.949   6.210 -0.1140  0.1900 -2.0188
  170SAPE  H11B19189   6.036   2.899   6.373  2.3769 -1.2982 -0.2106
  170SAPE     P19190   5.917   3.135   6.232 -0.0578  0.1914  0.0790
  170SAPE   O1319191   6.026   3.191   6.147 -0.0853 -0.2823 -0.3431
  170SAPE   O1419192   5.783   3.191   6.206  0.6611  0.3732 -0.0062
  170SAPE   O1219193   5.915   2.981   6.222  0.0604 -0.0567  0.4663
  170SAPE   O1119194   5.946   3.165   6.387  0.4327 -0.0736 -0.0293
  170SAPE    C119195   5.846   3.113   6.479 -0.0240  0.0123  0.5791
  170SAPE    HA19196   5.749   3.167   6.477  0.9170  1.7449 -0.4820
  170SAPE    HB19197   5.831   3.004   6.466  0.1722  0.1635 -1.0355
  170SAPE    C219198   5.895   3.110   6.629 -0.7188  0.1224  0.4860
  170SAPE    HS19199   5.819   3.043   6.674  2.0940 -2.0146  2.4227
  170SAPE   O2119200   5.902   3.242   6.681 -0.4727 -0.0911 -0.1923
  170SAPE   C2119201   5.792   3.290   6.725 -0.7807 -0.0236 -0.0762
  170SAPE   O2219202   5.685   3.226   6.716  0.5475 -0.0060  0.3399
  170SAPE   C2219203   5.817   3.431   6.793 -0.0190 -0.0819 -0.2166
  170SAPE   H2R19204   5.832   3.508   6.715 -0.4790  1.3810  1.0939
  170SAPE   H2S19205   5.718   3.460   6.835 -0.6707 -2.2061 -0.1641
  170SAPE    C319206   6.029   3.037   6.642  0.1288  0.5332 -0.2309
  170SAPE    HX19207   6.093   3.097   6.573 -0.3430 -0.6924 -1.7914
  170SAPE    HY19208   6.033   2.932   6.606 -2.2109 -0.7304  2.7612
  170SAPE   O3119209   6.077   3.045   6.779  0.3855 -0.3623  0.1057
  170SAPE   C3119210   6.024   2.952   6.859  0.1027 -0.4575 -0.3105
  170SAPE   O3219211   5.955   2.863   6.816 -0.0718  0.2507 -0.2836
  170SAPE   C3219212   6.068   2.969   6.999 -0.7441  0.3408  0.5262
  170SAPE   H2X19213   6.014   3.056   7.044  0.9896  0.9229  1.5948
  170SAPE   H2Y19214   6.178   2.981   6.998 -0.4307 -1.8589 -1.8762
  170SAPE   C2319215   5.946   3.436   6.883 -0.1086 -0.3667  1.1822
  170SAPE   H3R19216   5.981   3.541   6.895  0.1611 -0.3813  0.5550
  170SAPE   H3S19217   6.025   3.383   6.827 -1.0173 -1.4420  0.8711
  170SAPE   C2419218   5.932   3.388   7.030  0.5933  0.6091  0.1520
  170SAPE   H4R19219   5.882   3.289   7.036  0.8976  0.5092  1.4469
  170SAPE   H4S19220   5.857   3.457   7.076 -0.1133  0.5974 -0.9359
  170SAPE   C2519221   6.061   3.383   7.109  0.1627 -0.4061  0.8455
  170SAPE   H5R19222   6.147   3.397   7.041 -0.6260 -0.0044 -0.0853
  170SAPE   C2619223   6.093   3.373   7.233 -0.2205  0.1202 -0.4714
  170SAPE   H6R19224   6.201   3.369   7.250 -0.2161  0.9402 -0.2333
  170SAPE   C2719225   5.994   3.359   7.350  0.1053  0.2635 -0.1629
  170SAPE   H7R19226   5.889   3.384   7.324  0.0059  0.6732  0.5956
  170SAPE   H7S19227   6.021   3.439   7.423  0.3564 -1.9205  2.2976
  170SAPE   C2819228   6.009   3.227   7.429  0.7462 -0.1269  0.2828
  170SAPE   H8R19229   5.997   3.135   7.370 -2.0728 -0.8195  1.7728
  170SAPE   C2919230   6.050   3.211   7.550 -0.3443  0.2142 -0.2874
  170SAPE   H9R19231   6.068   3.108   7.586  1.7671  0.0704 -1.5565
  170SAPE  C21019232   6.096   3.317   7.645  0.0482 -0.1789  0.0793
  170SAPE  H10R19233   6.013   3.380   7.683 -0.4603 -0.0389 -1.2252
  170SAPE  H10S19234   6.158   3.383   7.582  0.2345 -0.4819 -0.0569
  170SAPE  C21119235   6.173   3.272   7.768  0.5010  0.0316 -0.1187
  170SAPE  H11R19236   6.203   3.168   7.750 -1.6970 -0.4751 -1.2801
  170SAPE  C21219237   6.191   3.330   7.889  0.2669 -0.6054  0.1898
  170SAPE  H12R19238   6.257   3.274   7.957  1.7012 -0.0689 -0.7079
  170SAPE  C21319239   6.145   3.464   7.945  0.1804 -0.4370 -0.1033
  170SAPE  H13R19240   6.114   3.530   7.861  2.1947  0.7868  0.0515
  170SAPE  H13S19241   6.223   3.515   8.004 -2.3551 -0.0327  3.2084
  170SAPE  C21419242   6.025   3.437   8.029  0.4065 -0.1310  0.5401
  170SAPE  H14R19243   5.929   3.417   7.978  1.5530  2.3045 -2.8716
  170SAPE  C21519244   6.028   3.441   8.165  0.8789  0.3654 -0.4257
  170SAPE  H15R19245   5.933   3.413   8.213  0.8038 -0.6396 -1.1217
  170SAPE  C21619246   6.137   3.471   8.268  0.1285 -0.2374 -0.2619
  170SAPE  H16R19247   6.123   3.576   8.301 -2.8750 -0.4388 -0.6458
  170SAPE  H16S19248   6.237   3.467   8.218  1.2402 -0.9030  1.8830
  170SAPE  C21719249   6.132   3.383   8.388 -0.3534  1.0861  0.0163
  170SAPE  H17R19250   6.223   3.406   8.448 -0.7400 -1.9971  1.9812
  170SAPE  H17S19251   6.131   3.281   8.344 -0.7477  2.1663 -2.7097
  170SAPE  C21819252   6.014   3.407   8.483 -0.0185 -0.7292  0.0168
  170SAPE  H18R19253   5.921   3.400   8.423  1.8986 -1.1114 -3.1282
  170SAPE  H18S19254   6.015   3.507   8.532  0.2692 -1.3682  1.3739
  170SAPE  C21919255   6.006   3.305   8.588  0.4864  0.8259 -0.4285
  170SAPE  H19R19256   6.001   3.203   8.545  2.1153  0.8251 -0.6911
  170SAPE  H19S19257   5.909   3.310   8.641  0.6772 -3.2461  0.6870
  170SAPE  C22019258   6.122   3.307   8.686 -0.4325  0.1871  0.6096
  170SAPE  H20R19259   6.221   3.299   8.636 -0.9031  0.2245 -0.3355
  170SAPE  H20S19260   6.121   3.227   8.763  1.0594 -0.5523 -0.1064
  170SAPE  H20T19261   6.115   3.405   8.739  0.5177 -0.0149  1.1282
  170SAPE   C3319262   6.067   2.847   7.086  0.3147 -0.4395 -0.5517
  170SAPE   H3X19263   6.131   2.770   7.038  3.9284  2.2091 -0.4193
  170SAPE   H3Y19264   5.967   2.801   7.099 -0.2106  0.5996 -0.7464
  170SAPE   C3419265   6.119   2.875   7.225  0.3608 -0.1412  0.2218
  170SAPE   H4X19266   6.050   2.950   7.270  1.3430  1.1686 -0.3992
  170SAPE   H4Y19267   6.216   2.923   7.204  0.8815 -1.6874 -1.1458
  170SAPE   C3519268   6.127   2.754   7.312  0.3161 -0.4121  0.1027
  170SAPE   H5X19269   6.210   2.685   7.285  2.1607  1.3456  0.9631
  170SAPE   H5Y19270   6.025   2.711   7.302 -0.2840  0.8096  0.7775
  170SAPE   C3619271   6.138   2.785   7.466 -0.1000 -0.5221 -0.2683
  170SAPE   H6X19272   6.082   2.869   7.512  1.7566 -0.0086  1.1669
  170SAPE   H6Y19273   6.240   2.827   7.478 -0.5316  0.2657  0.7684
  170SAPE   C3719274   6.123   2.663   7.560  0.2903 -0.2835 -0.0401
  170SAPE   H7X19275   6.148   2.578   7.493 -1.0587  0.7955 -2.0044
  170SAPE   H7Y19276   6.018   2.649   7.595  0.5486  0.8730  1.2820
  170SAPE   C3819277   6.210   2.671   7.689 -0.2342 -0.1847 -0.3792
  170SAPE   H8X19278   6.305   2.721   7.661 -0.1825  0.1199  0.3413
  170SAPE   H8Y19279   6.226   2.564   7.714 -4.4327 -0.9249 -0.1715
  170SAPE   C3919280   6.133   2.744   7.798 -0.6092  0.4959 -0.0692
  170SAPE   H9X19281   6.050   2.677   7.827 -0.6415  0.8686  0.7084
  170SAPE   H9Y19282   6.092   2.845   7.776 -0.3546  0.2435 -1.8989
  170SAPE  C31019283   6.219   2.776   7.917  0.7956 -0.0468  0.0124
  170SAPE  H10X19284   6.291   2.856   7.888 -0.8968  1.1918 -0.9967
  170SAPE  H10Y19285   6.277   2.683   7.933  1.2807  0.3762  0.7776
  170SAPE  C31119286   6.146   2.815   8.052 -0.2216  0.1955 -0.3765
  170SAPE  H11X19287   6.217   2.793   8.135  1.1868  1.3984 -1.2011
  170SAPE  H11Y19288   6.067   2.740   8.071  3.1369 -3.4770  0.5495
  170SAPE  C31219289   6.097   2.958   8.048  0.1181 -0.0547  0.7089
  170SAPE  H12X19290   6.022   2.971   7.967  2.5578 -0.9508 -1.8540
  170SAPE  H12Y19291   6.184   3.025   8.032 -0.1057  0.6501  2.2237
  170SAPE  C31319292   6.038   2.997   8.184 -1.1356  0.5491  0.8158
  170SAPE  H13X19293   6.105   3.079   8.217  0.0730 -0.6047  1.3086
  170SAPE  H13Y19294   6.056   2.921   8.263 -1.4476 -0.6614 -0.2342
  170SAPE  C31419295   5.891   3.033   8.171  0.3697 -0.7370 -0.1176
  170SAPE  H14X19296   5.840   2.948   8.121 -0.4831  0.7557 -1.9453
  170SAPE  H14Y19297   5.879   3.120   8.103  1.0827 -0.7169 -0.2269
  170SAPE  C31519298   5.821   3.055   8.308  0.3094  0.3805  0.1394
  170SAPE  H15X19299   5.880   3.127   8.368 -1.4300  2.3421 -0.3775
  170SAPE  H15Y19300   5.804   2.950   8.341 -0.6358 -0.0532 -1.6126
  170SAPE  C31619301   5.677   3.119   8.291 -0.0257 -0.1513  0.0997
  170SAPE  H16X19302   5.684   3.222   8.251  2.5161 -0.0130  0.7446
  170SAPE  H16Y19303   5.640   3.130   8.395  2.7313  2.3922  0.9622
  170SAPE  C31719304   5.576   3.026   8.215  0.0939  0.2497 -0.4538
  170SAPE  H17X19305   5.612   2.924   8.242  0.0126  0.6152  1.1807
  170SAPE  H17Y19306   5.592   3.025   8.106 -3.8255 -0.6919 -1.1607
  170SAPE  C31819307   5.431   3.047   8.243  0.5141 -0.2960  0.2769
  170SAPE  H18X19308   5.403   3.153   8.224  0.2148 -0.5734 -0.9289
  170SAPE  H18Y19309   5.406   3.016   8.347  3.4648  0.0417  1.1777
  170SAPE  H18Z19310   5.358   2.988   8.184  2.0346 -1.2697 -0.6916
  171SAPE     N19311   3.285   1.559   6.257 -0.1306 -0.4134  0.5358
  171SAPE   HN119312   3.281   1.577   6.360  0.4357  0.7694  0.3717
  171SAPE   HN219313   3.189   1.573   6.218  0.5974  0.5787 -1.0088
  171SAPE   HN319314   3.305   1.458   6.241 -0.4128 -0.2676 -0.8777
  171SAPE   C1219315   3.374   1.664   6.196 -0.8561 -0.6513  0.7772
  171SAPE  H12A19316   3.301   1.745   6.174 -1.5148 -1.4002  0.1339
  171SAPE  H12B19317   3.412   1.620   6.101 -0.3098 -1.5670  1.4112
  171SAPE   C1119318   3.488   1.702   6.296 -0.0913  0.8429  0.5924
  171SAPE  H11A19319   3.567   1.770   6.257  0.3162 -0.5474 -1.1510
  171SAPE  H11B19320   3.549   1.611   6.312 -0.2548  0.2879 -1.5499
  171SAPE     P19321   3.453   1.694   6.555  0.0624  0.2271  0.2513
  171SAPE   O1319322   3.432   1.795   6.662 -1.0131  0.1645 -0.2502
  171SAPE   O1419323   3.360   1.578   6.560 -1.0536  0.0180 -0.2132
  171SAPE   O1219324   3.432   1.757   6.415  0.0019  0.3175  0.4663
  171SAPE   O1119325   3.609   1.643   6.558  0.1530  0.4747  0.3486
  171SAPE    C119326   3.724   1.735   6.543 -0.0260 -0.1161 -0.1265
  171SAPE    HA19327   3.775   1.731   6.444  0.5164 -1.4069  0.1762
  171SAPE    HB19328   3.698   1.838   6.575  1.9925  0.2690  0.4199
  171SAPE    C219329   3.836   1.699   6.641  0.6182 -0.0773 -0.6280
  171SAPE    HS19330   3.863   1.592   6.624 -1.1119 -0.7091  0.3957
  171SAPE   O2119331   3.793   1.721   6.775  0.8054 -0.2168 -0.2365
  171SAPE   C2119332   3.829   1.631   6.860 -0.0538  1.1637  1.5053
  171SAPE   O2219333   3.885   1.526   6.833  0.3637  0.4708  0.3572
  171SAPE   C2219334   3.790   1.678   7.002  1.0563 -0.1748  0.2855
  171SAPE   H2R19335   3.824   1.784   7.000 -2.1672  0.9668 -0.0531
  171SAPE   H2S19336   3.679   1.678   7.002  1.0342 -1.8543  0.4388
  171SAPE    C319337   3.965   1.784   6.612  0.5736  1.0326  0.5376
  171SAPE    HX19338   3.946   1.893   6.627  1.1801  0.7932  3.8103
  171SAPE    HY19339   3.992   1.769   6.506  1.7634  0.9637  0.8404
  171SAPE   O3119340   4.071   1.743   6.702  0.3805  0.4303 -0.0456
  171SAPE   C3119341   4.125   1.627   6.667  0.4277  0.3256 -0.3889
  171SAPE   O3219342   4.100   1.546   6.583 -0.5780  0.4051  0.0532
  171SAPE   C3219343   4.242   1.600   6.769  0.5267 -0.3932  0.2077
  171SAPE   H2X19344   4.281   1.496   6.758 -0.7959 -0.7970 -0.9838
  171SAPE   H2Y19345   4.208   1.607   6.875 -0.3945  3.3567 -0.2098
  171SAPE   C2319346   3.872   1.605   7.109  0.3698  0.3981 -1.0456
  171SAPE   H3R19347   3.878   1.670   7.198  0.5863 -0.7872 -0.1651
  171SAPE   H3S19348   3.979   1.600   7.077  1.6377  1.3989  2.5696
  171SAPE   C2419349   3.810   1.470   7.152  0.5516  0.2565  0.7791
  171SAPE   H4R19350   3.803   1.394   7.071  0.5054 -0.6430  1.6129
  171SAPE   H4S19351   3.703   1.490   7.172  0.3841  1.2987 -0.9107
  171SAPE   C2519352   3.876   1.413   7.273 -0.1690 -0.6264  0.1789
  171SAPE   H5R19353   3.982   1.391   7.259 -0.5689 -3.6399  1.2031
  171SAPE   C2619354   3.812   1.390   7.391  0.7015  0.1995 -0.0587
  171SAPE   H6R19355   3.879   1.354   7.470  2.3253  0.8904 -1.0720
  171SAPE   C2719356   3.669   1.417   7.430  0.3590  0.0228  0.1563
  171SAPE   H7R19357   3.614   1.481   7.358  0.2326  0.5644  0.7337
  171SAPE   H7S19358   3.676   1.473   7.526  1.0604 -1.8405  1.2594
  171SAPE   C2819359   3.597   1.286   7.449 -0.9096 -0.5965 -0.8307
  171SAPE   H8R19360   3.638   1.206   7.386  2.4251  0.1455  0.1966
  171SAPE   C2919361   3.503   1.266   7.547  0.6545 -0.9475  0.1330
  171SAPE   H9R19362   3.458   1.167   7.561  0.0168 -0.4004  2.4726
  171SAPE  C21019363   3.449   1.369   7.642 -0.4979 -0.4733  0.3466
  171SAPE  H10R19364   3.362   1.324   7.694  0.7568 -0.0099  2.9636
  171SAPE  H10S19365   3.407   1.458   7.591 -1.0316 -0.9066  0.0139
  171SAPE  C21119366   3.554   1.416   7.738 -0.0950  0.4100  0.3616
  171SAPE  H11R19367   3.615   1.503   7.711  0.1089  0.7359  1.8165
  171SAPE  C21219368   3.580   1.359   7.862 -0.3976  0.6363  0.0867
  171SAPE  H12R19369   3.664   1.394   7.925  2.7029  0.0516 -3.3804
  171SAPE  C21319370   3.514   1.237   7.925 -0.3183  0.8393  0.2052
  171SAPE  H13R19371   3.591   1.159   7.943 -0.3588  0.6237 -0.5273
  171SAPE  H13S19372   3.442   1.194   7.851  1.1419  1.7228 -1.8250
  171SAPE  C21419373   3.430   1.268   8.050 -0.0032  0.0515 -0.1273
  171SAPE  H14R19374   3.325   1.276   8.018 -0.9498 -3.5339  1.5700
  171SAPE  C21519375   3.473   1.289   8.179  0.0625  0.2238  0.4925
  171SAPE  H15R19376   3.392   1.313   8.249  2.2403  2.6333  2.4085
  171SAPE  C21619377   3.617   1.281   8.223  0.2395  0.6917  0.1551
  171SAPE  H16R19378   3.676   1.238   8.139 -0.3341 -0.7850  0.4781
  171SAPE  H16S19379   3.628   1.220   8.316 -0.5988  0.9221  0.4135
  171SAPE  C21719380   3.683   1.409   8.265 -0.5587 -0.4274  0.0612
  171SAPE  H17R19381   3.618   1.455   8.342 -1.3114 -0.3390 -0.6174
  171SAPE  H17S19382   3.681   1.483   8.183  3.8437 -0.7963 -0.6444
  171SAPE  C21819383   3.829   1.394   8.316 -0.1274  0.3151  0.0943
  171SAPE  H18R19384   3.876   1.494   8.331  0.9226 -0.2485  0.6898
  171SAPE  H18S19385   3.896   1.342   8.244 -1.3879  0.2908 -1.0967
  171SAPE  C21919386   3.841   1.311   8.451  0.3499 -0.2071  0.7113
  171SAPE  H19R19387   3.815   1.206   8.426  2.3958 -0.2528 -1.4832
  171SAPE  H19S19388   3.765   1.354   8.521 -0.9181  1.2204 -1.4397
  171SAPE  C22019389   3.977   1.328   8.524  0.3001  0.3351 -0.4185
  171SAPE  H20R19390   4.047   1.278   8.454  0.9394 -0.7473  0.9392
  171SAPE  H20S19391   3.976   1.252   8.606  1.4353 -1.0964 -1.6833
  171SAPE  H20T19392   3.984   1.434   8.557  0.1534  0.9308 -2.2234
  171SAPE   C3319393   4.364   1.692   6.755 -0.8650 -0.0109 -0.2344
  171SAPE   H3X19394   4.324   1.792   6.727 -1.4886  0.4859  2.2076
  171SAPE   H3Y19395   4.408   1.650   6.662 -0.3598  0.6209 -0.2916
  171SAPE   C3419396   4.461   1.686   6.874  0.7771  0.2937  0.1723
  171SAPE   H4X19397   4.495   1.583   6.897  2.0012  0.6133 -0.1191
  171SAPE   H4Y19398   4.398   1.713   6.962  2.4425 -0.1838  1.5613
  171SAPE   C3519399   4.575   1.790   6.871 -0.7501 -0.7874  0.1927
  171SAPE   H5X19400   4.549   1.881   6.814  2.2994  0.6492  0.9115
  171SAPE   H5Y19401   4.658   1.750   6.810 -0.5175 -2.5204  1.5518
  171SAPE   C3619402   4.639   1.838   7.001  0.2290 -0.1097 -0.4237
  171SAPE   H6X19403   4.571   1.907   7.054  0.9455  1.6571 -1.6978
  171SAPE   H6Y19404   4.731   1.899   6.990  0.4247  0.0045  1.5931
  171SAPE   C3719405   4.654   1.723   7.104  0.5314  0.3924  0.1327
  171SAPE   H7X19406   4.719   1.642   7.066 -0.5897 -0.4987  0.0425
  171SAPE   H7Y19407   4.558   1.670   7.123  1.6553 -1.4053  0.9768
  171SAPE   C3819408   4.707   1.767   7.236  0.2098 -0.0630 -0.2584
  171SAPE   H8X19409   4.659   1.865   7.257 -0.7752 -0.5659 -0.0909
  171SAPE   H8Y19410   4.817   1.779   7.225  0.3053 -0.5351  0.1046
  171SAPE   C3919411   4.687   1.671   7.354 -0.0878  0.1475  0.1758
  171SAPE   H9X19412   4.703   1.562   7.341 -1.1418 -0.1560  1.2005
  171SAPE   H9Y19413   4.581   1.668   7.388 -0.7370 -0.5141 -1.8101
  171SAPE  C31019414   4.784   1.706   7.475 -0.0256 -0.1290 -0.3367
  171SAPE  H10X19415   4.790   1.817   7.479  1.6573 -0.2459  1.3824
  171SAPE  H10Y19416   4.886   1.676   7.443  1.3985  2.7486  1.1089
  171SAPE  C31119417   4.746   1.641   7.607 -0.2359  0.6040 -0.1328
  171SAPE  H11X19418   4.813   1.671   7.690 -1.1224 -1.1877  1.3074
  171SAPE  H11Y19419   4.758   1.531   7.598 -1.2180 -0.0429  4.3366
  171SAPE  C31219420   4.600   1.680   7.662 -0.7430  0.3216  0.0767
  171SAPE  H12X19421   4.526   1.661   7.582 -1.6917 -0.0015  1.0042
  171SAPE  H12Y19422   4.605   1.789   7.684  0.2272  0.1374  0.8399
  171SAPE  C31319423   4.556   1.599   7.788  0.2998  0.1043 -0.4576
  171SAPE  H13X19424   4.556   1.496   7.747 -1.6969 -0.5655  1.0754
  171SAPE  H13Y19425   4.457   1.639   7.819  0.2242 -0.4804  0.0695
  171SAPE  C31419426   4.659   1.609   7.910 -0.1934  0.3088 -0.0179
  171SAPE  H14X19427   4.646   1.709   7.958  2.8964 -0.4922  2.9566
  171SAPE  H14Y19428   4.767   1.592   7.889  0.0597  1.1992  0.4619
  171SAPE  C31519429   4.604   1.514   8.030 -0.8519 -0.2607 -0.2042
  171SAPE  H15X19430   4.691   1.491   8.095 -0.8539  2.2773  0.7995
  171SAPE  H15Y19431   4.579   1.414   7.990  3.2717 -1.1295 -1.1149
  171SAPE  C31619432   4.492   1.586   8.101 -0.3760  0.0148 -0.4205
  171SAPE  H16X19433   4.420   1.620   8.023  0.6388  0.3737 -1.2282
  171SAPE  H16Y19434   4.543   1.667   8.159  0.1712  0.4095 -1.4274
  171SAPE  C31719435   4.417   1.499   8.206  0.4776 -0.4049  0.6932
  171SAPE  H17X19436   4.488   1.471   8.286  1.3778  0.6665  0.2907
  171SAPE  H17Y19437   4.391   1.400   8.162  1.5221 -0.8643  1.0878
  171SAPE  C31819438   4.298   1.562   8.275 -0.3960  0.0943 -0.1315
  171SAPE  H18X19439   4.328   1.657   8.324 -1.0389 -0.9684  2.4953
  171SAPE  H18Y19440   4.246   1.503   8.353 -1.3969  1.8580  0.6082
  171SAPE  H18Z19441   4.219   1.584   8.200 -1.8792 -1.9300  0.7544
  172SAPE     N19442   3.271   1.296   6.597 -0.0197 -0.3881  0.0282
  172SAPE   HN119443   3.298   1.253   6.506 -2.1177 -1.4337 -0.1497
  172SAPE   HN219444   3.298   1.393   6.574 -0.2322  0.4725  3.0108
  172SAPE   HN319445   3.339   1.279   6.674 -1.3769 -0.7124  1.2080
  172SAPE   C1219446   3.125   1.271   6.623 -0.8046  0.0981 -0.5684
  172SAPE  H12A19447   3.107   1.318   6.722 -0.4137 -1.4626  0.2797
  172SAPE  H12B19448   3.121   1.162   6.642 -0.3028 -0.0396 -1.2137
  172SAPE   C1119449   3.034   1.333   6.510  0.3697  0.1756  0.2899
  172SAPE  H11A19450   3.057   1.441   6.519 -1.1549  0.6157 -0.6878
  172SAPE  H11B19451   2.933   1.317   6.553  1.5456  0.6778  3.5514
  172SAPE     P19452   2.984   1.205   6.275 -0.3363  0.4427 -0.4065
  172SAPE   O1319453   2.991   1.267   6.143  0.3470 -0.7022  0.0130
  172SAPE   O1419454   3.007   1.061   6.275  0.0458 -0.0193 -0.1771
  172SAPE   O1219455   3.076   1.276   6.382  0.5317 -0.3372  0.0077
  172SAPE   O1119456   2.834   1.238   6.327 -0.6706  0.2257 -0.0954
  172SAPE    C119457   2.734   1.138   6.321 -0.4854  0.0526 -0.0567
  172SAPE    HA19458   2.640   1.181   6.281 -0.9438 -1.2471 -0.4323
  172SAPE    HB19459   2.757   1.051   6.255 -2.6216  0.5173 -1.5160
  172SAPE    C219460   2.698   1.080   6.461  0.4730  0.5907 -0.2487
  172SAPE    HS19461   2.606   1.019   6.447  0.1180  0.5524  1.9756
  172SAPE   O2119462   2.697   1.179   6.568 -0.6813  0.6326 -0.2797
  172SAPE   C2119463   2.579   1.229   6.581 -0.2460 -0.5816 -0.1462
  172SAPE   O2219464   2.473   1.197   6.529 -0.0417 -0.0794 -0.1579
  172SAPE   C2219465   2.579   1.332   6.700  0.6593 -0.5054 -0.2145
  172SAPE   H2R19466   2.674   1.317   6.755  1.9847 -0.4089 -2.3472
  172SAPE   H2S19467   2.595   1.427   6.645  4.4410 -0.5657  0.4836
  172SAPE    C319468   2.794   0.970   6.519 -0.0017 -0.1585  0.1746
  172SAPE    HX19469   2.892   1.020   6.530  1.4073 -1.9203 -2.9794
  172SAPE    HY19470   2.801   0.897   6.435  0.6041 -0.6957  0.6878
  172SAPE   O3119471   2.750   0.892   6.631  0.1710  0.2546 -0.3439
  172SAPE   C3119472   2.769   0.935   6.759  0.0609  0.2104 -0.2248
  172SAPE   O3219473   2.831   1.035   6.796 -0.0882 -0.4718 -0.1921
  172SAPE   C3219474   2.699   0.840   6.848  0.0885  0.6954 -0.8279
  172SAPE   H2X19475   2.657   0.759   6.786  0.6051 -0.5632  0.4079
  172SAPE   H2Y19476   2.610   0.892   6.890  0.0439 -0.1229  0.1399
  172SAPE   C2319477   2.446   1.331   6.785 -0.5316  0.4419  0.1749
  172SAPE   H3R19478   2.359   1.328   6.716 -0.2126 -5.0906 -0.4072
  172SAPE   H3S19479   2.438   1.421   6.850 -1.5637 -0.6203  1.5917
  172SAPE   C2419480   2.434   1.214   6.880  0.7560  0.5091 -0.6959
  172SAPE   H4R19481   2.424   1.114   6.832 -2.0927 -0.3589  1.4159
  172SAPE   H4S19482   2.332   1.221   6.922  0.4083 -1.3779 -1.1303
  172SAPE   C2519483   2.530   1.208   6.999 -0.2215 -0.0162  0.2403
  172SAPE   H5R19484   2.632   1.175   6.974 -0.4549 -0.3461 -0.2880
  172SAPE   C2619485   2.507   1.241   7.131  0.5184  0.1287  0.3201
  172SAPE   H6R19486   2.595   1.257   7.195  1.2363 -0.3441 -0.5089
  172SAPE   C2719487   2.380   1.279   7.195  0.0201 -0.9730 -0.3318
  172SAPE   H7R19488   2.348   1.371   7.140  0.7741  0.8298  2.0842
  172SAPE   H7S19489   2.403   1.318   7.296 -0.9894 -0.7663 -0.1634
  172SAPE   C2819490   2.260   1.188   7.189  0.0256 -0.0035 -0.4208
  172SAPE   H8R19491   2.238   1.130   7.098  0.4829 -0.0959 -0.4716
  172SAPE   C2919492   2.180   1.178   7.295  0.0141 -0.4461 -1.5807
  172SAPE   H9R19493   2.115   1.090   7.297  0.1230 -0.5363  1.2074
  172SAPE  C21019494   2.179   1.263   7.426 -0.1217 -0.4799  1.0704
  172SAPE  H10R19495   2.079   1.253   7.474 -0.3881 -2.0534  0.2599
  172SAPE  H10S19496   2.194   1.371   7.408  2.1411 -1.2953 -3.3014
  172SAPE  C21119497   2.287   1.209   7.521  0.4286 -0.3500 -0.2513
  172SAPE  H11R19498   2.371   1.152   7.480  0.5700  0.5852 -1.3257
  172SAPE  C21219499   2.272   1.206   7.659  0.1371  0.2445  0.5007
  172SAPE  H12R19500   2.350   1.143   7.704  3.0316  3.2352  0.0916
  172SAPE  C21319501   2.162   1.258   7.737 -0.3992  0.2588  0.0258
  172SAPE  H13R19502   2.060   1.221   7.714 -0.8477  1.8015 -0.6543
  172SAPE  H13S19503   2.153   1.366   7.711  0.5521  1.0039  2.5122
  172SAPE  C21419504   2.174   1.242   7.887 -0.3976  0.1507  0.4824
  172SAPE  H14R19505   2.189   1.145   7.935 -1.1249  0.6538  1.7857
  172SAPE  C21519506   2.164   1.350   7.970  0.1801 -0.1653 -0.0312
  172SAPE  H15R19507   2.191   1.337   8.076  0.2747 -0.8594 -0.1383
  172SAPE  C21619508   2.148   1.498   7.942  0.5585  0.7141  0.4721
  172SAPE  H16R19509   2.046   1.538   7.959 -0.6082 -1.0801 -1.7036
  172SAPE  H16S19510   2.173   1.524   7.837 -1.5254  1.0110 -0.0047
  172SAPE  C21719511   2.234   1.594   8.028 -0.0631  0.3670 -0.4165
  172SAPE  H17R19512   2.225   1.699   7.993  0.0755  0.8144  0.8231
  172SAPE  H17S19513   2.340   1.567   8.009  0.2335  0.9640  0.3144
  172SAPE  C21819514   2.231   1.585   8.179 -0.3864  0.7425 -0.5339
  172SAPE  H18R19515   2.328   1.619   8.222 -1.6676  3.4461  0.4381
  172SAPE  H18S19516   2.225   1.477   8.206 -1.0476  0.5822 -1.2730
  172SAPE  C21919517   2.106   1.649   8.246  0.6038  0.2748  0.1604
  172SAPE  H19R19518   2.014   1.595   8.217  0.6643 -0.0346  0.5352
  172SAPE  H19S19519   2.070   1.748   8.210 -4.9955 -0.2351  3.2808
  172SAPE  C22019520   2.120   1.650   8.398 -0.0196  0.3940  0.2265
  172SAPE  H20R19521   2.220   1.685   8.430  0.4685  0.6304 -1.4354
  172SAPE  H20S19522   2.106   1.548   8.438 -1.1125  0.6920  0.6347
  172SAPE  H20T19523   2.037   1.713   8.436  0.2104  0.8057  0.0580
  172SAPE   C3319524   2.777   0.783   6.970  0.0730  0.2755  0.2240
  172SAPE   H3X19525   2.801   0.854   7.051  1.2590  0.6651 -0.4501
  172SAPE   H3Y19526   2.868   0.731   6.935  1.2166  1.1170  1.8226
  172SAPE   C3419527   2.694   0.679   7.047  1.2406  0.2288  0.2588
  172SAPE   H4X19528   2.766   0.644   7.124  0.1782  1.3511  1.8193
  172SAPE   H4Y19529   2.670   0.590   6.984 -1.5188  0.9351  0.1664
  172SAPE   C3519530   2.565   0.728   7.115  0.5139 -0.0645 -0.5040
  172SAPE   H5X19531   2.530   0.637   7.167 -3.0357  1.3898 -0.0310
  172SAPE   H5Y19532   2.485   0.765   7.048 -1.2854 -0.3289  1.3818
  172SAPE   C3619533   2.600   0.826   7.228  0.0244 -0.6218 -0.3838
  172SAPE   H6X19534   2.663   0.914   7.203 -0.2566  0.2790  1.8684
  172SAPE   H6Y19535   2.680   0.763   7.274 -0.3632 -1.9129 -1.3976
  172SAPE   C3719536   2.488   0.854   7.320 -0.1696 -0.1135 -0.4897
  172SAPE   H7X19537   2.393   0.805   7.290 -1.5568  2.2609 -0.2727
  172SAPE   H7Y19538   2.463   0.963   7.317 -4.4082 -0.8141  1.6309
  172SAPE   C3819539   2.524   0.802   7.464 -0.0959  0.2173 -0.0358
  172SAPE   H8X19540   2.621   0.841   7.502  0.2610 -1.4639  0.9185
  172SAPE   H8Y19541   2.540   0.695   7.436  0.6502  0.6123 -1.1799
  172SAPE   C3919542   2.414   0.825   7.566 -0.0454 -0.1832  0.1892
  172SAPE   H9X19543   2.328   0.755   7.557  0.5099 -0.9207  0.5643
  172SAPE   H9Y19544   2.369   0.926   7.555 -0.5595 -0.4475 -0.2359
  172SAPE  C31019545   2.463   0.827   7.715  0.9247  0.3082 -0.0277
  172SAPE  H10X19546   2.550   0.895   7.722  0.6251  1.0190 -2.2378
  172SAPE  H10Y19547   2.489   0.722   7.742 -2.0302 -0.4018  0.4434
  172SAPE  C31119548   2.348   0.867   7.813  0.2392 -0.6580 -0.1847
  172SAPE  H11X19549   2.268   0.790   7.815 -1.9426  1.4948  0.5437
  172SAPE  H11Y19550   2.308   0.963   7.774  2.7330 -0.2674 -1.9542
  172SAPE  C31219551   2.385   0.881   7.964  0.0980 -0.7065 -0.1510
  172SAPE  H12X19552   2.292   0.900   8.022  0.1768 -0.9457  0.0576
  172SAPE  H12Y19553   2.460   0.962   7.966  0.9019 -1.4415  0.6880
  172SAPE  C31319554   2.429   0.744   8.026  0.3603 -0.4859  0.0986
  172SAPE  H13X19555   2.510   0.709   7.959 -1.8574 -0.0036 -3.1152
  172SAPE  H13Y19556   2.347   0.670   8.031 -1.1054  1.0253 -0.5665
  172SAPE  C31419557   2.499   0.735   8.166  0.5075 -0.4219 -0.2671
  172SAPE  H14X19558   2.553   0.831   8.181 -1.2993  1.1921 -3.1306
  172SAPE  H14Y19559   2.579   0.659   8.161  0.0373 -1.0210  0.8837
  172SAPE  C31519560   2.416   0.702   8.289  0.2279  0.2540 -0.3030
  172SAPE  H15X19561   2.476   0.662   8.374 -0.2083 -0.6098 -0.3928
  172SAPE  H15Y19562   2.353   0.619   8.251  2.8058 -1.4541 -1.1360
  172SAPE  C31619563   2.321   0.814   8.334 -0.4371  0.4712  0.2393
  172SAPE  H16X19564   2.256   0.855   8.253 -0.5274  1.7267  0.9283
  172SAPE  H16Y19565   2.381   0.894   8.381  3.2606 -0.9662 -1.6022
  172SAPE  C31719566   2.228   0.764   8.445 -0.3901 -0.2991  0.4462
  172SAPE  H17X19567   2.283   0.735   8.537  2.4033  0.4670 -0.8844
  172SAPE  H17Y19568   2.159   0.687   8.405 -0.5181 -0.5338  1.0919
  172SAPE  C31819569   2.137   0.874   8.504 -1.2534  0.1893  0.3167
  172SAPE  H18X19570   2.188   0.948   8.570  1.1457 -1.1691  0.1029
  172SAPE  H18Y19571   2.070   0.823   8.577 -1.2134  0.7669  0.7635
  172SAPE  H18Z19572   2.069   0.917   8.428 -0.2014  1.5048  0.0778
  173SOPE     N19573   3.653   6.728  10.970  0.3488 -0.0352  0.4770
  173SOPE   HN119574   3.594   6.753  11.052  0.7288  0.3246  0.6430
  173SOPE   HN219575   3.645   6.625  10.957  1.0329  0.0551 -0.8112
  173SOPE   HN319576   3.753   6.747  10.992  0.3928 -1.2048  1.4121
  173SOPE   C1219577   3.605   6.790  10.841  0.3154 -0.1245  0.2688
  173SOPE  H12A19578   3.676   6.752  10.764 -0.4629 -0.5882 -0.2336
  173SOPE  H12B19579   3.617   6.900  10.854 -0.7089  0.2944 -1.8891
  173SOPE   C1119580   3.455   6.750  10.811  0.1753 -0.3134 -0.2557
  173SOPE  H11A19581   3.441   6.643  10.836 -0.1547 -0.1095  0.4546
  173SOPE  H11B19582   3.419   6.765  10.707 -1.5899 -1.3444  0.1653
  173SOPE     P19583   3.220   6.790  10.902 -0.0067  0.5451 -0.2142
  173SOPE   O1319584   3.136   6.907  10.936  0.3602 -0.0875  0.0992
  173SOPE   O1419585   3.210   6.674  10.990  0.0559  0.2358 -0.1137
  173SOPE   O1219586   3.366   6.837  10.881 -0.7760 -0.5186 -0.2022
  173SOPE   O1119587   3.182   6.745  10.757 -0.2837 -0.4945 -0.1869
  173SOPE    C119588   3.105   6.835  10.667  0.3700  0.0061  0.2851
  173SOPE    HA19589   3.178   6.908  10.627  0.1433  0.5387  0.8371
  173SOPE    HB19590   3.021   6.875  10.727  2.2501  1.5405  2.0002
  173SOPE    C219591   3.051   6.750  10.547  0.2478  0.2217  0.0675
  173SOPE    HS19592   2.987   6.672  10.592  0.9557 -0.8382 -0.7315
  173SOPE   O2119593   3.165   6.702  10.473  1.1231  0.2891  0.1705
  173SOPE   C2119594   3.153   6.586  10.423 -0.2863  0.0912  0.2506
  173SOPE   O2219595   3.061   6.512  10.445  0.9250  0.3451  0.2507
  173SOPE   C2219596   3.262   6.568  10.322 -0.4878 -0.4374 -0.0004
  173SOPE   H2R19597   3.344   6.531  10.388 -1.8460  0.3143  2.2206
  173SOPE   H2S19598   3.286   6.671  10.288 -2.9739  0.0617 -0.4070
  173SOPE    C319599   2.969   6.841  10.452  1.1772 -0.2941  0.0118
  173SOPE    HX19600   3.022   6.928  10.409  1.2357 -0.0248  0.6140
  173SOPE    HY19601   2.884   6.892  10.502 -0.6814 -0.4209 -2.7941
  173SOPE   O3119602   2.910   6.759  10.350  0.3258 -0.4258 -0.0767
  173SOPE   C3119603   2.828   6.820  10.264  0.5870  0.2174 -0.3628
  173SOPE   O3219604   2.808   6.940  10.258  0.1346  0.6857 -0.5792
  173SOPE   C3219605   2.744   6.721  10.187 -0.4421  0.2460  0.5497
  173SOPE   H2X19606   2.679   6.777  10.116  0.9105 -0.4758 -1.3535
  173SOPE   H2Y19607   2.679   6.659  10.253 -0.6577 -2.0004 -1.6202
  173SOPE   C2319608   3.229   6.476  10.211  0.2993  0.3428 -0.6292
  173SOPE   H3R19609   3.152   6.524  10.148  0.0037  2.8182  1.4192
  173SOPE   H3S19610   3.198   6.380  10.256  0.6304  0.0687 -0.9805
  173SOPE   C2419611   3.352   6.443  10.121  0.5722 -0.1332  0.4699
  173SOPE   H4R19612   3.409   6.536  10.098  0.5766  0.2917  2.0687
  173SOPE   H4S19613   3.414   6.368  10.174 -0.0082 -1.6440 -0.9321
  173SOPE   C2519614   3.313   6.385   9.985 -0.3399  0.6850  0.0093
  173SOPE   H5R19615   3.261   6.288   9.985 -1.2157  1.0931 -2.1880
  173SOPE   H5S19616   3.244   6.451   9.929 -0.8192 -0.3673 -0.6663
  173SOPE   C2619617   3.438   6.367   9.899  0.1942 -0.1884 -0.1850
  173SOPE   H6R19618   3.499   6.459   9.908  1.1169 -0.6092 -1.7272
  173SOPE   H6S19619   3.506   6.289   9.940  0.5594 -0.2568 -0.9122
  173SOPE   C2719620   3.414   6.323   9.754 -0.0496  0.5893 -0.2218
  173SOPE   H7R19621   3.358   6.227   9.753 -0.7213  0.9763 -0.9600
  173SOPE   H7S19622   3.354   6.404   9.707 -1.1810 -1.1195 -1.8465
  173SOPE   C2819623   3.546   6.318   9.668 -0.7347 -0.3021  0.0574
  173SOPE   H8R19624   3.587   6.416   9.636 -1.1855 -0.1372 -0.0196
  173SOPE   H8S19625   3.625   6.267   9.728 -0.3867  0.3643  0.1755
  173SOPE   C2919626   3.532   6.230   9.543 -0.1667  0.4346  0.0679
  173SOPE   H9119627   3.508   6.125   9.562  1.9923  0.2668  2.2522
  173SOPE  C21019628   3.544   6.273   9.418  0.9698 -1.4502  0.1572
  173SOPE  H10119629   3.521   6.201   9.338 -0.2722  1.7897 -2.6462
  173SOPE  C21119630   3.561   6.416   9.371  0.1910  0.2280 -0.5813
  173SOPE  H11R19631   3.636   6.467   9.437 -0.6554 -1.9506  2.2903
  173SOPE  H11S19632   3.470   6.478   9.386 -0.4877 -0.4232 -1.8421
  173SOPE  C21219633   3.608   6.443   9.229 -0.0680  0.0303 -0.1084
  173SOPE  H12R19634   3.708   6.394   9.226  0.0023  0.1744 -0.1094
  173SOPE  H12S19635   3.615   6.554   9.222  0.6086  0.0641  0.8341
  173SOPE  C21319636   3.520   6.376   9.125 -0.1368 -0.0853 -0.3204
  173SOPE  H13R19637   3.412   6.387   9.148  0.2833  1.3471  1.1102
  173SOPE  H13S19638   3.539   6.267   9.139 -1.7899 -0.2014  1.4531
  173SOPE  C21419639   3.559   6.419   8.985  0.3999  0.4132 -0.0414
  173SOPE  H14R19640   3.669   6.431   8.975  0.6167 -0.8935  0.5038
  173SOPE  H14S19641   3.518   6.520   8.967  1.0169  0.7171  0.2455
  173SOPE  C21519642   3.517   6.315   8.880  0.4357 -0.1252 -0.1461
  173SOPE  H15R19643   3.408   6.320   8.859  0.7676  1.4687 -1.7790
  173SOPE  H15S19644   3.561   6.220   8.917 -0.3657 -0.4361  0.0259
  173SOPE  C21619645   3.567   6.335   8.743 -0.0908  0.0798  0.3116
  173SOPE  H16R19646   3.668   6.380   8.751  0.2253 -0.8463  2.1365
  173SOPE  H16S19647   3.505   6.411   8.691 -0.8791 -0.2998  0.6788
  173SOPE  C21719648   3.579   6.210   8.654  0.4235 -0.1062 -0.3870
  173SOPE  H17R19649   3.479   6.179   8.617  0.2297 -0.1030  0.1211
  173SOPE  H17S19650   3.613   6.128   8.721  0.0573 -0.5809 -0.7739
  173SOPE  C21819651   3.666   6.228   8.533 -0.0133 -0.2535  0.0551
  173SOPE  H18R19652   3.771   6.255   8.559  0.0303  1.3922 -1.6002
  173SOPE  H18S19653   3.642   6.308   8.459  0.5640  0.6810  0.8638
  173SOPE  H18T19654   3.679   6.132   8.478  1.2371 -0.1157  0.0823
  173SOPE   C3319655   2.826   6.614  10.107  0.4570 -0.7873 -1.1545
  173SOPE   H3X19656   2.757   6.531  10.079 -1.4499  0.0527  0.7919
  173SOPE   H3Y19657   2.905   6.575  10.174  0.4230  0.1514 -0.5652
  173SOPE   C3419658   2.889   6.681   9.983  0.0210  0.2901  0.1004
  173SOPE   H4X19659   2.981   6.736  10.014 -1.9273  3.6044  0.4953
  173SOPE   H4Y19660   2.825   6.752   9.925  1.2103  2.0565  0.8560
  173SOPE   C3519661   2.935   6.578   9.889 -0.6042 -0.2374  0.2765
  173SOPE   H5X19662   2.845   6.516   9.867 -0.4059 -0.3597 -0.1955
  173SOPE   H5Y19663   3.008   6.515   9.944  0.9015 -0.8533 -2.2684
  173SOPE   C3619664   2.992   6.615   9.747 -0.3023 -0.1062  0.4610
  173SOPE   H6X19665   3.074   6.690   9.754 -0.9976  0.6707  0.3653
  173SOPE   H6Y19666   2.909   6.647   9.681 -0.7931 -1.4721  0.3688
  173SOPE   C3719667   3.036   6.492   9.662  0.2607  0.3811 -0.2343
  173SOPE   H7X19668   2.946   6.429   9.650  1.1097 -1.0641  0.6025
  173SOPE   H7Y19669   3.109   6.438   9.727  0.6451  1.2813  0.1059
  173SOPE   C3819670   3.095   6.531   9.525 -0.3321 -0.5420  0.1077
  173SOPE   H8X19671   3.150   6.451   9.471 -1.2024 -0.4503 -0.9308
  173SOPE   H8Y19672   3.176   6.607   9.527 -0.4888 -0.2074 -2.9105
  173SOPE   C3919673   2.997   6.569   9.416  0.1059  0.2355  0.0073
  173SOPE   H9X19674   2.951   6.670   9.417 -0.3950  0.0372 -1.3355
  173SOPE   H9Y19675   2.909   6.502   9.416 -0.4696  0.9810  0.4461
  173SOPE  C31019676   3.069   6.546   9.280 -0.4539  0.6253 -0.3992
  173SOPE  H10X19677   3.066   6.437   9.261  3.0253 -0.2150  2.7158
  173SOPE  H10Y19678   3.176   6.574   9.284 -0.3447  0.1630 -0.0498
  173SOPE  C31119679   3.022   6.628   9.162  0.2695 -0.1676 -0.5326
  173SOPE  H11X19680   3.048   6.734   9.181  0.3823 -0.1323 -0.8789
  173SOPE  H11Y19681   2.912   6.633   9.154  0.2505  1.6982  0.3094
  173SOPE  C31219682   3.085   6.582   9.028  0.0072 -0.0565 -1.3307
  173SOPE  H12X19683   3.056   6.476   9.013  2.6261 -1.1422  0.4897
  173SOPE  H12Y19684   3.196   6.585   9.034 -0.0788  0.0763  2.0613
  173SOPE  C31319685   3.026   6.662   8.906  0.1796 -0.2482 -0.5845
  173SOPE  H13X19686   3.077   6.760   8.897 -0.8915  0.3487 -0.3237
  173SOPE  H13Y19687   2.916   6.670   8.919 -0.3651 -1.7591 -3.3838
  173SOPE  C31419688   3.054   6.596   8.774  0.2386  0.1810  0.4813
  173SOPE  H14X19689   3.025   6.666   8.692  1.6211 -0.7888 -0.9074
  173SOPE  H14Y19690   2.996   6.502   8.768  0.8900 -0.2336  0.5390
  173SOPE  C31519691   3.197   6.565   8.747  0.0059  0.0490 -0.1274
  173SOPE  H15X19692   3.236   6.480   8.808  0.5978  0.4413  0.0444
  173SOPE  H15Y19693   3.255   6.655   8.775 -0.7501  0.5416 -0.1361
  173SOPE  C31619694   3.224   6.541   8.602  0.3407  0.2283 -0.6204
  173SOPE  H16X19695   3.335   6.548   8.589  0.4366 -0.3436 -0.1446
  173SOPE  H16Y19696   3.186   6.628   8.544  1.0020  2.6424  2.3382
  173SOPE  C31719697   3.176   6.408   8.555  0.0892  0.6708  0.6408
  173SOPE  H17X19698   3.065   6.411   8.553  0.0339 -0.5610  0.9116
  173SOPE  H17Y19699   3.210   6.331   8.627  1.8907  0.3829 -0.4696
  173SOPE  C31819700   3.234   6.367   8.420 -0.0869 -0.2110  0.1516
  173SOPE  H18X19701   3.341   6.341   8.431  0.4455  1.6690 -0.1790
  173SOPE  H18Y19702   3.213   6.439   8.338 -1.8937  1.7492  2.1980
  173SOPE  H18Z19703   3.184   6.276   8.380 -0.0651 -0.0063 -0.3541
  174SOPE     N19704   3.141   6.433  10.920 -0.0474  0.3042  0.1410
  174SOPE   HN119705   3.130   6.530  10.956  0.8691  1.1743 -1.8257
  174SOPE   HN219706   3.097   6.369  10.990 -1.6987 -0.6786 -1.6974
  174SOPE   HN319707   3.241   6.405  10.917 -0.2037 -0.4862  1.4028
  174SOPE   C1219708   3.073   6.407  10.789 -0.1360 -0.3663 -0.3952
  174SOPE  H12A19709   3.087   6.299  10.764  1.3643 -0.4719  0.7109
  174SOPE  H12B19710   3.119   6.468  10.708 -2.4338 -1.1730 -2.4263
  174SOPE   C1119711   2.935   6.450  10.790  0.9365 -0.7299 -0.4555
  174SOPE  H11A19712   2.883   6.408  10.702 -3.4258  3.3399 -0.2331
  174SOPE  H11B19713   2.924   6.560  10.774 -0.6693 -0.7093  0.5349
  174SOPE     P19714   2.772   6.504  10.982 -0.0834 -0.0526 -0.3553
  174SOPE   O1319715   2.852   6.622  11.026 -0.4349  0.4599  0.0697
  174SOPE   O1419716   2.710   6.443  11.102  1.0102  0.4102 -0.1074
  174SOPE   O1219717   2.863   6.398  10.911  0.2207 -0.2389 -0.0291
  174SOPE   O1119718   2.667   6.550  10.880  0.0721  0.0655 -0.1390
  174SOPE    C119719   2.662   6.686  10.824 -0.1479 -0.3409 -0.0076
  174SOPE    HA19720   2.762   6.730  10.805 -0.5278  1.6671  2.2752
  174SOPE    HB19721   2.607   6.762  10.884 -1.8337 -2.3520  1.1417
  174SOPE    C219722   2.593   6.672  10.677  0.2597  0.0532 -0.6321
  174SOPE    HS19723   2.488   6.638  10.694  0.2518  0.7722  0.8820
  174SOPE   O2119724   2.659   6.566  10.603  0.4184 -0.2729 -0.6716
  174SOPE   C2119725   2.588   6.493  10.523  0.7121 -0.2201  0.9192
  174SOPE   O2219726   2.473   6.509  10.490  0.2380  0.4323  0.2206
  174SOPE   C2219727   2.685   6.395  10.456  0.4674  0.2471  0.2549
  174SOPE   H2R19728   2.758   6.354  10.528 -0.5499  0.8767  1.6870
  174SOPE   H2S19729   2.744   6.440  10.374  0.2157  0.7459  0.3449
  174SOPE    C319730   2.584   6.807  10.609 -0.4529 -0.7491  1.0727
  174SOPE    HX19731   2.687   6.848  10.601 -0.9039  0.1321 -0.6360
  174SOPE    HY19732   2.534   6.880  10.676  0.9060  1.2771 -0.0006
  174SOPE   O3119733   2.528   6.806  10.476  0.7764  0.0321  0.0566
  174SOPE   C3119734   2.397   6.816  10.470  0.2721  0.2770 -0.0902
  174SOPE   O3219735   2.316   6.824  10.560  0.0746 -0.6354 -0.3205
  174SOPE   C3219736   2.349   6.777  10.328  0.1406 -0.3798  0.5935
  174SOPE   H2X19737   2.239   6.765  10.327  0.0108  0.6978 -0.2622
  174SOPE   H2Y19738   2.388   6.676  10.304 -0.3900 -0.1648 -1.3342
  174SOPE   C2319739   2.601   6.275  10.395  0.4279 -0.1647  0.0375
  174SOPE   H3R19740   2.520   6.321  10.335  2.3069  0.7362 -1.9265
  174SOPE   H3S19741   2.546   6.226  10.478  0.1504  0.7390  0.4101
  174SOPE   C2419742   2.683   6.166  10.321 -0.0855  0.2655  1.0567
  174SOPE   H4R19743   2.763   6.131  10.391  0.9958  0.2122 -0.1741
  174SOPE   H4S19744   2.612   6.082  10.306 -0.2899  0.8118 -1.3357
  174SOPE   C2519745   2.726   6.217  10.183  0.1177 -0.1888  1.1907
  174SOPE   H5R19746   2.636   6.237  10.120  0.6503 -5.0976 -1.6658
  174SOPE   H5S19747   2.779   6.314  10.194 -0.9604  0.3335  1.9852
  174SOPE   C2619748   2.819   6.118  10.110  0.4057 -0.1038  0.3904
  174SOPE   H6R19749   2.915   6.106  10.164  1.2468  2.0429 -0.5216
  174SOPE   H6S19750   2.763   6.023  10.098  3.1926 -1.6636 -1.0864
  174SOPE   C2719751   2.862   6.166   9.971 -0.0246  0.5889  0.1786
  174SOPE   H7R19752   2.779   6.178   9.898  2.3575 -0.1838 -2.8253
  174SOPE   H7S19753   2.896   6.267  10.002  0.3231  0.7550 -0.7290
  174SOPE   C2819754   2.966   6.073   9.908 -0.0110 -0.2482  0.1696
  174SOPE   H8R19755   3.026   6.039   9.995 -1.2417  0.4252  1.3239
  174SOPE   H8S19756   2.912   5.988   9.862  0.7764  0.8281 -2.9436
  174SOPE   C2919757   3.062   6.141   9.813  0.1964 -0.0939  0.8397
  174SOPE   H9119758   3.125   6.220   9.857  1.5088 -1.6072  1.8130
  174SOPE  C21019759   3.083   6.115   9.683 -0.1208  0.8887  0.6889
  174SOPE  H10119760   3.167   6.165   9.632  0.4998  0.3869  1.1917
  174SOPE  C21119761   3.022   6.010   9.591 -0.5119  0.7291 -0.1911
  174SOPE  H11R19762   2.946   5.955   9.650  1.2311 -0.1217  1.3781
  174SOPE  H11S19763   3.104   5.935   9.576  0.5892  1.3173  2.3447
  174SOPE  C21219764   2.957   6.073   9.470  0.2484 -0.1837  0.4720
  174SOPE  H12R19765   2.893   6.157   9.502  2.1483  1.4821  0.0661
  174SOPE  H12S19766   2.894   5.993   9.425  1.0436 -0.3510 -0.3736
  174SOPE  C21319767   3.058   6.117   9.365 -0.2368  0.2465  0.3392
  174SOPE  H13R19768   3.136   6.039   9.354 -1.2466 -0.7405 -0.1257
  174SOPE  H13S19769   3.105   6.211   9.400  0.6841  0.7434 -2.0479
  174SOPE  C21419770   2.980   6.152   9.229  0.2306 -0.4873  0.6555
  174SOPE  H14R19771   2.924   6.247   9.237 -1.7685 -1.6452  1.0828
  174SOPE  H14S19772   2.911   6.066   9.212  0.1131 -0.2184 -0.3012
  174SOPE  C21519773   3.068   6.173   9.104 -0.3167 -0.0989  0.8107
  174SOPE  H15R19774   3.138   6.259   9.109  1.0402 -0.7803 -2.9841
  174SOPE  H15S19775   3.005   6.173   9.012  1.3445 -1.5700 -0.3969
  174SOPE  C21619776   3.162   6.050   9.085  0.4355 -0.0141  0.0719
  174SOPE  H16R19777   3.098   5.961   9.066  0.3435  0.0330  0.1560
  174SOPE  H16S19778   3.232   6.034   9.169  2.8033 -1.7864 -2.1085
  174SOPE  C21719779   3.253   6.066   8.964  0.8563 -0.5860  0.1169
  174SOPE  H17R19780   3.349   6.013   8.981  1.7243  0.6351 -0.7901
  174SOPE  H17S19781   3.276   6.175   8.968  0.6401 -0.5749  1.7166
  174SOPE  C21819782   3.204   6.020   8.827 -0.0883 -0.2681  0.1241
  174SOPE  H18R19783   3.279   6.034   8.747  0.5449  1.6442  0.9867
  174SOPE  H18S19784   3.110   6.066   8.788 -0.0001 -1.1318 -1.1500
  174SOPE  H18T19785   3.182   5.911   8.826 -0.0196 -0.3399  2.0618
  174SOPE   C3319786   2.402   6.872  10.214  0.3178 -0.0461 -0.1314
  174SOPE   H3X19787   2.512   6.862  10.210  0.2757 -0.6618  0.1751
  174SOPE   H3Y19788   2.373   6.975  10.245 -0.0787 -0.1267 -0.2206
  174SOPE   C3419789   2.330   6.840  10.084 -0.5725  0.8280  0.1720
  174SOPE   H4X19790   2.223   6.869  10.081 -0.1010  2.6835 -0.1311
  174SOPE   H4Y19791   2.344   6.731  10.069  1.7666  1.0459  0.3128
  174SOPE   C3519792   2.399   6.905   9.962 -0.3383  0.6593 -0.4899
  174SOPE   H5X19793   2.504   6.869   9.961 -0.8994 -1.0991  0.4018
  174SOPE   H5Y19794   2.404   7.016   9.975 -3.2542  1.0813 -2.0663
  174SOPE   C3619795   2.333   6.871   9.835  0.1544 -0.0437  0.5764
  174SOPE   H6X19796   2.228   6.908   9.835  0.2941  0.3744  0.0818
  174SOPE   H6Y19797   2.308   6.763   9.830  0.6561 -0.1682  0.7435
  174SOPE   C3719798   2.406   6.918   9.707 -0.2770 -0.7542 -0.1283
  174SOPE   H7X19799   2.511   6.881   9.708 -0.4192 -1.3326 -2.0737
  174SOPE   H7Y19800   2.407   7.029   9.701  1.6633 -0.6903  0.5958
  174SOPE   C3819801   2.333   6.882   9.580  0.4197 -0.0339  0.3992
  174SOPE   H8X19802   2.255   6.960   9.566  0.0427 -0.9215 -3.5828
  174SOPE   H8Y19803   2.267   6.793   9.590 -2.3752  1.6591 -1.3221
  174SOPE   C3919804   2.413   6.880   9.453  0.1407 -0.2173 -0.7689
  174SOPE   H9X19805   2.510   6.829   9.473  0.7999  1.2644 -0.0678
  174SOPE   H9Y19806   2.442   6.984   9.429  0.2948 -0.3921 -1.3523
  174SOPE  C31019807   2.347   6.812   9.331 -0.7187  0.1056  0.1528
  174SOPE  H10X19808   2.248   6.863   9.332 -0.6594  0.4045 -2.7766
  174SOPE  H10Y19809   2.335   6.705   9.359  0.3017 -0.6233 -2.0317
  174SOPE  C31119810   2.417   6.841   9.196  0.1734 -0.5707 -0.5010
  174SOPE  H11X19811   2.514   6.788   9.188 -0.1264 -1.0430 -1.1484
  174SOPE  H11Y19812   2.440   6.950   9.197 -0.0601 -0.4887 -1.9024
  174SOPE  C31219813   2.322   6.814   9.075  0.0362  1.0012 -0.2293
  174SOPE  H12X19814   2.230   6.869   9.104 -0.4149  0.2171 -0.1426
  174SOPE  H12Y19815   2.300   6.706   9.064  2.2391  0.3011  1.4239
  174SOPE  C31319816   2.382   6.876   8.950  0.2053  0.5717  0.0778
  174SOPE  H13X19817   2.404   6.981   8.977  1.0522  0.2769  0.5776
  174SOPE  H13Y19818   2.292   6.876   8.884 -1.6181 -0.6582  2.3995
  174SOPE  C31419819   2.501   6.814   8.890  0.3634 -0.2141 -0.5393
  174SOPE  H14X19820   2.493   6.704   8.900 -1.8118 -0.0403  0.0894
  174SOPE  H14Y19821   2.593   6.831   8.950  0.2893 -1.3206 -0.0947
  174SOPE  C31519822   2.536   6.875   8.750  0.3760  0.1445 -0.5825
  174SOPE  H15X19823   2.459   6.854   8.672 -0.7115  1.5668  0.0594
  174SOPE  H15Y19824   2.626   6.816   8.722  0.8384 -0.5106  2.0483
  174SOPE  C31619825   2.560   7.029   8.756 -0.1402  0.1895  0.6133
  174SOPE  H16X19826   2.664   7.047   8.789  0.1797  2.1484 -1.2926
  174SOPE  H16Y19827   2.501   7.084   8.832 -2.3927  2.3844 -2.4883
  174SOPE  C31719828   2.541   7.101   8.626  0.4726 -0.7490  1.0623
  174SOPE  H17X19829   2.550   7.211   8.634  1.4066 -0.6384 -1.0634
  174SOPE  H17Y19830   2.439   7.083   8.588  1.2076 -0.6151 -1.0833
  174SOPE  C31819831   2.643   7.052   8.523  0.1133 -0.0792 -0.4863
  174SOPE  H18X19832   2.745   7.051   8.565  0.4902 -2.5691 -1.3018
  174SOPE  H18Y19833   2.638   7.114   8.431 -0.7578 -4.0854 -3.4215
  174SOPE  H18Z19834   2.629   6.945   8.495  2.3155 -0.2905 -0.9731
  175SOPE     N19835   5.109   0.285  10.694 -0.0624 -0.5179  0.1076
  175SOPE   HN119836   5.122   0.238  10.602 -1.1964  2.4591 -1.7347
  175SOPE   HN219837   5.193   0.344  10.712  0.8078 -1.0055 -2.0036
  175SOPE   HN319838   5.102   0.219  10.774 -1.7145  0.9437  1.2575
  175SOPE   C1219839   4.985   0.372  10.680  0.1527  0.8310 -0.8347
  175SOPE  H12A19840   4.909   0.312  10.734  1.3826 -0.0512 -0.0435
  175SOPE  H12B19841   4.954   0.371  10.573 -2.3270  1.1427 -0.1862
  175SOPE   C1119842   5.018   0.517  10.708 -0.3043  0.5185 -0.6053
  175SOPE  H11A19843   5.036   0.534  10.816 -0.2265  0.7301 -0.6495
  175SOPE  H11B19844   4.928   0.578  10.685 -1.0302 -0.2315  0.2040
  175SOPE     P19845   5.173   0.694  10.589 -0.2882 -0.1274  0.0095
  175SOPE   O1319846   5.296   0.733  10.654  0.0289 -0.1093  0.0067
  175SOPE   O1419847   5.056   0.787  10.607  0.3184 -0.1155 -1.2449
  175SOPE   O1219848   5.139   0.554  10.641  0.1422  0.0069  0.4327
  175SOPE   O1119849   5.197   0.680  10.432  0.4152 -0.3783 -0.5505
  175SOPE    C119850   5.244   0.551  10.382  0.4187 -0.0916  0.5073
  175SOPE    HA19851   5.177   0.469  10.413  0.7148 -0.0913  1.1764
  175SOPE    HB19852   5.341   0.520  10.426  0.7793  0.3856  0.0580
  175SOPE    C219853   5.249   0.527  10.227 -0.0817 -0.1145  0.0168
  175SOPE    HS19854   5.266   0.426  10.184  1.9302  1.2732 -2.8340
  175SOPE   O2119855   5.349   0.609  10.164  0.1902 -0.3151  0.0509
  175SOPE   C2119856   5.466   0.554  10.169 -0.6193 -0.0525  0.2726
  175SOPE   O2219857   5.488   0.443  10.216  0.5364  0.3759 -0.3205
  175SOPE   C2219858   5.579   0.626  10.095 -0.0382  0.3872 -0.3154
  175SOPE   H2R19859   5.672   0.594  10.147 -0.5740 -0.1261  0.3483
  175SOPE   H2S19860   5.572   0.737  10.101 -0.5303  0.3548 -0.2165
  175SOPE    C319861   5.112   0.577  10.170  0.0918 -0.0478 -0.2211
  175SOPE    HX19862   5.095   0.684  10.196 -1.0091 -0.5120  1.0795
  175SOPE    HY19863   5.040   0.513  10.225 -0.3101 -0.9505 -1.7665
  175SOPE   O3119864   5.096   0.557  10.028  0.1963  0.0941 -0.4136
  175SOPE   C3119865   5.142   0.655   9.948 -0.0475 -0.1440 -0.6105
  175SOPE   O3219866   5.176   0.766   9.979  0.3087 -0.1504  0.0563
  175SOPE   C3219867   5.160   0.597   9.807  0.4433  0.8430 -0.6076
  175SOPE   H2X19868   5.062   0.569   9.764 -0.1109  2.4159 -0.4231
  175SOPE   H2Y19869   5.204   0.495   9.820  1.8465  1.8174  3.9055
  175SOPE   C2319870   5.581   0.592   9.942 -0.3103 -0.4989  0.4110
  175SOPE   H3R19871   5.657   0.637   9.875  2.6335 -2.0890  2.4422
  175SOPE   H3S19872   5.485   0.620   9.893 -0.9449  1.2408  2.4985
  175SOPE   C2419873   5.614   0.440   9.912  0.3073  0.5284 -0.3959
  175SOPE   H4R19874   5.724   0.428   9.922  0.2916  0.1430 -0.6287
  175SOPE   H4S19875   5.573   0.374   9.992 -0.2216  1.4954  0.1496
  175SOPE   C2519876   5.569   0.388   9.770  0.0550  0.3205  0.0554
  175SOPE   H5R19877   5.582   0.277   9.772 -0.3577  0.2524 -0.5468
  175SOPE   H5S19878   5.458   0.392   9.761  0.1570 -0.0461 -1.6363
  175SOPE   C2619879   5.646   0.444   9.656 -0.6907  0.1679  0.5606
  175SOPE   H6R19880   5.607   0.545   9.628 -2.0741 -1.1698 -2.8885
  175SOPE   H6S19881   5.754   0.445   9.683 -0.3093  1.5114 -0.8301
  175SOPE   C2719882   5.622   0.365   9.531 -0.2234 -0.1697 -0.2704
  175SOPE   H7R19883   5.691   0.410   9.456 -1.6766  0.9465 -1.0040
  175SOPE   H7S19884   5.652   0.258   9.537 -0.0604 -0.1052  0.0772
  175SOPE   C2819885   5.471   0.378   9.485  0.3510 -0.2251 -0.5499
  175SOPE   H8R19886   5.408   0.342   9.569  2.3514 -2.7794 -0.0117
  175SOPE   H8S19887   5.444   0.486   9.482 -0.5128 -0.4188 -0.2274
  175SOPE   C2919888   5.434   0.318   9.345 -0.2273  1.0158 -0.5632
  175SOPE   H9119889   5.395   0.216   9.353  0.4050  0.8746  1.2345
  175SOPE  C21019890   5.431   0.375   9.226 -0.1897 -0.0307  0.3265
  175SOPE  H10119891   5.411   0.307   9.142  1.5144 -0.1043 -0.0563
  175SOPE  C21119892   5.478   0.514   9.193  0.1783 -0.4078  0.7660
  175SOPE  H11R19893   5.512   0.517   9.088 -1.8749 -1.6645  0.0139
  175SOPE  H11S19894   5.566   0.558   9.246  0.5171  0.8119 -0.7513
  175SOPE  C21219895   5.369   0.619   9.198  0.9337  0.5135 -0.6941
  175SOPE  H12R19896   5.404   0.705   9.136  0.8577 -0.6352 -2.4196
  175SOPE  H12S19897   5.362   0.661   9.300  1.3750 -0.6641 -0.1610
  175SOPE  C21319898   5.233   0.583   9.142 -0.2615 -0.2600 -0.2593
  175SOPE  H13R19899   5.154   0.662   9.152 -0.8191 -0.9324  0.9674
  175SOPE  H13S19900   5.192   0.494   9.195 -1.4733 -0.2944 -1.1943
  175SOPE  C21419901   5.237   0.555   8.995 -0.5984  0.1529 -0.3545
  175SOPE  H14R19902   5.303   0.467   8.979 -0.4143  0.4821 -1.5502
  175SOPE  H14S19903   5.283   0.639   8.938 -0.9118 -0.6355 -1.8303
  175SOPE  C21519904   5.102   0.505   8.929  1.3252 -0.3821 -0.9696
  175SOPE  H15R19905   5.058   0.422   8.989  1.0896  0.4969  0.0923
  175SOPE  H15S19906   5.128   0.468   8.828  1.4869 -0.8370 -0.7642
  175SOPE  C21619907   4.990   0.613   8.922 -0.0723  0.0268 -0.4586
  175SOPE  H16R19908   5.036   0.684   8.851 -0.0218 -1.5293 -2.0389
  175SOPE  H16S19909   4.974   0.675   9.014  0.6972 -0.2164 -0.1554
  175SOPE  C21719910   4.858   0.561   8.872  0.1699 -0.1328 -0.4688
  175SOPE  H17R19911   4.782   0.642   8.887  0.5912  0.8292 -2.9568
  175SOPE  H17S19912   4.824   0.469   8.924 -1.4131  1.0722  0.7562
  175SOPE  C21819913   4.860   0.533   8.723  0.0288  0.4345  0.0514
  175SOPE  H18R19914   4.757   0.515   8.686 -0.5584  1.2175  1.2467
  175SOPE  H18S19915   4.922   0.442   8.705  1.3601  1.4097 -0.4227
  175SOPE  H18T19916   4.899   0.622   8.668  2.1543  0.4962  1.5373
  175SOPE   C3319917   5.244   0.686   9.704 -0.6155  0.4797 -0.7485
  175SOPE   H3X19918   5.339   0.630   9.688 -0.7620  0.5106 -1.7964
  175SOPE   H3Y19919   5.270   0.786   9.746 -1.7883  0.0454  1.1403
  175SOPE   C3419920   5.181   0.714   9.570  0.3180 -0.4201  0.1267
  175SOPE   H4X19921   5.160   0.627   9.504 -0.7142  1.3213 -1.9719
  175SOPE   H4Y19922   5.249   0.773   9.505  2.5431 -2.8323  0.1005
  175SOPE   C3519923   5.058   0.803   9.587  0.1954  0.5065 -0.3673
  175SOPE   H5X19924   5.083   0.892   9.647  0.1748 -0.2347  0.7824
  175SOPE   H5Y19925   4.984   0.752   9.653  0.5759 -0.7131 -0.8510
  175SOPE   C3619926   4.978   0.827   9.456 -0.5969  0.4661 -0.5447
  175SOPE   H6X19927   4.899   0.899   9.485 -1.6382 -0.6434 -0.5605
  175SOPE   H6Y19928   4.921   0.736   9.426  2.8006 -1.6713 -1.0559
  175SOPE   C3719929   5.064   0.873   9.340 -0.6134 -0.4577  0.3292
  175SOPE   H7X19930   5.142   0.796   9.324 -3.0486 -3.6200  2.4937
  175SOPE   H7Y19931   5.122   0.963   9.370 -1.1520 -0.0966  0.2890
  175SOPE   C3819932   4.976   0.907   9.221 -0.0983  0.9745  0.3118
  175SOPE   H8X19933   4.898   0.981   9.249 -0.1012  0.0388  3.0638
  175SOPE   H8Y19934   4.931   0.810   9.192  1.2305  1.1307 -2.6174
  175SOPE   C3919935   5.050   0.967   9.098  0.0137 -0.1760  0.5618
  175SOPE   H9X19936   5.128   0.900   9.056 -0.2319  0.9759 -1.9638
  175SOPE   H9Y19937   5.107   1.058   9.126 -0.3497 -0.0399  0.8686
  175SOPE  C31019938   4.955   0.998   8.970  0.4086 -0.1784 -0.1884
  175SOPE  H10X19939   4.875   1.066   9.005  0.6280  0.8863 -1.6419
  175SOPE  H10Y19940   4.921   0.897   8.938  1.6534 -0.0949 -1.9422
  175SOPE  C31119941   5.029   1.055   8.844  0.7470 -0.4362  0.0474
  175SOPE  H11X19942   5.099   0.973   8.812 -1.9708 -2.7704 -0.3024
  175SOPE  H11Y19943   5.084   1.146   8.876  0.3484  0.6674 -2.2239
  175SOPE  C31219944   4.936   1.090   8.725 -0.1601 -0.3848  0.7293
  175SOPE  H12X19945   5.000   1.155   8.660  0.8619 -0.4852  1.6037
  175SOPE  H12Y19946   4.848   1.155   8.741 -1.8757 -2.0533 -1.2569
  175SOPE  C31319947   4.870   0.968   8.655  0.5886 -0.1091  0.6070
  175SOPE  H13X19948   4.794   0.925   8.723  1.4480 -1.3658  0.8115
  175SOPE  H13Y19949   4.951   0.896   8.629  3.2573  2.8672  0.0307
  175SOPE  C31419950   4.801   1.006   8.526  0.2899  0.1516  0.6250
  175SOPE  H14X19951   4.884   1.049   8.467  0.2667 -0.9004 -0.2256
  175SOPE  H14Y19952   4.727   1.088   8.538  0.5158  0.5147 -0.3323
  175SOPE  C31519953   4.744   0.882   8.446 -0.5001 -0.0537  0.1425
  175SOPE  H15X19954   4.656   0.849   8.506 -2.2619 -0.0523 -2.2699
  175SOPE  H15Y19955   4.817   0.799   8.442 -1.5266 -0.9253 -1.6738
  175SOPE  C31619956   4.689   0.904   8.303 -0.5367 -0.3507  0.0071
  175SOPE  H16X19957   4.783   0.920   8.245  0.8947 -2.1408  1.7148
  175SOPE  H16Y19958   4.628   0.997   8.304 -1.4147 -0.8123 -2.5900
  175SOPE  C31719959   4.613   0.789   8.245 -0.0287  0.1351  0.3881
  175SOPE  H17X19960   4.691   0.710   8.253  1.8355  2.0853  3.1478
  175SOPE  H17Y19961   4.579   0.801   8.139 -0.7790 -1.2180  0.4435
  175SOPE  C31819962   4.486   0.746   8.316 -0.6662  0.8365  0.0737
  175SOPE  H18X19963   4.501   0.674   8.400  1.2110 -1.1939 -1.8686
  175SOPE  H18Y19964   4.415   0.687   8.253 -1.7694 -0.3367  2.2612
  175SOPE  H18Z19965   4.431   0.839   8.341 -0.2257  0.7760  1.3244
  176SOPE     N19966   4.299   0.428  11.032  0.0474 -0.1399 -0.3230
  176SOPE   HN119967   4.323   0.495  11.108  0.6823 -1.0980  0.3528
  176SOPE   HN219968   4.346   0.337  11.052  1.0725  0.2307 -0.9759
  176SOPE   HN319969   4.334   0.461  10.940 -0.4914 -0.2886 -0.5812
  176SOPE   C1219970   4.148   0.415  11.029 -0.1495 -0.3994  0.5968
  176SOPE  H12A19971   4.111   0.519  11.048  0.8327  0.9392 -3.8016
  176SOPE  H12B19972   4.115   0.345  11.109 -3.1950  1.2740  0.9517
  176SOPE   C1119973   4.096   0.379  10.889  0.4355  0.4418  0.6798
  176SOPE  H11A19974   4.154   0.425  10.806  1.6213  1.8470  2.2101
  176SOPE  H11B19975   3.993   0.409  10.863 -0.3524 -3.6261 -1.7736
  176SOPE     P19976   4.188   0.133  10.813  0.0708  0.3217  0.1318
  176SOPE   O1319977   4.120   0.005  10.821  0.6830  0.0805 -0.2361
  176SOPE   O1419978   4.324   0.140  10.869  0.1374  0.2399 -0.1937
  176SOPE   O1219979   4.097   0.238  10.882 -0.1663 -0.2070 -0.2458
  176SOPE   O1119980   4.183   0.195  10.665  0.2456 -0.2551 -0.5131
  176SOPE    C119981   4.086   0.162  10.566 -0.1323 -0.2220 -0.9936
  176SOPE    HA19982   4.065   0.257  10.512 -1.5736  1.2308  1.8898
  176SOPE    HB19983   3.988   0.145  10.617  0.7486 -2.0392  0.2028
  176SOPE    C219984   4.140   0.060  10.470 -0.8239 -0.3964  0.3597
  176SOPE    HS19985   4.175  -0.031  10.524 -3.0354 -1.0367  0.8035
  176SOPE   O2119986   4.257   0.123  10.413  0.4243 -0.6142 -0.3518
  176SOPE   C2119987   4.342   0.035  10.364  0.7361  0.2130  0.5843
  176SOPE   O2219988   4.322  -0.085  10.375  0.3638 -0.1161 -0.1116
  176SOPE   C2219989   4.452   0.099  10.283 -0.4020 -0.3886 -0.4722
  176SOPE   H2R19990   4.543   0.047  10.322 -0.1172  0.8243  0.5203
  176SOPE   H2S19991   4.457   0.207  10.307  0.0501  0.0815 -2.5118
  176SOPE    C319992   4.038   0.020  10.361  0.1084  0.7103 -0.0888
  176SOPE    HX19993   3.949  -0.016  10.416  0.2238  0.3378 -0.1413
  176SOPE    HY19994   4.072  -0.072  10.308  2.0172  0.9524  0.6194
  176SOPE   O3119995   4.013   0.114  10.252  0.0374 -0.5968  0.2639
  176SOPE   C3119996   3.933   0.212  10.277  0.4341  0.3867  0.2633
  176SOPE   O3219997   3.871   0.229  10.383  0.0228 -0.3012  0.0761
  176SOPE   C3219998   3.939   0.312  10.161 -0.5858  0.1662  0.0066
  176SOPE   H2X19999   3.921   0.258  10.066  1.1428  0.2663 -0.4081
  176SOPE   H2Y20000   4.043   0.352  10.154 -0.1961 -0.8825 -0.2877
  176SOPE   C2320001   4.451   0.077  10.128  0.8022  0.2950  0.0790
  176SOPE   H3R20002   4.455  -0.034  10.118  2.0105  0.3695 -0.4262
  176SOPE   H3S20003   4.544   0.123  10.089  0.1881  2.1692  0.7310
  176SOPE   C2420004   4.332   0.149  10.056 -0.6305 -0.6104  0.6318
  176SOPE   H4R20005   4.239   0.098  10.088  0.1503 -2.6780 -0.2151
  176SOPE   H4S20006   4.338   0.254  10.092  1.1879  0.4335 -2.2565
  176SOPE   C2520007   4.359   0.151   9.903 -0.4082 -0.3220  0.1748
  176SOPE   H5R20008   4.455   0.204   9.885 -0.8736  0.4101 -0.1872
  176SOPE   H5S20009   4.372   0.054   9.849  0.0179  1.1494 -2.5470
  176SOPE   C2620010   4.257   0.229   9.829 -0.1134  0.0454  0.4253
  176SOPE   H6R20011   4.158   0.181   9.844  0.3369 -0.6579  1.2140
  176SOPE   H6S20012   4.260   0.332   9.869  2.2564 -0.8174  2.7576
  176SOPE   C2720013   4.281   0.239   9.679 -0.4530  0.5571  0.0377
  176SOPE   H7R20014   4.362   0.312   9.658  0.8382 -0.5651  0.9738
  176SOPE   H7S20015   4.329   0.147   9.640  1.7328  0.5232  2.5369
  176SOPE   C2820016   4.153   0.257   9.597  0.3074 -0.2075  0.7390
  176SOPE   H8R20017   4.170   0.229   9.491  4.2537 -0.1424  1.2257
  176SOPE   H8S20018   4.077   0.191   9.644 -0.2980  1.0902  1.6568
  176SOPE   C2920019   4.115   0.406   9.610 -0.0024 -0.5665 -0.1275
  176SOPE   H9120020   4.104   0.421   9.718 -1.2439  1.7835 -0.5102
  176SOPE  C21020021   4.109   0.502   9.509 -0.0538 -0.2003  0.6963
  176SOPE  H10120022   4.092   0.607   9.533  1.4378  0.3000 -0.2572
  176SOPE  C21120023   4.138   0.480   9.362  0.1396 -0.0637 -0.3515
  176SOPE  H11R20024   4.197   0.387   9.343  0.2807 -0.0260 -0.1029
  176SOPE  H11S20025   4.209   0.560   9.330  0.6433  0.2160  1.3703
  176SOPE  C21220026   4.000   0.468   9.283  0.1735  0.5625 -0.2349
  176SOPE  H12R20027   3.941   0.559   9.305  1.4022  1.4647 -0.5956
  176SOPE  H12S20028   3.955   0.376   9.326 -1.2123 -0.0652 -2.8330
  176SOPE  C21320029   4.021   0.441   9.136 -1.0186  0.0490  0.4213
  176SOPE  H13R20030   4.059   0.338   9.117 -4.2624 -1.7794  2.8124
  176SOPE  H13S20031   4.078   0.523   9.088  2.5982 -1.6965  1.3924
  176SOPE  C21420032   3.896   0.447   9.044  0.2289 -0.6268  0.1075
  176SOPE  H14R20033   3.845   0.543   9.068  0.6017 -0.5435  0.5723
  176SOPE  H14S20034   3.821   0.373   9.078  0.7244 -1.7087 -1.0908
  176SOPE  C21520035   3.918   0.448   8.886 -0.3179 -1.2400 -0.3023
  176SOPE  H15R20036   3.976   0.357   8.860  0.5022 -1.2746  1.5026
  176SOPE  H15S20037   3.987   0.534   8.874  0.9200 -1.9772  1.0996
  176SOPE  C21620038   3.786   0.440   8.802 -0.3280 -0.5273  0.6712
  176SOPE  H16R20039   3.734   0.538   8.807 -0.0399 -0.3412  0.0190
  176SOPE  H16S20040   3.725   0.373   8.867  0.5262 -0.0639  1.9977
  176SOPE  C21720041   3.806   0.395   8.655  0.1015 -0.2500  1.0455
  176SOPE  H17R20042   3.865   0.305   8.628 -1.7835 -0.9290 -1.0583
  176SOPE  H17S20043   3.853   0.480   8.600 -0.7097 -0.3382  0.1890
  176SOPE  C21820044   3.669   0.391   8.574 -0.4868  0.4865 -0.4095
  176SOPE  H18R20045   3.615   0.488   8.579  1.6052  1.7677 -1.2150
  176SOPE  H18S20046   3.610   0.301   8.603  0.8240 -1.0699 -2.2750
  176SOPE  H18T20047   3.698   0.371   8.469  3.6025  0.8841  0.4473
  176SOPE   C3320048   3.835   0.427  10.176  0.3862  0.0706 -0.1608
  176SOPE   H3X20049   3.860   0.487  10.266 -2.2282 -0.4807  1.0556
  176SOPE   H3Y20050   3.733   0.386  10.192  0.2091  0.2914 -0.6949
  176SOPE   C3420051   3.830   0.528  10.066 -0.0126 -0.1757 -0.3726
  176SOPE   H4X20052   3.928   0.573  10.041 -0.8192  0.9216 -1.7182
  176SOPE   H4Y20053   3.760   0.611  10.092  0.1001 -0.2932  0.3480
  176SOPE   C3520054   3.784   0.479   9.930 -0.6589  0.2115  0.3996
  176SOPE   H5X20055   3.674   0.463   9.924 -0.7971 -0.4496  3.1616
  176SOPE   H5Y20056   3.842   0.385   9.917  0.7283  0.4140  3.9191
  176SOPE   C3620057   3.817   0.571   9.814  0.0043  0.0703  0.2322
  176SOPE   H6X20058   3.924   0.566   9.784  0.2288 -0.9597  1.1256
  176SOPE   H6Y20059   3.800   0.673   9.854 -0.7018 -0.1212  0.4344
  176SOPE   C3720060   3.724   0.556   9.693  0.1754  0.3082 -0.1540
  176SOPE   H7X20061   3.618   0.545   9.723  0.6395 -0.9519  1.1437
  176SOPE   H7Y20062   3.745   0.459   9.642  1.4643  0.4162  0.1467
  176SOPE   C3820063   3.742   0.670   9.593 -0.1917 -0.1239 -0.4858
  176SOPE   H8X20064   3.850   0.691   9.579 -0.0401 -0.0787  0.6789
  176SOPE   H8Y20065   3.701   0.758   9.647 -2.5126 -1.6376  0.3311
  176SOPE   C3920066   3.661   0.663   9.463  0.2431  0.2381 -0.0349
  176SOPE   H9X20067   3.701   0.739   9.392 -0.8269  0.5284 -0.3527
  176SOPE   H9Y20068   3.553   0.686   9.473 -0.4332 -1.3385 -2.7459
  176SOPE  C31020069   3.654   0.529   9.387  0.3995 -0.6234 -0.0573
  176SOPE  H10X20070   3.589   0.467   9.453 -2.3556  2.4899  0.4468
  176SOPE  H10Y20071   3.758   0.491   9.383  0.4956 -0.2584 -3.4737
  176SOPE  C31120072   3.611   0.544   9.243  0.2913  0.7892 -0.1315
  176SOPE  H11X20073   3.614   0.445   9.192 -1.2009  0.2155  0.8331
  176SOPE  H11Y20074   3.682   0.609   9.187 -0.3148  1.0110 -0.6594
  176SOPE  C31220075   3.468   0.593   9.230 -0.3778  0.4349 -0.6021
  176SOPE  H12X20076   3.471   0.704   9.238  4.2896  0.6365 -1.9544
  176SOPE  H12Y20077   3.415   0.551   9.318  1.2501  0.4555  0.4192
  176SOPE  C31320078   3.390   0.545   9.105  0.3610 -0.4343 -0.8565
  176SOPE  H13X20079   3.285   0.583   9.102 -0.7155 -3.1117 -0.2163
  176SOPE  H13Y20080   3.372   0.435   9.110  0.3024 -0.3897  0.6554
  176SOPE  C31420081   3.458   0.567   8.975 -0.3621 -0.1808  0.7274
  176SOPE  H14X20082   3.553   0.511   8.973  1.4440  2.6972 -0.8621
  176SOPE  H14Y20083   3.472   0.676   8.957 -5.0450  0.6555  0.9096
  176SOPE  C31520084   3.371   0.528   8.856 -0.8098  0.6739  0.2894
  176SOPE  H15X20085   3.411   0.581   8.768  2.5059 -0.4143  0.9918
  176SOPE  H15Y20086   3.262   0.549   8.860 -0.9600 -0.1543  2.9107
  176SOPE  C31620087   3.394   0.374   8.829  0.0424 -0.0237  0.0602
  176SOPE  H16X20088   3.394   0.326   8.929 -0.4584  0.5716  0.3509
  176SOPE  H16Y20089   3.493   0.348   8.785  0.8974  0.0364  1.8803
  176SOPE  C31720090   3.284   0.316   8.740  0.1590  0.9086 -0.0536
  176SOPE  H17X20091   3.278   0.366   8.641  1.0350 -0.5207 -0.8686
  176SOPE  H17Y20092   3.188   0.329   8.793 -0.1582 -1.0355 -0.1016
  176SOPE  C31820093   3.290   0.169   8.702 -1.1674 -0.2979  0.0913
  176SOPE  H18X20094   3.193   0.120   8.682 -1.7596  0.5150  0.8661
  176SOPE  H18Y20095   3.343   0.099   8.771 -1.0772  0.1757  0.5071
  176SOPE  H18Z20096   3.341   0.166   8.604 -0.7656  4.1274 -0.0228
  177SOPE     N20097   5.023   5.462  10.860  0.6771 -0.1280  0.1004
  177SOPE   HN120098   5.051   5.401  10.940 -1.5419 -0.0927  0.9752
  177SOPE   HN220099   5.002   5.394  10.784  0.8332 -0.2376  0.1545
  177SOPE   HN320100   5.107   5.521  10.843  1.7638 -0.8577  2.4821
  177SOPE   C1220101   4.904   5.528  10.926  0.1208  0.1952 -0.2679
  177SOPE  H12A20102   4.860   5.596  10.850 -0.6500 -0.3602 -0.3262
  177SOPE  H12B20103   4.939   5.592  11.010  3.1658 -1.5222 -0.0604
  177SOPE   C1120104   4.802   5.417  10.970  0.3249  0.0828 -0.1721
  177SOPE  H11A20105   4.713   5.468  11.012  0.4765  1.3488 -1.3371
  177SOPE  H11B20106   4.856   5.375  11.058  0.1508 -1.3199 -0.6997
  177SOPE     P20107   4.667   5.211  10.907  0.1404 -0.4366  0.5561
  177SOPE   O1320108   4.676   5.186  11.055  0.4197 -0.4596  0.4698
  177SOPE   O1420109   4.686   5.097  10.814  0.0555  0.0894  0.2882
  177SOPE   O1220110   4.776   5.316  10.868  0.2618 -0.4357 -0.2488
  177SOPE   O1120111   4.523   5.279  10.868  0.1371 -0.5702 -0.1437
  177SOPE    C120112   4.518   5.375  10.759  0.0033  0.4078 -0.1298
  177SOPE    HA20113   4.592   5.356  10.679 -0.2858  2.2405 -0.8885
  177SOPE    HB20114   4.554   5.472  10.800 -0.6501  0.1502  1.1220
  177SOPE    C220115   4.384   5.404  10.694 -0.1826 -0.0230 -0.0843
  177SOPE    HS20116   4.323   5.446  10.777  1.4262  0.7717  0.7227
  177SOPE   O2120117   4.318   5.282  10.652 -0.0227  0.0490  0.0696
  177SOPE   C2120118   4.193   5.302  10.606 -0.3743  0.2177 -0.0421
  177SOPE   O2220119   4.130   5.404  10.619 -0.6622  0.0195 -0.7061
  177SOPE   C2220120   4.135   5.171  10.533 -0.6885 -0.1952 -0.2363
  177SOPE   H2R20121   4.129   5.097  10.616 -1.0565 -0.3049 -0.3597
  177SOPE   H2S20122   4.202   5.129  10.456  1.0183 -0.3506  1.2788
  177SOPE    C320123   4.409   5.501  10.572  0.2687  0.2461 -0.2547
  177SOPE    HX20124   4.489   5.574  10.599  2.0486 -1.7663  0.2556
  177SOPE    HY20125   4.317   5.555  10.542 -1.5221 -2.0831  0.7086
  177SOPE   O3120126   4.460   5.419  10.463  0.2798  0.0489  0.1524
  177SOPE   C3120127   4.478   5.487  10.349  0.3162  0.0646  0.2780
  177SOPE   O3220128   4.451   5.603  10.330  0.0677 -0.8908 -0.2662
  177SOPE   C3220129   4.533   5.395  10.230 -0.3084 -0.6309 -0.0328
  177SOPE   H2X20130   4.643   5.393  10.249 -0.4419  0.7023  1.0443
  177SOPE   H2Y20131   4.517   5.456  10.138 -1.0313 -2.2450 -1.0257
  177SOPE   C2320132   4.002   5.193  10.468 -0.5568 -0.2686 -0.2967
  177SOPE   H3R20133   4.011   5.248  10.371  0.4264  3.2628  1.6158
  177SOPE   H3S20134   3.935   5.250  10.535  0.1094  1.1987 -0.8240
  177SOPE   C2420135   3.931   5.054  10.454 -0.4493 -0.2042 -0.3176
  177SOPE   H4R20136   3.998   4.989  10.395  1.2499 -1.3957  2.6948
  177SOPE   H4S20137   3.924   5.012  10.557  2.3577  1.0523  0.5065
  177SOPE   C2520138   3.791   5.063  10.385  0.4014  0.2338  0.7896
  177SOPE   H5R20139   3.758   4.958  10.381  1.0266  0.0531 -0.0406
  177SOPE   H5S20140   3.721   5.113  10.455  1.9526  1.3854  1.6094
  177SOPE   C2620141   3.783   5.122  10.241  0.3316  0.0589  0.0488
  177SOPE   H6R20142   3.674   5.118  10.219 -0.7546 -2.6460  4.5652
  177SOPE   H6S20143   3.818   5.227  10.251 -2.6683  1.1707  0.1041
  177SOPE   C2720144   3.866   5.040  10.140  0.2826  0.7740 -0.8223
  177SOPE   H7R20145   3.971   5.076  10.141  1.2292 -1.7389 -1.0900
  177SOPE   H7S20146   3.868   4.934  10.174 -2.2406  0.4198 -1.6139
  177SOPE   C2820147   3.821   5.042   9.993  0.3533  0.4255  0.5578
  177SOPE   H8R20148   3.711   5.023   9.996  0.3986 -0.1426 -0.8010
  177SOPE   H8S20149   3.846   5.132   9.933  2.3596 -2.1783 -2.8474
  177SOPE   C2920150   3.884   4.922   9.926 -0.2949 -0.3592 -1.0795
  177SOPE   H9120151   3.878   4.833   9.990 -0.4385  0.1709 -0.3488
  177SOPE  C21020152   3.944   4.911   9.807  0.6442  0.0125  0.2192
  177SOPE  H10120153   3.988   4.815   9.775  0.1711 -0.2603  0.3686
  177SOPE  C21120154   3.964   5.021   9.712  0.2574  0.0793  0.2397
  177SOPE  H11R20155   4.068   5.019   9.673 -1.1327  0.2460 -4.1362
  177SOPE  H11S20156   3.927   5.119   9.749  1.9121  1.6339 -1.9151
  177SOPE  C21220157   3.861   5.014   9.593 -0.1276  0.6234 -1.0622
  177SOPE  H12R20158   3.761   5.033   9.637  1.0951  3.9400  0.6110
  177SOPE  H12S20159   3.884   4.912   9.556  1.6407  0.0471  1.3301
  177SOPE  C21320160   3.889   5.115   9.479 -0.0814  0.2765  0.1585
  177SOPE  H13R20161   3.998   5.120   9.460  0.0544  0.6337  0.9706
  177SOPE  H13S20162   3.850   5.214   9.508 -2.6595  0.0092 -2.0449
  177SOPE  C21420163   3.801   5.075   9.362  0.0613  0.1887 -0.7213
  177SOPE  H14R20164   3.693   5.072   9.389  0.2631  1.8405  0.4459
  177SOPE  H14S20165   3.832   4.977   9.320 -0.2090 -0.3234  0.2215
  177SOPE  C21520166   3.819   5.177   9.251 -0.4155  0.1691  0.5073
  177SOPE  H15R20167   3.926   5.207   9.246 -0.8227  1.7557  0.8137
  177SOPE  H15S20168   3.749   5.259   9.276 -1.6108 -0.4611 -0.6311
  177SOPE  C21620169   3.792   5.125   9.103  0.3722 -0.6443 -0.5128
  177SOPE  H16R20170   3.806   5.214   9.038  0.9550  1.0065  1.7609
  177SOPE  H16S20171   3.687   5.090   9.113 -0.2806  1.5283  0.7703
  177SOPE  C21720172   3.878   5.011   9.055 -0.0999 -1.3720 -0.1884
  177SOPE  H17R20173   3.833   4.975   8.960 -0.8397  1.2054 -0.9038
  177SOPE  H17S20174   3.862   4.926   9.125  1.9912  0.3378  2.6199
  177SOPE  C21820175   4.028   5.042   9.034 -0.0701  0.4005  0.1264
  177SOPE  H18R20176   4.048   5.092   8.937 -0.5363  2.1517  0.8827
  177SOPE  H18S20177   4.100   4.958   9.035  0.1101  0.5536  1.2275
  177SOPE  H18T20178   4.075   5.104   9.114  2.5364  1.0550 -1.7774
  177SOPE   C3320179   4.471   5.250  10.220  0.5153 -0.1836  1.1142
  177SOPE   H3X20180   4.454   5.209  10.322  1.3095 -0.2679  1.2180
  177SOPE   H3Y20181   4.540   5.173  10.180  0.1603  0.0721 -0.0345
  177SOPE   C3420182   4.339   5.229  10.134 -0.3611 -0.1711  0.1102
  177SOPE   H4X20183   4.255   5.253  10.203 -1.5401 -3.1401 -0.1755
  177SOPE   H4Y20184   4.334   5.120  10.115 -0.5679 -0.1948  0.2959
  177SOPE   C3520185   4.316   5.310  10.006 -0.3878 -0.0790  0.0701
  177SOPE   H5X20186   4.415   5.296   9.957 -0.4069 -1.7980  0.4548
  177SOPE   H5Y20187   4.303   5.419  10.021  0.9241 -0.0144  0.9089
  177SOPE   C3620188   4.195   5.249   9.926 -0.8655 -0.2271 -0.1506
  177SOPE   H6X20189   4.106   5.253   9.992 -0.2905 -0.3200  0.6495
  177SOPE   H6Y20190   4.209   5.140   9.909 -1.1317 -0.1586 -0.8454
  177SOPE   C3720191   4.167   5.304   9.784 -0.1465 -0.0188 -0.3496
  177SOPE   H7X20192   4.168   5.415   9.797  0.9004 -0.0602  0.0019
  177SOPE   H7Y20193   4.059   5.292   9.760  0.0516  0.7990 -1.7155
  177SOPE   C3820194   4.274   5.278   9.674 -0.3129 -0.5167 -0.2727
  177SOPE   H8X20195   4.273   5.171   9.643 -0.7226 -0.5024 -0.3160
  177SOPE   H8Y20196   4.375   5.293   9.718 -0.4192 -0.7303  0.0535
  177SOPE   C3920197   4.246   5.364   9.549 -1.2591  0.0459  0.2624
  177SOPE   H9X20198   4.252   5.469   9.585 -0.0264  0.0396  0.1031
  177SOPE   H9Y20199   4.143   5.353   9.508 -0.7806 -0.1542 -0.9081
  177SOPE  C31020200   4.332   5.331   9.431  0.2155  0.0467 -0.1142
  177SOPE  H10X20201   4.426   5.284   9.466 -0.1579 -1.3821 -0.9749
  177SOPE  H10Y20202   4.366   5.420   9.374  0.1242 -0.3912 -0.8733
  177SOPE  C31120203   4.266   5.238   9.329 -0.5005  0.0419  0.0938
  177SOPE  H11X20204   4.162   5.278   9.321 -0.5811 -0.1061  0.3919
  177SOPE  H11Y20205   4.263   5.139   9.380 -0.6406  0.0561  0.1142
  177SOPE  C31220206   4.335   5.229   9.198 -0.5787  0.2272  0.9219
  177SOPE  H12X20207   4.307   5.143   9.133  1.2941 -0.1333  0.5221
  177SOPE  H12Y20208   4.445   5.218   9.206 -0.5071  0.2595  0.0208
  177SOPE  C31320209   4.297   5.353   9.113 -0.6539 -0.1082  0.5537
  177SOPE  H13X20210   4.291   5.439   9.183  0.6496 -1.1365  1.9824
  177SOPE  H13Y20211   4.194   5.327   9.082 -0.5952 -0.2245  0.4534
  177SOPE  C31420212   4.389   5.387   8.993 -0.0179 -0.7580  0.1389
  177SOPE  H14X20213   4.491   5.379   9.035 -0.4298  1.2810  1.7233
  177SOPE  H14Y20214   4.373   5.491   8.956  1.9528 -0.7587 -0.8118
  177SOPE  C31520215   4.371   5.289   8.876 -0.3742 -0.7435 -0.0515
  177SOPE  H15X20216   4.266   5.291   8.838 -0.1927 -1.0919 -0.5841
  177SOPE  H15Y20217   4.399   5.194   8.926  0.8878  1.1973  3.2384
  177SOPE  C31620218   4.461   5.325   8.752 -0.0508 -0.2774  0.3262
  177SOPE  H16X20219   4.572   5.316   8.760  0.0407  0.8166  0.4160
  177SOPE  H16Y20220   4.444   5.432   8.729 -0.6072 -0.5396 -0.4977
  177SOPE  C31720221   4.412   5.237   8.631 -0.3167  0.2634  0.0655
  177SOPE  H17X20222   4.471   5.266   8.541 -0.4260  0.6213  0.1075
  177SOPE  H17Y20223   4.306   5.261   8.605 -1.7782 -0.2629  4.7512
  177SOPE  C31820224   4.442   5.087   8.659  0.3170 -0.3298 -0.3823
  177SOPE  H18X20225   4.551   5.084   8.681  0.9130  0.4120 -2.8670
  177SOPE  H18Y20226   4.415   5.019   8.575 -2.4818 -0.1861  0.3303
  177SOPE  H18Z20227   4.389   5.053   8.750  0.5098 -0.9821 -0.5095
  178SOPE     N20228   3.286   2.841  10.518  0.5454 -0.6138 -0.1402
  178SOPE   HN120229   3.210   2.845  10.589  1.7332 -0.9200  1.1746
  178SOPE   HN220230   3.361   2.870  10.583 -2.9106  3.2878  2.6655
  178SOPE   HN320231   3.284   2.910  10.439  2.2246 -2.8768 -2.3209
  178SOPE   C1220232   3.304   2.706  10.456 -0.4504  0.1106 -0.1151
  178SOPE  H12A20233   3.384   2.653  10.513 -1.4178 -0.7387  0.4883
  178SOPE  H12B20234   3.341   2.734  10.355 -2.5339 -0.2137 -1.0188
  178SOPE   C1120235   3.178   2.614  10.454  1.0499  0.9008  0.2936
  178SOPE  H11A20236   3.198   2.512  10.415  0.5275  0.1068  2.0239
  178SOPE  H11B20237   3.103   2.664  10.390 -1.3589 -3.0431 -0.2919
  178SOPE     P20238   3.170   2.486  10.690 -0.3035  0.2480 -0.1016
  178SOPE   O1320239   3.103   2.514  10.819 -0.1513  0.5467  0.0080
  178SOPE   O1420240   3.317   2.469  10.689  0.1932  0.7241 -0.2129
  178SOPE   O1220241   3.129   2.600  10.589  0.7953 -0.0361  0.6462
  178SOPE   O1120242   3.100   2.361  10.622  0.3321 -0.1036 -0.9550
  178SOPE    C120243   2.959   2.337  10.615 -0.4607 -0.1973 -0.2424
  178SOPE    HA20244   2.903   2.427  10.649  1.9810  2.2892 -2.2960
  178SOPE    HB20245   2.921   2.247  10.668 -0.3060 -0.2315 -0.1895
  178SOPE    C220246   2.912   2.314  10.474 -0.0787  0.6678  0.4196
  178SOPE    HS20247   2.916   2.404  10.409 -0.3780  0.9185  0.7451
  178SOPE   O2120248   2.785   2.247  10.484  0.3505  0.1525 -0.3557
  178SOPE   C2120249   2.696   2.287  10.392 -0.2054  0.6004  0.6713
  178SOPE   O2220250   2.715   2.370  10.307 -1.1096 -0.2387 -0.3156
  178SOPE   C2220251   2.570   2.200  10.397 -0.2616 -0.8564 -0.2809
  178SOPE   H2R20252   2.484   2.270  10.403 -0.8842 -1.7040  1.7176
  178SOPE   H2S20253   2.565   2.137  10.489 -0.4619 -2.0866 -1.1192
  178SOPE    C320254   3.002   2.211  10.403  0.1169 -0.2370  0.1580
  178SOPE    HX20255   3.001   2.120  10.468  0.1934 -0.4416 -0.1240
  178SOPE    HY20256   3.108   2.245  10.405  0.3465 -0.6738 -1.9122
  178SOPE   O3120257   2.970   2.182  10.264 -0.1182  0.7043 -0.4268
  178SOPE   C3120258   2.981   2.283  10.181 -0.3172  1.0077  0.3967
  178SOPE   O3220259   3.023   2.397  10.212  0.4654 -0.4630 -0.2223
  178SOPE   C3220260   2.922   2.249  10.042 -1.0300  0.4584 -0.5220
  178SOPE   H2X20261   2.813   2.246  10.064 -0.6932  0.2941  1.2767
  178SOPE   H2Y20262   2.965   2.154  10.003 -0.1988 -0.0262  1.4424
  178SOPE   C2320263   2.558   2.110  10.270 -1.1639  0.5904 -0.0027
  178SOPE   H3R20264   2.484   2.030  10.292 -1.5391  1.3853  1.8135
  178SOPE   H3S20265   2.654   2.060  10.247 -1.2344 -0.4091  1.7162
  178SOPE   C2420266   2.512   2.170  10.140 -0.3078  0.2697 -0.8399
  178SOPE   H4R20267   2.406   2.202  10.152 -0.3677 -0.0167 -0.5939
  178SOPE   H4S20268   2.585   2.252  10.120  0.7616  0.1535  2.1042
  178SOPE   C2520269   2.527   2.070  10.028 -0.0388 -1.0972  0.3626
  178SOPE   H5R20270   2.622   2.014  10.026  0.9314  0.4927  0.5296
  178SOPE   H5S20271   2.450   1.992  10.044 -0.5017 -0.8267 -0.4657
  178SOPE   C2620272   2.503   2.134   9.889 -0.0765  1.6071 -0.7221
  178SOPE   H6R20273   2.519   2.050   9.819  1.4727  0.6135  0.7619
  178SOPE   H6S20274   2.394   2.159   9.890 -0.6446 -0.5402  1.4405
  178SOPE   C2720275   2.583   2.258   9.843 -0.2103 -0.7118 -0.5313
  178SOPE   H7R20276   2.579   2.338   9.921 -2.1952 -0.1274 -1.1728
  178SOPE   H7S20277   2.689   2.231   9.828  0.6480 -0.2449  3.4961
  178SOPE   C2820278   2.526   2.328   9.719  0.7740  0.2722  0.0342
  178SOPE   H8R20279   2.422   2.360   9.741  0.1317 -0.0507 -2.2450
  178SOPE   H8S20280   2.587   2.421   9.707 -0.4056  1.2581  1.3024
  178SOPE   C2920281   2.520   2.249   9.592  0.4497  0.4485  0.4519
  178SOPE   H9120282   2.451   2.163   9.590 -3.1398  3.0953 -0.5244
  178SOPE  C21020283   2.614   2.250   9.501 -0.4854  0.1452  0.5361
  178SOPE  H10120284   2.605   2.182   9.414  1.2856 -0.3750  0.7157
  178SOPE  C21120285   2.738   2.338   9.503  0.5157 -0.6115  0.2825
  178SOPE  H11R20286   2.825   2.271   9.489 -0.3180 -1.9689  1.2840
  178SOPE  H11S20287   2.757   2.388   9.601  3.3136 -2.2061  0.6355
  178SOPE  C21220288   2.728   2.454   9.397  0.5716  0.0136  0.4706
  178SOPE  H12R20289   2.810   2.528   9.415  1.0130 -0.6666  1.3552
  178SOPE  H12S20290   2.627   2.499   9.408  0.5671  0.0066  0.4554
  178SOPE  C21320291   2.745   2.385   9.263 -0.8382 -0.7716  0.0658
  178SOPE  H13R20292   2.655   2.322   9.242 -1.8203  0.7441 -0.4701
  178SOPE  H13S20293   2.835   2.320   9.265 -0.0118  0.3292 -0.4041
  178SOPE  C21420294   2.778   2.493   9.161 -0.5677 -0.1271 -0.1289
  178SOPE  H14R20295   2.867   2.551   9.192 -1.2419  1.7300 -1.5135
  178SOPE  H14S20296   2.687   2.557   9.160  0.4177  1.3924  1.8503
  178SOPE  C21520297   2.805   2.431   9.025 -0.2760  0.6781  0.7766
  178SOPE  H15R20298   2.744   2.338   9.016 -0.2034  0.6654  0.4065
  178SOPE  H15S20299   2.913   2.405   9.017 -0.5910 -0.3661 -0.4345
  178SOPE  C21620300   2.765   2.519   8.907 -0.1500 -0.5678 -0.3250
  178SOPE  H16R20301   2.861   2.552   8.861 -0.8682 -1.6957 -2.8032
  178SOPE  H16S20302   2.727   2.616   8.947 -0.0318 -1.2988  1.6843
  178SOPE  C21720303   2.672   2.467   8.792 -0.4888  0.3676 -0.2754
  178SOPE  H17R20304   2.568   2.443   8.822 -0.0607 -0.9956  0.1858
  178SOPE  H17S20305   2.724   2.374   8.758 -1.0041  0.7542 -2.2520
  178SOPE  C21820306   2.658   2.563   8.674 -0.0550 -0.0542  0.3485
  178SOPE  H18R20307   2.639   2.508   8.579 -0.4122 -0.3409  0.5814
  178SOPE  H18S20308   2.752   2.621   8.666 -0.0861 -0.0014  0.3667
  178SOPE  H18T20309   2.572   2.631   8.687  1.6083  2.1732  0.2048
  178SOPE   C3320310   2.925   2.351   9.927  0.4853 -0.2745  0.0255
  178SOPE   H3X20311   2.862   2.435   9.963  1.1662  0.2013  0.1406
  178SOPE   H3Y20312   2.872   2.315   9.836  0.6306  1.5384 -0.8273
  178SOPE   C3420313   3.051   2.413   9.879  0.0928 -0.3339 -0.1275
  178SOPE   H4X20314   3.118   2.330   9.848  0.2543 -0.1379 -0.3056
  178SOPE   H4Y20315   3.084   2.466   9.970 -0.6382  0.6397 -0.4140
  178SOPE   C3520316   3.036   2.496   9.750 -0.1967  0.2869 -0.5718
  178SOPE   H5X20317   3.012   2.601   9.779 -0.9344 -0.3872  1.4428
  178SOPE   H5Y20318   2.942   2.462   9.702  0.3332 -2.6384  0.2467
  178SOPE   C3620319   3.165   2.488   9.664 -0.3717 -0.1101 -0.6064
  178SOPE   H6X20320   3.188   2.384   9.633  1.9590 -0.7055  2.5879
  178SOPE   H6Y20321   3.244   2.540   9.722 -1.2843  0.6318 -0.0006
  178SOPE   C3720322   3.150   2.572   9.535  0.2729 -0.1098  0.1853
  178SOPE   H7X20323   3.114   2.676   9.553  1.2784  0.4956 -1.1348
  178SOPE   H7Y20324   3.064   2.530   9.479 -1.3692  0.7552  1.9224
  178SOPE   C3820325   3.273   2.584   9.434  0.0624  0.5170 -0.5662
  178SOPE   H8X20326   3.315   2.482   9.415 -0.5010  0.3662 -1.0170
  178SOPE   H8Y20327   3.354   2.648   9.476  0.9849 -0.7278 -0.3739
  178SOPE   C3920328   3.237   2.642   9.296 -0.8207 -0.4734  0.4292
  178SOPE   H9X20329   3.332   2.662   9.241 -1.2355  1.7161  0.4219
  178SOPE   H9Y20330   3.169   2.729   9.302  0.1897  0.3046  1.0864
  178SOPE  C31020331   3.154   2.549   9.206 -0.1506  0.6850 -0.4104
  178SOPE  H10X20332   3.061   2.504   9.246  0.9394 -2.7562 -1.3942
  178SOPE  H10Y20333   3.220   2.463   9.181 -2.4090 -1.5125  0.6937
  178SOPE  C31120334   3.111   2.616   9.075 -0.1134 -0.8461 -0.4649
  178SOPE  H11X20335   3.033   2.693   9.096  0.8759 -0.0125  0.2369
  178SOPE  H11Y20336   3.063   2.539   9.010 -0.2357 -0.2296 -1.1142
  178SOPE  C31220337   3.236   2.671   8.992  0.3472  0.2111  0.5250
  178SOPE  H12X20338   3.309   2.724   9.057 -0.2020  0.4587  0.9545
  178SOPE  H12Y20339   3.200   2.747   8.920  3.1789  2.2338  1.0557
  178SOPE  C31320340   3.318   2.560   8.918 -0.2555 -0.2344 -0.3606
  178SOPE  H13X20341   3.291   2.469   8.976  0.6286 -0.4204 -0.2350
  178SOPE  H13Y20342   3.427   2.579   8.906 -0.4019 -0.8701 -3.8872
  178SOPE  C31420343   3.263   2.539   8.779  0.6332 -0.3996  0.0501
  178SOPE  H14X20344   3.302   2.621   8.716  2.0930  0.0200  1.4330
  178SOPE  H14Y20345   3.152   2.540   8.770  0.6527 -0.1047 -0.1704
  178SOPE  C31520346   3.316   2.407   8.718  0.4327  0.7183 -0.3971
  178SOPE  H15X20347   3.426   2.402   8.737  0.6363  0.5327 -1.5632
  178SOPE  H15Y20348   3.304   2.411   8.607 -1.0967 -3.0064 -0.5206
  178SOPE  C31620349   3.249   2.274   8.769 -0.3419 -0.0032 -0.0459
  178SOPE  H16X20350   3.144   2.284   8.735  0.4712  2.3913 -2.1879
  178SOPE  H16Y20351   3.252   2.269   8.880  0.6615  1.1255 -0.0020
  178SOPE  C31720352   3.321   2.148   8.723 -1.0060 -0.1876 -0.2554
  178SOPE  H17X20353   3.430   2.152   8.745 -0.6706  1.4596 -2.0056
  178SOPE  H17Y20354   3.313   2.149   8.612 -0.3291 -0.2828 -0.3128
  178SOPE  C31820355   3.259   2.013   8.775  0.0642 -0.3357  0.4560
  178SOPE  H18X20356   3.292   1.932   8.706  1.1282  2.3643 -2.4538
  178SOPE  H18Y20357   3.148   2.009   8.779  0.1251 -1.3824  2.4149
  178SOPE  H18Z20358   3.322   1.996   8.865  2.0707 -3.8250 -1.3695
  179SOPE     N20359   1.642   3.470   6.171 -0.2345  0.1203 -0.0301
  179SOPE   HN120360   1.599   3.558   6.137  2.0623  0.7932 -1.3774
  179SOPE   HN220361   1.714   3.428   6.108  1.1752 -0.8520  2.0762
  179SOPE   HN320362   1.569   3.398   6.189 -0.6847  1.0111  2.0371
  179SOPE   C1220363   1.704   3.526   6.299 -0.3503 -0.0200 -1.2497
  179SOPE  H12A20364   1.807   3.487   6.308  0.1236  0.8539 -2.5587
  179SOPE  H12B20365   1.643   3.488   6.383  0.3970  0.0249 -0.6803
  179SOPE   C1120366   1.702   3.680   6.302 -0.3193 -0.4084  0.2545
  179SOPE  H11A20367   1.779   3.725   6.235 -0.6745 -2.1858 -1.4478
  179SOPE  H11B20368   1.717   3.711   6.407  0.2055 -1.9100  0.6393
  179SOPE     P20369   1.485   3.848   6.286  0.0263  0.4850  0.3546
  179SOPE   O1320370   1.367   3.833   6.199 -0.6467  0.0332  0.1692
  179SOPE   O1420371   1.575   3.962   6.276  0.0241  0.5676 -0.2993
  179SOPE   O1220372   1.577   3.723   6.259 -0.9509 -0.0085  0.5478
  179SOPE   O1120373   1.437   3.830   6.439 -0.2686  0.0379  0.5030
  179SOPE    C120374   1.431   3.696   6.495 -0.0477 -0.3201  0.1417
  179SOPE    HA20375   1.521   3.665   6.553 -1.4837 -3.9656  0.6985
  179SOPE    HB20376   1.418   3.620   6.415  1.7303  1.1441 -1.6362
  179SOPE    C220377   1.303   3.670   6.585 -0.7588 -0.7262  0.6683
  179SOPE    HS20378   1.227   3.692   6.508 -0.1604  1.4980  0.6579
  179SOPE   O2120379   1.288   3.769   6.687 -0.6020 -0.5721  0.7286
  179SOPE   C2120380   1.166   3.788   6.730  0.2083 -0.3327 -0.1096
  179SOPE   O2220381   1.064   3.748   6.676 -0.8938 -0.3769 -0.1713
  179SOPE   C2220382   1.180   3.864   6.867 -0.0275 -0.5517  0.6494
  179SOPE   H2R20383   1.277   3.919   6.866 -1.1318  1.4678  0.7062
  179SOPE   H2S20384   1.189   3.784   6.945  1.7889  0.8485  1.9609
  179SOPE    C320385   1.300   3.527   6.635 -0.3442 -0.2561 -0.5937
  179SOPE    HX20386   1.329   3.464   6.548 -0.8642 -2.2190  0.5845
  179SOPE    HY20387   1.197   3.499   6.667 -0.6267  0.2046 -1.0857
  179SOPE   O3120388   1.407   3.508   6.741  0.3352  0.1315 -0.2002
  179SOPE   C3120389   1.368   3.516   6.870  0.2644  0.4196 -0.0400
  179SOPE   O3220390   1.252   3.516   6.910  0.0094 -0.0348 -0.2364
  179SOPE   C3220391   1.496   3.496   6.952  0.6375 -0.4413  0.0512
  179SOPE   H2X20392   1.474   3.547   7.048 -0.0955 -1.3090  0.3667
  179SOPE   H2Y20393   1.581   3.547   6.902  2.5350 -1.2168  2.2599
  179SOPE   C2320394   1.059   3.958   6.891  0.1510  0.1294  0.7344
  179SOPE   H3R20395   0.968   3.894   6.892  0.7581 -0.7754 -0.5383
  179SOPE   H3S20396   1.049   4.031   6.808  2.2493  1.8971  1.9083
  179SOPE   C2420397   1.071   4.038   7.019 -0.1076  1.4976 -0.0028
  179SOPE   H4R20398   1.169   4.091   7.023  0.4922  0.3545  1.4810
  179SOPE   H4S20399   1.007   4.128   7.030 -1.9200  0.4681 -1.6217
  179SOPE   C2520400   1.048   3.942   7.141  0.3339 -0.0559  0.3785
  179SOPE   H5R20401   0.944   3.916   7.169  1.0531  0.3622  3.8891
  179SOPE   H5S20402   1.093   3.842   7.120  0.7178  0.2385 -0.2403
  179SOPE   C2620403   1.083   4.011   7.271  0.2944  0.1117 -0.5067
  179SOPE   H6R20404   1.189   4.045   7.275 -0.1298  1.3907  1.8707
  179SOPE   H6S20405   1.020   4.100   7.291  1.4176  0.6715  0.7258
  179SOPE   C2720406   1.070   3.922   7.398  0.4290 -0.0030  1.0163
  179SOPE   H7R20407   0.964   3.890   7.407  0.2466  0.1023 -0.5409
  179SOPE   H7S20408   1.123   3.825   7.401  0.3629 -0.0618  0.3508
  179SOPE   C2820409   1.127   3.986   7.525  0.0271 -0.7452  0.4677
  179SOPE   H8R20410   1.137   3.902   7.598  2.0862  0.2935  1.4685
  179SOPE   H8S20411   1.228   4.028   7.507 -1.0231  2.3496  1.2007
  179SOPE   C2920412   1.032   4.090   7.586 -0.0426  0.3111 -1.4191
  179SOPE   H9120413   0.982   4.148   7.507  0.2591  0.5492 -1.4348
  179SOPE  C21020414   0.999   4.110   7.717 -0.3818 -0.1919 -0.3629
  179SOPE  H10120415   0.911   4.172   7.739 -0.0314 -0.1278  0.8958
  179SOPE  C21120416   1.056   4.035   7.826 -0.1626  0.5526 -0.5546
  179SOPE  H11R20417   1.129   3.957   7.798 -0.7498 -0.4939  0.7165
  179SOPE  H11S20418   0.964   3.990   7.870 -2.4699  3.8799 -1.5736
  179SOPE  C21220419   1.105   4.124   7.944 -0.2519  0.7005 -0.1518
  179SOPE  H12R20420   1.189   4.188   7.910 -0.0647  2.1635  2.8123
  179SOPE  H12S20421   1.153   4.059   8.020  2.1778  0.9020 -1.3990
  179SOPE  C21320422   0.999   4.207   8.011  0.1580 -0.1982 -0.7150
  179SOPE  H13R20423   0.912   4.148   8.048 -0.2689  0.4013 -0.7478
  179SOPE  H13S20424   0.956   4.277   7.936  0.5985  1.3341  0.4220
  179SOPE  C21420425   1.043   4.286   8.138 -0.1720  0.1351  0.9789
  179SOPE  H14R20426   0.962   4.360   8.158  1.5534  2.5482 -0.5215
  179SOPE  H14S20427   1.129   4.350   8.112 -0.6370  0.1849 -0.5446
  179SOPE  C21520428   1.086   4.195   8.263 -0.4099 -0.3236  0.4039
  179SOPE  H15R20429   1.150   4.119   8.213 -0.0429  0.6052 -0.5686
  179SOPE  H15S20430   0.993   4.144   8.297 -0.2813 -0.2682  0.8383
  179SOPE  C21620431   1.152   4.288   8.369  0.1596  0.7532 -0.4817
  179SOPE  H16R20432   1.065   4.353   8.393 -1.2758 -1.2326 -0.0654
  179SOPE  H16S20433   1.247   4.335   8.334 -0.0781  1.1268 -0.6343
  179SOPE  C21720434   1.202   4.217   8.499 -0.3411 -0.6853  0.0462
  179SOPE  H17R20435   1.214   4.294   8.578 -2.4486 -2.0078  1.7324
  179SOPE  H17S20436   1.304   4.176   8.484  0.8160  1.2383  2.0308
  179SOPE  C21820437   1.110   4.129   8.558  0.4271  0.8348  0.0245
  179SOPE  H18R20438   1.099   4.033   8.505  2.2293  0.4283  0.3395
  179SOPE  H18S20439   1.006   4.170   8.553  0.6608  1.5291  0.6151
  179SOPE  H18T20440   1.137   4.107   8.664  0.1055  1.4762  0.2456
  179SOPE   C3320441   1.523   3.349   6.979 -0.0907  0.1161  0.2225
  179SOPE   H3X20442   1.530   3.291   6.884 -2.0537 -1.4835  0.9749
  179SOPE   H3Y20443   1.437   3.303   7.033  0.7962 -1.1145  0.6326
  179SOPE   C3420444   1.648   3.325   7.057 -0.6054 -0.0856 -0.8613
  179SOPE   H4X20445   1.738   3.373   7.012  0.0276 -1.4111 -1.0498
  179SOPE   H4Y20446   1.663   3.215   7.063  0.6173  0.1444  1.3859
  179SOPE   C3520447   1.639   3.373   7.200  0.2319  0.5889  0.1858
  179SOPE   H5X20448   1.540   3.336   7.235  0.0115  2.0274  1.1851
  179SOPE   H5Y20449   1.625   3.483   7.209 -1.5387  0.4558 -0.5619
  179SOPE   C3620450   1.747   3.332   7.295  0.1608 -0.7390 -0.3684
  179SOPE   H6X20451   1.844   3.374   7.261 -0.7927  0.0595 -2.2924
  179SOPE   H6Y20452   1.765   3.222   7.294  0.3106 -0.7476  1.0079
  179SOPE   C3720453   1.734   3.386   7.437  0.4606  0.6328  0.0498
  179SOPE   H7X20454   1.653   3.332   7.490  2.1302  0.2407  2.3406
  179SOPE   H7Y20455   1.708   3.494   7.433  1.3923  0.9448  1.5439
  179SOPE   C3820456   1.868   3.369   7.514  0.1936  0.5663 -0.0505
  179SOPE   H8X20457   1.947   3.416   7.453 -0.5859  0.6887 -0.9928
  179SOPE   H8Y20458   1.904   3.264   7.523 -1.4064 -0.0319 -0.2554
  179SOPE   C3920459   1.875   3.436   7.656  0.5467 -0.2351 -0.3417
  179SOPE   H9X20460   1.831   3.537   7.645  0.4750 -0.0777  1.2401
  179SOPE   H9Y20461   1.979   3.456   7.688  0.0835 -1.2544  1.9927
  179SOPE  C31020462   1.773   3.372   7.757  0.3267  0.4792 -0.4215
  179SOPE  H10X20463   1.809   3.268   7.773  1.4094  1.1513  1.8575
  179SOPE  H10Y20464   1.675   3.374   7.705 -0.6530  0.3600  1.3329
  179SOPE  C31120465   1.765   3.449   7.891  0.0978  0.2215 -0.1409
  179SOPE  H11X20466   1.731   3.550   7.860 -0.7625 -0.2265 -0.7042
  179SOPE  H11Y20467   1.868   3.439   7.932  0.0444 -0.0413 -0.0623
  179SOPE  C31220468   1.674   3.384   7.996  0.7926  0.7468 -0.3397
  179SOPE  H12X20469   1.720   3.286   8.018  0.5446  1.2168  2.6260
  179SOPE  H12Y20470   1.572   3.376   7.954  1.4645  2.4647 -2.5595
  179SOPE  C31320471   1.681   3.449   8.129 -0.2752  0.3369 -0.3392
  179SOPE  H13X20472   1.647   3.555   8.128 -3.1737 -0.5073  0.3511
  179SOPE  H13Y20473   1.791   3.446   8.147 -0.1092  1.5297 -0.9949
  179SOPE  C31420474   1.620   3.365   8.245  0.2022  0.4049 -0.1049
  179SOPE  H14X20475   1.706   3.308   8.286  0.3290 -0.1026 -1.0259
  179SOPE  H14Y20476   1.547   3.294   8.201  1.0899 -0.2312 -0.5760
  179SOPE  C31520477   1.547   3.463   8.343 -0.0966  0.7843  0.5498
  179SOPE  H15X20478   1.447   3.496   8.307  0.2604  2.3367  0.9153
  179SOPE  H15Y20479   1.615   3.550   8.350  2.0366 -0.4348 -2.8486
  179SOPE  C31620480   1.529   3.402   8.483  0.4128  0.1073 -0.2513
  179SOPE  H16X20481   1.632   3.381   8.519  0.4814 -0.6248 -0.8404
  179SOPE  H16Y20482   1.485   3.300   8.482  1.9399 -0.6034  0.7778
  179SOPE  C31720483   1.452   3.490   8.575 -0.3612 -0.6048  0.3133
  179SOPE  H17X20484   1.488   3.595   8.578 -0.6863 -0.5121  2.4129
  179SOPE  H17Y20485   1.470   3.455   8.679 -0.6757 -1.7535 -0.0045
  179SOPE  C31820486   1.301   3.497   8.548 -0.0785 -0.6387 -0.3190
  179SOPE  H18X20487   1.257   3.547   8.637 -1.3608 -0.7640 -0.8657
  179SOPE  H18Y20488   1.261   3.394   8.537 -1.1882 -0.0838 -1.8115
  179SOPE  H18Z20489   1.273   3.557   8.459 -0.7111  1.0487  0.9618
  180SOPE     N20490   5.284   3.130   6.539  0.0053  0.0874  0.3215
  180SOPE   HN120491   5.264   3.029   6.520  0.9588 -0.0815  0.2034
  180SOPE   HN220492   5.322   3.142   6.635 -0.8084  2.6313  0.4011
  180SOPE   HN320493   5.195   3.181   6.521  0.9573  0.9895 -2.1965
  180SOPE   C1220494   5.386   3.173   6.432 -0.0786 -0.5636  0.9665
  180SOPE  H12A20495   5.422   3.276   6.455  2.1009 -0.3759 -2.4320
  180SOPE  H12B20496   5.336   3.175   6.333  3.6288  1.4881 -1.1144
  180SOPE   C1120497   5.507   3.076   6.431  0.1815  0.2114  0.3781
  180SOPE  H11A20498   5.570   3.080   6.522 -0.1218  1.0072  0.5640
  180SOPE  H11B20499   5.574   3.103   6.346  2.3235 -2.7222  0.9881
  180SOPE     P20500   5.546   2.824   6.371 -0.0255 -0.1178 -0.2832
  180SOPE   O1320501   5.678   2.814   6.443  0.7798 -0.1980 -0.0595
  180SOPE   O1420502   5.560   2.832   6.224 -0.0444 -0.4749 -0.2021
  180SOPE   O1220503   5.462   2.943   6.418 -0.1588 -0.1060  0.2092
  180SOPE   O1120504   5.459   2.700   6.414 -0.4670  0.8025 -0.4440
  180SOPE    C120505   5.521   2.572   6.405  0.1813 -0.4699  0.0459
  180SOPE    HA20506   5.606   2.570   6.476  1.0030  0.8975 -0.8564
  180SOPE    HB20507   5.564   2.550   6.305 -0.4061 -0.2624 -0.2579
  180SOPE    C220508   5.428   2.456   6.434  0.3973  1.1079  0.1069
  180SOPE    HS20509   5.367   2.436   6.343  1.6782 -2.8878 -0.0454
  180SOPE   O2120510   5.348   2.489   6.555  0.5929  0.1939 -0.4928
  180SOPE   C2120511   5.242   2.422   6.571  0.8114  0.0684 -0.1692
  180SOPE   O2220512   5.189   2.350   6.488  0.1037 -0.0822 -0.1362
  180SOPE   C2220513   5.182   2.442   6.708  1.0416 -0.3561  0.3261
  180SOPE   H2R20514   5.124   2.353   6.740 -2.0457  1.5209  0.4138
  180SOPE   H2S20515   5.112   2.528   6.702  0.4237 -0.8044  1.0067
  180SOPE    C320516   5.509   2.326   6.450  0.3665 -0.0423  0.2440
  180SOPE    HX20517   5.585   2.341   6.529  0.2157  0.7230  0.2532
  180SOPE    HY20518   5.570   2.305   6.359 -0.2427 -3.0761  0.4048
  180SOPE   O3120519   5.432   2.215   6.495  0.7353  0.0482  0.4896
  180SOPE   C3120520   5.364   2.152   6.400  0.5924 -0.0905  0.5847
  180SOPE   O3220521   5.372   2.180   6.280  0.5213  0.2112  0.5063
  180SOPE   C3220522   5.270   2.053   6.474  0.0183  0.2486 -0.8432
  180SOPE   H2X20523   5.189   2.031   6.401 -0.0225  2.1614 -1.4391
  180SOPE   H2Y20524   5.229   2.101   6.565  0.4186  1.8378 -1.4513
  180SOPE   C2320525   5.292   2.486   6.808  0.7520  0.7607 -0.4085
  180SOPE   H3R20526   5.315   2.594   6.794 -1.8521  1.4391  0.0531
  180SOPE   H3S20527   5.388   2.433   6.789 -1.2013 -3.2236 -0.1691
  180SOPE   C2420528   5.240   2.472   6.954  0.2090  0.0026  0.3964
  180SOPE   H4R20529   5.144   2.527   6.963  0.7471  0.9029  0.7178
  180SOPE   H4S20530   5.215   2.365   6.969  0.9552  0.0339  2.0414
  180SOPE   C2520531   5.338   2.519   7.064  0.1576 -0.3908  0.0604
  180SOPE   H5R20532   5.432   2.465   7.039  0.5339  0.7706 -1.1356
  180SOPE   H5S20533   5.360   2.627   7.053 -3.8343  0.5480 -0.3996
  180SOPE   C2620534   5.294   2.488   7.207  0.4909 -0.0608  0.0361
  180SOPE   H6R20535   5.357   2.548   7.275  0.7065 -0.6212  0.3341
  180SOPE   H6S20536   5.188   2.513   7.229  1.3209  1.8332  2.3345
  180SOPE   C2720537   5.321   2.337   7.250  0.2854  0.8579  0.2216
  180SOPE   H7R20538   5.263   2.262   7.191  0.6275  2.1019 -1.8035
  180SOPE   H7S20539   5.429   2.319   7.228  0.2160  0.4584  0.1897
  180SOPE   C2820540   5.296   2.320   7.401  0.7771  0.3614  0.3856
  180SOPE   H8R20541   5.191   2.350   7.422 -0.5742 -4.6949  2.2145
  180SOPE   H8S20542   5.296   2.212   7.426 -0.4913  0.2311 -0.0812
  180SOPE   C2920543   5.395   2.403   7.472 -0.0898  0.4080 -0.3312
  180SOPE   H9120544   5.471   2.464   7.421  0.3273  0.7712  0.6962
  180SOPE  C21020545   5.392   2.407   7.610 -0.1413 -0.1778 -0.0541
  180SOPE  H10120546   5.457   2.481   7.660 -1.8800  0.7728  0.9107
  180SOPE  C21120547   5.299   2.333   7.698  0.0119  0.0857 -0.0926
  180SOPE  H11R20548   5.329   2.228   7.717 -0.5490  0.1482  1.2539
  180SOPE  H11S20549   5.196   2.329   7.658 -1.6414 -0.3564  3.8042
  180SOPE  C21220550   5.291   2.401   7.831 -0.1134 -0.4678  0.2319
  180SOPE  H12R20551   5.249   2.503   7.820 -2.5581 -1.5653 -1.3096
  180SOPE  H12S20552   5.390   2.403   7.882  0.1964 -0.4306 -0.3646
  180SOPE  C21320553   5.204   2.319   7.930 -0.3869 -0.4739 -0.3349
  180SOPE  H13R20554   5.234   2.212   7.924 -0.4340 -0.3933 -4.4745
  180SOPE  H13S20555   5.096   2.334   7.907  0.3310  3.6070 -1.7820
  180SOPE  C21420556   5.218   2.380   8.076  0.1943 -0.1541  0.8641
  180SOPE  H14R20557   5.324   2.362   8.103  0.9521 -0.2549 -1.8501
  180SOPE  H14S20558   5.148   2.317   8.136 -0.2856 -0.9863 -0.5173
  180SOPE  C21520559   5.185   2.531   8.077  0.0087 -0.1019  0.4852
  180SOPE  H15R20560   5.092   2.547   8.017  0.2314 -0.2416  0.0956
  180SOPE  H15S20561   5.265   2.594   8.034  0.6174 -1.7454 -0.9017
  180SOPE  C21620562   5.166   2.578   8.216 -0.1130  0.2243 -0.5365
  180SOPE  H16R20563   5.270   2.579   8.256 -0.4834 -2.7418  0.8277
  180SOPE  H16S20564   5.112   2.513   8.289 -2.2201  1.9618 -0.4671
  180SOPE  C21720565   5.118   2.726   8.231  0.4591  0.2353 -0.1130
  180SOPE  H17R20566   5.014   2.722   8.192  1.3400  3.2234 -3.3460
  180SOPE  H17S20567   5.177   2.790   8.161 -0.5609  2.0714  0.6209
  180SOPE  C21820568   5.131   2.789   8.368  0.3875  0.0859 -1.0374
  180SOPE  H18R20569   5.230   2.773   8.416 -0.3753  0.1219  0.6188
  180SOPE  H18S20570   5.054   2.743   8.434 -0.2550  3.3764  0.7776
  180SOPE  H18T20571   5.123   2.900   8.360 -0.4179  0.0755 -0.4832
  180SOPE   C3320572   5.340   1.918   6.507 -0.0239 -0.0235 -0.5197
  180SOPE   H3X20573   5.389   1.873   6.418  0.0735 -0.2150 -0.3703
  180SOPE   H3Y20574   5.258   1.858   6.552 -0.8805  3.0195  2.4090
  180SOPE   C3420575   5.454   1.923   6.617 -0.2827 -0.3077  0.0387
  180SOPE   H4X20576   5.542   1.986   6.589  1.1515 -2.3588 -0.2965
  180SOPE   H4Y20577   5.485   1.821   6.647  0.9799  0.1484  0.3469
  180SOPE   C3520578   5.420   1.991   6.751  0.6345 -0.0327 -0.1266
  180SOPE   H5X20579   5.338   1.928   6.793  0.3976  0.0925 -0.3948
  180SOPE   H5Y20580   5.385   2.095   6.732  1.1140 -0.1252 -1.6607
  180SOPE   C3620581   5.532   1.995   6.849 -0.0085  0.0878 -0.3472
  180SOPE   H6X20582   5.616   2.063   6.823  0.0569  0.0451 -0.2424
  180SOPE   H6Y20583   5.574   1.892   6.847 -0.0259  0.0834 -0.5104
  180SOPE   C3720584   5.485   2.027   6.993  0.8067  0.0845  0.0538
  180SOPE   H7X20585   5.389   1.975   7.014  1.4440 -1.4257 -0.6697
  180SOPE   H7Y20586   5.464   2.136   6.983 -0.2431 -0.1314 -0.1833
  180SOPE   C3820587   5.574   1.987   7.104  0.9415  0.1268  0.0221
  180SOPE   H8X20588   5.674   2.029   7.079  1.4896 -1.4783 -0.5761
  180SOPE   H8Y20589   5.582   1.877   7.108  3.0443  0.2521  1.2397
  180SOPE   C3920590   5.528   2.042   7.237  0.1701  0.9032 -0.6461
  180SOPE   H9X20591   5.423   2.019   7.267  1.3040 -2.5513  1.2701
  180SOPE   H9Y20592   5.520   2.153   7.245  0.2211  0.8408  0.4874
  180SOPE  C31020593   5.601   1.984   7.358  0.6490  0.5929  0.0267
  180SOPE  H10X20594   5.710   1.991   7.337  1.3795 -1.7968  2.4184
  180SOPE  H10Y20595   5.577   1.876   7.364  0.4139  0.4744 -2.3766
  180SOPE  C31120596   5.567   2.052   7.493  0.7820  0.1867  0.1430
  180SOPE  H11X20597   5.458   2.072   7.492  0.7458  0.3156  2.2271
  180SOPE  H11Y20598   5.615   2.152   7.498  0.2590  0.4026  0.9398
  180SOPE  C31220599   5.610   1.973   7.614 -0.5878  0.9593  0.4323
  180SOPE  H12X20600   5.711   1.927   7.603 -0.7752  0.7098 -0.2995
  180SOPE  H12Y20601   5.542   1.886   7.631  0.6464  0.3122  2.4888
  180SOPE  C31320602   5.606   2.055   7.746 -0.0096 -0.0235 -0.2035
  180SOPE  H13X20603   5.499   2.069   7.773 -0.4096 -0.7435 -1.3651
  180SOPE  H13Y20604   5.653   2.156   7.744 -0.1085  0.0081 -1.3500
  180SOPE  C31420605   5.695   1.975   7.845 -0.2703 -0.0337  0.6378
  180SOPE  H14X20606   5.799   1.981   7.807 -0.3418  0.7196  0.5371
  180SOPE  H14Y20607   5.670   1.867   7.847  0.7129 -0.2747  0.1824
  180SOPE  C31520608   5.701   2.019   7.996  0.0943  0.4757  0.4566
  180SOPE  H15X20609   5.605   1.990   8.044  0.8365 -2.5237  0.3241
  180SOPE  H15Y20610   5.707   2.129   7.984 -2.3322  0.3681 -4.2756
  180SOPE  C31620611   5.824   1.955   8.066  0.0304  0.1008 -0.3954
  180SOPE  H16X20612   5.911   2.008   8.020  3.1373 -1.1125  3.4786
  180SOPE  H16Y20613   5.827   1.845   8.059 -1.7109  0.0412 -0.5807
  180SOPE  C31720614   5.817   2.000   8.213  0.5872  0.0346 -0.2101
  180SOPE  H17X20615   5.728   1.954   8.261 -0.5430 -0.2201 -2.4213
  180SOPE  H17Y20616   5.793   2.108   8.205  1.4248  0.3678  1.2548
  180SOPE  C31820617   5.945   1.995   8.293 -0.3125 -0.2976 -0.1719
  180SOPE  H18X20618   5.927   2.019   8.400  0.0039 -1.9791  0.2921
  180SOPE  H18Y20619   6.021   2.064   8.249  0.6985 -1.7818 -0.8153
  180SOPE  H18Z20620   5.984   1.891   8.297  0.8620  0.0776 -1.3634
  181SOPE     N20621   1.541   0.438   6.006  0.0588 -0.2872  0.4856
  181SOPE   HN120622   1.615   0.503   6.041  0.2673  0.4225 -1.2145
  181SOPE   HN220623   1.563   0.337   5.991  2.7406  0.3055 -0.2186
  181SOPE   HN320624   1.502   0.486   5.923 -0.9672  1.1936  1.7758
  181SOPE   C1220625   1.435   0.440   6.115  0.5944  0.1525  0.0118
  181SOPE  H12A20626   1.486   0.411   6.209  0.2334  1.8969  0.7981
  181SOPE  H12B20627   1.352   0.371   6.087  1.8826 -2.3233  1.8877
  181SOPE   C1120628   1.381   0.581   6.139 -0.0473 -0.1733 -0.1783
  181SOPE  H11A20629   1.465   0.653   6.143  0.1994 -0.4411 -0.4899
  181SOPE  H11B20630   1.324   0.587   6.234 -0.0366  1.8186 -0.2642
  181SOPE     P20631   1.151   0.612   6.006 -0.1821  0.0811 -0.2148
  181SOPE   O1320632   1.118   0.507   5.905  0.0874  0.0380  0.2196
  181SOPE   O1420633   1.100   0.746   5.962  0.4690 -0.1032 -0.1088
  181SOPE   O1220634   1.307   0.612   6.016 -0.1227  0.5212  0.2471
  181SOPE   O1120635   1.092   0.574   6.148  0.7826 -0.0346 -0.4651
  181SOPE    C120636   1.010   0.665   6.227  0.1316 -0.0235 -0.1697
  181SOPE    HA20637   0.953   0.622   6.313 -0.9385  1.5079 -0.0755
  181SOPE    HB20638   0.938   0.720   6.163  0.0105 -0.7115 -0.6415
  181SOPE    C220639   1.103   0.765   6.303  0.2309 -0.9272 -0.2993
  181SOPE    HS20640   1.178   0.792   6.226 -0.2388  1.2181 -0.0518
  181SOPE   O2120641   1.172   0.701   6.411 -1.1039 -0.3100 -0.6982
  181SOPE   C2120642   1.278   0.780   6.457  0.5335  0.6119 -0.0355
  181SOPE   O2220643   1.327   0.868   6.391 -0.1143 -0.2748  0.4567
  181SOPE   C2220644   1.334   0.717   6.584 -0.3561  0.5682  0.1754
  181SOPE   H2R20645   1.383   0.628   6.541  1.2094  0.9810  1.0157
  181SOPE   H2S20646   1.239   0.675   6.624 -2.3928  1.0975 -3.6769
  181SOPE    C320647   1.023   0.890   6.344  0.0896 -0.3337 -0.1129
  181SOPE    HX20648   1.005   0.934   6.243  0.8156  1.5061  0.5018
  181SOPE    HY20649   1.084   0.966   6.399 -0.0900 -1.1913  1.3069
  181SOPE   O3120650   0.901   0.843   6.409 -0.7361  0.2528  0.3091
  181SOPE   C3120651   0.899   0.857   6.539 -0.3049 -0.4948  0.2362
  181SOPE   O3220652   0.999   0.885   6.607  0.0046  0.4184 -0.2966
  181SOPE   C3220653   0.754   0.836   6.596 -0.0098  0.1145 -0.3987
  181SOPE   H2X20654   0.703   0.763   6.531  2.2748  0.2453 -2.4972
  181SOPE   H2Y20655   0.702   0.933   6.581  0.3154  0.0065 -2.6324
  181SOPE   C2320656   1.439   0.802   6.661  0.7245  1.0468 -0.0363
  181SOPE   H3R20657   1.526   0.823   6.594  2.7523 -0.9250  1.7985
  181SOPE   H3S20658   1.472   0.735   6.743  1.1043  0.8526 -0.3443
  181SOPE   C2420659   1.385   0.935   6.728  0.0647 -0.0407  0.6977
  181SOPE   H4R20660   1.476   0.990   6.761  0.2139 -0.4444  0.9650
  181SOPE   H4S20661   1.330   0.984   6.645  1.8442  0.6039 -0.1489
  181SOPE   C2520662   1.303   0.919   6.860 -0.6452  0.0624  0.1896
  181SOPE   H5R20663   1.268   1.020   6.890 -0.1573  0.4715 -0.5691
  181SOPE   H5S20664   1.212   0.858   6.836  1.4776 -3.0679 -0.5547
  181SOPE   C2620665   1.366   0.839   6.974  0.4594 -0.2502 -0.1717
  181SOPE   H6R20666   1.395   0.738   6.938  2.6810  0.2874 -0.0227
  181SOPE   H6S20667   1.465   0.877   7.006  0.7506 -2.1057  1.2632
  181SOPE   C2720668   1.273   0.811   7.093 -0.1961  0.2243  0.1822
  181SOPE   H7R20669   1.204   0.736   7.049  1.9312 -1.4183 -0.5668
  181SOPE   H7S20670   1.327   0.761   7.177 -0.0246 -0.9560 -0.6159
  181SOPE   C2820671   1.191   0.930   7.146 -0.8892  0.0645  0.9358
  181SOPE   H8R20672   1.128   0.987   7.074 -0.2875 -2.8689 -2.1937
  181SOPE   H8S20673   1.119   0.882   7.215 -0.3962  0.5226  1.7759
  181SOPE   C2920674   1.285   1.019   7.217  0.7433 -0.7854 -0.3030
  181SOPE   H9120675   1.344   1.078   7.145 -2.5102  1.8194 -1.0318
  181SOPE  C21020676   1.303   1.032   7.347  0.0085  0.3145  0.4333
  181SOPE  H10120677   1.384   1.100   7.377 -0.3255  0.5907  0.7187
  181SOPE  C21120678   1.231   0.955   7.452  0.1223  0.2911  0.2028
  181SOPE  H11R20679   1.295   0.949   7.543  1.1624  2.6344 -0.2935
  181SOPE  H11S20680   1.212   0.849   7.425 -3.5922  1.0604 -0.6817
  181SOPE  C21220681   1.100   1.015   7.507 -0.1931  0.5483 -0.3998
  181SOPE  H12R20682   1.034   1.013   7.418 -3.4708  1.1998  1.8316
  181SOPE  H12S20683   1.121   1.117   7.544 -1.0687  0.7483 -0.4358
  181SOPE  C21320684   1.028   0.918   7.607 -0.4725 -0.3022 -0.4006
  181SOPE  H13R20685   1.023   0.816   7.564  2.7020  0.4550 -2.9713
  181SOPE  H13S20686   0.935   0.964   7.647  0.7111  1.7109  0.1577
  181SOPE  C21420687   1.114   0.903   7.737 -1.0449 -0.1941  0.4667
  181SOPE  H14R20688   1.189   0.984   7.729 -1.4240  0.0110 -1.2533
  181SOPE  H14S20689   1.163   0.803   7.732  0.8347  0.7426 -0.9886
  181SOPE  C21520690   1.049   0.923   7.875  0.3767  0.2597  0.5714
  181SOPE  H15R20691   0.952   0.871   7.891  0.1946  0.8656  1.5339
  181SOPE  H15S20692   1.042   1.031   7.901 -0.6094  0.1365  0.8543
  181SOPE  C21620693   1.143   0.862   7.979  0.3297  0.8465  0.7038
  181SOPE  H16R20694   1.252   0.882   7.968  0.4312  0.2116  0.5188
  181SOPE  H16S20695   1.126   0.753   7.964 -1.8116  1.4981 -3.1647
  181SOPE  C21720696   1.102   0.910   8.124 -0.5108 -0.0836 -0.2208
  181SOPE  H17R20697   1.078   1.018   8.118 -0.5555 -0.0169  0.8812
  181SOPE  H17S20698   1.184   0.890   8.197  0.7165  0.6221 -1.3725
  181SOPE  C21820699   0.982   0.845   8.194  0.1566  0.3998 -0.4924
  181SOPE  H18R20700   0.894   0.825   8.129 -1.5422 -1.0038  2.0799
  181SOPE  H18S20701   0.940   0.914   8.270  0.1861  1.1636 -1.1430
  181SOPE  H18T20702   1.006   0.746   8.236  1.6333  0.1033 -1.9075
  181SOPE   C3320703   0.753   0.807   6.746 -0.6728 -0.5980  0.5922
  181SOPE   H3X20704   0.834   0.866   6.795  0.5607  1.0320 -3.0839
  181SOPE   H3Y20705   0.776   0.699   6.757  1.4903 -0.1233  1.4245
  181SOPE   C3420706   0.619   0.837   6.819 -0.4663 -0.7060 -0.3747
  181SOPE   H4X20707   0.544   0.766   6.779 -2.9123  1.5278  0.0025
  181SOPE   H4Y20708   0.600   0.944   6.799  4.9094  0.2819 -1.7494
  181SOPE   C3520709   0.631   0.814   6.967  1.3377  0.3320  0.5070
  181SOPE   H5X20710   0.657   0.707   6.986  0.4581 -0.0455 -0.2758
  181SOPE   H5Y20711   0.524   0.812   6.997  1.0949 -0.7833 -0.3548
  181SOPE   C3620712   0.711   0.907   7.055  0.1733 -0.4573 -0.0538
  181SOPE   H6X20713   0.675   1.012   7.043 -1.1095 -0.7810  0.7645
  181SOPE   H6Y20714   0.815   0.904   7.016  0.7005  1.7195  0.9777
  181SOPE   C3720715   0.707   0.889   7.203  0.6710 -0.7385 -0.5503
  181SOPE   H7X20716   0.605   0.911   7.242  0.6872  0.0486 -0.9240
  181SOPE   H7Y20717   0.784   0.959   7.241  0.1678 -0.9052  0.8238
  181SOPE   C3820718   0.746   0.744   7.241  0.2175 -0.2484 -0.3606
  181SOPE   H8X20719   0.845   0.716   7.198  1.5417  1.7848  1.1502
  181SOPE   H8Y20720   0.677   0.667   7.202  0.8008 -2.2179  2.2530
  181SOPE   C3920721   0.777   0.730   7.392  0.0833 -0.0145  0.4696
  181SOPE   H9X20722   0.860   0.797   7.424 -1.3537  1.9674  0.2094
  181SOPE   H9Y20723   0.811   0.626   7.410  2.2860  0.9796  2.7041
  181SOPE  C31020724   0.663   0.770   7.490  0.2452  0.8552  0.4988
  181SOPE  H10X20725   0.567   0.723   7.459  1.1567 -0.9511  0.3046
  181SOPE  H10Y20726   0.638   0.878   7.496  1.8435  1.3310 -0.8223
  181SOPE  C31120727   0.693   0.716   7.633 -0.4102 -0.5109 -0.0797
  181SOPE  H11X20728   0.785   0.761   7.676 -0.6498  0.2791 -0.3937
  181SOPE  H11Y20729   0.717   0.608   7.621  0.8738 -0.0810 -1.8354
  181SOPE  C31220730   0.578   0.744   7.731 -0.1510 -0.6829 -0.3589
  181SOPE  H12X20731   0.485   0.690   7.702 -0.9064  0.8212 -0.8505
  181SOPE  H12Y20732   0.552   0.852   7.725 -0.1542 -0.5097  2.0083
  181SOPE  C31320733   0.612   0.705   7.875 -0.0475 -0.6367  0.3036
  181SOPE  H13X20734   0.549   0.768   7.942 -0.6929  0.6416 -1.4393
  181SOPE  H13Y20735   0.721   0.723   7.890  0.1555 -0.2271 -1.4961
  181SOPE  C31420736   0.588   0.553   7.902 -0.2936  0.5550 -0.2775
  181SOPE  H14X20737   0.626   0.485   7.822 -1.6844  0.1153 -0.5875
  181SOPE  H14Y20738   0.477   0.553   7.906 -0.2571  0.5570  1.2195
  181SOPE  C31520739   0.648   0.515   8.037 -0.3604 -0.5842 -0.1608
  181SOPE  H15X20740   0.759   0.519   8.029 -0.1413 -0.8903  1.9942
  181SOPE  H15Y20741   0.616   0.411   8.060  1.4456 -1.1450 -0.0564
  181SOPE  C31620742   0.616   0.607   8.161 -0.1090 -0.0427 -0.7693
  181SOPE  H16X20743   0.513   0.580   8.191  0.1515  0.7260  0.9439
  181SOPE  H16Y20744   0.610   0.715   8.137  0.7841  0.5989  1.6156
  181SOPE  C31720745   0.708   0.570   8.281 -0.1395 -0.5419 -0.2592
  181SOPE  H17X20746   0.815   0.591   8.258  0.5212 -2.9500  0.3568
  181SOPE  H17Y20747   0.698   0.461   8.298 -2.3154 -0.2741  0.4712
  181SOPE  C31820748   0.666   0.642   8.412 -0.1450 -0.4240  0.2427
  181SOPE  H18X20749   0.691   0.751   8.407  1.3456 -0.7797 -1.0822
  181SOPE  H18Y20750   0.725   0.606   8.499  0.4927  2.8868  1.3297
  181SOPE  H18Z20751   0.558   0.626   8.429 -0.7932  3.2285  0.4983
  182SOPE     N20752   6.227   4.287   6.440  0.0096 -0.1563 -0.5030
  182SOPE   HN120753   6.138   4.261   6.393  0.6487 -0.4211 -1.6307
  182SOPE   HN220754   6.276   4.338   6.364 -0.1868  1.0792  0.1805
  182SOPE   HN320755   6.286   4.206   6.467  0.9612  1.1173  1.4879
  182SOPE   C1220756   6.186   4.380   6.549  0.1305  0.2812 -0.2449
  182SOPE  H12A20757   6.269   4.400   6.620  1.8322  0.4617 -2.1958
  182SOPE  H12B20758   6.097   4.336   6.600  1.3126 -0.5578  1.1734
  182SOPE   C1120759   6.152   4.517   6.478  0.8396 -0.4506  0.7521
  182SOPE  H11A20760   6.102   4.581   6.555  1.1155  0.6592  0.0324
  182SOPE  H11B20761   6.086   4.500   6.391  3.7794  0.5707 -1.8388
  182SOPE     P20762   6.241   4.735   6.381  0.2357  0.0542  0.2266
  182SOPE   O1320763   6.097   4.765   6.392 -0.4622  0.3065 -0.2260
  182SOPE   O1420764   6.306   4.766   6.256 -0.5074  0.7360  0.9681
  182SOPE   O1220765   6.269   4.588   6.426 -0.2849 -0.0061 -0.0427
  182SOPE   O1120766   6.317   4.816   6.486  0.7484  0.0408  0.1487
  182SOPE    C120767   6.303   4.809   6.629  0.2221  0.3363 -0.3575
  182SOPE    HA20768   6.193   4.804   6.646  0.4825 -0.8138  1.1716
  182SOPE    HB20769   6.343   4.904   6.669  1.3251  2.0909 -4.9769
  182SOPE    C220770   6.376   4.689   6.683 -0.0213 -0.0244 -0.8873
  182SOPE    HS20771   6.337   4.592   6.647  1.6868 -1.0353 -0.1297
  182SOPE   O2120772   6.378   4.700   6.831 -0.0682  0.0926  0.3470
  182SOPE   C2120773   6.290   4.628   6.890 -0.5066  0.1142 -0.0824
  182SOPE   O2220774   6.209   4.550   6.840  0.0065  0.1906  0.1602
  182SOPE   C2220775   6.310   4.651   7.039  0.1974  0.0932  0.1668
  182SOPE   H2R20776   6.316   4.761   7.052  0.0681  0.0813  0.3309
  182SOPE   H2S20777   6.404   4.600   7.068 -0.3930 -1.0613  0.0999
  182SOPE    C320778   6.519   4.691   6.627  0.3371 -0.1041  0.3275
  182SOPE    HX20779   6.559   4.794   6.641 -1.9274  1.0891 -1.3737
  182SOPE    HY20780   6.517   4.667   6.519 -0.2028 -1.2258  0.5721
  182SOPE   O3120781   6.611   4.613   6.706 -0.5797  0.1453 -0.3356
  182SOPE   C3120782   6.621   4.486   6.669  1.1074 -0.2216  0.2897
  182SOPE   O3220783   6.556   4.425   6.587 -0.3236  0.4617 -0.7200
  182SOPE   C3220784   6.732   4.420   6.755 -0.6432 -0.6534  0.2074
  182SOPE   H2X20785   6.753   4.483   6.845  1.0103 -0.0982 -0.5250
  182SOPE   H2Y20786   6.826   4.427   6.697 -0.0172 -2.4429  0.9582
  182SOPE   C2320787   6.185   4.614   7.122  0.2529  0.0235  0.5687
  182SOPE   H3R20788   6.180   4.506   7.148 -3.1617  0.5391  2.7204
  182SOPE   H3S20789   6.098   4.640   7.059  1.0057  0.8046 -0.1771
  182SOPE   C2420790   6.175   4.691   7.253 -0.2182 -0.5291 -0.0222
  182SOPE   H4R20791   6.216   4.793   7.242 -2.4022  0.1776 -3.0967
  182SOPE   H4S20792   6.069   4.699   7.284  0.5851  0.7042  2.6918
  182SOPE   C2520793   6.253   4.609   7.363  0.3370  0.4880  0.2113
  182SOPE   H5R20794   6.197   4.513   7.373 -0.9452  1.3352  1.8736
  182SOPE   H5S20795   6.356   4.584   7.330  0.5186  0.2891  0.9101
  182SOPE   C2620796   6.259   4.685   7.488 -0.2482 -0.0823 -0.7919
  182SOPE   H6R20797   6.329   4.770   7.474  1.0239 -1.2052 -1.4915
  182SOPE   H6S20798   6.160   4.734   7.504 -0.0655  0.0141  0.0946
  182SOPE   C2720799   6.296   4.599   7.611  0.5587  0.0108 -0.5216
  182SOPE   H7R20800   6.392   4.547   7.594 -0.7345 -1.8305 -2.6913
  182SOPE   H7S20801   6.311   4.676   7.691 -1.8992  1.1082 -1.0084
  182SOPE   C2820802   6.182   4.502   7.650  0.1525  0.1539 -0.3781
  182SOPE   H8R20803   6.155   4.436   7.565  1.5111 -1.4282  0.3588
  182SOPE   H8S20804   6.228   4.435   7.726 -0.2107 -0.0835 -0.3679
  182SOPE   C2920805   6.060   4.577   7.709 -0.5311 -0.1938  0.3135
  182SOPE   H9120806   6.046   4.685   7.694  1.0733 -0.0766 -0.5826
  182SOPE  C21020807   5.962   4.505   7.767  0.3032  0.2149 -0.1682
  182SOPE  H10120808   5.881   4.552   7.825  1.4671  0.3808  1.3989
  182SOPE  C21120809   5.947   4.352   7.793 -0.1656  0.0600  0.1380
  182SOPE  H11R20810   5.960   4.325   7.900 -1.7558  2.0766  0.9022
  182SOPE  H11S20811   6.027   4.299   7.737 -1.1660 -1.7810  0.3471
  182SOPE  C21220812   5.815   4.297   7.751 -0.0618  0.1625  0.1639
  182SOPE  H12R20813   5.828   4.187   7.759  1.3165  0.2267 -0.7994
  182SOPE  H12S20814   5.805   4.317   7.642 -1.0296 -1.5558 -0.0908
  182SOPE  C21320815   5.698   4.368   7.823  0.2418  1.1565 -0.4378
  182SOPE  H13R20816   5.685   4.471   7.783  1.8013  0.4705 -2.9218
  182SOPE  H13S20817   5.727   4.383   7.929 -1.9385  0.7673  0.2588
  182SOPE  C21420818   5.568   4.283   7.831 -0.5287  0.2562 -0.4691
  182SOPE  H14R20819   5.582   4.184   7.880 -3.2869  0.2104  0.3526
  182SOPE  H14S20820   5.529   4.254   7.731 -1.0426 -0.4509 -0.0698
  182SOPE  C21520821   5.453   4.355   7.907 -0.3537 -0.0441 -0.0472
  182SOPE  H15R20822   5.447   4.453   7.854 -2.0025  0.8367  1.6614
  182SOPE  H15S20823   5.478   4.383   8.011 -1.3034  0.2572  0.1065
  182SOPE  C21620824   5.309   4.295   7.890  0.2664  0.5002  1.1646
  182SOPE  H16R20825   5.242   4.332   7.970 -2.1340 -2.1413  0.5613
  182SOPE  H16S20826   5.318   4.184   7.897 -0.8187  0.1984 -1.0945
  182SOPE  C21720827   5.264   4.316   7.742  1.2499 -0.0514 -0.2769
  182SOPE  H17R20828   5.193   4.233   7.718  3.1350 -1.5230 -1.0590
  182SOPE  H17S20829   5.326   4.277   7.658 -1.3877 -0.6589 -2.0533
  182SOPE  C21820830   5.214   4.455   7.716 -0.3135 -0.3168  0.2102
  182SOPE  H18R20831   5.268   4.539   7.765  0.1931  0.1056 -1.0307
  182SOPE  H18S20832   5.107   4.466   7.743 -0.2819 -0.1807  0.2805
  182SOPE  H18T20833   5.220   4.477   7.607  0.2086  2.8060  0.7718
  182SOPE   C3320834   6.715   4.273   6.804 -1.3626  0.0946  0.3978
  182SOPE   H3X20835   6.803   4.218   6.843 -0.9093 -0.2700 -1.0631
  182SOPE   H3Y20836   6.679   4.219   6.714 -1.3475  0.9393 -0.1285
  182SOPE   C3420837   6.602   4.262   6.904 -0.0361 -0.8712 -0.0892
  182SOPE   H4X20838   6.577   4.153   6.907 -0.1588 -0.8570 -0.6238
  182SOPE   H4Y20839   6.516   4.326   6.875  0.5095  0.9139  1.9781
  182SOPE   C3520840   6.641   4.302   7.049  0.9187 -0.2900  0.1044
  182SOPE   H5X20841   6.646   4.412   7.055  0.2908 -0.2624  0.2432
  182SOPE   H5Y20842   6.741   4.268   7.081  0.8088  0.4484  1.2790
  182SOPE   C3620843   6.527   4.264   7.147 -0.2337  0.4593 -0.1745
  182SOPE   H6X20844   6.527   4.153   7.150  1.7246  0.4242  1.8368
  182SOPE   H6Y20845   6.431   4.303   7.109  0.1594  0.8658 -0.7628
  182SOPE   C3720846   6.567   4.316   7.289  0.1796  0.2175  0.1559
  182SOPE   H7X20847   6.536   4.419   7.317  0.5963  0.2637  0.4572
  182SOPE   H7Y20848   6.676   4.300   7.305  0.3257 -0.1300 -1.0882
  182SOPE   C3820849   6.504   4.226   7.391  0.4749  0.6039  0.6784
  182SOPE   H8X20850   6.545   4.124   7.373 -0.9687 -0.4812  2.9440
  182SOPE   H8Y20851   6.397   4.205   7.369  0.6696 -1.9705  1.7499
  182SOPE   C3920852   6.540   4.264   7.528 -0.2720  0.1007  0.3558
  182SOPE   H9X20853   6.506   4.369   7.545 -0.9778 -0.3324  1.7907
  182SOPE   H9Y20854   6.651   4.254   7.530 -0.3981 -2.0229 -0.6999
  182SOPE  C31020855   6.468   4.185   7.633 -0.5827  0.3807  0.8828
  182SOPE  H10X20856   6.512   4.083   7.638  0.4863  0.6341 -1.6153
  182SOPE  H10Y20857   6.360   4.174   7.610 -0.3681  0.5401 -0.2459
  182SOPE  C31120858   6.492   4.256   7.767  0.1682  1.6746 -0.3105
  182SOPE  H11X20859   6.429   4.348   7.761 -0.7706  1.0184 -0.8082
  182SOPE  H11Y20860   6.599   4.279   7.787  0.4603 -1.2940  2.2121
  182SOPE  C31220861   6.452   4.173   7.888 -0.0723  0.1140 -0.4985
  182SOPE  H12X20862   6.523   4.087   7.893  0.8260  0.8444 -0.5318
  182SOPE  H12Y20863   6.349   4.134   7.871  0.5866 -1.2275 -1.7334
  182SOPE  C31320864   6.466   4.242   8.026  0.6312  0.2680  0.3276
  182SOPE  H13X20865   6.409   4.337   8.038 -1.6661 -0.8406 -1.2371
  182SOPE  H13Y20866   6.575   4.261   8.038  0.3908  3.7134 -1.5140
  182SOPE  C31420867   6.433   4.152   8.146 -0.0473 -0.0153  0.0117
  182SOPE  H14X20868   6.483   4.053   8.134  1.4460  0.7057  0.0520
  182SOPE  H14Y20869   6.323   4.147   8.136  0.0659 -1.9509 -0.7485
  182SOPE  C31520870   6.465   4.206   8.283 -0.3616  0.6311 -0.3201
  182SOPE  H15X20871   6.574   4.225   8.288 -0.1662 -0.7355  1.1154
  182SOPE  H15Y20872   6.438   4.126   8.355  0.3694  0.1585 -0.5615
  182SOPE  C31620873   6.396   4.339   8.314  0.8119  1.0254 -0.1793
  182SOPE  H16X20874   6.288   4.325   8.293  0.8261  1.6060 -0.6887
  182SOPE  H16Y20875   6.443   4.424   8.261  1.1449  1.2356  0.4463
  182SOPE  C31720876   6.410   4.380   8.458  0.0976  1.2028 -0.0099
  182SOPE  H17X20877   6.517   4.403   8.476  0.9970 -1.6836 -1.1203
  182SOPE  H17Y20878   6.365   4.309   8.530 -2.6369  1.5232 -1.2636
  182SOPE  C31820879   6.317   4.503   8.480 -0.6887 -0.5357  0.3387
  182SOPE  H18X20880   6.355   4.593   8.427  0.7324 -0.9562  0.6029
  182SOPE  H18Y20881   6.315   4.512   8.591 -0.3146 -4.5004  0.7804
  182SOPE  H18Z20882   6.210   4.490   8.455 -1.1703  0.8682  1.5227
  183SOPE     N20883   1.287   2.172   6.106  0.0795  0.3215 -0.3075
  183SOPE   HN120884   1.221   2.177   6.026 -0.0410 -0.5414 -0.2715
  183SOPE   HN220885   1.363   2.243   6.109  2.4900 -2.0806 -0.2599
  183SOPE   HN320886   1.332   2.082   6.080 -2.6643 -0.7948 -1.4942
  183SOPE   C1220887   1.218   2.160   6.241 -0.3316  0.3146  0.3093
  183SOPE  H12A20888   1.162   2.255   6.240 -1.5313 -0.3806 -0.1589
  183SOPE  H12B20889   1.287   2.155   6.328 -0.3210 -0.5983  0.2568
  183SOPE   C1120890   1.120   2.043   6.252  0.3604  0.3980  0.0836
  183SOPE  H11A20891   1.030   2.086   6.203  0.2795  1.7450  1.3614
  183SOPE  H11B20892   1.096   2.026   6.359  1.6766 -1.1347  0.1718
  183SOPE     P20893   1.239   1.814   6.277  0.1738 -0.0902 -0.1377
  183SOPE   O1320894   1.365   1.874   6.327  0.4961  0.2228  0.0984
  183SOPE   O1420895   1.247   1.679   6.220 -0.0925 -0.0171  0.5520
  183SOPE   O1220896   1.162   1.921   6.189  0.2057 -0.2065 -0.3187
  183SOPE   O1120897   1.152   1.794   6.411  0.3620  0.2303  0.1966
  183SOPE    C120898   1.011   1.785   6.400  1.2759  0.3135  0.9993
  183SOPE    HA20899   0.967   1.784   6.298  1.4785  0.3660  0.9106
  183SOPE    HB20900   0.966   1.877   6.446  0.5231  0.1547  0.5910
  183SOPE    C220901   0.959   1.651   6.469  0.0159 -0.0675 -0.1669
  183SOPE    HS20902   0.848   1.645   6.480 -0.4373  1.4966 -2.9479
  183SOPE   O2120903   1.014   1.644   6.604 -0.1320  0.0652  0.0607
  183SOPE   C2120904   0.972   1.730   6.688  0.6106  0.1355  0.6305
  183SOPE   O2220905   0.879   1.809   6.668  0.2650 -0.2924  0.2165
  183SOPE   C2220906   1.043   1.707   6.823  0.1849  0.4721 -0.1448
  183SOPE   H2R20907   1.150   1.717   6.792  0.3488  0.0207  0.2628
  183SOPE   H2S20908   1.024   1.600   6.847 -2.2500  0.5891 -1.2651
  183SOPE    C320909   1.006   1.521   6.390  0.4442 -0.5169  0.3790
  183SOPE    HX20910   1.112   1.533   6.359  0.4341  0.9851  0.8396
  183SOPE    HY20911   0.955   1.527   6.292  0.6071  1.4706  0.3775
  183SOPE   O3120912   0.976   1.399   6.447  0.6486 -0.6467  0.5365
  183SOPE   C3120913   1.069   1.348   6.530  0.0693  0.4014  0.1948
  183SOPE   O3220914   1.176   1.396   6.558  0.3857 -0.3866  0.4482
  183SOPE   C3220915   1.003   1.225   6.595  0.4987  0.0531  0.5242
  183SOPE   H2X20916   1.003   1.147   6.516  0.0165  0.8795 -0.2984
  183SOPE   H2Y20917   0.899   1.257   6.618  0.1202  0.5711 -1.6754
  183SOPE   C2320918   0.991   1.809   6.936 -0.0913  0.4076  0.3133
  183SOPE   H3R20919   0.880   1.824   6.938 -0.1144  0.1928  2.0703
  183SOPE   H3S20920   1.029   1.909   6.906  0.6249  0.4892  1.4397
  183SOPE   C2420921   1.029   1.759   7.074 -0.1916 -0.8143 -0.3002
  183SOPE   H4R20922   0.974   1.665   7.096 -1.9421  0.5661  1.6460
  183SOPE   H4S20923   1.137   1.739   7.089  0.4492  2.8440  1.2107
  183SOPE   C2520924   1.008   1.869   7.183 -0.6621  0.7121 -0.3581
  183SOPE   H5R20925   1.090   1.944   7.176  1.7904 -1.2627  3.3764
  183SOPE   H5S20926   0.905   1.907   7.170 -0.8817 -0.2652 -1.5951
  183SOPE   C2620927   1.014   1.798   7.328  0.3982  0.3351 -0.2214
  183SOPE   H6R20928   0.923   1.738   7.349  0.2192  0.9204  0.7413
  183SOPE   H6S20929   1.108   1.740   7.330  1.2601  1.6724 -0.2298
  183SOPE   C2720930   1.006   1.896   7.449  0.0805 -0.0373  0.4848
  183SOPE   H7R20931   1.098   1.958   7.458  0.8354 -1.0067 -0.2065
  183SOPE   H7S20932   0.913   1.956   7.444  1.4168  2.2991  1.8161
  183SOPE   C2820933   0.988   1.829   7.586  0.1642 -0.4296 -0.6510
  183SOPE   H8R20934   0.942   1.901   7.658 -2.0763  0.1257 -2.5030
  183SOPE   H8S20935   0.899   1.763   7.573 -1.4327  1.5442 -0.3236
  183SOPE   C2920936   1.117   1.753   7.633  0.1913  0.4230 -0.1637
  183SOPE   H9120937   1.147   1.669   7.568  3.0861 -0.5336  2.2022
  183SOPE  C21020938   1.175   1.767   7.754  0.3568  0.0702 -0.9561
  183SOPE  H10120939   1.247   1.692   7.790 -0.0732 -0.1111 -0.4509
  183SOPE  C21120940   1.137   1.865   7.862  0.2655  0.0359  0.2879
  183SOPE  H11R20941   1.027   1.852   7.873  0.3195 -0.2158  0.5357
  183SOPE  H11S20942   1.157   1.969   7.828  0.2496  0.0561  0.3409
  183SOPE  C21220943   1.197   1.836   8.000 -0.0553  0.4760  0.8387
  183SOPE  H12R20944   1.307   1.834   7.981 -0.1864  0.5181  0.0412
  183SOPE  H12S20945   1.160   1.739   8.041 -2.0705  0.4452 -0.8841
  183SOPE  C21320946   1.163   1.947   8.096  0.2805  0.2762 -0.2941
  183SOPE  H13R20947   1.056   1.950   8.127  0.2464  0.1062 -0.3915
  183SOPE  H13S20948   1.193   2.041   8.047  1.9168  0.7867  1.5807
  183SOPE  C21420949   1.255   1.952   8.224  0.7088 -0.1711  0.4368
  183SOPE  H14R20950   1.354   1.998   8.203 -0.3986  2.5060  0.7121
  183SOPE  H14S20951   1.269   1.846   8.254  0.6151 -0.3795 -0.2445
  183SOPE  C21520952   1.186   2.015   8.337 -0.0819 -0.1759  0.4557
  183SOPE  H15R20953   1.241   1.980   8.426  1.6683 -0.3685 -0.6423
  183SOPE  H15S20954   1.084   1.977   8.359  0.5162 -1.3033  1.3530
  183SOPE  C21620955   1.174   2.165   8.330 -0.2377  0.6560  0.3916
  183SOPE  H16R20956   1.108   2.192   8.246  0.2218  2.1736  0.4874
  183SOPE  H16S20957   1.264   2.226   8.305 -0.5860  1.0312  0.0535
  183SOPE  C21720958   1.104   2.222   8.454  0.1215  0.0366 -0.4415
  183SOPE  H17R20959   1.013   2.161   8.473  1.3377 -0.8683  3.5674
  183SOPE  H17S20960   1.062   2.323   8.432 -3.6537 -1.6587 -1.8995
  183SOPE  C21820961   1.199   2.228   8.573  0.3674  0.2349  0.3954
  183SOPE  H18R20962   1.153   2.289   8.654 -1.4476  0.4714 -0.7381
  183SOPE  H18S20963   1.296   2.282   8.567 -0.8863  2.5302 -0.5690
  183SOPE  H18T20964   1.235   2.130   8.610  1.1502  0.8593  1.3409
  183SOPE   C3320965   1.072   1.192   6.730 -0.2415 -0.1476  0.7192
  183SOPE   H3X20966   1.182   1.179   6.726 -0.2210 -0.2677  1.4516
  183SOPE   H3Y20967   1.042   1.087   6.752  0.8982 -0.7866 -0.6012
  183SOPE   C3420968   1.041   1.306   6.836 -0.2139  0.4114 -0.1838
  183SOPE   H4X20969   0.938   1.345   6.821 -1.1570 -1.1440  1.6752
  183SOPE   H4Y20970   1.124   1.378   6.825 -1.9508  2.0824 -4.3843
  183SOPE   C3520971   1.050   1.253   6.976  0.1383 -0.1755 -0.3314
  183SOPE   H5X20972   1.146   1.205   7.004 -0.9200 -1.2845  1.5508
  183SOPE   H5Y20973   0.963   1.185   6.986  0.7243 -0.9238 -0.3078
  183SOPE   C3620974   1.025   1.355   7.092  0.3195  0.4880  0.7397
  183SOPE   H6X20975   0.931   1.412   7.072 -1.1384 -1.1471  2.5295
  183SOPE   H6Y20976   1.105   1.430   7.108  1.5168 -0.3597 -0.9336
  183SOPE   C3720977   0.996   1.286   7.224  0.1650  0.6969 -0.4413
  183SOPE   H7X20978   1.087   1.241   7.269  1.1548  2.0855 -0.9850
  183SOPE   H7Y20979   0.921   1.205   7.214 -0.3986  0.7340  2.6283
  183SOPE   C3820980   0.929   1.382   7.329  0.1520 -0.4121 -0.3145
  183SOPE   H8X20981   0.839   1.441   7.302  0.8111  1.8749  2.0399
  183SOPE   H8Y20982   1.010   1.450   7.365 -0.7366  0.2104  0.5585
  183SOPE   C3920983   0.888   1.308   7.455 -0.9379  0.0564  0.4440
  183SOPE   H9X20984   0.969   1.235   7.474 -1.4158 -0.9715 -1.2081
  183SOPE   H9Y20985   0.804   1.247   7.414 -1.3423  0.4546  0.6805
  183SOPE  C31020986   0.846   1.374   7.586  0.0025 -0.6220 -0.2014
  183SOPE  H10X20987   0.752   1.424   7.555 -0.5153 -1.9448 -0.8557
  183SOPE  H10Y20988   0.922   1.451   7.611  0.2024  0.4135 -3.6204
  183SOPE  C31120989   0.824   1.277   7.706 -0.0603  0.2873  0.7050
  183SOPE  H11X20990   0.822   1.335   7.800  2.7875 -1.3292  1.8752
  183SOPE  H11Y20991   0.907   1.204   7.700 -0.4563 -0.1723  0.6862
  183SOPE  C31220992   0.705   1.179   7.698  0.0096 -1.0586  0.4039
  183SOPE  H12X20993   0.728   1.102   7.621  0.8997 -3.0929  2.5774
  183SOPE  H12Y20994   0.609   1.228   7.671  0.1893 -0.2845  1.1324
  183SOPE  C31320995   0.681   1.090   7.823  0.3676 -0.8010  1.1024
  183SOPE  H13X20996   0.762   1.016   7.842  0.0041 -1.3399  0.5598
  183SOPE  H13Y20997   0.591   1.032   7.795 -0.1932  0.9474 -0.9860
  183SOPE  C31420998   0.662   1.165   7.961 -0.5745  0.4450  0.9224
  183SOPE  H14X20999   0.575   1.232   7.945 -1.5152 -0.9450  0.0344
  183SOPE  H14Y21000   0.753   1.223   7.990 -1.3055  1.3674  1.4286
  183SOPE  C31521001   0.628   1.072   8.085 -0.1073  0.0610 -0.4539
  183SOPE  H15X21002   0.718   1.009   8.100  0.7552  1.4259  0.2483
  183SOPE  H15Y21003   0.539   1.016   8.047 -1.7203  2.1840 -0.0115
  183SOPE  C31621004   0.584   1.148   8.216  0.9163 -0.0356  0.3911
  183SOPE  H16X21005   0.523   1.236   8.187  2.4458  0.5254 -1.3305
  183SOPE  H16Y21006   0.665   1.205   8.265  0.6578  1.1928 -0.5393
  183SOPE  C31721007   0.525   1.057   8.321 -0.1345 -0.2282  0.3967
  183SOPE  H17X21008   0.599   0.986   8.364 -0.7238 -1.3309 -0.3622
  183SOPE  H17Y21009   0.441   0.996   8.282 -1.8503  2.0830  0.2596
  183SOPE  C31821010   0.457   1.130   8.431 -0.5161 -0.1609 -0.1542
  183SOPE  H18X21011   0.390   1.204   8.382  0.9980  1.7280  0.4805
  183SOPE  H18Y21012   0.523   1.170   8.511 -1.8918 -0.6761  1.2863
  183SOPE  H18Z21013   0.400   1.053   8.485 -0.0895  0.5422  1.3438
  184SOPE     N21014   2.228   6.493   6.561 -0.1782 -0.3592  0.0218
  184SOPE   HN121015   2.189   6.401   6.532 -0.5073  0.1632 -1.2704
  184SOPE   HN221016   2.298   6.541   6.502 -0.8277  0.3592 -0.1841
  184SOPE   HN321017   2.273   6.471   6.652  0.6665  0.2030 -0.2486
  184SOPE   C1221018   2.116   6.593   6.563  0.6371 -0.1710  0.2584
  184SOPE  H12A21019   2.046   6.558   6.642 -0.1625  0.1184 -0.3105
  184SOPE  H12B21020   2.058   6.587   6.468 -0.8836 -1.2314  1.2006
  184SOPE   C1121021   2.157   6.733   6.614  0.2672 -0.3939 -0.0094
  184SOPE  H11A21022   2.193   6.737   6.719  3.4514  2.6927 -1.0076
  184SOPE  H11B21023   2.064   6.794   6.605  0.3917 -0.3803 -1.3749
  184SOPE     P21024   2.246   6.874   6.409 -0.0643  0.1390 -0.1987
  184SOPE   O1321025   2.188   6.787   6.304 -0.2708 -0.8370 -0.0233
  184SOPE   O1421026   2.372   6.944   6.376 -0.6788 -0.6635  1.0760
  184SOPE   O1221027   2.263   6.792   6.540  0.0638  0.9514 -0.4335
  184SOPE   O1121028   2.145   6.982   6.460 -0.3589 -0.3411 -0.2738
  184SOPE    C121029   2.182   7.117   6.499 -0.2054  0.3376  0.0480
  184SOPE    HA21030   2.148   7.191   6.423 -2.2935  0.3566  0.9409
  184SOPE    HB21031   2.293   7.125   6.506 -0.3451  1.9965  0.8719
  184SOPE    C221032   2.123   7.164   6.642  0.8238 -0.3044  1.0514
  184SOPE    HS21033   2.135   7.273   6.657  3.4082 -0.4283  0.3532
  184SOPE   O2121034   2.170   7.092   6.752 -0.7334  0.7111  0.2228
  184SOPE   C2121035   2.293   7.119   6.780 -0.3862 -0.2055 -0.0156
  184SOPE   O2221036   2.370   7.180   6.714 -0.7985 -0.2378  0.1001
  184SOPE   C2221037   2.326   7.060   6.911 -0.4237 -0.2046 -0.4773
  184SOPE   H2R21038   2.434   7.036   6.919 -0.1246  1.1329 -0.2900
  184SOPE   H2S21039   2.270   6.964   6.921 -2.0296  0.6917 -0.4546
  184SOPE    C321040   1.966   7.153   6.625  0.5860  0.0685 -0.7910
  184SOPE    HX21041   1.926   7.052   6.602 -1.9635  0.8684 -0.2589
  184SOPE    HY21042   1.943   7.217   6.537  0.7553  2.9122  1.0876
  184SOPE   O3121043   1.890   7.197   6.737 -0.0397  0.3571 -0.5952
  184SOPE   C3121044   1.864   7.331   6.735 -0.0803  0.1087 -0.4593
  184SOPE   O3221045   1.928   7.412   6.671  0.2054  0.2360 -0.0816
  184SOPE   C3221046   1.742   7.356   6.831 -0.2357  0.6067  0.4814
  184SOPE   H2X21047   1.697   7.255   6.842  3.7624 -1.8646 -2.7099
  184SOPE   H2Y21048   1.675   7.414   6.764  1.5417  0.2041 -1.7974
  184SOPE   C2321049   2.299   7.161   7.032 -0.4158 -0.2498  0.0644
  184SOPE   H3R21050   2.189   7.175   7.038 -0.7371 -1.8789 -1.3139
  184SOPE   H3S21051   2.332   7.266   7.016 -2.9536  0.3770 -1.5634
  184SOPE   C2421052   2.364   7.110   7.158  0.2204 -0.4404 -0.7300
  184SOPE   H4R21053   2.317   7.011   7.179  1.9808 -1.8106 -2.7326
  184SOPE   H4S21054   2.472   7.086   7.150  0.4434 -0.4386  1.6330
  184SOPE   C2521055   2.343   7.197   7.285 -0.4456  0.6740  0.4094
  184SOPE   H5R21056   2.385   7.300   7.282  0.6407  0.2476  0.4627
  184SOPE   H5S21057   2.234   7.204   7.306 -0.0746 -1.6384  3.9196
  184SOPE   C2621058   2.398   7.128   7.411  1.1483  0.0804  0.1699
  184SOPE   H6R21059   2.370   7.021   7.401  1.7014  0.0392 -1.1399
  184SOPE   H6S21060   2.507   7.146   7.421  1.4619 -1.1875 -0.7362
  184SOPE   C2721061   2.331   7.175   7.537  0.0223  0.7414  0.2985
  184SOPE   H7R21062   2.335   7.286   7.526  3.9069  0.9014  1.9411
  184SOPE   H7S21063   2.224   7.144   7.538  0.7039 -1.9569 -0.8794
  184SOPE   C2821064   2.407   7.138   7.666  0.4702 -0.3301 -0.5708
  184SOPE   H8R21065   2.398   7.029   7.685 -1.2821 -0.1764 -0.3868
  184SOPE   H8S21066   2.512   7.174   7.655  0.3342  0.0226 -0.7014
  184SOPE   C2921067   2.331   7.230   7.771  0.4950  0.5589  0.6269
  184SOPE   H9121068   2.338   7.335   7.739 -1.4356 -0.5409 -4.4154
  184SOPE  C21021069   2.247   7.191   7.869  0.7982 -0.8461 -0.3820
  184SOPE  H10121070   2.194   7.265   7.931 -0.0110 -3.8431  2.7452
  184SOPE  C21121071   2.209   7.049   7.897 -0.2546  0.0332  0.4533
  184SOPE  H11R21072   2.203   6.979   7.811  0.8614 -2.5818  2.3876
  184SOPE  H11S21073   2.107   7.039   7.940 -0.9838 -1.3360 -1.4615
  184SOPE  C21221074   2.310   6.986   7.998  0.0598  0.1446 -0.4161
  184SOPE  H12R21075   2.416   6.991   7.965  0.6334 -2.7326  0.6604
  184SOPE  H12S21076   2.315   6.875   8.008  3.7442  0.3826  4.1144
  184SOPE  C21321077   2.308   7.054   8.137  1.1358 -0.7215 -0.2494
  184SOPE  H13R21078   2.310   7.165   8.130 -1.7578 -0.6789 -1.8008
  184SOPE  H13S21079   2.402   7.029   8.190 -0.1108 -3.0746  1.0155
  184SOPE  C21421080   2.195   7.002   8.227  0.8487  0.5997  0.3764
  184SOPE  H14R21081   2.215   6.896   8.251  0.7996  0.2382 -1.1040
  184SOPE  H14S21082   2.106   7.009   8.160 -0.2560  1.2747  1.8426
  184SOPE  C21521083   2.169   7.071   8.360 -0.1628 -0.5075 -0.0287
  184SOPE  H15R21084   2.135   7.175   8.339  0.9334 -0.1728 -0.2167
  184SOPE  H15S21085   2.271   7.074   8.402 -0.5309  0.6369  0.8461
  184SOPE  C21621086   2.067   6.988   8.441 -0.0022 -0.4021  0.1535
  184SOPE  H16R21087   2.067   7.017   8.549 -1.8062  2.8491 -0.5617
  184SOPE  H16S21088   2.089   6.880   8.433  1.9740 -0.1276  1.1677
  184SOPE  C21721089   1.917   7.016   8.400  0.3815 -0.2042 -0.0552
  184SOPE  H17R21090   1.922   6.946   8.314  0.4331  0.5120 -0.6489
  184SOPE  H17S21091   1.906   7.120   8.362  1.8201 -0.1634 -0.4299
  184SOPE  C21821092   1.806   6.961   8.495 -0.7107  0.1906  0.1452
  184SOPE  H18R21093   1.826   6.996   8.599 -2.0514  0.3297  0.3662
  184SOPE  H18S21094   1.801   6.851   8.484  1.4685 -0.1568  1.8642
  184SOPE  H18T21095   1.708   7.008   8.471 -1.0362 -0.2074  0.6825
  184SOPE   C3321096   1.788   7.403   6.971 -0.2704  0.2143  0.7767
  184SOPE   H3X21097   1.867   7.482   6.970  0.8023 -0.8247 -0.7896
  184SOPE   H3Y21098   1.833   7.315   7.022  1.4080  0.7137  0.2325
  184SOPE   C3421099   1.667   7.447   7.062  0.5024 -0.1297 -0.0082
  184SOPE   H4X21100   1.595   7.365   7.040 -0.9054  1.2632 -0.7604
  184SOPE   H4Y21101   1.612   7.535   7.023 -1.2267 -1.3494 -0.4177
  184SOPE   C3521102   1.709   7.468   7.212  0.2441 -0.1865  0.0375
  184SOPE   H5X21103   1.776   7.557   7.204 -0.1952  0.0799 -0.8356
  184SOPE   H5Y21104   1.745   7.371   7.252 -1.0062 -1.4478 -1.7429
  184SOPE   C3621105   1.597   7.512   7.313  0.0986 -0.2094 -0.5807
  184SOPE   H6X21106   1.502   7.461   7.287 -1.1331  1.5629  0.2106
  184SOPE   H6Y21107   1.579   7.621   7.316 -0.9893 -0.3722 -1.0513
  184SOPE   C3721108   1.624   7.469   7.464 -0.0156 -0.0788  0.1968
  184SOPE   H7X21109   1.728   7.508   7.474 -0.2032  0.3393  0.5797
  184SOPE   H7Y21110   1.638   7.359   7.474  0.2698 -0.1363 -0.7385
  184SOPE   C3821111   1.535   7.533   7.570 -0.7511  0.2142 -0.9871
  184SOPE   H8X21112   1.428   7.505   7.562 -1.2751  1.4595  1.0247
  184SOPE   H8Y21113   1.543   7.641   7.593 -0.6979 -0.2365  1.3435
  184SOPE   C3921114   1.574   7.476   7.715 -0.4475 -0.5723  0.6548
  184SOPE   H9X21115   1.685   7.472   7.714 -0.4004  0.0727  1.7694
  184SOPE   H9Y21116   1.549   7.370   7.736  3.3032 -1.3251  2.2347
  184SOPE  C31021117   1.535   7.560   7.833  0.3987  0.2521  0.6723
  184SOPE  H10X21118   1.438   7.612   7.818 -0.1117 -0.8104  0.1709
  184SOPE  H10Y21119   1.612   7.638   7.848  1.2730 -0.8706  2.4163
  184SOPE  C31121120   1.531   7.469   7.961 -0.3602 -0.3163  0.3906
  184SOPE  H11X21121   1.627   7.414   7.952 -0.5626 -0.2756 -4.2336
  184SOPE  H11Y21122   1.454   7.390   7.948  0.7846 -1.4111  0.1041
  184SOPE  C31221123   1.498   7.543   8.094 -0.4945 -0.0647 -0.3935
  184SOPE  H12X21124   1.504   7.464   8.171 -1.0414 -0.1149 -0.3938
  184SOPE  H12Y21125   1.392   7.577   8.096 -0.3048  0.8764 -2.8434
  184SOPE  C31321126   1.584   7.663   8.120  0.1199 -0.6170  0.7509
  184SOPE  H13X21127   1.570   7.731   8.032 -0.2924 -2.2897 -0.5298
  184SOPE  H13Y21128   1.685   7.618   8.114 -0.0999 -1.0485  0.0850
  184SOPE  C31421129   1.571   7.741   8.257 -0.0297  0.5435 -0.6438
  184SOPE  H14X21130   1.471   7.788   8.267  0.0759  0.6969 -0.2875
  184SOPE  H14Y21131   1.650   7.820   8.261  2.0145 -1.4397  0.6889
  184SOPE  C31521132   1.602   7.654   8.386 -0.3488  0.5539 -0.6672
  184SOPE  H15X21133   1.698   7.600   8.375 -0.3317  1.0375 -3.9689
  184SOPE  H15Y21134   1.512   7.590   8.396  0.4787 -0.5060  0.2176
  184SOPE  C31621135   1.607   7.737   8.512  0.5663  0.2614 -0.6299
  184SOPE  H16X21136   1.506   7.743   8.557  0.3000 -1.4357 -0.9234
  184SOPE  H16Y21137   1.624   7.843   8.484  2.8348  0.0296 -0.3710
  184SOPE  C31721138   1.726   7.712   8.610  0.6314  0.1397  0.4942
  184SOPE  H17X21139   1.813   7.736   8.545  0.8905 -1.2860  0.2679
  184SOPE  H17Y21140   1.740   7.607   8.644  2.2666  0.4191  0.7795
  184SOPE  C31821141   1.730   7.795   8.748  0.2927 -0.1970  0.2399
  184SOPE  H18X21142   1.698   7.735   8.836 -1.8347  0.8734  0.2589
  184SOPE  H18Y21143   1.668   7.886   8.735 -0.6392 -1.0005 -1.1215
  184SOPE  H18Z21144   1.837   7.819   8.765  0.7404 -1.1360 -1.0799
  185SAPI   C1221145   3.682   6.057  10.765 -0.5120  0.1562  0.9851
  185SAPI    H221146   3.615   6.069  10.677 -1.4755  1.6502  1.8748
  185SAPI    O221147   3.622   5.961  10.845  0.6527  0.1299  0.0804
  185SAPI   HO221148   3.547   6.005  10.887 -0.8319 -0.8836 -1.3732
  185SAPI   C1321149   3.814   6.004  10.713  0.4764 -0.2542 -0.5819
  185SAPI    H321150   3.870   6.083  10.659  2.6068 -0.4358  1.2082
  185SAPI    O321151   3.804   5.886  10.633  0.3121 -0.2283 -0.0313
  185SAPI   HO321152   3.740   5.909  10.565 -0.2857 -2.3809 -0.2561
  185SAPI   C1421153   3.906   5.972  10.835  0.3669  0.2240 -0.1911
  185SAPI    H421154   3.856   5.897  10.900  1.4092 -0.8699 -0.6235
  185SAPI    O421155   4.033   5.923  10.795  0.3248 -0.3363  0.0159
  185SAPI   HO421156   4.020   5.833  10.766  3.7304 -1.6972  2.0630
  185SAPI   C1521157   3.923   6.101  10.918 -0.1140 -0.6697 -0.1820
  185SAPI    H521158   3.972   6.175  10.851 -0.0907 -1.4436 -1.0506
  185SAPI    O521159   3.996   6.086  11.040  0.3717  0.0470  0.1844
  185SAPI   HO521160   4.047   6.167  11.053  0.6399 -0.2469  0.9940
  185SAPI   C1621161   3.785   6.156  10.952 -0.3164 -0.3249  0.3680
  185SAPI    H621162   3.745   6.083  11.025  1.9184 -3.3958 -1.2245
  185SAPI    O621163   3.804   6.275  11.024  0.0652 -0.3630  0.4127
  185SAPI   HO621164   3.804   6.353  10.969  1.8307 -0.0041  0.8833
  185SAPI   C1121165   3.702   6.185  10.838  0.7535 -0.3420  0.5654
  185SAPI    H121166   3.741   6.257  10.763 -0.5330 -0.4953 -0.2873
  185SAPI     P21167   3.512   6.369  10.877  0.0917  0.1496 -0.6619
  185SAPI   O1321168   3.610   6.464  10.927  0.4250  0.2125  0.0561
  185SAPI   O1421169   3.391   6.353  10.965  0.2239 -0.4357  0.1515
  185SAPI   O1221170   3.574   6.226  10.865 -0.5903  0.2810 -0.3877
  185SAPI   O1121171   3.459   6.404  10.728 -0.1839  0.2515 -0.6445
  185SAPI    C121172   3.438   6.308  10.625  0.4667  0.5112  0.2013
  185SAPI    HA21173   3.414   6.206  10.662 -2.2631  0.9691 -0.0772
  185SAPI    HB21174   3.338   6.332  10.583  0.6355  0.5589 -0.1719
  185SAPI    C221175   3.537   6.309  10.500  0.4177  0.0525 -0.1540
  185SAPI    HS21176   3.626   6.256  10.539  1.4538  1.0951 -1.0402
  185SAPI   O2121177   3.560   6.445  10.455 -0.0577 -0.3900 -0.0357
  185SAPI   C2121178   3.664   6.509  10.499 -0.2537  0.6048  0.6015
  185SAPI   O2221179   3.739   6.465  10.587  0.2568  0.4628 -0.0200
  185SAPI   C2221180   3.675   6.652  10.441 -0.2188 -0.0571 -0.2808
  185SAPI   H2R21181   3.590   6.704  10.489 -0.7969  0.5484 -1.9117
  185SAPI   H2S21182   3.773   6.695  10.472 -0.5941  0.2459  0.4951
  185SAPI    C321183   3.484   6.219  10.384  0.5901  0.5207  0.0967
  185SAPI    HX21184   3.399   6.277  10.343  1.3599  0.4454 -1.6994
  185SAPI    HY21185   3.435   6.125  10.416 -1.5435  1.4438 -0.2675
  185SAPI   O3121186   3.580   6.195  10.272 -0.2993  0.1939  0.3790
  185SAPI   C3121187   3.664   6.098  10.295 -0.6457 -0.0785  0.5960
  185SAPI   O3221188   3.669   6.027  10.396  0.7779  0.2506 -0.0294
  185SAPI   C3221189   3.737   6.064  10.168 -0.9019  0.1649  0.5997
  185SAPI   H2X21190   3.666   6.098  10.089  0.9214  0.1204 -1.1300
  185SAPI   H2Y21191   3.761   5.956  10.173 -0.2131  0.3503  1.7413
  185SAPI   C2321192   3.654   6.653  10.289 -0.5699  0.0177  0.0809
  185SAPI   H3R21193   3.657   6.760  10.259 -1.1989  0.9282  2.9596
  185SAPI   H3S21194   3.555   6.606  10.268 -0.8057  0.2944  0.5536
  185SAPI   C2421195   3.771   6.578  10.210 -0.0204 -0.2980 -0.0883
  185SAPI   H4R21196   3.783   6.474  10.249  0.3694 -0.5230 -0.7827
  185SAPI   H4S21197   3.863   6.638  10.228 -1.5334  1.9866  0.5005
  185SAPI   C2521198   3.743   6.564  10.068 -0.3765  0.3198 -0.4460
  185SAPI   H5R21199   3.646   6.515  10.051 -0.4715  0.6615 -0.9006
  185SAPI   C2621200   3.821   6.603   9.962 -0.0077  0.5586  0.8668
  185SAPI   H6R21201   3.789   6.567   9.863  0.9811 -1.1404  1.1361
  185SAPI   C2721202   3.947   6.676   9.961 -0.0083  0.0278  0.2875
  185SAPI   H7R21203   3.979   6.692  10.066 -0.3099 -1.9553  0.7237
  185SAPI   H7S21204   3.915   6.775   9.922 -0.1746  0.0968  0.5936
  185SAPI   C2821205   4.058   6.633   9.876  0.4206 -0.4745 -0.7020
  185SAPI   H8R21206   4.144   6.585   9.925 -1.7348 -2.5599  1.3338
  185SAPI   C2921207   4.069   6.627   9.741  0.0840  0.9781 -0.0980
  185SAPI   H9R21208   4.162   6.586   9.698 -1.0912 -0.0181 -1.7946
  185SAPI  C21021209   3.965   6.666   9.636  0.1006  0.2255 -0.2105
  185SAPI  H10R21210   4.011   6.740   9.567  0.7771  0.5763  0.5780
  185SAPI  H10S21211   3.882   6.728   9.676  3.0370  3.5138  1.4132
  185SAPI  C21121212   3.910   6.548   9.571 -0.4060 -0.2549 -0.1111
  185SAPI  H11R21213   3.821   6.500   9.615  1.1794 -1.7441  1.6727
  185SAPI  C21221214   3.954   6.500   9.452 -0.1142  0.4614  0.1112
  185SAPI  H12R21215   3.917   6.400   9.424 -1.1117  0.6008  0.8600
  185SAPI  C21321216   4.066   6.534   9.362  0.2826 -0.3616 -0.6580
  185SAPI  H13R21217   4.129   6.443   9.350  0.1944 -0.9362  2.5233
  185SAPI  H13S21218   4.134   6.603   9.417 -0.5785  2.6192 -3.0402
  185SAPI  C21421219   4.029   6.598   9.229 -0.4515  0.4410 -0.0115
  185SAPI  H14R21220   4.022   6.707   9.234  2.1386  0.6592  0.3106
  185SAPI  C21521221   4.007   6.547   9.110 -0.1195 -0.2756 -0.2192
  185SAPI  H15R21222   3.978   6.616   9.029 -3.4330 -0.2244  0.8531
  185SAPI  C21621223   4.014   6.406   9.070 -0.7477  0.4181  1.1996
  185SAPI  H16R21224   3.904   6.392   9.073 -0.6899 -0.2500  0.6081
  185SAPI  H16S21225   4.065   6.342   9.145  0.0183 -1.4560 -0.8185
  185SAPI  C21721226   4.056   6.366   8.924 -0.0747  0.7044  0.2458
  185SAPI  H17R21227   4.166   6.377   8.912  0.5923 -3.8515  0.4584
  185SAPI  H17S21228   4.007   6.434   8.850  1.0439  2.4785  1.0556
  185SAPI  C21821229   4.005   6.226   8.896 -0.0778 -0.1802  0.0253
  185SAPI  H18R21230   3.895   6.230   8.890 -0.3048 -2.0042  1.7912
  185SAPI  H18S21231   4.017   6.146   8.972 -1.3522 -2.6716 -2.2444
  185SAPI  C21921232   4.059   6.195   8.755 -0.2388 -0.8818 -0.9566
  185SAPI  H19R21233   4.168   6.217   8.746  0.0913 -2.7176 -2.0767
  185SAPI  H19S21234   4.014   6.270   8.686  0.8367  1.6544  0.9444
  185SAPI  C22021235   4.034   6.049   8.696  0.1134 -0.6987  0.0988
  185SAPI  H20R21236   4.041   5.960   8.762 -0.4973  0.0476  1.2006
  185SAPI  H20S21237   4.113   6.033   8.620  1.2330 -1.7962  1.4293
  185SAPI  H20T21238   3.939   6.035   8.641  0.1178 -1.8580  0.3589
  185SAPI   C3321239   3.869   6.150  10.162  0.4611  0.9953  0.5441
  185SAPI   H3X21240   3.936   6.117  10.244 -0.1053  0.2552  0.7160
  185SAPI   H3Y21241   3.847   6.253  10.198  0.7146  1.5402 -0.8081
  185SAPI   C3421242   3.933   6.157  10.025 -0.3316 -0.6300  0.1536
  185SAPI   H4X21243   3.972   6.056  10.003  0.1835 -0.6063  0.9149
  185SAPI   H4Y21244   4.024   6.218  10.043 -0.5566 -0.8111  2.1967
  185SAPI   C3521245   3.845   6.211   9.911 -0.7023 -0.3210 -0.3723
  185SAPI   H5X21246   3.800   6.307   9.944  1.9177  0.3303  1.6266
  185SAPI   H5Y21247   3.765   6.135   9.899 -0.5005 -0.5178 -0.4799
  185SAPI   C3621248   3.907   6.237   9.774  0.4058  0.1722  0.2103
  185SAPI   H6X21249   4.012   6.271   9.783  1.0327 -1.9022  1.3535
  185SAPI   H6Y21250   3.836   6.312   9.732 -0.3509  0.5295  2.0448
  185SAPI   C3721251   3.908   6.105   9.687  0.0633 -0.4872  0.2346
  185SAPI   H7X21252   3.804   6.066   9.690  0.5044 -1.6823  1.7641
  185SAPI   H7Y21253   3.967   6.027   9.741  0.3045  1.8843  3.7507
  185SAPI   C3821254   3.963   6.126   9.547  0.6007  0.0189 -0.3874
  185SAPI   H8X21255   3.913   6.217   9.509 -2.2792 -0.9404  0.8164
  185SAPI   H8Y21256   3.922   6.044   9.484  0.7554  0.5923 -1.2339
  185SAPI   C3921257   4.114   6.133   9.539 -0.0371 -0.5213  0.1859
  185SAPI   H9X21258   4.158   6.046   9.591  1.7084 -0.0908 -0.4956
  185SAPI   H9Y21259   4.147   6.218   9.602 -2.2845  1.4207 -1.0610
  185SAPI  C31021260   4.166   6.154   9.391 -0.1113  0.3135 -0.4730
  185SAPI  H10X21261   4.243   6.235   9.386 -0.4422  0.8148  1.4343
  185SAPI  H10Y21262   4.072   6.187   9.343 -0.8947 -1.3805 -0.1614
  185SAPI  C31121263   4.222   6.028   9.332 -0.2329  0.1652 -0.1971
  185SAPI  H11X21264   4.144   5.949   9.342 -1.4219  0.8186 -3.2262
  185SAPI  H11Y21265   4.308   5.997   9.394 -0.3045  0.9572  0.3059
  185SAPI  C31221266   4.242   6.041   9.175 -0.1686  0.0673 -0.3620
  185SAPI  H12X21267   4.271   6.147   9.163  0.1330 -0.0020 -0.2508
  185SAPI  H12Y21268   4.141   6.024   9.131 -0.1377 -1.7100  0.1834
  185SAPI  C31321269   4.342   5.941   9.116 -0.2870  0.3832  0.0732
  185SAPI  H13X21270   4.298   5.843   9.147  0.3355  0.2055  0.4309
  185SAPI  H13Y21271   4.442   5.959   9.160 -0.7279  0.0298  1.2775
  185SAPI  C31421272   4.358   5.954   8.967  0.4325 -0.2271 -0.1974
  185SAPI  H14X21273   4.399   6.051   8.931 -2.0947  0.2222 -2.1619
  185SAPI  H14Y21274   4.256   5.955   8.923  0.8990 -0.1285 -1.3243
  185SAPI  C31521275   4.433   5.842   8.897  0.1187  1.0491 -0.4163
  185SAPI  H15X21276   4.374   5.749   8.913  0.4192  1.1189  1.2943
  185SAPI  H15Y21277   4.533   5.827   8.943 -1.2177 -0.0047  2.3382
  185SAPI  C31621278   4.448   5.869   8.743 -0.3420  0.8322  0.0635
  185SAPI  H16X21279   4.356   5.871   8.680 -0.2093 -2.5384 -0.4151
  185SAPI  H16Y21280   4.509   5.783   8.709  0.2134  1.3087 -0.1607
  185SAPI  C31721281   4.543   5.979   8.713  0.1608 -0.8920  0.1921
  185SAPI  H17X21282   4.626   5.971   8.786 -0.7866 -0.1087  1.3760
  185SAPI  H17Y21283   4.498   6.080   8.723  0.7636 -0.6747  0.7371
  185SAPI  C31821284   4.611   5.971   8.573 -0.2271 -0.1621 -0.6067
  185SAPI  H18X21285   4.688   5.890   8.562  0.1400  0.2545 -1.1626
  185SAPI  H18Y21286   4.655   6.070   8.549 -0.9812  0.3996  0.3040
  185SAPI  H18Z21287   4.533   5.947   8.498  0.4404  0.3509 -1.4791
  186SAPI   C1221288   3.155   3.925  11.089  0.0732 -0.1526 -0.3871
  186SAPI    H221289   3.113   3.858  11.010 -1.3602  0.9250 -0.5667
  186SAPI    O221290   3.130   4.056  11.042  0.2168 -0.6100  0.6226
  186SAPI   HO221291   3.187   4.083  10.969 -1.9188  2.3537 -0.1315
  186SAPI   C1321292   3.084   3.909  11.229  0.2455  0.3439  0.8030
  186SAPI    H321293   3.106   3.803  11.252  1.8461  0.6029  0.5805
  186SAPI    O321294   2.942   3.924  11.206  0.1367  0.2815 -0.1909
  186SAPI   HO321295   2.942   4.007  11.158  0.9128 -0.2191 -1.0930
  186SAPI   C1421296   3.138   3.987  11.341 -0.2794  0.0041  0.1801
  186SAPI    H421297   3.113   4.094  11.323 -0.7071 -0.0968  0.1674
  186SAPI    O421298   3.068   3.954  11.460 -0.2682 -0.3019 -0.0317
  186SAPI   HO421299   2.977   3.986  11.459  0.2509  1.3314  0.8037
  186SAPI   C1521300   3.291   3.955  11.351  0.4935  0.3922 -1.0818
  186SAPI    H521301   3.293   3.849  11.384 -0.1838  0.5848 -0.3986
  186SAPI    O521302   3.351   4.014  11.473 -0.4293 -0.1238 -0.0026
  186SAPI   HO521303   3.306   3.982  11.551  1.1525  1.3158  1.5943
  186SAPI   C1621304   3.366   3.980  11.225  0.5383  0.0514  0.5464
  186SAPI    H621305   3.355   4.088  11.198 -0.4208  0.1935  1.4620
  186SAPI    O621306   3.508   3.957  11.242  0.0039 -0.1316 -0.1026
  186SAPI   HO621307   3.523   3.863  11.228  0.2697  0.2080 -2.4267
  186SAPI   C1121308   3.303   3.901  11.108  0.1916  0.1080 -0.3593
  186SAPI    H121309   3.305   3.792  11.129 -2.0110 -0.3403 -2.0864
  186SAPI     P21310   3.445   3.827  10.885 -0.0892  0.2627  0.3800
  186SAPI   O1321311   3.370   3.701  10.886 -0.1332  0.8078  0.7115
  186SAPI   O1421312   3.585   3.819  10.932  0.4245 -0.1990  0.1123
  186SAPI   O1221313   3.364   3.936  10.988 -0.1429 -0.0932  0.1347
  186SAPI   O1121314   3.445   3.880  10.738 -0.1850 -0.0736  0.5900
  186SAPI    C121315   3.322   3.924  10.683 -0.4574  0.1073 -0.8972
  186SAPI    HA21316   3.244   3.954  10.757 -0.5652  1.2876 -1.4585
  186SAPI    HB21317   3.334   4.025  10.638 -3.5871  1.5291  1.0482
  186SAPI    C221318   3.263   3.832  10.577  0.6426 -0.5733  0.1535
  186SAPI    HS21319   3.266   3.729  10.619 -2.0667  0.2236  2.6463
  186SAPI   O2121320   3.357   3.842  10.467  0.7167 -0.6299  0.3599
  186SAPI   C2121321   3.347   3.755  10.372  0.6450  0.9542  0.5547
  186SAPI   O2221322   3.258   3.672  10.366 -0.1229 -0.0211 -0.2823
  186SAPI   C2221323   3.453   3.776  10.272 -0.4159 -0.7981 -0.3663
  186SAPI   H2R21324   3.480   3.883  10.285  1.9395 -1.4268  0.5405
  186SAPI   H2S21325   3.539   3.713  10.303  0.6761  0.4700 -0.7080
  186SAPI    C321326   3.117   3.872  10.534  0.4230  0.5397  0.2769
  186SAPI    HX21327   3.051   3.874  10.624  1.9416  1.3448  1.4258
  186SAPI    HY21328   3.080   3.807  10.452  0.0464  1.0814  0.0116
  186SAPI   O3121329   3.125   3.999  10.480 -0.0388  0.2742  0.0244
  186SAPI   C3121330   3.001   4.049  10.448  0.4148 -0.4188  0.1828
  186SAPI   O3221331   2.894   4.000  10.477 -0.5001  0.7754 -0.3714
  186SAPI   C3221332   3.016   4.182  10.372 -0.0402  0.5638  0.8916
  186SAPI   H2X21333   3.118   4.227  10.379  0.0692  0.0439  3.3590
  186SAPI   H2Y21334   2.949   4.249  10.429 -1.0768 -1.1161  1.7380
  186SAPI   C2321335   3.411   3.748  10.125 -0.1178 -0.4827  0.4663
  186SAPI   H3R21336   3.332   3.819  10.094  1.1840  0.9257  0.2715
  186SAPI   H3S21337   3.368   3.646  10.111 -0.1194 -0.2152 -1.9031
  186SAPI   C2421338   3.538   3.762  10.034  0.2055 -0.0409  0.7158
  186SAPI   H4R21339   3.522   3.722   9.932 -1.3440  0.4871  0.7309
  186SAPI   H4S21340   3.618   3.697  10.076 -0.1416  0.5141  2.3181
  186SAPI   C2521341   3.602   3.896  10.019  0.4430 -0.3021  0.8789
  186SAPI   H5R21342   3.671   3.926  10.098  0.2650  1.4368  0.4252
  186SAPI   C2621343   3.570   3.979   9.918  0.5334  0.3020  0.5232
  186SAPI   H6R21344   3.628   4.071   9.909  0.2129  0.4953  0.4107
  186SAPI   C2721345   3.468   3.964   9.805 -0.3785  0.6207 -0.0101
  186SAPI   H7R21346   3.403   4.053   9.793 -0.7179  0.3448 -0.2275
  186SAPI   H7S21347   3.390   3.886   9.818 -1.4532  1.8319  1.1644
  186SAPI   C2821348   3.550   3.935   9.681 -0.0149  0.4734 -0.5128
  186SAPI   H8R21349   3.601   3.838   9.681  1.0181  0.9954  0.1486
  186SAPI   C2921350   3.576   4.024   9.580 -0.3523  0.1038 -0.2037
  186SAPI   H9R21351   3.643   3.985   9.501 -1.1563 -1.2929 -0.2312
  186SAPI  C21021352   3.527   4.162   9.563  0.2432  0.4823  0.7700
  186SAPI  H10R21353   3.580   4.217   9.483 -1.4449 -1.7397 -2.0710
  186SAPI  H10S21354   3.556   4.208   9.660  1.3993 -0.7329  1.0310
  186SAPI  C21121355   3.379   4.172   9.529  0.7953  0.1115  0.4482
  186SAPI  H11R21356   3.322   4.202   9.618 -0.5723 -1.8340  0.2685
  186SAPI  C21221357   3.319   4.163   9.406 -0.0875 -0.2128  0.0220
  186SAPI  H12R21358   3.210   4.175   9.396 -0.0203 -0.3403 -1.0408
  186SAPI  C21321359   3.388   4.137   9.275  0.1787  0.2687 -0.2444
  186SAPI  H13R21360   3.320   4.072   9.216  0.1614  0.8060 -0.8191
  186SAPI  H13S21361   3.467   4.065   9.307 -0.9441 -0.7354  0.3494
  186SAPI  C21421362   3.446   4.250   9.190  0.0890  0.0760  0.3304
  186SAPI  H14R21363   3.493   4.328   9.252 -0.4307 -0.5280  1.5200
  186SAPI  C21521364   3.415   4.287   9.066 -0.1151  0.0877 -0.2140
  186SAPI  H15R21365   3.462   4.375   9.020 -1.3812  0.5209 -0.7434
  186SAPI  C21621366   3.316   4.234   8.970 -0.3092  0.3446 -0.4997
  186SAPI  H16R21367   3.240   4.313   8.954 -0.0480  0.3648 -1.7531
  186SAPI  H16S21368   3.258   4.149   9.011 -2.7178  1.1287 -2.0440
  186SAPI  C21721369   3.380   4.201   8.829  0.1245 -0.1137 -0.0390
  186SAPI  H17R21370   3.463   4.272   8.805  0.0745 -0.5070 -1.5076
  186SAPI  H17S21371   3.309   4.221   8.746 -0.9883  1.3609  1.2247
  186SAPI  C21821372   3.420   4.056   8.826 -0.1248 -0.4653  0.5128
  186SAPI  H18R21373   3.334   4.004   8.871  0.0296 -2.8009 -1.6697
  186SAPI  H18S21374   3.508   4.048   8.893  0.4691 -1.0271 -0.3055
  186SAPI  C21921375   3.463   4.011   8.683  0.2165 -0.7112 -0.5813
  186SAPI  H19R21376   3.394   4.056   8.609  2.3847  2.7965 -0.7219
  186SAPI  H19S21377   3.452   3.901   8.675 -0.9406 -0.8652  2.0135
  186SAPI  C22021378   3.602   4.060   8.633  0.1072  0.1562  0.1030
  186SAPI  H20R21379   3.597   4.169   8.615  0.0618 -0.1145 -1.7769
  186SAPI  H20S21380   3.630   4.001   8.543 -0.9188 -4.1025  2.3086
  186SAPI  H20T21381   3.681   4.048   8.709 -1.1641 -1.4657  1.2377
  186SAPI   C3321382   2.980   4.146  10.227  0.0356  0.0396  0.5046
  186SAPI   H3X21383   2.964   4.227  10.153 -0.7851 -0.4274  0.1502
  186SAPI   H3Y21384   2.886   4.087  10.223  0.6590 -1.0182  0.9840
  186SAPI   C3421385   3.091   4.056  10.165  1.3237 -0.2987  0.3932
  186SAPI   H4X21386   3.079   3.947  10.184 -1.0278 -0.1258  0.2520
  186SAPI   H4Y21387   3.188   4.090  10.206  1.2738  0.7029 -0.2886
  186SAPI   C3521388   3.102   4.068  10.010 -0.1145 -0.6528  1.1918
  186SAPI   H5X21389   3.188   4.012   9.966 -1.2831 -1.4883 -0.1151
  186SAPI   H5Y21390   3.116   4.175   9.985 -0.2634 -0.9693 -0.3564
  186SAPI   C3621391   2.977   4.017   9.941 -0.0462 -0.4365 -0.4651
  186SAPI   H6X21392   2.899   4.095   9.953  0.5159  0.5604 -2.7279
  186SAPI   H6Y21393   2.925   3.927   9.979 -3.2364  1.5868  0.3187
  186SAPI   C3721394   3.008   3.986   9.800  0.0412  1.0390  0.6555
  186SAPI   H7X21395   3.100   3.927   9.782  0.8775  2.0017  1.6440
  186SAPI   H7Y21396   3.029   4.087   9.758 -0.4228  0.6859 -0.4648
  186SAPI   C3821397   2.888   3.945   9.707 -0.2756  0.0056  0.2957
  186SAPI   H8X21398   2.808   4.023   9.706  1.8039  2.3229 -2.6656
  186SAPI   H8Y21399   2.838   3.849   9.732 -2.6105  1.0055 -0.2697
  186SAPI   C3921400   2.929   3.925   9.557 -0.2812  0.3028 -0.4248
  186SAPI   H9X21401   2.971   4.013   9.505  0.2205  0.3387  0.0390
  186SAPI   H9Y21402   2.832   3.894   9.510  0.1636 -1.5254 -0.2175
  186SAPI  C31021403   3.016   3.796   9.540 -0.2341  0.3226  0.0012
  186SAPI  H10X21404   2.975   3.715   9.603 -1.1958  0.4445 -0.4326
  186SAPI  H10Y21405   3.114   3.833   9.576 -0.8695  0.5804  1.5381
  186SAPI  C31121406   3.033   3.738   9.398  0.7360 -0.0719 -0.5026
  186SAPI  H11X21407   2.936   3.749   9.345  0.6218 -0.4502 -0.3764
  186SAPI  H11Y21408   3.055   3.629   9.407 -0.1681 -0.4178 -2.2484
  186SAPI  C31221409   3.141   3.813   9.320  0.5289  0.8087  0.1751
  186SAPI  H12X21410   3.234   3.825   9.379  0.8699 -1.1584  0.1242
  186SAPI  H12Y21411   3.102   3.915   9.300  1.0842  0.7526 -1.2879
  186SAPI  C31321412   3.164   3.745   9.189 -0.0035 -0.5729  0.6022
  186SAPI  H13X21413   3.213   3.646   9.202  1.4113  0.2431  1.8118
  186SAPI  H13Y21414   3.239   3.799   9.127 -0.5851 -1.4896 -0.9538
  186SAPI  C31421415   3.041   3.722   9.104  0.3270  0.0984  0.5257
  186SAPI  H14X21416   2.985   3.815   9.080 -1.0384 -0.7861  0.1495
  186SAPI  H14Y21417   2.971   3.657   9.161 -0.8561  0.2241 -0.7241
  186SAPI  C31521418   3.070   3.637   8.979  0.2708 -0.1783 -0.9770
  186SAPI  H15X21419   3.128   3.545   8.999 -0.1451 -0.2166  0.1061
  186SAPI  H15Y21420   3.129   3.698   8.907  1.0066  0.7343  0.3543
  186SAPI  C31621421   2.934   3.607   8.905 -0.1218  0.6559  0.2610
  186SAPI  H16X21422   2.882   3.704   8.891  1.8062  1.9317  1.4131
  186SAPI  H16Y21423   2.870   3.540   8.966 -1.6345  0.4214 -1.5111
  186SAPI  C31721424   2.964   3.547   8.764 -0.1939  0.5060 -0.8147
  186SAPI  H17X21425   3.015   3.448   8.766  1.7323  1.4512 -0.9727
  186SAPI  H17Y21426   3.034   3.616   8.712  2.0094 -0.7218  0.3329
  186SAPI  C31821427   2.841   3.530   8.684 -0.2728 -0.1918 -0.7434
  186SAPI  H18X21428   2.782   3.445   8.724  1.1882 -0.6692  0.5095
  186SAPI  H18Y21429   2.867   3.507   8.578  1.4198 -0.2769 -0.3493
  186SAPI  H18Z21430   2.776   3.620   8.687  0.2679  0.2449 -1.6260
  187SAPI   C1221431   1.982   3.860   5.990  0.1988  0.2496 -0.3317
  187SAPI    H221432   1.940   3.935   6.061  0.0921  1.2135 -1.3934
  187SAPI    O221433   1.919   3.737   6.017  0.4938  0.2845 -0.1107
  187SAPI   HO221434   1.935   3.725   6.111 -0.1682  0.0402 -0.0192
  187SAPI   C1321435   1.969   3.890   5.837  0.7101  0.2176 -0.1614
  187SAPI    H321436   2.033   3.979   5.817  3.2022 -0.9021  2.1849
  187SAPI    O321437   1.832   3.920   5.810  0.3879 -0.3707 -0.0150
  187SAPI   HO321438   1.798   3.835   5.782 -0.0985 -0.3416  0.4755
  187SAPI   C1421439   2.023   3.769   5.762  0.7331 -0.5710  0.1756
  187SAPI    H421440   1.984   3.672   5.799 -2.0038  0.0767 -0.7862
  187SAPI    O421441   1.989   3.772   5.626 -0.4361  0.3228  0.7870
  187SAPI   HO421442   1.975   3.866   5.608  1.3325  0.7137  1.2780
  187SAPI   C1521443   2.171   3.759   5.782  0.1674 -0.0068  0.9633
  187SAPI    H521444   2.220   3.853   5.747  0.6250 -0.4231  0.4734
  187SAPI    O521445   2.235   3.657   5.705  0.3207  0.5478  0.0322
  187SAPI   HO521446   2.194   3.670   5.619  0.2968  0.4046  0.0225
  187SAPI   C1621447   2.199   3.738   5.934 -0.2210 -0.4383 -0.1464
  187SAPI    H621448   2.159   3.637   5.960 -0.0644 -0.5527 -0.3492
  187SAPI    O621449   2.343   3.733   5.950 -0.0387  0.0559  0.1858
  187SAPI   HO621450   2.387   3.812   5.917  1.2002 -0.8681 -0.4703
  187SAPI   C1121451   2.137   3.846   6.010  0.0238 -0.3105 -0.0216
  187SAPI    H121452   2.180   3.937   5.964  0.3010 -1.7554 -2.8707
  187SAPI     P21453   2.190   3.965   6.241  0.1334  0.1873  0.2726
  187SAPI   O1321454   2.132   4.076   6.165  0.4942  0.1662 -0.2554
  187SAPI   O1421455   2.328   3.979   6.294 -0.2811 -0.4777 -0.4045
  187SAPI   O1221456   2.174   3.832   6.147  0.2313 -0.1656  0.4124
  187SAPI   O1121457   2.092   3.930   6.352 -0.0294 -0.6761  0.4701
  187SAPI    C121458   1.994   4.018   6.411 -0.1067 -0.3534  0.1330
  187SAPI    HA21459   1.915   4.037   6.336 -1.1965 -1.2138  1.0432
  187SAPI    HB21460   1.951   3.966   6.499  1.0538 -0.9771  0.3562
  187SAPI    C221461   2.054   4.138   6.478 -0.4773 -0.1176  0.7838
  187SAPI    HS21462   2.110   4.198   6.403  0.2718  0.8270  2.0607
  187SAPI   O2121463   2.145   4.089   6.574  0.8096 -0.1220 -0.1819
  187SAPI   C2121464   2.221   4.179   6.636  0.1250 -0.1109  0.5319
  187SAPI   O2221465   2.239   4.290   6.599  0.3180 -0.2985 -0.1514
  187SAPI   C2221466   2.276   4.113   6.758  0.4692  0.3537  0.7210
  187SAPI   H2R21467   2.294   4.004   6.745  2.6129  0.7509  0.0946
  187SAPI   H2S21468   2.381   4.149   6.763  0.4248  0.7839 -0.8872
  187SAPI    C321469   1.955   4.236   6.537 -0.5261  0.3067 -0.3882
  187SAPI    HX21470   1.882   4.276   6.463 -2.4990  0.3667  1.5042
  187SAPI    HY21471   2.014   4.320   6.580  1.3651 -0.5428 -1.1677
  187SAPI   O3121472   1.872   4.173   6.642  0.1125  0.6451 -0.3422
  187SAPI   C3121473   1.749   4.127   6.607  0.2160 -0.0079  0.2114
  187SAPI   O3221474   1.690   4.143   6.503 -0.2006 -0.0297 -0.5909
  187SAPI   C3221475   1.700   4.058   6.730 -0.0221  0.2114 -0.9941
  187SAPI   H2X21476   1.592   4.081   6.735 -0.5944 -2.5218  1.3937
  187SAPI   H2Y21477   1.727   4.119   6.818 -2.5830 -1.6251  1.2235
  187SAPI   C2321478   2.192   4.149   6.880  0.5372 -0.0958 -0.4991
  187SAPI   H3R21479   2.089   4.182   6.855 -0.0922 -1.0145  0.7548
  187SAPI   H3S21480   2.245   4.234   6.927  1.8577 -2.4497  2.7015
  187SAPI   C2421481   2.168   4.034   6.980 -0.1929 -0.0025 -0.1763
  187SAPI   H4R21482   2.263   3.986   7.013 -0.5543 -0.4815  0.1864
  187SAPI   H4S21483   2.113   3.950   6.932  1.4549 -0.5671 -1.1761
  187SAPI   C2521484   2.092   4.071   7.107 -0.4974  0.8176 -0.6245
  187SAPI   H5R21485   1.982   4.064   7.106 -0.5317  1.3353 -1.5712
  187SAPI   C2621486   2.158   4.094   7.224 -1.0353 -0.5450 -0.0094
  187SAPI   H6R21487   2.100   4.118   7.314 -0.3676 -1.5301  0.6937
  187SAPI   C2721488   2.307   4.097   7.248  0.7065 -0.1388 -0.4137
  187SAPI   H7R21489   2.334   4.180   7.317  1.5620 -0.8054  0.0642
  187SAPI   H7S21490   2.369   4.124   7.160  3.1630 -0.0989  1.2298
  187SAPI   C2821491   2.356   3.964   7.301  0.0306 -0.0716 -0.5455
  187SAPI   H8R21492   2.337   3.887   7.225 -2.1903 -0.5404  0.4047
  187SAPI   C2921493   2.425   3.935   7.414  0.2405 -0.3969 -0.0452
  187SAPI   H9R21494   2.463   3.834   7.435 -1.6222 -1.3165 -0.8753
  187SAPI  C21021495   2.459   4.041   7.524 -0.3949  0.5475 -1.2618
  187SAPI  H10R21496   2.379   4.116   7.507 -3.7324 -2.3063  0.4550
  187SAPI  H10S21497   2.562   4.078   7.501  3.6598 -6.1282  2.7115
  187SAPI  C21121498   2.443   3.984   7.664 -0.0043  0.5480 -0.1954
  187SAPI  H11R21499   2.342   3.995   7.708 -0.1870  0.8448 -0.6912
  187SAPI  C21221500   2.539   3.943   7.757 -0.2772 -0.1493 -0.4402
  187SAPI  H12R21501   2.509   3.904   7.856 -2.3332 -0.1117 -1.0157
  187SAPI  C21321502   2.683   3.928   7.724  0.3823  0.9396 -0.2700
  187SAPI  H13R21503   2.731   4.028   7.731  1.7880  0.4094 -1.9224
  187SAPI  H13S21504   2.698   3.912   7.616  0.9015  1.7920 -0.3366
  187SAPI  C21421505   2.751   3.824   7.810  0.9570  0.5722  0.1605
  187SAPI  H14R21506   2.740   3.722   7.770 -0.8012  0.0832  1.7746
  187SAPI  C21521507   2.805   3.843   7.932 -0.8745 -0.4981 -0.0103
  187SAPI  H15R21508   2.841   3.753   7.985 -0.8691 -0.7474 -0.4309
  187SAPI  C21621509   2.804   3.979   8.001 -0.1445  0.4043  0.2409
  187SAPI  H16R21510   2.759   4.058   7.938  0.0187 -0.0594 -0.4714
  187SAPI  H16S21511   2.907   4.017   8.019  1.1876 -1.9439 -1.7780
  187SAPI  C21721512   2.711   3.971   8.123 -0.5008  0.3720 -0.5287
  187SAPI  H17R21513   2.618   3.916   8.097 -0.0145 -0.9195  0.3749
  187SAPI  H17S21514   2.679   4.074   8.151 -2.5785  0.2462 -2.1973
  187SAPI  C21821515   2.774   3.900   8.244  0.6913 -0.3604  0.1558
  187SAPI  H18R21516   2.865   3.945   8.289  0.6492 -1.0064  0.9166
  187SAPI  H18S21517   2.804   3.796   8.220 -0.1247 -1.0046  1.7660
  187SAPI  C21921518   2.667   3.874   8.346 -0.1545 -0.0739 -0.2839
  187SAPI  H19R21519   2.591   3.811   8.296 -0.3387  0.4283 -0.6423
  187SAPI  H19S21520   2.631   3.971   8.386 -1.0757 -0.3022 -0.5387
  187SAPI  C22021521   2.725   3.793   8.455  0.0955  0.3735 -0.1993
  187SAPI  H20R21522   2.655   3.781   8.540 -2.3648 -1.7310 -2.3369
  187SAPI  H20S21523   2.822   3.835   8.489 -0.4103  1.0928  0.3769
  187SAPI  H20T21524   2.756   3.699   8.403 -0.1534  0.2405 -0.1084
  187SAPI   C3321525   1.726   3.907   6.753  0.3521 -0.9182  0.4086
  187SAPI   H3X21526   1.831   3.883   6.727  1.9017  0.4107  4.5653
  187SAPI   H3Y21527   1.656   3.847   6.692 -0.7290  1.2373 -0.5540
  187SAPI   C3421528   1.709   3.859   6.893 -0.4671 -0.3679 -0.4219
  187SAPI   H4X21529   1.789   3.900   6.959  0.8615 -2.6671 -0.5083
  187SAPI   H4Y21530   1.719   3.749   6.890  2.9694 -0.1551 -0.9052
  187SAPI   C3521531   1.569   3.882   6.947  0.3020  0.1095  0.1013
  187SAPI   H5X21532   1.488   3.832   6.888  0.4690 -0.7476  0.5837
  187SAPI   H5Y21533   1.539   3.989   6.941 -0.9765 -0.2791 -1.1352
  187SAPI   C3621534   1.564   3.835   7.091  0.9513 -0.0931  0.9322
  187SAPI   H6X21535   1.644   3.899   7.134  0.3414  1.7588 -0.5499
  187SAPI   H6Y21536   1.601   3.731   7.104  1.4389  0.0045  0.3385
  187SAPI   C3721537   1.429   3.848   7.154 -0.2868  0.2255 -0.4593
  187SAPI   H7X21538   1.356   3.784   7.100  1.6048 -3.1532  0.6734
  187SAPI   H7Y21539   1.403   3.955   7.137 -1.3706 -0.1742 -1.4286
  187SAPI   C3821540   1.430   3.814   7.302  0.1042  0.2490  0.3582
  187SAPI   H8X21541   1.328   3.837   7.340 -0.8483  1.0098 -2.4767
  187SAPI   H8Y21542   1.505   3.878   7.353  0.3834  1.3343 -1.3269
  187SAPI   C3921543   1.464   3.670   7.333  0.1981  0.1759  0.0428
  187SAPI   H9X21544   1.571   3.651   7.312 -0.3967 -2.4372 -1.1247
  187SAPI   H9Y21545   1.411   3.607   7.257  0.5520  2.1516 -1.9284
  187SAPI  C31021546   1.440   3.622   7.474  0.6865 -0.1265  0.5227
  187SAPI  H10X21547   1.491   3.526   7.499 -0.4569 -0.8393  0.1852
  187SAPI  H10Y21548   1.333   3.594   7.482  0.8605 -0.7027  0.9389
  187SAPI  C31121549   1.470   3.727   7.583  0.2850 -0.0451  0.5470
  187SAPI  H11X21550   1.410   3.819   7.567 -3.2568 -2.2349  0.3232
  187SAPI  H11Y21551   1.579   3.751   7.587  0.9094 -2.4292 -0.5255
  187SAPI  C31221552   1.434   3.670   7.721 -0.0513  0.4611 -0.2712
  187SAPI  H12X21553   1.513   3.592   7.731 -0.2186  0.0917 -1.6204
  187SAPI  H12Y21554   1.329   3.632   7.721 -0.1832  0.7489  1.7610
  187SAPI  C31321555   1.437   3.763   7.836 -0.1253  0.1468  0.3637
  187SAPI  H13X21556   1.374   3.852   7.813 -1.4037 -0.8168  0.0223
  187SAPI  H13Y21557   1.541   3.798   7.852  0.5548 -0.7946 -1.6308
  187SAPI  C31421558   1.390   3.709   7.974 -1.4401 -0.4412 -0.1776
  187SAPI  H14X21559   1.458   3.635   8.021 -0.4387 -0.1775 -1.1503
  187SAPI  H14Y21560   1.296   3.651   7.963 -1.3257 -0.2972 -2.4364
  187SAPI  C31521561   1.345   3.832   8.061 -0.2584  0.7029  0.7671
  187SAPI  H15X21562   1.242   3.866   8.037  0.7689  1.9233 -2.4059
  187SAPI  H15Y21563   1.412   3.913   8.023 -0.8695  0.6508 -0.4470
  187SAPI  C31621564   1.359   3.790   8.209 -0.5051 -0.3250  0.6596
  187SAPI  H16X21565   1.457   3.739   8.211 -1.2992 -1.9903 -0.4739
  187SAPI  H16Y21566   1.276   3.724   8.243 -0.8069  0.6948  1.9800
  187SAPI  C31721567   1.360   3.913   8.314  0.8499  0.5215  0.6254
  187SAPI  H17X21568   1.255   3.946   8.328  1.3888  1.2274  4.0719
  187SAPI  H17Y21569   1.430   3.985   8.265  3.2318 -1.7133  0.5275
  187SAPI  C31821570   1.403   3.867   8.450 -0.1029  0.2805  0.0132
  187SAPI  H18X21571   1.331   3.791   8.488  0.9258 -0.5095  0.4414
  187SAPI  H18Y21572   1.423   3.946   8.525  1.5532 -2.2087  2.4144
  187SAPI  H18Z21573   1.504   3.820   8.440  0.8458  2.4502 -1.1999
  188SAPI   C1221574   2.598   6.587   6.741  0.2160  0.5594  0.0683
  188SAPI    H221575   2.604   6.585   6.852 -1.4060 -0.8370  0.1622
  188SAPI    O221576   2.468   6.527   6.710 -0.2448 -0.1653 -0.3783
  188SAPI   HO221577   2.485   6.438   6.740  1.7443  0.1626 -0.4115
  188SAPI   C1321578   2.614   6.725   6.695  0.1463  0.7381 -0.2107
  188SAPI    H321579   2.717   6.758   6.719  0.6908 -1.6580  1.1854
  188SAPI    O321580   2.526   6.821   6.759  0.5343 -0.0767  0.2488
  188SAPI   HO321581   2.435   6.805   6.734  0.5378 -0.8837  0.7218
  188SAPI   C1421582   2.602   6.723   6.544 -0.6831 -0.5423 -0.2615
  188SAPI    H421583   2.503   6.681   6.517 -0.8222 -1.4396  1.4556
  188SAPI    O421584   2.605   6.858   6.492 -0.4633 -0.5414 -0.3143
  188SAPI   HO421585   2.514   6.887   6.490 -0.9567 -1.2645  3.3839
  188SAPI   C1521586   2.712   6.636   6.484  0.0573 -0.4779 -0.0337
  188SAPI    H521587   2.805   6.682   6.525 -1.8570  2.4782  1.2931
  188SAPI    O521588   2.726   6.637   6.341 -0.2932  0.1485 -0.1870
  188SAPI   HO521589   2.822   6.627   6.339  0.2949  3.9918  0.0303
  188SAPI   C1621590   2.692   6.497   6.537  0.7625 -0.0467  0.4237
  188SAPI    H621591   2.592   6.452   6.520  1.2760 -2.2605  2.5894
  188SAPI    O621592   2.787   6.407   6.492  0.2408 -0.0503  0.0930
  188SAPI   HO621593   2.822   6.351   6.562  1.3675 -1.1815 -1.3081
  188SAPI   C1121594   2.709   6.497   6.684  0.8758 -0.2754 -0.5099
  188SAPI    H121595   2.806   6.543   6.713  0.4455 -0.2893  1.0186
  188SAPI     P21596   2.819   6.267   6.790  0.3068  0.5508 -0.3075
  188SAPI   O1321597   2.894   6.240   6.670 -0.2789  0.2682 -0.6909
  188SAPI   O1421598   2.767   6.157   6.875 -0.3691 -0.5584  0.0478
  188SAPI   O1221599   2.696   6.373   6.758 -0.2229  0.2936  0.1782
  188SAPI   O1121600   2.903   6.367   6.873 -0.6068  0.3118 -0.0088
  188SAPI    C121601   2.895   6.407   7.006 -0.4141  0.0266 -0.4140
  188SAPI    HA21602   2.950   6.502   7.026 -2.5278  0.7838  2.7387
  188SAPI    HB21603   2.793   6.450   7.013 -0.4218  0.1491 -1.2293
  188SAPI    C221604   2.936   6.297   7.107  0.2384 -0.5577 -0.7099
  188SAPI    HS21605   2.873   6.209   7.086  1.3137 -1.4760 -0.1924
  188SAPI   O2121606   2.914   6.346   7.241 -0.2562  0.3608 -0.2912
  188SAPI   C2121607   2.798   6.322   7.297  0.9732  0.5475  0.6582
  188SAPI   O2221608   2.710   6.243   7.259 -0.4423 -0.4503  0.2128
  188SAPI   C2221609   2.778   6.418   7.416  0.5902  0.7820  0.2526
  188SAPI   H2R21610   2.873   6.474   7.426  1.9344 -1.1588 -0.8561
  188SAPI   H2S21611   2.694   6.488   7.398 -1.9209 -2.1616 -0.4834
  188SAPI    C321612   3.081   6.251   7.107 -0.7146  0.6110  0.0698
  188SAPI    HX21613   3.146   6.340   7.119  0.5515 -0.5142  2.2924
  188SAPI    HY21614   3.090   6.216   7.002 -0.9263  2.2726 -0.5251
  188SAPI   O3121615   3.105   6.150   7.216 -0.8945 -0.0048 -0.2213
  188SAPI   C3121616   3.106   6.027   7.174 -1.3993 -0.4295 -0.6592
  188SAPI   O3221617   3.091   5.990   7.059  0.0706  0.4722  0.0055
  188SAPI   C3221618   3.147   5.932   7.285 -1.2579  0.2304  0.6258
  188SAPI   H2X21619   3.249   5.941   7.328 -1.3251  0.4817  0.7346
  188SAPI   H2Y21620   3.149   5.828   7.248 -0.9873  0.8457 -1.1763
  188SAPI   C2321621   2.760   6.340   7.556  0.8015 -0.1479 -0.2839
  188SAPI   H3R21622   2.781   6.405   7.643 -0.6277 -0.0954  0.0446
  188SAPI   H3S21623   2.822   6.249   7.568  2.8278  1.1167 -0.7137
  188SAPI   C2421624   2.608   6.309   7.571  0.3565  0.1585 -0.2373
  188SAPI   H4R21625   2.569   6.269   7.475 -1.5800 -0.7873  0.8859
  188SAPI   H4S21626   2.546   6.398   7.596  0.7307  0.3091  0.1721
  188SAPI   C2521627   2.572   6.215   7.686  0.0789  0.5843 -0.4372
  188SAPI   H5R21628   2.601   6.111   7.665 -0.6090  0.4627 -0.7912
  188SAPI   C2621629   2.531   6.236   7.812 -0.3695 -0.5248  0.1381
  188SAPI   H6R21630   2.515   6.149   7.877 -1.0763  0.3922  1.2491
  188SAPI   C2721631   2.503   6.376   7.868 -0.2641  0.9983  0.1942
  188SAPI   H7R21632   2.393   6.382   7.881 -0.0783  2.6970  1.1739
  188SAPI   H7S21633   2.533   6.463   7.806  1.2163  1.4015  1.4149
  188SAPI   C2821634   2.569   6.390   8.004 -0.0336  0.0226 -0.4646
  188SAPI   H8R21635   2.658   6.452   8.017  0.6307 -0.7793 -1.0695
  188SAPI   C2921636   2.532   6.332   8.120 -0.0043  0.3344  0.4984
  188SAPI   H9R21637   2.594   6.351   8.209  0.5866 -1.1919  0.4383
  188SAPI  C21021638   2.418   6.238   8.142  0.1497  0.2192 -0.3564
  188SAPI  H10R21639   2.366   6.218   8.045 -0.4472  2.8177 -0.6660
  188SAPI  H10S21640   2.335   6.292   8.193 -0.8221 -0.4327 -1.1909
  188SAPI  C21121641   2.450   6.105   8.202  0.3186 -0.2756 -0.2968
  188SAPI  H11R21642   2.451   6.022   8.130 -0.5881 -0.9957  0.4935
  188SAPI  C21221643   2.473   6.081   8.332 -0.5012 -0.1398  0.1332
  188SAPI  H12R21644   2.510   5.981   8.356  1.0764  0.3108 -0.2962
  188SAPI  C21321645   2.470   6.179   8.445  0.0883 -0.6519 -0.4993
  188SAPI  H13R21646   2.375   6.236   8.439  2.0904  2.8690 -2.6784
  188SAPI  H13S21647   2.548   6.255   8.426 -0.7857  0.1495 -0.9475
  188SAPI  C21421648   2.487   6.109   8.578 -0.2280 -0.2661  0.4676
  188SAPI  H14R21649   2.395   6.062   8.614  0.3080 -1.7470 -0.0153
  188SAPI  C21521650   2.608   6.098   8.640  0.1675  0.3245 -0.2416
  188SAPI  H15R21651   2.612   6.040   8.733 -0.7518 -0.2437 -0.5444
  188SAPI  C21621652   2.747   6.157   8.593  0.5758 -0.2621  0.2183
  188SAPI  H16R21653   2.794   6.230   8.663 -0.4695  0.1768  0.4826
  188SAPI  H16S21654   2.730   6.213   8.498  1.5806 -2.3914 -1.3062
  188SAPI  C21721655   2.860   6.058   8.543 -0.1915  0.1476 -0.4463
  188SAPI  H17R21656   2.893   5.997   8.629  1.2646 -1.3572 -1.9819
  188SAPI  H17S21657   2.943   6.119   8.500  0.2351  0.1001  0.2912
  188SAPI  C21821658   2.822   5.971   8.420  0.5060 -0.0579  0.1237
  188SAPI  H18R21659   2.800   6.041   8.337 -2.7495  0.7029  1.4564
  188SAPI  H18S21660   2.724   5.923   8.442 -0.5540  2.4269  1.1975
  188SAPI  C21921661   2.930   5.854   8.395  0.9798  0.1942 -0.2255
  188SAPI  H19R21662   2.912   5.822   8.290  2.0806 -1.6974  0.1256
  188SAPI  H19S21663   2.909   5.778   8.473  1.3182 -0.0459 -0.3638
  188SAPI  C22021664   3.079   5.897   8.411 -0.3236 -0.5091 -0.1727
  188SAPI  H20R21665   3.097   5.927   8.516  0.0250 -0.3873 -0.2653
  188SAPI  H20S21666   3.093   5.991   8.352 -0.4123 -0.7607 -0.6034
  188SAPI  H20T21667   3.144   5.821   8.363 -0.2912 -0.5625 -0.0423
  188SAPI   C3321668   3.047   5.937   7.400 -0.5520  0.6033 -0.4843
  188SAPI   H3X21669   3.043   6.037   7.448  0.4579 -0.8573  2.9185
  188SAPI   H3Y21670   3.107   5.880   7.474  2.7068  2.5871 -1.3585
  188SAPI   C3421671   2.913   5.886   7.366 -0.5840  0.1083 -0.2786
  188SAPI   H4X21672   2.939   5.783   7.336  1.3205  0.0642  1.3491
  188SAPI   H4Y21673   2.878   5.942   7.276 -0.1846  0.1176 -0.4317
  188SAPI   C3521674   2.810   5.901   7.479  0.2014  0.0569  0.2404
  188SAPI   H5X21675   2.806   6.010   7.502 -0.2205 -0.5559  3.6834
  188SAPI   H5Y21676   2.845   5.853   7.573 -0.1170  0.3256  0.4955
  188SAPI   C3621677   2.676   5.839   7.432  0.1128 -0.0558 -0.3674
  188SAPI   H6X21678   2.712   5.756   7.368 -0.1816  0.5343 -1.3337
  188SAPI   H6Y21679   2.631   5.917   7.366 -0.3329  0.4627  0.5279
  188SAPI   C3721680   2.593   5.785   7.552 -0.2769 -0.0259  0.0246
  188SAPI   H7X21681   2.501   5.741   7.509 -1.1053  1.8898 -0.2824
  188SAPI   H7Y21682   2.574   5.873   7.617  1.8381 -0.8708  1.8772
  188SAPI   C3821683   2.664   5.679   7.641  0.3402  0.5207  0.4686
  188SAPI   H8X21684   2.752   5.723   7.693  3.1649 -1.8857 -1.8949
  188SAPI   H8Y21685   2.695   5.597   7.573  1.6025 -0.3049  1.9649
  188SAPI   C3921686   2.564   5.626   7.748 -0.7203  0.8948  0.2740
  188SAPI   H9X21687   2.503   5.551   7.692  2.2880 -1.0509 -0.6662
  188SAPI   H9Y21688   2.494   5.703   7.785  0.2628  0.8125  2.4346
  188SAPI  C31021689   2.632   5.548   7.862  0.4417 -0.6675 -0.4465
  188SAPI  H10X21690   2.718   5.502   7.809  0.4241  1.5204 -2.5071
  188SAPI  H10Y21691   2.561   5.475   7.908 -1.7921  0.2975 -2.1899
  188SAPI  C31121692   2.679   5.653   7.964  0.0241  0.4809 -0.2501
  188SAPI  H11X21693   2.580   5.695   7.993 -0.0897  0.9018 -1.2267
  188SAPI  H11Y21694   2.743   5.733   7.920  3.8701 -2.0328  0.2686
  188SAPI  C31221695   2.756   5.587   8.078 -0.2665 -0.6873 -0.9250
  188SAPI  H12X21696   2.798   5.672   8.135  0.7087 -1.3879 -0.5858
  188SAPI  H12Y21697   2.835   5.520   8.039  0.4214 -0.0536 -0.6271
  188SAPI  C31321698   2.664   5.504   8.175 -0.0595 -0.5252  0.3098
  188SAPI  H13X21699   2.615   5.419   8.122 -3.1340 -1.2742  3.9439
  188SAPI  H13Y21700   2.584   5.576   8.203  1.1820  1.1600 -0.2837
  188SAPI  C31421701   2.751   5.460   8.291 -0.0715  0.1432 -0.0867
  188SAPI  H14X21702   2.800   5.543   8.345 -1.9144  1.5160 -0.4623
  188SAPI  H14Y21703   2.844   5.414   8.249 -0.6749  1.0295 -2.5547
  188SAPI  C31521704   2.682   5.371   8.386 -0.1798  0.1032  0.4062
  188SAPI  H15X21705   2.639   5.280   8.338 -0.4602  1.0225 -1.1304
  188SAPI  H15Y21706   2.582   5.407   8.416 -1.1132 -1.3037 -0.8620
  188SAPI  C31621707   2.754   5.339   8.518 -0.5818  0.0272  1.2317
  188SAPI  H16X21708   2.773   5.443   8.551 -1.2370  0.7429 -0.5496
  188SAPI  H16Y21709   2.848   5.292   8.481  0.3189  1.6618  1.3424
  188SAPI  C31721710   2.659   5.255   8.602 -0.3409 -0.6648 -0.3568
  188SAPI  H17X21711   2.640   5.155   8.559  0.8617 -1.0567 -0.0292
  188SAPI  H17Y21712   2.560   5.305   8.603  0.6435  1.4854 -1.8913
  188SAPI  C31821713   2.704   5.234   8.745 -0.5574 -0.2021  0.1699
  188SAPI  H18X21714   2.704   5.326   8.809  0.5945 -0.6580  0.8611
  188SAPI  H18Y21715   2.808   5.197   8.746 -1.0361 -1.7143 -1.5576
  188SAPI  H18Z21716   2.634   5.167   8.800 -2.7387  2.4747  0.9466
  189POPC     N21717   4.085   3.117  10.953 -0.3174  1.3526  0.3973
  189POPC   C1221718   3.969   3.067  10.857 -0.0575 -0.8085 -0.2193
  189POPC  H12A21719   3.897   3.145  10.840  1.6123  0.2679 -2.9477
  189POPC  H12B21720   3.913   2.996  10.916 -0.4276  0.6782  1.3029
  189POPC   C1321721   4.013   3.215  11.043 -0.8858  0.1849 -0.2778
  189POPC  H13A21722   4.074   3.234  11.130  0.3526 -1.9303 -0.6038
  189POPC  H13B21723   3.984   3.303  10.989 -0.8284 -0.0064 -0.6209
  189POPC  H13C21724   3.914   3.184  11.072 -2.5151  3.6114 -1.6244
  189POPC   C1421725   4.145   3.008  11.034  1.3845 -0.4959 -0.2917
  189POPC  H14A21726   4.191   2.927  10.980  1.8029 -0.7571  0.4355
  189POPC  H14B21727   4.214   3.049  11.106  1.1801 -1.0591  0.2371
  189POPC  H14C21728   4.070   2.957  11.094  1.9241 -1.4452 -0.4012
  189POPC   C1521729   4.186   3.187  10.880 -0.1713 -1.0502  0.7225
  189POPC  H15A21730   4.137   3.258  10.815 -2.1962 -2.6438  0.3957
  189POPC  H15B21731   4.253   3.116  10.833  1.5199  0.3613  0.9290
  189POPC  H15C21732   4.242   3.236  10.958  0.5148  1.3877 -1.1630
  189POPC   C1121733   4.002   3.010  10.721  0.3745  0.0528  0.1753
  189POPC  H11A21734   4.043   3.093  10.659  0.0459  0.0016 -0.1122
  189POPC  H11B21735   3.910   2.979  10.666 -0.8683  0.5091  1.8905
  189POPC     P21736   4.209   2.874  10.633  0.3426  0.0539 -0.2056
  189POPC   O1321737   4.278   2.743  10.663  0.8570 -0.5093 -0.2623
  189POPC   O1421738   4.300   2.988  10.625 -0.6760  0.5761 -0.3685
  189POPC   O1221739   4.089   2.897  10.736 -0.1994 -0.2611 -0.0197
  189POPC   O1121740   4.132   2.870  10.498 -0.0664 -0.3607  0.0912
  189POPC    C121741   4.052   2.760  10.475  0.2800 -0.7472  0.5687
  189POPC    HA21742   3.977   2.752  10.557  0.4283 -2.6569  0.5596
  189POPC    HB21743   4.110   2.666  10.472  0.8506 -0.4002  0.6253
  189POPC    C221744   3.981   2.771  10.343  0.2053  0.0293 -0.0723
  189POPC    HS21745   3.942   2.674  10.306 -0.7783  0.6094 -0.5895
  189POPC   O2121746   4.069   2.828  10.247  0.6860  0.0936 -0.3658
  189POPC   C2121747   4.170   2.749  10.212 -0.3942 -0.0992 -0.0694
  189POPC   O2221748   4.184   2.635  10.244 -0.1486 -0.1733 -0.2418
  189POPC   C2221749   4.271   2.822  10.121 -0.2969 -0.3117  0.3001
  189POPC   H2R21750   4.366   2.777  10.155 -0.3088  0.5088  1.4728
  189POPC   H2S21751   4.290   2.929  10.142  0.4485 -0.5746  1.0026
  189POPC    C321752   3.846   2.856  10.360 -0.1136  0.2798 -0.1373
  189POPC    HX21753   3.886   2.950  10.404 -1.1079  0.5385  0.2424
  189POPC    HY21754   3.784   2.801  10.435 -3.2908 -0.3926 -2.9843
  189POPC   O3121755   3.772   2.880  10.240  0.2809 -0.1216  0.4167
  189POPC   C3121756   3.673   2.793  10.221 -0.1084 -0.6921  0.4234
  189POPC   O3221757   3.645   2.699  10.296  0.0956 -0.1753 -0.1301
  189POPC   C3221758   3.602   2.832  10.096 -0.4384 -0.1514 -0.4652
  189POPC   H2X21759   3.680   2.845  10.018 -0.1388  1.6052  0.0787
  189POPC   H2Y21760   3.552   2.928  10.120  0.6239 -0.1087  1.8687
  189POPC   C2321761   4.250   2.787   9.973 -0.3055 -0.5023  0.0490
  189POPC   H3R21762   4.266   2.677   9.967 -0.7926 -0.6268  0.9388
  189POPC   H3S21763   4.332   2.829   9.911 -0.1414  0.2767  0.7646
  189POPC   C2421764   4.125   2.855   9.916 -0.3637 -0.1204  0.2052
  189POPC   H4R21765   4.035   2.812   9.965  1.0105 -0.5359  2.5009
  189POPC   H4S21766   4.122   2.828   9.808  1.2524 -0.6255  0.2632
  189POPC   C2521767   4.133   3.010   9.918 -0.6157 -0.2816 -0.6139
  189POPC   H5R21768   4.228   3.053   9.879 -0.0820  0.3446  1.3058
  189POPC   H5S21769   4.143   3.053  10.020  0.0415 -1.4357 -0.1725
  189POPC   C2621770   4.022   3.087   9.834  0.6975  0.7395  0.7074
  189POPC   H6R21771   3.924   3.083   9.887 -0.9566  1.2586 -2.1394
  189POPC   H6S21772   4.005   3.049   9.732  2.1853 -0.5115  0.8908
  189POPC   C2721773   4.053   3.234   9.817 -0.6649 -0.4090 -0.4103
  189POPC   H7R21774   4.147   3.242   9.758 -0.0804  1.4530  0.7076
  189POPC   H7S21775   4.074   3.279   9.916  0.3571 -0.0883 -0.7601
  189POPC   C2821776   3.937   3.322   9.756 -0.0133  0.6836  0.1189
  189POPC   H8R21777   3.857   3.314   9.833  0.7031 -1.0268  0.7385
  189POPC   H8S21778   3.895   3.266   9.670 -0.8929  0.6872  0.5330
  189POPC   C2921779   3.967   3.466   9.753  0.3189  0.3950  0.3373
  189POPC   H9121780   3.998   3.513   9.848 -1.3477 -0.0688  1.1711
  189POPC  C21021781   3.971   3.540   9.643  0.1683  0.0019 -0.0507
  189POPC  H10121782   3.993   3.648   9.642  0.6198 -0.0396 -3.3832
  189POPC  C21121783   3.943   3.483   9.500  0.3089  0.8173 -0.9928
  189POPC  H11R21784   3.851   3.532   9.461  0.2557  0.2297 -1.6300
  189POPC  H11S21785   3.933   3.373   9.492  1.2100  0.6703 -0.2068
  189POPC  C21221786   4.056   3.519   9.398 -0.5717 -0.1411  0.9928
  189POPC  H12R21787   4.138   3.446   9.415 -1.1675 -1.6142 -1.9239
  189POPC  H12S21788   4.095   3.622   9.411  3.2807 -1.1662 -1.1645
  189POPC  C21321789   4.008   3.512   9.256  0.1550 -0.8567  0.1348
  189POPC  H13R21790   4.069   3.572   9.185  1.3607 -2.0781  0.0821
  189POPC  H13S21791   3.904   3.549   9.254  0.2226 -0.6402  0.5539
  189POPC  C21421792   4.014   3.374   9.188 -0.7979 -0.6914 -0.8108
  189POPC  H14R21793   3.939   3.363   9.107  0.3753 -3.2919 -1.6493
  189POPC  H14S21794   3.992   3.303   9.270 -1.0758  1.3953  1.0252
  189POPC  C21521795   4.163   3.350   9.142  0.4269 -0.1291  0.1795
  189POPC  H15R21796   4.228   3.365   9.231  1.3380  2.8523 -0.8358
  189POPC  H15S21797   4.202   3.432   9.077  1.3599 -0.0634  0.8049
  189POPC  C21621798   4.183   3.214   9.078 -0.4998 -0.2130 -0.3300
  189POPC  H16R21799   4.110   3.196   8.996 -1.2390  1.8711 -0.1803
  189POPC  H16S21800   4.162   3.140   9.158 -1.1081 -0.5220 -0.7693
  189POPC  C21721801   4.330   3.189   9.037  0.1921  0.0239 -0.5116
  189POPC  H17R21802   4.398   3.260   9.089  0.1782 -1.7986  2.1613
  189POPC  H17S21803   4.348   3.203   8.928 -0.3726  0.8143 -0.5153
  189POPC  C21821804   4.370   3.048   9.081  0.3806 -0.1136  0.3207
  189POPC  H18R21805   4.368   3.031   9.190  0.8561 -0.4904  0.2762
  189POPC  H18S21806   4.478   3.042   9.054 -0.0414 -0.8082 -1.3401
  189POPC  H18T21807   4.317   2.962   9.036 -0.1302 -1.3845  3.1681
  189POPC   C3321808   3.505   2.711  10.050  0.9131 -1.2051 -0.5823
  189POPC   H3X21809   3.436   2.688  10.135  2.9885 -0.2488  1.4690
  189POPC   H3Y21810   3.568   2.620  10.045  2.2025 -0.3981  0.3523
  189POPC   C3421811   3.444   2.732   9.913  0.5418  0.5515 -0.3176
  189POPC   H4X21812   3.380   2.822   9.925 -0.4218 -0.2370  0.6528
  189POPC   H4Y21813   3.369   2.651   9.896  1.4735 -0.2087 -0.9563
  189POPC   C3521814   3.541   2.742   9.794 -0.1758 -0.0574 -0.1798
  189POPC   H5X21815   3.623   2.815   9.815  0.4703 -1.0095  0.6922
  189POPC   H5Y21816   3.482   2.773   9.705 -2.4934  1.0151  1.6447
  189POPC   C3621817   3.612   2.608   9.759  0.9888 -0.1688 -0.0118
  189POPC   H6X21818   3.525   2.542   9.742  0.9818 -0.0301 -0.5238
  189POPC   H6Y21819   3.658   2.578   9.855 -1.2791  1.5650  1.7253
  189POPC   C3721820   3.699   2.606   9.631  0.0748 -1.1537 -0.4043
  189POPC   H7X21821   3.643   2.625   9.537 -1.7926  2.4825  1.2463
  189POPC   H7Y21822   3.745   2.505   9.627  0.5715 -1.0412  1.6143
  189POPC   C3821823   3.816   2.709   9.635 -0.1982  0.2952  0.4531
  189POPC   H8X21824   3.901   2.659   9.685 -0.2549 -0.2236  0.0318
  189POPC   H8Y21825   3.786   2.797   9.696  0.5240  0.5736  0.4205
  189POPC   C3921826   3.859   2.768   9.497  0.2852 -0.4311 -0.4740
  189POPC   H9X21827   3.952   2.821   9.524 -0.6268  1.1359 -0.3064
  189POPC   H9Y21828   3.784   2.836   9.451 -0.9001 -1.5662 -0.2960
  189POPC  C31021829   3.886   2.661   9.387 -0.6108  0.7349  0.3021
  189POPC  H10X21830   3.793   2.613   9.351 -0.4797  0.9083 -0.2722
  189POPC  H10Y21831   3.940   2.578   9.438 -2.5162 -0.2014  0.8898
  189POPC  C31121832   3.959   2.718   9.265  0.0205  0.2026 -0.1993
  189POPC  H11X21833   3.912   2.815   9.238  0.3493  0.3451 -0.2585
  189POPC  H11Y21834   3.939   2.644   9.184 -0.4760 -1.2847  1.2132
  189POPC  C31221835   4.113   2.729   9.287 -0.3814 -0.6087  0.4198
  189POPC  H12X21836   4.157   2.642   9.339  1.2957  0.4859  0.8977
  189POPC  H12Y21837   4.140   2.820   9.344 -1.4384 -0.2267  0.3408
  189POPC  C31321838   4.189   2.743   9.148  0.2129 -0.0708 -0.2212
  189POPC  H13X21839   4.296   2.764   9.171  0.1213  0.7258 -0.4891
  189POPC  H13Y21840   4.147   2.824   9.084 -0.0489 -1.2127 -1.5505
  189POPC  C31421841   4.180   2.618   9.058 -0.1060 -0.1290 -0.3871
  189POPC  H14X21842   4.075   2.605   9.022 -0.4040 -0.1060  0.4626
  189POPC  H14Y21843   4.206   2.522   9.108 -0.7562 -0.6966 -1.1018
  189POPC  C31521844   4.249   2.632   8.925 -0.2284 -0.0038  0.0300
  189POPC  H15X21845   4.194   2.711   8.870 -0.2387 -0.6799 -0.9665
  189POPC  H15Y21846   4.233   2.532   8.880 -3.0748  0.8804 -1.1355
  189POPC  C31621847   4.396   2.670   8.936 -0.1395  0.2438  0.4153
  189POPC  H16X21848   4.445   2.671   8.837  2.1363  1.9982  1.4655
  189POPC  H16Y21849   4.447   2.606   9.012 -2.4957 -1.8934  0.3408
  189POPC  H16Z21850   4.399   2.775   8.970 -0.8165  0.5881 -0.5620
  190POPC     N21851   2.334   6.002  10.870 -0.2374  0.1101  0.0050
  190POPC   C1221852   2.200   5.959  10.930  0.3316  0.0618  0.0710
  190POPC  H12A21853   2.145   6.050  10.953  0.5967  0.2540 -0.0506
  190POPC  H12B21854   2.221   5.898  11.016  1.6414  2.5721  1.6468
  190POPC   C1321855   2.403   6.065  10.983  0.0554 -0.5084  0.4134
  190POPC  H13A21856   2.346   6.146  11.025  0.3458  0.0770 -0.3051
  190POPC  H13B21857   2.423   6.002  11.069 -0.9915  1.2117  1.9646
  190POPC  H13C21858   2.496   6.112  10.956 -0.1849  0.0639  0.5871
  190POPC   C1421859   2.416   5.877  10.821 -0.3231 -0.0636 -0.4913
  190POPC  H14A21860   2.502   5.915  10.769  0.5126 -0.6351  0.4485
  190POPC  H14B21861   2.443   5.825  10.912 -1.1261  1.3647  0.6199
  190POPC  H14C21862   2.352   5.822  10.753 -1.1268  3.3221 -2.6983
  190POPC   C1521863   2.317   6.100  10.759  0.1935 -0.3631 -0.0146
  190POPC  H15A21864   2.412   6.114  10.710 -0.7975 -0.1715 -1.9603
  190POPC  H15B21865   2.263   6.188  10.791 -1.0943 -0.9488 -0.4907
  190POPC  H15C21866   2.257   6.054  10.682 -0.1982  0.8773 -0.4706
  190POPC   C1121867   2.117   5.862  10.845  0.0180  0.3486 -0.3584
  190POPC  H11A21868   2.098   5.907  10.745 -0.0009 -0.2155 -0.6180
  190POPC  H11B21869   2.020   5.847  10.897  0.1138  0.6448 -0.0926
  190POPC     P21870   2.111   5.608  10.780  0.1126  0.0165  0.1745
  190POPC   O1321871   1.984   5.590  10.838  0.4832 -0.6283 -0.1718
  190POPC   O1421872   2.197   5.489  10.786 -0.4292 -0.4585 -0.7873
  190POPC   O1221873   2.188   5.739  10.843  0.1212  0.2909 -0.2433
  190POPC   O1121874   2.103   5.642  10.628  0.0321 -1.1426  0.1309
  190POPC    C121875   1.977   5.647  10.562 -0.0672 -0.0867 -0.0204
  190POPC    HA21876   1.899   5.718  10.595 -0.7554 -1.0585  0.5152
  190POPC    HB21877   1.936   5.543  10.568 -0.1360 -0.0899 -0.5271
  190POPC    C221878   1.997   5.686  10.414 -0.3914 -0.6075 -0.5129
  190POPC    HS21879   1.900   5.680  10.360 -0.7910  1.6603 -0.1371
  190POPC   O2121880   2.093   5.609  10.343 -0.0376 -0.5302 -0.2720
  190POPC   C2121881   2.069   5.473  10.331 -0.5826 -0.0349  0.6596
  190POPC   O2221882   1.969   5.413  10.358 -0.0039 -0.2431 -0.0050
  190POPC   C2221883   2.192   5.398  10.277  0.2436 -1.1284  0.7614
  190POPC   H2R21884   2.153   5.304  10.232  0.2588 -0.2159 -1.2995
  190POPC   H2S21885   2.271   5.382  10.353  2.2382  3.0094 -0.1629
  190POPC    C321886   2.033   5.838  10.400 -0.2296  0.1274  0.5521
  190POPC    HX21887   2.124   5.852  10.462  0.5254 -0.3661 -0.4070
  190POPC    HY21888   1.954   5.896  10.451 -0.4240  1.0771 -0.7908
  190POPC   O3121889   2.052   5.882  10.261  0.4599  0.1245  0.0886
  190POPC   C3121890   2.176   5.882  10.219  0.0980  0.4979  0.9441
  190POPC   O3221891   2.273   5.859  10.288 -0.0436  0.0368 -0.2183
  190POPC   C3221892   2.190   5.932  10.074 -0.2854  0.2465  1.0211
  190POPC   H2X21893   2.120   6.015  10.050 -0.8694  0.0543  2.0189
  190POPC   H2Y21894   2.152   5.848  10.012 -0.4451 -0.2183  1.7368
  190POPC   C2321895   2.244   5.487  10.156 -0.2495  0.0386 -0.1205
  190POPC   H3R21896   2.332   5.434  10.115  0.7565  0.2687  1.6486
  190POPC   H3S21897   2.291   5.577  10.201 -0.3216 -0.3277  0.7212
  190POPC   C2421898   2.137   5.520  10.048 -0.6483 -0.2585  0.5683
  190POPC   H4R21899   2.077   5.602  10.091 -0.0142  0.4344  0.1580
  190POPC   H4S21900   2.076   5.433  10.015  0.7496 -1.5840  1.3612
  190POPC   C2521901   2.208   5.586   9.921 -0.3115  0.6519 -0.4939
  190POPC   H5R21902   2.276   5.509   9.878  0.2607 -1.2905  3.4581
  190POPC   H5S21903   2.276   5.671   9.942 -0.1770  0.0848  1.5675
  190POPC   C2621904   2.115   5.626   9.811  0.2629  0.0246  0.0449
  190POPC   H6R21905   2.068   5.724   9.834 -1.2680 -0.1383 -2.1092
  190POPC   H6S21906   2.029   5.559   9.791 -0.8684  1.9170 -1.8335
  190POPC   C2721907   2.187   5.652   9.682 -0.0560  0.2689  0.1027
  190POPC   H7R21908   2.285   5.700   9.704  0.8121 -1.8063  0.9727
  190POPC   H7S21909   2.136   5.727   9.618  0.0415 -0.4837 -0.8862
  190POPC   C2821910   2.203   5.523   9.598  0.8022  0.4171  0.0509
  190POPC   H8R21911   2.102   5.502   9.557  0.9409 -0.5688  0.1921
  190POPC   H8S21912   2.222   5.436   9.665 -0.9323  0.0968  0.1938
  190POPC   C2921913   2.308   5.551   9.490  0.1298  0.0613  0.6502
  190POPC   H9121914   2.397   5.601   9.531  0.2841  0.3710 -0.0392
  190POPC  C21021915   2.292   5.517   9.361 -0.3638 -0.3540  0.1600
  190POPC  H10121916   2.383   5.525   9.299  0.4922  0.5818  1.4827
  190POPC  C21121917   2.167   5.449   9.307 -0.0449 -0.0730 -0.2056
  190POPC  H11R21918   2.078   5.510   9.334  0.4925 -0.1255  1.8916
  190POPC  H11S21919   2.156   5.360   9.373  0.7612  0.3499  0.5104
  190POPC  C21221920   2.173   5.424   9.154  0.2100 -0.2975  0.2785
  190POPC  H12R21921   2.092   5.352   9.126  0.5075 -0.6015  0.1961
  190POPC  H12S21922   2.269   5.372   9.135  1.0973  0.1951  2.9643
  190POPC  C21321923   2.159   5.546   9.066 -0.2226 -0.3406  0.2799
  190POPC  H13R21924   2.226   5.621   9.113 -0.9434  0.1584  0.5345
  190POPC  H13S21925   2.059   5.595   9.072 -0.0209  0.2444 -0.8946
  190POPC  C21421926   2.189   5.520   8.914  0.3874  0.2200 -0.1002
  190POPC  H14R21927   2.300   5.507   8.919  0.3195 -0.0579  1.0879
  190POPC  H14S21928   2.161   5.610   8.856  2.1516  0.4037 -0.7440
  190POPC  C21521929   2.129   5.383   8.865  0.3098  0.4358  0.3122
  190POPC  H15R21930   2.032   5.380   8.918  0.2550 -0.4390  0.1778
  190POPC  H15S21931   2.191   5.303   8.910  1.8881  0.8665 -1.0208
  190POPC  C21621932   2.117   5.362   8.712 -0.4085 -0.0398  0.0550
  190POPC  H16R21933   2.094   5.463   8.672 -0.8156  0.4225  1.3908
  190POPC  H16S21934   2.024   5.302   8.700 -0.3093 -0.8420  2.6866
  190POPC  C21721935   2.232   5.286   8.640 -0.4269  0.3008  0.4002
  190POPC  H17R21936   2.269   5.211   8.713 -0.6819 -0.1511  0.0709
  190POPC  H17S21937   2.314   5.359   8.621 -0.8030  0.2150 -1.7243
  190POPC  C21821938   2.190   5.211   8.517  0.2035  0.1572 -0.1298
  190POPC  H18R21939   2.109   5.139   8.541  1.3164 -0.6593  1.3086
  190POPC  H18S21940   2.277   5.162   8.469 -0.8106 -1.5643 -0.2851
  190POPC  H18T21941   2.144   5.283   8.445  0.7623 -0.1492 -0.8033
  190POPC   C3321942   2.328   5.966  10.031 -0.7421  0.0062  0.1416
  190POPC   H3X21943   2.399   5.887  10.063 -0.6226 -0.1360 -0.4603
  190POPC   H3Y21944   2.365   6.057  10.084 -0.3116 -0.3120  0.3993
  190POPC   C3421945   2.343   5.988   9.879  0.4726 -0.5647  0.7176
  190POPC   H4X21946   2.267   6.061   9.843 -0.8240 -1.3553  1.7445
  190POPC   H4Y21947   2.318   5.889   9.836  1.0398 -0.1668 -0.5760
  190POPC   C3521948   2.482   6.033   9.848 -0.5572  0.4120 -0.1917
  190POPC   H5X21949   2.538   6.087   9.928  0.9875 -0.5633 -0.5658
  190POPC   H5Y21950   2.485   6.097   9.757 -1.4164  0.8730  0.0955
  190POPC   C3621951   2.570   5.918   9.795  0.1983  0.6709 -0.8152
  190POPC   H6X21952   2.554   5.836   9.868 -0.1179  2.3556  1.0628
  190POPC   H6Y21953   2.674   5.953   9.781 -0.9337  3.4935 -3.2187
  190POPC   C3721954   2.531   5.870   9.658  0.3065 -0.3023  0.3483
  190POPC   H7X21955   2.421   5.859   9.655  0.3640 -0.6390 -1.7235
  190POPC   H7Y21956   2.576   5.771   9.634 -0.0266  0.1828 -2.7044
  190POPC   C3821957   2.559   5.964   9.533  0.8301  0.3007  0.1520
  190POPC   H8X21958   2.661   6.005   9.554 -0.5168  3.3165  1.5293
  190POPC   H8Y21959   2.494   6.053   9.518 -1.4948 -1.6697 -2.2561
  190POPC   C3921960   2.559   5.885   9.407  0.4014 -0.2857 -0.6806
  190POPC   H9X21961   2.454   5.854   9.387 -0.4089  1.8541  0.0594
  190POPC   H9Y21962   2.619   5.792   9.418 -0.9462 -1.0798  0.3341
  190POPC  C31021963   2.608   5.959   9.286 -0.3944  0.0203 -0.5490
  190POPC  H10X21964   2.699   6.017   9.314 -1.0678  1.4851 -1.2928
  190POPC  H10Y21965   2.539   6.030   9.236 -0.0087 -0.2248 -1.4429
  190POPC  C31121966   2.652   5.862   9.179 -0.1628 -0.4178  0.3337
  190POPC  H11X21967   2.726   5.793   9.226 -0.4413 -0.2060  1.0944
  190POPC  H11Y21968   2.708   5.910   9.097 -0.3269 -1.3636 -0.3477
  190POPC  C31221969   2.532   5.792   9.128  0.3901  0.1761 -0.1686
  190POPC  H12X21970   2.459   5.864   9.087  0.5759  0.9121  0.7538
  190POPC  H12Y21971   2.492   5.731   9.212  0.0439 -0.5330 -0.8417
  190POPC  C31321972   2.557   5.689   9.012 -0.3614  0.1623  0.2799
  190POPC  H13X21973   2.463   5.636   8.985  0.4098 -0.8582 -0.4598
  190POPC  H13Y21974   2.620   5.604   9.047 -0.2007 -0.2280 -0.9236
  190POPC  C31421975   2.608   5.759   8.883 -0.1961  0.1648 -0.3700
  190POPC  H14X21976   2.712   5.795   8.892 -0.9228  2.0891  1.0511
  190POPC  H14Y21977   2.541   5.845   8.865 -4.8333 -3.1537 -0.9149
  190POPC  C31521978   2.614   5.669   8.759  0.2382  0.7032  0.1837
  190POPC  H15X21979   2.513   5.629   8.739  2.4216 -4.8382 -1.4049
  190POPC  H15Y21980   2.681   5.583   8.780  0.5439  1.6071  3.6532
  190POPC  C31621981   2.665   5.734   8.626  0.4964  0.1854 -0.1717
  190POPC  H16X21982   2.663   5.655   8.547 -0.8085 -1.4548  1.4079
  190POPC  H16Y21983   2.766   5.780   8.627  0.1845  0.8864  0.2485
  190POPC  H16Z21984   2.589   5.809   8.594  1.0151  0.8770  0.1851
  191POPC     N21985   0.079   4.903   6.051  0.7265 -0.3592  0.1476
  191POPC   C1221986  -0.034   4.968   6.134  0.5763  0.3013  0.1144
  191POPC  H12A21987  -0.088   4.893   6.189 -2.3151  1.3529 -1.0828
  191POPC  H12B21988  -0.098   5.017   6.062  0.5734  1.4045  0.8358
  191POPC   C1321989   0.030   4.771   6.002 -0.1819  0.7326 -1.2045
  191POPC  H13A21990   0.068   4.750   5.903  0.7770  0.6369 -0.8250
  191POPC  H13B21991   0.060   4.684   6.059 -0.5182  0.5982 -1.2260
  191POPC  H13C21992  -0.077   4.761   5.992 -0.2966  0.9807 -0.2457
  191POPC   C1421993   0.119   4.980   5.929 -0.4814 -0.1651  0.2788
  191POPC  H14A21994   0.151   5.081   5.948  2.0544 -1.1225  1.6019
  191POPC  H14B21995   0.211   4.943   5.886  0.2418  1.8782 -0.0439
  191POPC  H14C21996   0.038   4.978   5.858 -0.5573 -0.2592  0.3679
  191POPC   C1521997   0.212   4.868   6.120  0.2066  0.4399  0.1476
  191POPC  H15A21998   0.271   4.953   6.150  1.3661 -0.2004 -0.2350
  191POPC  H15B21999   0.270   4.812   6.048  0.7158 -0.9978  1.5955
  191POPC  H15C22000   0.197   4.799   6.202  0.3558  0.3030  0.0597
  191POPC   C1122001  -0.000   5.081   6.230  0.1684  0.4271 -0.7793
  191POPC  H11A22002   0.091   5.052   6.287 -0.2372  1.2749  0.3329
  191POPC  H11B22003  -0.086   5.085   6.301  0.1630  2.4956 -0.8555
  191POPC     P22004  -0.099   5.296   6.113  0.1916  0.6175 -0.3980
  191POPC   O1322005  -0.169   5.231   5.997  0.1551 -0.1894 -0.0751
  191POPC   O1422006  -0.034   5.428   6.078  0.5367  0.3369  0.2648
  191POPC   O1222007   0.016   5.197   6.155  0.0590 -0.3458 -0.5621
  191POPC   O1122008  -0.198   5.305   6.240  0.1361 -0.8128  0.1314
  191POPC    C122009  -0.166   5.421   6.327 -0.4942  0.6363  0.4908
  191POPC    HA22010  -0.241   5.415   6.409 -1.0005  0.4642  0.0242
  191POPC    HB22011  -0.189   5.520   6.281 -1.2260 -0.0400 -0.6546
  191POPC    C222012  -0.030   5.412   6.399  0.1793 -0.3005  0.0767
  191POPC    HS22013   0.050   5.403   6.323  0.4649 -0.3810  0.3831
  191POPC   O2122014  -0.033   5.296   6.477 -0.1141 -0.2103  0.0827
  191POPC   C2122015   0.090   5.244   6.519 -0.8090 -0.7105 -0.2926
  191POPC   O2222016   0.193   5.285   6.478 -0.4140  0.0704 -0.1693
  191POPC   C2222017   0.063   5.147   6.631  0.3539 -0.0663  0.5540
  191POPC   H2R22018  -0.021   5.079   6.607  0.0232  0.6529 -0.4171
  191POPC   H2S22019   0.036   5.208   6.719 -2.0007  3.3888 -2.2593
  191POPC    C322020   0.001   5.542   6.486  0.0747 -0.3461  0.7148
  191POPC    HX22021   0.013   5.629   6.419  0.2847  0.6177  1.9598
  191POPC    HY22022   0.103   5.530   6.529  0.2300  0.1507  0.4898
  191POPC   O3122023  -0.109   5.573   6.576 -0.2343 -0.5578 -0.2497
  191POPC   C3122024  -0.079   5.548   6.702  0.7880 -0.5744 -0.0483
  191POPC   O3222025   0.010   5.471   6.735  0.1906  0.1161 -0.2056
  191POPC   C3222026  -0.188   5.611   6.787  0.0489  0.2562  0.0275
  191POPC   H2X22027  -0.272   5.539   6.788 -0.3295  0.6943  0.2662
  191POPC   H2Y22028  -0.209   5.711   6.743  0.4597  0.6232  0.6418
  191POPC   C2322029   0.176   5.047   6.649  0.5166 -0.4957  0.3373
  191POPC   H3R22030   0.278   5.087   6.669  1.5015 -2.3988 -0.5462
  191POPC   H3S22031   0.198   4.988   6.558  2.3566  0.1562  0.3287
  191POPC   C2422032   0.144   4.958   6.772 -0.4799  0.9361  0.2419
  191POPC   H4R22033   0.061   4.886   6.750  0.6043 -0.0668 -0.7047
  191POPC   H4S22034   0.140   5.016   6.867  1.5577  1.4794  0.0386
  191POPC   C2522035   0.258   4.851   6.794 -0.1616  0.1025 -0.4461
  191POPC   H5R22036   0.354   4.906   6.805 -0.8098  1.0978  0.4676
  191POPC   H5S22037   0.268   4.786   6.705 -0.5892 -0.6145  0.0227
  191POPC   C2622038   0.231   4.766   6.920  0.9356 -0.1098 -0.2715
  191POPC   H6R22039   0.183   4.835   6.992  2.2441  1.6519 -0.9962
  191POPC   H6S22040   0.330   4.736   6.961  1.0792  2.1023  1.1859
  191POPC   C2722041   0.145   4.640   6.897 -0.4142 -0.1350 -0.1953
  191POPC   H7R22042   0.189   4.571   6.821 -0.7584 -1.1432  0.4970
  191POPC   H7S22043   0.047   4.675   6.858 -0.7087  1.7790  2.0775
  191POPC   C2822044   0.146   4.559   7.025  0.1738 -0.2942 -0.1163
  191POPC   H8R22045   0.252   4.547   7.056  0.6675 -0.4501 -1.8189
  191POPC   H8S22046   0.110   4.458   6.998  0.6072  0.1506 -2.5586
  191POPC   C2922047   0.058   4.616   7.135  0.7486 -1.0087 -0.1383
  191POPC   H9122048  -0.035   4.666   7.104  2.3902  1.9036 -0.7124
  191POPC  C21022049   0.076   4.597   7.266  0.9913  0.1002 -0.2816
  191POPC  H10122050   0.006   4.637   7.341 -0.5298 -2.0541 -0.4629
  191POPC  C21122051   0.188   4.511   7.328 -0.2875 -0.8672  0.6309
  191POPC  H11R22052   0.264   4.588   7.352  0.1522 -0.8873 -0.6134
  191POPC  H11S22053   0.237   4.445   7.253  1.3830  0.1296  0.7978
  191POPC  C21222054   0.152   4.428   7.447  0.4157 -0.6247  0.4283
  191POPC  H12R22055   0.215   4.338   7.467  0.7390 -0.4389  0.2612
  191POPC  H12S22056   0.050   4.387   7.437 -0.4150  1.1759  1.0454
  191POPC  C21322057   0.162   4.508   7.577 -1.0548 -0.3075  0.5133
  191POPC  H13R22058   0.095   4.597   7.573  0.3676  0.7473 -1.4928
  191POPC  H13S22059   0.266   4.546   7.590 -0.8478  0.2251 -2.1914
  191POPC  C21422060   0.115   4.439   7.700  0.1114 -0.1545  0.1274
  191POPC  H14R22061   0.173   4.345   7.708 -0.0503 -0.2221  0.5340
  191POPC  H14S22062   0.006   4.421   7.685 -0.2698  2.3759 -0.5546
  191POPC  C21522063   0.125   4.524   7.827 -0.4041 -0.1752  0.3922
  191POPC  H15R22064   0.050   4.607   7.831 -0.1687  0.1335 -1.1375
  191POPC  H15S22065   0.222   4.578   7.824  0.5645 -1.8862 -1.7159
  191POPC  C21622066   0.112   4.455   7.964  0.0598  0.2911  0.5089
  191POPC  H16R22067   0.186   4.373   7.980  1.2664  1.0630 -0.8364
  191POPC  H16S22068   0.013   4.405   7.959 -0.2471  0.9816 -1.1651
  191POPC  C21722069   0.098   4.553   8.083  0.1640  0.1229  0.3119
  191POPC  H17R22070   0.022   4.633   8.068  1.9857  1.4512 -2.8792
  191POPC  H17S22071   0.197   4.602   8.095  0.9975 -1.6808  1.1806
  191POPC  C21822072   0.063   4.478   8.212  0.3651 -0.0939  1.1724
  191POPC  H18R22073   0.050   4.552   8.294 -1.6116  1.4252 -0.4283
  191POPC  H18S22074   0.146   4.409   8.237 -1.0190 -1.6228  1.7340
  191POPC  H18T22075  -0.026   4.412   8.219  1.4030 -1.8076 -0.7048
  191POPC   C3322076  -0.130   5.629   6.929 -0.8756 -1.0435  0.4432
  191POPC   H3X22077  -0.092   5.733   6.941 -1.1819 -1.1520  2.8315
  191POPC   H3Y22078  -0.053   5.551   6.948  0.1213  0.0548  1.0596
  191POPC   C3422079  -0.231   5.594   7.036  0.0660 -0.8063 -0.0046
  191POPC   H4X22080  -0.279   5.496   7.018  1.3813 -1.3312 -0.8374
  191POPC   H4Y22081  -0.311   5.671   7.034 -0.1403 -1.0099  0.4016
  191POPC   C3522082  -0.170   5.588   7.177  0.1889 -0.1648  0.0104
  191POPC   H5X22083  -0.144   5.690   7.209 -3.8145  1.0210  0.1047
  191POPC   H5Y22084  -0.083   5.520   7.177  0.5007  0.2355 -0.0132
  191POPC   C3622085  -0.277   5.533   7.284 -0.1376 -0.4301 -0.1217
  191POPC   H6X22086  -0.325   5.438   7.250 -1.7802  0.2391  0.2429
  191POPC   H6Y22087  -0.356   5.611   7.287  3.0910  3.1946 -0.7309
  191POPC   C3722088  -0.221   5.515   7.425 -0.4018 -0.1047  0.1119
  191POPC   H7X22089  -0.304   5.538   7.495 -0.6364  2.9342 -1.0500
  191POPC   H7Y22090  -0.141   5.588   7.447 -2.9172  2.9496 -0.2049
  191POPC   C3822091  -0.175   5.371   7.448  0.2836  0.0593  0.1963
  191POPC   H8X22092  -0.093   5.356   7.374  0.3249 -0.1515  0.2851
  191POPC   H8Y22093  -0.255   5.301   7.418  0.9985 -0.2589 -1.0766
  191POPC   C3922094  -0.133   5.351   7.596 -0.4792  0.5787 -0.1529
  191POPC   H9X22095  -0.045   5.418   7.614 -0.7775  0.6121  1.2223
  191POPC   H9Y22096  -0.092   5.249   7.609  0.0799  1.0501  2.2690
  191POPC  C31022097  -0.248   5.367   7.703 -0.5091 -0.8997 -0.3382
  191POPC  H10X22098  -0.317   5.283   7.680 -0.1603 -0.8146 -1.8279
  191POPC  H10Y22099  -0.305   5.461   7.686 -0.4731 -1.2459 -2.7597
  191POPC  C31122100  -0.194   5.344   7.846 -0.6114  0.3559  0.6821
  191POPC  H11X22101  -0.116   5.421   7.862 -1.2627  0.8703  1.4651
  191POPC  H11Y22102  -0.144   5.245   7.833 -0.5759  0.3022  1.2084
  191POPC  C31222103  -0.292   5.338   7.958  0.5260 -0.1893 -0.3576
  191POPC  H12X22104  -0.371   5.261   7.944  0.0595 -0.0592  1.3268
  191POPC  H12Y22105  -0.356   5.429   7.966  1.9247  1.1334 -2.9692
  191POPC  C31322106  -0.224   5.288   8.079  0.4170  0.4298 -0.3172
  191POPC  H13X22107  -0.143   5.360   8.104 -0.7564  1.0142  2.0813
  191POPC  H13Y22108  -0.173   5.191   8.063  0.3860  0.4688 -0.6824
  191POPC  C31422109  -0.309   5.267   8.208  0.0073  0.3240  0.0572
  191POPC  H14X22110  -0.385   5.189   8.186  1.2013 -0.5421 -1.0824
  191POPC  H14Y22111  -0.352   5.368   8.227  0.2631  0.3660  0.4242
  191POPC  C31522112  -0.225   5.226   8.328 -0.6350  0.1221 -0.1260
  191POPC  H15X22113  -0.285   5.240   8.421  0.0686  2.4379  0.0324
  191POPC  H15Y22114  -0.140   5.297   8.332 -1.1042  0.7397 -0.8361
  191POPC  C31622115  -0.185   5.080   8.317 -0.3231  0.7276 -0.3455
  191POPC  H16X22116  -0.262   5.016   8.270 -1.3469  1.5629  0.1314
  191POPC  H16Y22117  -0.168   5.039   8.419 -0.6270 -1.1457 -1.0164
  191POPC  H16Z22118  -0.087   5.051   8.276 -0.0153 -0.7230  1.2729
  192POPC     N22119   5.300   0.577   5.882  0.1088 -0.3297 -0.5541
  192POPC   C1222120   5.178   0.670   5.886  0.1126 -0.3066  0.2994
  192POPC  H12A22121   5.098   0.609   5.847  2.0201 -2.0877 -1.0599
  192POPC  H12B22122   5.187   0.743   5.808  0.6893 -1.3947 -0.6770
  192POPC   C1322123   5.436   0.630   5.930  1.1163  0.0293  1.1103
  192POPC  H13A22124   5.509   0.551   5.924 -1.0623 -2.0765  0.7774
  192POPC  H13B22125   5.466   0.712   5.866 -1.4576 -0.0926 -0.4053
  192POPC  H13C22126   5.431   0.674   6.028  1.2865  0.7035  0.8238
  192POPC   C1422127   5.267   0.451   5.959 -0.6028 -0.8501  0.4862
  192POPC  H14A22128   5.355   0.388   5.958 -0.6657 -0.9996 -1.9492
  192POPC  H14B22129   5.228   0.472   6.057  0.6953  1.3457  0.6031
  192POPC  H14C22130   5.191   0.392   5.909 -1.4434  1.3015 -0.9376
  192POPC   C1522131   5.337   0.536   5.747 -0.1602  0.4632  0.2258
  192POPC  H15A22132   5.352   0.625   5.687  0.5231  0.4441  0.3586
  192POPC  H15B22133   5.256   0.471   5.720 -1.5437  2.0920  0.3126
  192POPC  H15C22134   5.434   0.488   5.754  0.4153  1.4514 -0.6363
  192POPC   C1122135   5.154   0.737   6.017 -0.1156  0.2172  0.0893
  192POPC  H11A22136   5.242   0.804   6.025 -0.6969  0.9040  0.8385
  192POPC  H11B22137   5.169   0.666   6.101  1.9997  0.9550  0.3966
  192POPC     P22138   5.036   0.969   6.023  0.1470 -0.2062 -0.3314
  192POPC   O1322139   4.898   1.016   6.038  0.1628 -0.3190  0.7866
  192POPC   O1422140   5.108   1.017   5.907 -0.2490 -0.3883  0.0510
  192POPC   O1222141   5.031   0.802   6.025 -0.2714 -0.4766  0.0038
  192POPC   O1122142   5.118   1.006   6.155  0.9517 -0.3567 -0.0771
  192POPC    C122143   5.092   0.938   6.283 -0.6830 -0.5070  0.8697
  192POPC    HA22144   5.186   0.883   6.303  0.7737  1.6485  0.2839
  192POPC    HB22145   5.002   0.873   6.289 -0.9617 -0.4667 -1.7378
  192POPC    C222146   5.083   1.052   6.388  0.2234 -0.9970 -0.3900
  192POPC    HS22147   5.000   1.113   6.347  0.0134 -1.0842 -0.0984
  192POPC   O2122148   5.212   1.114   6.398  0.5411 -0.3027  0.3187
  192POPC   C2122149   5.220   1.249   6.376  0.5974  0.0939 -0.0875
  192POPC   O2222150   5.136   1.318   6.322  0.3781  0.4602 -0.0278
  192POPC   C2222151   5.358   1.304   6.417 -0.4105  0.2269 -0.4259
  192POPC   H2R22152   5.434   1.307   6.336  0.5264 -0.8083  0.3801
  192POPC   H2S22153   5.397   1.230   6.490  2.2183  1.3092 -0.6177
  192POPC    C322154   5.037   1.011   6.527 -0.5834 -0.8715  0.1062
  192POPC    HX22155   5.108   0.929   6.551  0.3060 -0.5846 -1.4102
  192POPC    HY22156   4.931   0.978   6.515 -0.6930 -1.1671  1.6836
  192POPC   O3122157   5.037   1.128   6.617 -0.2189  0.1876 -0.3228
  192POPC   C3122158   5.024   1.087   6.740 -0.3043 -0.2746  0.0637
  192POPC   O3222159   5.015   0.972   6.768  0.4020  0.3506  0.3475
  192POPC   C3222160   4.997   1.203   6.841  0.2223 -0.1610  0.7719
  192POPC   H2X22161   4.887   1.209   6.859 -0.3400  1.2131 -2.3807
  192POPC   H2Y22162   5.038   1.296   6.798  0.2331 -0.8841 -0.8712
  192POPC   C2322163   5.358   1.435   6.488 -0.4301  0.6773 -0.3579
  192POPC   H3R22164   5.314   1.513   6.422  0.7778  1.7838  0.1004
  192POPC   H3S22165   5.460   1.477   6.495  0.5621 -1.5900 -0.3267
  192POPC   C2422166   5.294   1.437   6.627 -0.0578  0.6445 -0.6546
  192POPC   H4R22167   5.336   1.363   6.699  0.2379  0.3956 -1.0752
  192POPC   H4S22168   5.197   1.383   6.623  0.1262 -0.2598  3.2035
  192POPC   C2522169   5.281   1.567   6.698 -0.1803 -0.4286 -0.3116
  192POPC   H5R22170   5.248   1.646   6.627  1.7673 -0.5497 -1.4374
  192POPC   H5S22171   5.385   1.584   6.735 -0.6217 -1.7493  1.6519
  192POPC   C2622172   5.197   1.551   6.828  0.2993 -0.1131  0.3463
  192POPC   H6R22173   5.221   1.457   6.882  0.2539 -0.8360 -0.8507
  192POPC   H6S22174   5.089   1.533   6.808  0.1001  0.0828  1.2022
  192POPC   C2722175   5.212   1.667   6.929  0.4396  0.4678 -0.1420
  192POPC   H7R22176   5.144   1.640   7.013  0.9608  0.1659  0.1850
  192POPC   H7S22177   5.173   1.761   6.883 -0.8138  0.0346 -0.0089
  192POPC   C2822178   5.347   1.688   6.976 -0.6897 -0.5413 -0.6037
  192POPC   H8R22179   5.334   1.762   7.058 -0.5143 -0.4585 -0.6504
  192POPC   H8S22180   5.419   1.737   6.907  0.5033  0.4679  1.2781
  192POPC   C2922181   5.409   1.570   7.046  0.2630  0.7428  0.2985
  192POPC   H9122182   5.458   1.501   6.975  1.7472 -0.5261  2.4435
  192POPC  C21022183   5.396   1.533   7.176 -0.2458 -0.7217  0.0623
  192POPC  H10122184   5.456   1.442   7.197  1.7231  0.9238  2.0107
  192POPC  C21122185   5.331   1.592   7.294  0.1792 -0.1111 -1.1219
  192POPC  H11R22186   5.238   1.537   7.319  0.2520  0.6173  0.8984
  192POPC  H11S22187   5.300   1.697   7.275 -0.0478  0.1492  0.5775
  192POPC  C21222188   5.430   1.592   7.413 -0.1148  0.4881 -0.0395
  192POPC  H12R22189   5.432   1.702   7.424 -1.2335  0.7590 -2.1512
  192POPC  H12S22190   5.534   1.568   7.384 -0.4337 -1.3542  0.2164
  192POPC  C21322191   5.396   1.532   7.542 -0.1752 -0.5560 -0.1563
  192POPC  H13R22192   5.413   1.423   7.528 -1.0538 -0.4234 -2.8077
  192POPC  H13S22193   5.288   1.538   7.569 -0.5162 -1.9005 -1.1074
  192POPC  C21422194   5.488   1.577   7.654  0.1497  0.0481  0.4644
  192POPC  H14R22195   5.488   1.685   7.680 -2.4097 -0.0419  1.0897
  192POPC  H14S22196   5.592   1.559   7.622 -0.0625  1.7842 -1.4602
  192POPC  C21522197   5.459   1.507   7.783  0.2645  0.4203  0.1056
  192POPC  H15R22198   5.464   1.397   7.770  1.0024  0.2756  1.3686
  192POPC  H15S22199   5.358   1.527   7.825  0.6704 -0.4352  1.5772
  192POPC  C21622200   5.560   1.542   7.903 -0.2281  0.1488  0.4063
  192POPC  H16R22201   5.563   1.653   7.908  0.2171  0.1792 -0.4347
  192POPC  H16S22202   5.662   1.514   7.869  0.2289  1.6804  0.4030
  192POPC  C21722203   5.520   1.486   8.040  0.8204  0.2043 -0.1971
  192POPC  H17R22204   5.566   1.385   8.047 -1.5080 -0.8154  1.8504
  192POPC  H17S22205   5.409   1.474   8.042  0.6509  1.3943 -1.2500
  192POPC  C21822206   5.572   1.563   8.154 -0.2749  0.4491 -0.2346
  192POPC  H18R22207   5.512   1.529   8.241  1.3864 -0.9968  0.4141
  192POPC  H18S22208   5.549   1.671   8.143 -1.9852  0.2609  1.0307
  192POPC  H18T22209   5.681   1.562   8.175  0.6037  0.2588 -4.0408
  192POPC   C3322210   5.066   1.188   6.980 -0.2322 -0.1239  0.4690
  192POPC   H3X22211   5.177   1.185   6.969 -0.2807  0.1734 -0.1551
  192POPC   H3Y22212   5.038   1.090   7.024  1.2663 -2.6170 -3.6063
  192POPC   C3422213   5.029   1.297   7.074  0.0574 -0.1287 -0.2569
  192POPC   H4X22214   4.919   1.306   7.078  0.1279  0.5108  0.9692
  192POPC   H4Y22215   5.066   1.393   7.032  1.1107 -0.0653  0.7415
  192POPC   C3522216   5.083   1.290   7.218 -0.6440  0.8790 -0.5447
  192POPC   H5X22217   5.190   1.321   7.217 -0.4873  0.5585  1.4763
  192POPC   H5Y22218   5.085   1.186   7.256 -0.0787  1.0250 -0.1530
  192POPC   C3622219   5.003   1.391   7.308  0.2557 -0.0120 -0.4089
  192POPC   H6X22220   4.894   1.369   7.303  0.5827 -1.9758  0.2005
  192POPC   H6Y22221   5.016   1.495   7.273 -1.5034  0.7184  0.9854
  192POPC   C3722222   5.062   1.384   7.453  0.7527  0.0926  0.4253
  192POPC   H7X22223   5.025   1.471   7.510 -4.7716 -1.4485 -0.2487
  192POPC   H7Y22224   5.173   1.382   7.459  0.7543 -2.3999  1.0091
  192POPC   C3822225   5.027   1.252   7.523  0.4231  0.5493 -0.2003
  192POPC   H8X22226   5.075   1.166   7.472 -0.8842 -0.4467  0.1899
  192POPC   H8Y22227   4.918   1.230   7.527  0.3480  0.6667 -1.3829
  192POPC   C3922228   5.072   1.263   7.674 -1.0167  0.0364  0.4311
  192POPC   H9X22229   5.025   1.356   7.713 -3.6724 -1.2262  0.4145
  192POPC   H9Y22230   5.183   1.272   7.664 -1.1218  0.1883 -0.7424
  192POPC  C31022231   5.030   1.154   7.766  0.2070  0.2831 -0.0815
  192POPC  H10X22232   5.061   1.058   7.719 -1.0457  0.7964 -2.1074
  192POPC  H10Y22233   4.920   1.145   7.770  0.3324 -0.9773  2.4145
  192POPC  C31122234   5.098   1.159   7.905 -0.0173 -0.1992  0.3372
  192POPC  H11X22235   5.197   1.206   7.886 -0.3072  0.3879  0.2423
  192POPC  H11Y22236   5.107   1.056   7.944  0.3847 -0.4623 -0.4310
  192POPC  C31222237   5.015   1.250   7.996  0.4025 -0.0024 -0.8022
  192POPC  H12X22238   4.914   1.210   8.013  0.7956 -0.6993 -0.0758
  192POPC  H12Y22239   4.995   1.352   7.956  1.1221  1.5241  2.4545
  192POPC  C31322240   5.077   1.278   8.143  0.3473  0.3677  0.0950
  192POPC  H13X22241   5.026   1.371   8.178  1.2545  1.2134 -0.7484
  192POPC  H13Y22242   5.186   1.295   8.128  0.3449  0.6550  0.3756
  192POPC  C31422243   5.060   1.162   8.239 -0.0419 -0.4765 -0.6974
  192POPC  H14X22244   5.101   1.080   8.177 -1.2587 -0.6005 -1.3655
  192POPC  H14Y22245   4.955   1.143   8.271  0.2356 -1.3214 -0.2531
  192POPC  C31522246   5.140   1.168   8.377  0.8028 -0.1794  0.3462
  192POPC  H15X22247   5.152   1.062   8.407 -0.2590 -0.5932 -0.6170
  192POPC  H15Y22248   5.077   1.222   8.451 -1.9981 -2.0592 -0.5038
  192POPC  C31622249   5.281   1.230   8.376 -0.1998  0.7058  0.5242
  192POPC  H16X22250   5.293   1.315   8.305  1.6940 -0.7665 -1.0191
  192POPC  H16Y22251   5.354   1.151   8.351  0.6911  1.5173  0.5021
  192POPC  H16Z22252   5.315   1.270   8.474  1.0575 -0.1838  0.4668
  193SOD    SOD22253   1.336   4.399  11.317 -0.5447  0.2340  0.3431
  194SOD    SOD22254   4.436   5.675   4.247 -0.0713  0.1335  0.2331
  195SOD    SOD22255   2.261   6.541   4.950 -0.1473  0.5112 -0.4681
  196SOD    SOD22256   2.955   1.444  11.473  0.3717 -0.2764  0.2191
  197SOD    SOD22257   4.641   3.702   1.010  0.5276 -0.2952 -0.0341
  198SOD    SOD22258   4.420   2.364  10.404  0.0634  0.0655 -0.0312
  199SOD    SOD22259   0.339   2.970   2.883 -0.3984 -0.6219 -0.6270
  200SOD    SOD22260   2.925   5.626   6.312  0.1160  0.7914  0.3472
  201SOD    SOD22261   2.030   3.331  11.335 -0.0431 -0.4071  0.0342
  202SOD    SOD22262   3.442   6.407  11.196  0.0533  0.1853 -0.3583
  203SOD    SOD22263   5.356   5.788  14.323 -0.3522  0.0581  0.1329
  204SOD    SOD22264   4.108   6.634   6.051  0.0595 -0.2585 -0.2104
  205SOD    SOD22265   3.811   1.280  10.775 -0.1070  0.6867  0.0051
  206SOD    SOD22266   4.604   0.217  13.289  0.3723  0.0667 -0.5749
  207SOD    SOD22267   0.459   6.008   1.048  0.4024 -0.1955  0.6510
  208SOD    SOD22268   3.667   5.736  15.496  0.1514 -0.1622  0.7293
  209SOD    SOD22269   1.394   5.065   5.561  0.0665  0.0574 -0.0999
  210SOD    SOD22270   3.698   4.534   6.072  0.1618 -0.1350  0.5145
  211SOD    SOD22271   3.275   3.159  16.964  0.5075 -0.2107  0.0136
  212SOD    SOD22272   5.735   2.819   1.962  0.1852  0.0367 -0.3593
  213SOD    SOD22273   4.452   4.406  16.785 -0.1409  0.0327  0.2944
  214SOD    SOD22274   0.885   5.887   4.041 -0.2334 -0.1630 -0.6347
  215SOD    SOD22275   1.358   1.978   3.392  0.1839 -0.1249 -0.0400
  216SOD    SOD22276   5.055   3.216   5.240  0.1704  0.0568  0.0507
  217SOD    SOD22277   1.111   6.326   2.817  0.0899  0.1346  0.3384
  218SOD    SOD22278   0.344   4.027   1.297 -0.0303 -0.2718  0.0573
  219SOD    SOD22279   1.975   0.046   2.319 -0.1324  0.1118  0.2181
  220SOD    SOD22280   6.787   6.334   3.270  0.0978  0.0006 -0.4339
  221SOD    SOD22281   4.430   0.405   4.794 -0.6173 -0.1416  0.3598
  222SOD    SOD22282   0.682   6.375   5.726  0.5409 -0.1739 -0.0330
  223SOD    SOD22283   2.122   0.437  11.786  0.2349  0.3113  0.2181
  224SOD    SOD22284   5.468   0.175  12.284 -0.7230  0.0037  0.0092
  225SOD    SOD22285   6.522   3.380  11.857 -0.3559  0.3767 -0.2043
  226SOD    SOD22286   0.947   0.849  16.752 -0.0898 -0.0120 -0.3861
  227SOD    SOD22287   0.148   2.025   3.441 -0.0325 -0.3601  0.0567
  228SOD    SOD22288   1.510   4.169   6.357  0.2846  0.1293  0.5797
  229SOD    SOD22289   1.489   4.675   2.640 -0.1358  0.4736  0.4531
  230SOD    SOD22290   4.030   4.970   1.594  0.3920 -0.2631 -0.1815
  231SOD    SOD22291   5.290   2.622   0.077  0.1294  0.1072  0.4349
  232SOD    SOD22292   4.294   3.937   5.545 -0.2065 -0.2545  0.3019
  233SOD    SOD22293   5.475   2.752  11.866 -0.1414  0.3226  0.3605
  234SOD    SOD22294   3.796   5.957  12.426 -0.0540  0.1451 -0.6750
  235SOD    SOD22295   4.407   5.147   0.263 -0.2407 -0.0918 -0.2450
  236SOD    SOD22296   4.059   3.371  10.528  0.2866  0.1120 -0.2604
  237SOD    SOD22297   5.971   2.951   5.151 -0.7017  0.2167  0.3314
  238SOD    SOD22298   4.138   0.135   1.783 -0.2238  0.7517 -0.5478
  239SOD    SOD22299   0.982   2.982   5.988 -0.1641 -0.2476 -0.1027
  240SOD    SOD22300   2.666   2.363   5.350  0.0151 -0.5680 -0.2739
  241SOD    SOD22301   6.463   2.616   6.230  0.1411 -0.0033 -0.5173
  242SOD    SOD22302   5.402   2.475  13.354  0.2745  0.1982 -0.2695
  243SOD    SOD22303   3.726   4.560   6.433  0.0648  0.5768 -0.9682
  244SOD    SOD22304   0.681   2.395  13.543  0.3398 -0.0209  0.2997
  245SOD    SOD22305   4.095   5.844  12.734  0.3147  0.3674  0.1400
  246SOD    SOD22306   5.231   3.813   5.629  0.3520  0.0480 -0.1682
  247SOD    SOD22307   0.138   4.022   0.633 -0.0977  0.7177  1.2745
  248SOD    SOD22308   1.702   1.497  13.977  0.0213 -0.2464  0.1500
  249SOD    SOD22309   2.858   2.592   3.490  0.1561 -0.1008  0.3220
  250SOD    SOD22310   4.490   0.493  15.475 -0.0709  0.3432  0.2695
  251SOD    SOD22311   3.634   2.977   4.907  0.0574  0.7541  0.0712
  252SOD    SOD22312   5.521   4.607   1.090 -0.0215 -0.4377 -0.4678
  253SOD    SOD22313   6.575   0.653   1.897 -0.2020 -0.1215 -0.0635
  254SOD    SOD22314   0.010   2.463  12.631  0.1463  0.1245 -0.9350
  255SOD    SOD22315   1.037   4.255  13.598  0.4353 -0.3003  0.6561
  256SOD    SOD22316   2.514   6.137   5.648  0.7708 -0.0835  0.2922
  257SOD    SOD22317   3.712   6.613  15.962 -0.2422  0.1149 -0.1462
  258SOD    SOD22318   2.857   2.307  12.346 -0.0433 -0.0694 -0.1273
  259SOD    SOD22319   1.631   6.092  10.998 -0.4109  0.7167 -0.1690
  260SOD    SOD22320   1.435   2.270  14.308 -0.9618 -0.2278  0.2449
  261SOD    SOD22321   4.359   1.653  14.017  0.0909  0.3195  0.0027
  262SOD    SOD22322   6.164   6.074   1.689 -0.0958 -0.1166 -0.4292
  263SOD    SOD22323   3.701   2.803  13.396  0.0962  0.1697 -0.2109
  264SOD    SOD22324   3.000   5.542   5.701  0.2479 -0.1090 -0.1432
  265SOD    SOD22325   4.212   4.462  14.706  0.1343 -0.1849 -0.7845
  266SOD    SOD22326   0.592   6.190  16.126  0.1928 -0.0781  0.1822
  267SOD    SOD22327   3.972   3.962  12.460 -0.1046 -0.1036  0.6135
  268SOD    SOD22328   1.891   1.549   2.138  0.0096 -0.8478  0.4969
  269SOD    SOD22329   5.695   1.269  12.655  0.0030 -0.3315  0.3373
  270CLA    CLA22330   0.696   1.656  13.972  0.0510  0.0719 -0.2182
  271CLA    CLA22331   0.726   3.842   0.966 -0.1421  0.1973 -0.2129
  272CLA    CLA22332   3.769   2.539   4.760  0.3405  0.1017 -0.2466
  273CLA    CLA22333   3.320   4.711  12.540  0.0303  0.2001  0.2334
  274CLA    CLA22334   4.807   3.017   0.498 -0.3191 -0.0272  0.0428
  275CLA    CLA22335   4.756   2.099   4.639  0.0654 -0.0978  0.2840
  276CLA    CLA22336   4.751   5.002  12.397 -0.0664  0.3433 -0.0923
  277CLA    CLA22337   4.498   3.846   5.146  0.0336  0.5447  0.2778
  278CLA    CLA22338   5.694   2.180   4.392  0.3475  0.4407 -0.2488
  279CLA    CLA22339   1.395   0.585   4.722 -0.1074  0.1960 -0.1857
  280CLA    CLA22340   5.713   2.974   0.062 -0.3109  0.0879 -0.1119
  281CLA    CLA22341   2.224   2.193   4.982 -0.2757 -0.1573  0.6738
  282CLA    CLA22342   0.060   0.259   2.563 -0.2170 -0.0698  0.2135
  283CLA    CLA22343   4.653   6.100  12.607 -0.4266 -0.1100 -0.3606
  284CLA    CLA22344   2.306   4.721   0.307 -0.2018  0.3846  0.0393
  285CLA    CLA22345   1.813   2.939  12.738 -0.0796 -0.2933  0.2920
  286CLA    CLA22346   6.706   0.467  17.141  0.1280  0.0776 -0.0228
  287CLA    CLA22347   3.037   2.759   5.819  0.1855 -0.1785 -0.8168
  288CLA    CLA22348   6.032   4.763  16.053 -0.0057 -0.1503 -0.0747
  289CLA    CLA22349   0.457   4.695  12.299 -0.0160  0.1927  0.3843
  290CLA    CLA22350   0.823   6.040  17.081  0.4376 -0.1812  0.1533
  291CLA    CLA22351   5.197   4.233   3.674  0.1707 -0.1615  0.2167
  292CLA    CLA22352   4.301   3.642  13.917  0.1559  0.0087  0.3848
  293CLA    CLA22353   4.035   0.094  11.272  0.1811  0.0440 -0.3847
  294CLA    CLA22354   3.925   1.780   3.788  0.2258 -0.5533 -0.1362
  295CLA    CLA22355   5.654   2.088   0.516  0.1129 -0.6284  0.0004
  296CLA    CLA22356   6.143   2.810  14.084 -0.1274 -0.3864  0.1271
  297CLA    CLA22357   6.412   1.467   1.836  0.4450  0.3406 -0.0596
  298CLA    CLA22358   3.999   5.654   0.759 -0.2270 -0.1094  0.0961
  299CLA    CLA22359   1.775   0.856   1.252 -0.0436  0.1173 -0.0631
  300CLA    CLA22360   3.877   2.782  15.176  0.1674  0.2092 -0.0338
  301CLA    CLA22361   0.798   2.564   2.945 -0.3471  0.1567  0.0969
  302CLA    CLA22362   3.069   3.132  14.232  0.2139 -0.3013  0.0333
  303CLA    CLA22363   3.191   0.079   1.390 -0.0464  0.0863 -0.1496
  304CLA    CLA22364   3.708   6.253  16.252  0.2620  0.0886  0.1086
  305CLA    CLA22365   0.038   2.882  12.901 -0.1362 -0.1349  0.5150
  306CLA    CLA22366   0.901   6.447   2.388  0.3366  0.2265 -0.1833
  307CLA    CLA22367   4.038   3.706   2.845  0.4878 -0.1835 -0.0760
  308CLA    CLA22368   3.569   2.213  14.320  0.0358  0.1222 -0.1002
  309CLA    CLA22369   6.065   4.078   0.431  0.1039 -0.5815  0.0919
  310CLA    CLA22370   4.411   4.890   5.789 -0.1362  0.2491 -0.3082
  311CLA    CLA22371   5.767   4.496   1.870 -0.1135 -0.0616  0.0370
  312CLA    CLA22372   0.605   3.050   1.399 -0.0555 -0.2425 -0.4332
  313CLA    CLA22373   0.715   6.269  14.882 -0.0541  0.0169 -0.1153
  314CLA    CLA22374   3.865   0.198  12.909  0.1273 -0.1388 -0.2476
  315CLA    CLA22375   6.084   3.368   5.362  0.6389 -0.1816 -0.2857
  316CLA    CLA22376   2.069   3.924  16.271 -0.2332  0.2846 -0.2921
  317CLA    CLA22377   2.031   3.736   2.233  0.3071 -0.1908 -0.0900
  318CLA    CLA22378   0.909   3.751   3.807 -0.2403 -0.5697 -0.3210
  319CLA    CLA22379   0.450   5.338   3.979  0.0430  0.4008 -0.2089
  320CLA    CLA22380   1.024   5.280   2.453 -0.2236  0.3613  0.1946
  321CLA    CLA22381   2.563   0.404   2.914  0.1154  0.0200  0.0092
  322CLA    CLA22382   1.575   1.343  12.841  0.2116 -0.2821 -0.1630
  323TIP3   OH222383   6.090   3.162  13.285 -0.5272  0.3112 -0.5435
  323TIP3    H122384   6.182   3.158  13.309 -1.0739 -1.7454  1.5237
  323TIP3    H222385   6.049   3.215  13.353 -1.1694 -0.4641 -0.3047
  324TIP3   OH222386   1.686   3.797  14.427  0.9472 -0.1222 -0.0233
  324TIP3    H122387   1.730   3.852  14.492  1.6951  2.4972 -2.5037
  324TIP3    H222388   1.597   3.831  14.423  1.2185  0.5262 -1.0863
  325TIP3   OH222389   1.405   1.266  15.261 -0.4733  0.2025  1.0892
  325TIP3    H122390   1.331   1.207  15.272 -0.5775  0.1735  0.2314
  325TIP3    H222391   1.465   1.220  15.203 -0.5959  0.9625  0.3454
  326TIP3   OH222392   3.970   2.354   4.621 -0.5134 -0.3386  0.0386
  326TIP3    H122393   4.055   2.363   4.663 -0.2935  0.4332 -0.5402
  326TIP3    H222394   3.911   2.409   4.673 -0.1270  1.0437 -0.9297
  327TIP3   OH222395   4.724   3.413  14.046  0.2391 -0.3456  0.1023
  327TIP3    H122396   4.733   3.318  14.054 -0.9128 -0.2989  3.3273
  327TIP3    H222397   4.814   3.446  14.043  0.7702 -1.3925  2.6852
  328TIP3   OH222398   5.763   4.737   0.154  0.3331  0.0838 -0.1268
  328TIP3    H122399   5.857   4.744   0.139  0.5573  0.0896  1.1970
  328TIP3    H222400   5.750   4.646   0.180  0.2107  0.4307  1.1082
  329TIP3   OH222401   3.275   0.051  16.755  0.1106 -0.2886  0.0172
  329TIP3    H122402   3.303   0.128  16.803  2.6917 -1.8196  1.1754
  329TIP3    H222403   3.271   0.079  16.663 -0.4487  1.5271  0.5641
  330TIP3   OH222404   4.105   4.137   3.546 -0.1816  0.4334 -0.2157
  330TIP3    H122405   4.095   4.227   3.515  1.0802  0.7750  0.3150
  330TIP3    H222406   4.128   4.147   3.639 -0.8266 -0.4726  0.0594
  331TIP3   OH222407   1.048   4.029   3.755  0.5651  0.4152  0.4963
  331TIP3    H122408   1.002   3.948   3.777  3.3413 -1.5686 -0.5099
  331TIP3    H222409   1.088   4.057   3.837  0.9733 -0.1892  0.5058
  332TIP3   OH222410   0.102   4.488   3.763  0.6179 -0.5008  0.2682
  332TIP3    H122411   0.060   4.439   3.692 -0.8117 -1.1266  1.5074
  332TIP3    H222412   0.126   4.572   3.722 -2.4409  0.1932 -0.4069
  333TIP3   OH222413   2.185   3.904   4.900 -0.2581 -0.2479  0.5111
  333TIP3    H122414   2.158   3.973   4.839  1.1269 -2.0133 -2.2774
  333TIP3    H222415   2.279   3.893   4.883 -0.0830 -1.6534  2.1347
  334TIP3   OH222416   6.227   4.714   4.174  0.0821 -0.6718  0.1190
  334TIP3    H122417   6.302   4.735   4.118 -0.0033 -0.6531  0.0107
  334TIP3    H222418   6.263   4.711   4.262 -0.1285  1.2653  0.3211
  335TIP3   OH222419   0.507   0.962  16.423 -0.2196  0.0096 -0.4447
  335TIP3    H122420   0.475   1.038  16.374 -0.1007 -0.3081 -1.0378
  335TIP3    H222421   0.600   0.956  16.397  0.9628  2.1160  2.7481
  336TIP3   OH222422   5.902   3.835   0.097 -0.3515 -0.2907 -0.0878
  336TIP3    H122423   5.952   3.779   0.038  1.4053  1.2014 -0.0954
  336TIP3    H222424   5.868   3.775   0.163  1.9117 -1.3618  0.2200
  337TIP3   OH222425   4.683   0.045   2.964 -0.4525 -0.1677  0.6636
  337TIP3    H122426   4.613   0.098   3.001 -1.3997 -2.0054  1.6238
  337TIP3    H222427   4.689  -0.030   3.022  1.5200 -0.6492 -0.0910
  338TIP3   OH222428   5.833   5.293   4.829 -0.0049 -0.5004  0.4105
  338TIP3    H122429   5.897   5.247   4.775  0.4025  0.1112  0.3637
  338TIP3    H222430   5.886   5.347   4.888 -0.4629  1.2824 -0.7370
  339TIP3   OH222431   1.868   1.419   5.849  0.3026  0.8395  0.3050
  339TIP3    H122432   1.935   1.421   5.781  0.7321  1.5090  0.7446
  339TIP3    H222433   1.908   1.369   5.921 -0.2217 -0.0366  0.0052
  340TIP3   OH222434   5.976   1.101  11.949 -0.1362  0.0300 -0.1565
  340TIP3    H122435   6.033   1.065  12.017  1.3014  1.7238 -0.4119
  340TIP3    H222436   5.981   1.037  11.878  1.4892  0.1386 -0.1790
  341TIP3   OH222437   2.994   3.233   6.675  0.3284 -0.0199 -0.2304
  341TIP3    H122438   3.073   3.278   6.707  1.0514 -2.0701  1.0353
  341TIP3    H222439   3.006   3.142   6.702 -1.2272 -0.9424 -2.4047
  342TIP3   OH222440   1.751   6.005  13.209 -0.1566  0.0098  0.0148
  342TIP3    H122441   1.674   6.058  13.230  0.1053 -0.4236  2.4721
  342TIP3    H222442   1.739   5.925  13.260  1.2175 -0.6877 -0.7148
  343TIP3   OH222443   0.411   1.602   4.816 -0.1265  0.2577  0.0710
  343TIP3    H122444   0.361   1.555   4.883 -2.8844  0.8052 -1.4708
  343TIP3    H222445   0.446   1.678   4.863  1.0304 -1.1750  1.6605
  344TIP3   OH222446   0.383   6.093  15.248  0.1888  0.5647  0.4086
  344TIP3    H122447   0.443   6.103  15.174 -0.4385 -3.0824 -0.7936
  344TIP3    H222448   0.413   6.015  15.293 -0.4959  1.7508  3.0927
  345TIP3   OH222449   6.578   2.801  15.113  0.0814 -0.1797 -0.2271
  345TIP3    H122450   6.518   2.867  15.079 -2.0558 -1.9662 -0.1284
  345TIP3    H222451   6.566   2.803  15.208 -1.1599 -1.6994 -0.3195
  346TIP3   OH222452   0.701   3.614  15.617  0.2348  0.0601  0.1010
  346TIP3    H122453   0.684   3.525  15.649  0.4895 -0.5319 -1.3239
  346TIP3    H222454   0.614   3.653  15.607  0.1601  0.5317  2.1320
  347TIP3   OH222455   4.086   4.920   3.595  0.4014 -0.1652  0.4824
  347TIP3    H122456   4.152   4.855   3.572 -0.1588 -0.8638  0.7722
  347TIP3    H222457   4.073   4.908   3.689 -0.6278 -0.5368  0.3090
  348TIP3   OH222458   4.144   4.584   5.742  0.1215 -0.5113 -0.4193
  348TIP3    H122459   4.209   4.594   5.673 -1.3630 -3.1486 -2.3720
  348TIP3    H222460   4.080   4.523   5.706 -0.9697 -1.7198  3.1589
  349TIP3   OH222461   4.477   1.923  14.353 -0.1246  0.3979  0.4499
  349TIP3    H122462   4.469   1.882  14.267  3.5775 -1.6917  0.8916
  349TIP3    H222463   4.456   2.015  14.338 -1.8225 -0.3033 -2.1380
  350TIP3   OH222464   2.133   2.541  15.311 -0.3311  0.2963  0.4130
  350TIP3    H122465   2.061   2.499  15.356  0.6667 -1.2111  0.7007
  350TIP3    H222466   2.201   2.551  15.377  0.1792  0.5093 -0.1262
  351TIP3   OH222467   5.293   1.343   2.292  0.1408  0.0524 -0.1700
  351TIP3    H122468   5.375   1.388   2.273 -0.1690  0.0466 -1.6361
  351TIP3    H222469   5.320   1.264   2.339  0.7406  1.3118  1.7109
  352TIP3   OH222470   2.804   2.019  11.753 -0.1724  0.1182 -0.0598
  352TIP3    H122471   2.744   2.018  11.679 -0.0215 -3.3227 -0.3406
  352TIP3    H222472   2.890   2.036  11.715 -0.2945 -0.2219 -0.4969
  353TIP3   OH222473   5.610   3.719  17.049 -0.2715 -0.0125  0.0594
  353TIP3    H122474   5.635   3.805  17.083 -0.8503  0.0053  0.4755
  353TIP3    H222475   5.514   3.722  17.047 -0.2835  0.4789 -2.9058
  354TIP3   OH222476   2.533   5.305   2.885 -0.2954 -0.1120  0.4658
  354TIP3    H122477   2.446   5.266   2.896 -0.4785 -0.5772 -1.9298
  354TIP3    H222478   2.519   5.399   2.893 -0.7895 -0.2522  1.3000
  355TIP3   OH222479   3.969   0.361   3.875  0.1890  0.4721 -0.0375
  355TIP3    H122480   4.015   0.392   3.954 -1.2866  0.9249  0.6766
  355TIP3    H222481   4.004   0.272   3.862  0.0135  0.1305  1.5205
  356TIP3   OH222482   1.343   4.313   1.810 -0.2410 -0.9722 -0.2292
  356TIP3    H122483   1.417   4.337   1.755  0.7349  0.0025  1.4078
  356TIP3    H222484   1.311   4.231   1.773  0.5250 -0.5022 -2.0416
  357TIP3   OH222485   0.834   4.095   5.366  0.3436  0.3440 -0.7036
  357TIP3    H122486   0.882   4.057   5.440 -1.3593 -0.7025 -0.0794
  357TIP3    H222487   0.863   4.046   5.290  0.0573 -0.4908 -0.2835
  358TIP3   OH222488   4.243   4.847   2.127  0.1405 -0.0150 -0.2780
  358TIP3    H122489   4.258   4.920   2.186  1.2748 -0.4338 -0.0285
  358TIP3    H222490   4.150   4.854   2.102 -0.3396  0.2201  1.4703
  359TIP3   OH222491   5.908   6.145   2.261  0.2055  0.5111 -0.0707
  359TIP3    H122492   5.841   6.190   2.209  0.7097 -1.0573 -2.1985
  359TIP3    H222493   5.862   6.072   2.302  0.2926  0.3001 -0.3422
  360TIP3   OH222494   6.239   4.134  11.073  0.0166  0.2784 -0.5547
  360TIP3    H122495   6.258   4.046  11.041 -1.3447  0.9806 -3.7009
  360TIP3    H222496   6.319   4.184  11.058 -0.0177  0.1469 -1.2000
  361TIP3   OH222497   0.700   5.715  16.991 -0.1006 -0.1247 -0.6526
  361TIP3    H122498   0.722   5.807  17.005  1.9065 -0.3662 -1.7977
  361TIP3    H222499   0.764   5.667  17.044 -2.1369 -0.9002  1.2122
  362TIP3   OH222500   4.476   3.601   0.022  0.3946 -0.0516 -0.0404
  362TIP3    H122501   4.498   3.666   0.088 -0.3694 -0.3722  0.5497
  362TIP3    H222502   4.540   3.614  -0.047  1.7548 -0.2537  1.1266
  363TIP3   OH222503   1.323   4.346   5.224 -0.3570 -0.4050  0.5016
  363TIP3    H122504   1.256   4.278   5.216  0.0183 -0.9584  1.7508
  363TIP3    H222505   1.382   4.313   5.291  2.9429 -1.3566 -2.5582
  364TIP3   OH222506   5.663   0.128   5.310 -0.9993  0.2608 -0.2417
  364TIP3    H122507   5.706   0.046   5.335 -1.0471  0.5357  0.7971
  364TIP3    H222508   5.727   0.172   5.254 -0.2344  0.3176  0.6488
  365TIP3   OH222509   6.248   2.347   2.948  0.8597 -0.1282 -0.0767
  365TIP3    H122510   6.274   2.376   2.861  0.1854 -0.1769 -0.2958
  365TIP3    H222511   6.152   2.352   2.948  0.8100 -0.9197  0.3823
  366TIP3   OH222512   4.059   6.768  14.586  0.5558  0.2717 -0.5328
  366TIP3    H122513   4.128   6.819  14.630 -0.9673  2.2866 -0.3189
  366TIP3    H222514   3.980   6.822  14.596 -1.4783 -2.6811  0.7088
  367TIP3   OH222515   6.401   4.507   4.623  0.1999  0.0819 -0.1277
  367TIP3    H122516   6.389   4.576   4.558  0.5123  0.3113  0.0535
  367TIP3    H222517   6.447   4.437   4.575 -2.1855 -1.0089 -0.9562
  368TIP3   OH222518   3.698   0.323   4.663 -0.6740 -0.1389 -0.5890
  368TIP3    H122519   3.749   0.370   4.597  1.9988 -0.4208  1.1265
  368TIP3    H222520   3.709   0.231   4.640  0.4515 -0.2493  0.3098
  369TIP3   OH222521   6.103   3.508  14.623  0.2597 -0.4236  0.0959
  369TIP3    H122522   6.093   3.451  14.547 -1.5980 -0.4231  0.2946
  369TIP3    H222523   6.161   3.460  14.682 -0.2067 -1.5190 -0.3125
  370TIP3   OH222524   6.433   4.198   0.280 -0.1830 -0.9903 -0.2870
  370TIP3    H122525   6.346   4.236   0.264 -0.7338 -0.9201  2.4104
  370TIP3    H222526   6.486   4.271   0.312  0.1235 -1.5353  0.4696
  371TIP3   OH222527   1.509   5.319  14.757 -0.0936  0.0843 -0.6515
  371TIP3    H122528   1.508   5.315  14.661  0.7486  1.4981 -0.7460
  371TIP3    H222529   1.450   5.249  14.785 -0.8132  0.0377 -2.2127
  372TIP3   OH222530   4.423   0.084   3.073  0.3898 -0.0279 -0.0235
  372TIP3    H122531   4.415   0.095   3.168  0.7617 -0.4317  0.0576
  372TIP3    H222532   4.401  -0.007   3.058  2.8345 -0.6905 -0.0068
  373TIP3   OH222533   3.624   1.857  15.269 -0.2476  0.8548 -0.0972
  373TIP3    H122534   3.560   1.786  15.263  1.1322 -0.5655  1.3519
  373TIP3    H222535   3.612   1.906  15.187 -1.8541 -0.4779 -0.7304
  374TIP3   OH222536   1.610   2.867  14.901 -0.1737 -0.1589  0.8394
  374TIP3    H122537   1.643   2.845  14.814 -3.2790  0.4386 -0.6122
  374TIP3    H222538   1.600   2.782  14.945  0.6237 -0.5323  0.3239
  375TIP3   OH222539   4.982   4.823   2.623  0.1473  0.5672 -0.2047
  375TIP3    H122540   4.975   4.761   2.696  1.1548  0.2742 -0.3394
  375TIP3    H222541   4.955   4.907   2.660  1.0563  0.5086  0.6246
  376TIP3   OH222542   5.237   0.939  15.800  0.2275  0.3342 -0.5817
  376TIP3    H122543   5.306   0.964  15.739  1.5865 -0.8704  0.3853
  376TIP3    H222544   5.165   0.908  15.744  1.6777 -1.3474 -1.6050
  377TIP3   OH222545   5.083   1.393  16.225 -0.6049 -0.0626  0.2370
  377TIP3    H122546   5.089   1.340  16.146 -2.1855 -0.8142  0.5834
  377TIP3    H222547   5.168   1.438  16.231 -0.3128 -0.3211 -1.6233
  378TIP3   OH222548   0.177   6.755   4.758  0.6370 -0.4176 -0.6718
  378TIP3    H122549   0.202   6.831   4.811  0.8046 -0.9771  0.0696
  378TIP3    H222550   0.086   6.738   4.782  1.3177 -1.9677  1.1029
  379TIP3   OH222551   2.557   3.512  12.282  0.2065 -0.4698  0.6913
  379TIP3    H122552   2.624   3.445  12.293 -0.2801 -1.0628  0.1050
  379TIP3    H222553   2.582   3.559  12.203  1.2119  0.8503  1.7535
  380TIP3   OH222554   5.694   0.187   3.542  0.0376 -0.0059 -0.7007
  380TIP3    H122555   5.684   0.165   3.635  1.4344 -1.0352 -0.7547
  380TIP3    H222556   5.789   0.191   3.529 -0.1428  0.6367 -1.9862
  381TIP3   OH222557   4.172   3.008   4.153  0.0265 -0.5132 -0.0357
  381TIP3    H122558   4.078   3.011   4.168  0.3761 -0.5616  2.8091
  381TIP3    H222559   4.201   3.098   4.167  0.4099 -0.4869 -0.9522
  382TIP3   OH222560   6.582   2.842   4.682  0.6784 -0.3244  0.5976
  382TIP3    H122561   6.659   2.790   4.709 -0.0384 -1.7362  0.0300
  382TIP3    H222562   6.508   2.795   4.721 -0.0846 -0.4005 -0.8976
  383TIP3   OH222563   2.441   4.384  16.708 -0.3365 -0.0251 -0.9511
  383TIP3    H122564   2.378   4.454  16.725  0.4860  0.4787  0.1416
  383TIP3    H222565   2.398   4.328  16.644 -2.0660  0.0856  0.0488
  384TIP3   OH222566   1.921   0.837  13.090 -0.0769  0.2126  0.3324
  384TIP3    H122567   1.952   0.924  13.069  0.2326 -0.1215 -0.6467
  384TIP3    H222568   1.832   0.850  13.124 -0.9086  0.7561 -1.8912
  385TIP3   OH222569   6.799   1.726  15.345  0.6699  0.4101  0.0896
  385TIP3    H122570   6.752   1.795  15.393 -0.6000  0.7670 -1.5868
  385TIP3    H222571   6.748   1.647  15.361  0.9225  0.2849  0.2819
  386TIP3   OH222572   4.242   5.161   2.593 -0.1639  0.0629  0.4248
  386TIP3    H122573   4.305   5.178   2.663 -0.1497 -0.0553  0.4404
  386TIP3    H222574   4.242   5.242   2.541  2.0335 -0.8689 -1.1954
  387TIP3   OH222575   0.217   2.206  14.085  0.2834 -0.2782  0.2750
  387TIP3    H122576   0.229   2.292  14.124  1.5683 -0.5141  0.4570
  387TIP3    H222577   0.294   2.156  14.114 -0.0302 -1.2363 -0.4877
  388TIP3   OH222578   0.331   0.532  15.779 -0.2593 -0.0695 -0.7802
  388TIP3    H122579   0.334   0.572  15.866  0.0411 -1.9101  0.0920
  388TIP3    H222580   0.248   0.485  15.776  0.7304 -1.8887 -0.5947
  389TIP3   OH222581   0.521   0.367   0.977 -0.3782  0.4054 -0.1124
  389TIP3    H122582   0.526   0.342   0.885  0.2665 -0.4503  0.1420
  389TIP3    H222583   0.448   0.316   1.011 -0.0056 -0.0108  0.0677
  390TIP3   OH222584   3.262   5.449  15.734 -0.0411  0.7705 -0.0931
  390TIP3    H122585   3.197   5.384  15.710 -0.9475  0.9961  1.5996
  390TIP3    H222586   3.237   5.477  15.822  4.0022 -1.3438  2.0176
  391TIP3   OH222587   4.010   3.218  13.226 -0.5796 -0.0283 -0.2858
  391TIP3    H122588   4.019   3.244  13.318 -2.9148 -0.3224  0.0897
  391TIP3    H222589   3.940   3.273  13.192 -0.4820 -0.6644 -1.5816
  392TIP3   OH222590   4.141   6.533   0.327  0.2343  0.2912  0.2023
  392TIP3    H122591   4.099   6.529   0.414  1.4596  1.2874  0.8740
  392TIP3    H222592   4.205   6.462   0.328 -2.0881 -1.9930 -1.2597
  393TIP3   OH222593   0.870   6.492  15.448  0.3216 -0.4102 -0.1289
  393TIP3    H122594   0.906   6.454  15.368 -0.6702 -1.0057 -0.3074
  393TIP3    H222595   0.876   6.422  15.513 -1.5504 -0.9256 -0.4687
  394TIP3   OH222596   3.040   3.418   2.673  0.4392  0.1106  0.2626
  394TIP3    H122597   2.988   3.338   2.670  1.2641 -0.5373  1.7602
  394TIP3    H222598   3.120   3.397   2.625  1.1461 -0.4020  1.5899
  395TIP3   OH222599   4.860   6.523   1.270 -0.3020 -0.1004  0.1477
  395TIP3    H122600   4.864   6.611   1.232  1.0286  0.7195  2.0560
  395TIP3    H222601   4.874   6.464   1.195  1.4913  1.4076 -0.7657
  396TIP3   OH222602   4.463   4.616  16.579  0.1244 -0.6161 -0.6136
  396TIP3    H122603   4.389   4.676  16.589 -0.1601 -1.1539  0.6409
  396TIP3    H222604   4.443   4.566  16.500  0.0120  0.4272 -1.2652
  397TIP3   OH222605   1.338   5.734  16.091 -0.0499  0.0317  0.2071
  397TIP3    H122606   1.268   5.753  16.153 -0.6798  1.5067 -0.8724
  397TIP3    H222607   1.335   5.640  16.077 -0.0261 -0.3017  2.2118
  398TIP3   OH222608   4.481   2.586  12.691  0.4335  0.4056  0.6069
  398TIP3    H122609   4.515   2.511  12.740 -0.4635 -0.9261 -0.7157
  398TIP3    H222610   4.387   2.568  12.682  0.5677  0.4915 -1.6865
  399TIP3   OH222611   4.742   5.654   3.195 -0.1111 -0.5097  0.6234
  399TIP3    H122612   4.661   5.685   3.236 -1.0466 -1.0769 -0.7423
  399TIP3    H222613   4.808   5.662   3.264 -1.1124  0.8895  1.4693
  400TIP3   OH222614   0.213   2.502   5.670  0.3805  0.3641  0.7038
  400TIP3    H122615   0.134   2.495   5.616  2.0674  1.0557 -2.0277
  400TIP3    H222616   0.249   2.413   5.671  0.5138  0.4132  0.3966
  401TIP3   OH222617   3.490   6.176   3.881  0.0572  0.3235  0.2394
  401TIP3    H122618   3.496   6.102   3.943 -1.1404  0.1180  0.1355
  401TIP3    H222619   3.428   6.236   3.922  1.4642  1.5834  0.6029
  402TIP3   OH222620   0.164   1.370  14.116  0.3602 -0.1400 -0.0156
  402TIP3    H122621   0.162   1.466  14.118  2.4900 -0.0419  1.1650
  402TIP3    H222622   0.180   1.348  14.025  2.3624  0.8179  0.0369
  403TIP3   OH222623   3.535   1.461   3.450  0.5089  0.0870  0.1538
  403TIP3    H122624   3.555   1.468   3.544 -0.1283  2.1780  0.1920
  403TIP3    H222625   3.572   1.377   3.424  3.1622  0.6547  1.6835
  404TIP3   OH222626   4.187   2.543  17.005  0.1565 -0.3619 -0.2679
  404TIP3    H122627   4.234   2.624  17.023 -0.8217  0.2265 -0.2622
  404TIP3    H222628   4.168   2.507  17.092  0.6921 -0.6668 -0.2721
  405TIP3   OH222629   0.063   2.055   2.235 -0.1332 -0.0670 -0.1647
  405TIP3    H122630   0.078   1.962   2.220 -1.1642 -0.0614 -1.4475
  405TIP3    H222631  -0.008   2.078   2.174 -0.9995  1.2038  1.2422
  406TIP3   OH222632   1.169   5.592   2.646 -0.0815 -0.4982  0.4332
  406TIP3    H122633   1.119   5.532   2.702 -2.6421 -0.4519 -1.5838
  406TIP3    H222634   1.210   5.535   2.581  0.6488 -0.3438  0.7558
  407TIP3   OH222635   4.081   6.297   5.009 -0.5835 -0.2035  0.5375
  407TIP3    H122636   3.993   6.277   5.042 -0.0563 -1.8494  1.0485
  407TIP3    H222637   4.140   6.250   5.068  0.5953  0.1879 -0.3027
  408TIP3   OH222638   2.183   4.413   4.913  0.4899  0.3505 -0.3298
  408TIP3    H122639   2.211   4.341   4.969  1.0929 -0.0327 -1.1107
  408TIP3    H222640   2.223   4.395   4.828 -0.8545  0.6257 -1.0471
  409TIP3   OH222641   6.630   6.172   4.770  0.0934  0.6027 -0.2026
  409TIP3    H122642   6.687   6.150   4.844  1.2158  1.7877 -0.6614
  409TIP3    H222643   6.551   6.207   4.811  0.5616  0.9250  0.4651
  410TIP3   OH222644   5.209   3.845   1.209  0.2514 -0.0302 -0.2873
  410TIP3    H122645   5.273   3.783   1.244 -0.9147 -0.5880  0.9514
  410TIP3    H222646   5.260   3.903   1.152  2.2902  0.9626  2.3396
  411TIP3   OH222647   0.928   5.078  12.423  0.2909  0.2245 -0.7589
  411TIP3    H122648   0.936   5.160  12.472 -2.4038 -0.1014  0.4247
  411TIP3    H222649   0.860   5.029  12.469  0.0886 -1.6314 -2.8465
  412TIP3   OH222650   3.469   4.995   4.766 -0.2707  0.2408  0.4164
  412TIP3    H122651   3.425   4.937   4.704 -0.2674  0.0440  0.5980
  412TIP3    H222652   3.398   5.030   4.821 -0.4240  1.3383 -0.4520
  413TIP3   OH222653   3.646   5.588   3.320 -0.0086 -0.1306  0.0364
  413TIP3    H122654   3.641   5.494   3.302  0.2302 -0.0100 -0.6939
  413TIP3    H222655   3.726   5.616   3.277 -0.1213  0.4257  0.1858
  414TIP3   OH222656   6.082   3.302   3.229 -0.2877  0.0805  0.8023
  414TIP3    H122657   6.141   3.232   3.256 -0.0716 -0.0016  0.1464
  414TIP3    H222658   6.016   3.258   3.174  0.1737  0.4650 -0.0820
  415TIP3   OH222659   0.907   6.292   4.511  0.4677  0.2793  0.1800
  415TIP3    H122660   0.813   6.307   4.520  0.0892 -1.9101  0.2214
  415TIP3    H222661   0.947   6.372   4.546 -1.3477  1.2413  0.1848
  416TIP3   OH222662   4.454   0.310   1.995 -0.4565  0.3615  0.5873
  416TIP3    H122663   4.431   0.260   2.074 -1.5147 -0.9723 -0.5196
  416TIP3    H222664   4.382   0.293   1.934  0.6931  0.7545 -0.9304
  417TIP3   OH222665   3.347   6.323   2.016  0.0504  0.1785  0.8157
  417TIP3    H122666   3.296   6.373   1.952  1.3854 -0.7333 -1.0509
  417TIP3    H222667   3.342   6.232   1.985  1.6343 -0.1269  1.3705
  418TIP3   OH222668   4.778   5.026   1.525 -0.0756 -0.0904 -0.5641
  418TIP3    H122669   4.811   4.958   1.467  0.2795  0.1895 -0.6957
  418TIP3    H222670   4.683   5.023   1.515 -0.2846 -2.1439  1.1903
  419TIP3   OH222671   4.936   5.532   2.044 -0.0317 -0.2296  0.8331
  419TIP3    H122672   4.948   5.502   1.954 -1.9567  0.9609  0.1247
  419TIP3    H222673   4.997   5.605   2.053 -1.3327  1.0533 -0.2774
  420TIP3   OH222674   4.097   4.628   3.236  0.5466 -0.4316  0.6947
  420TIP3    H122675   4.035   4.563   3.203  1.4007 -0.8002 -0.2005
  420TIP3    H222676   4.047   4.710   3.236  0.0068 -0.7535  0.1585
  421TIP3   OH222677   1.061   0.155   1.882 -0.1984 -0.3697  0.0803
  421TIP3    H122678   1.148   0.131   1.849 -0.4474 -1.2455  0.0162
  421TIP3    H222679   1.069   0.145   1.977  0.2942  1.3848  0.2492
  422TIP3   OH222680   1.043   3.360   5.480  0.3817 -0.2348  0.2877
  422TIP3    H122681   0.954   3.394   5.490 -0.5340 -2.2567 -0.2486
  422TIP3    H222682   1.056   3.358   5.385  1.3210  0.7674  0.3874
  423TIP3   OH222683   3.155   0.439  16.863  0.1634  0.4381  0.1070
  423TIP3    H122684   3.158   0.467  16.954  2.9208 -0.0973  0.2605
  423TIP3    H222685   3.208   0.504  16.816  0.8196 -0.6262 -0.6778
  424TIP3   OH222686   1.601   2.302   3.117  0.1802  0.1547 -0.0896
  424TIP3    H122687   1.623   2.395   3.106  1.2022 -0.2258 -1.4469
  424TIP3    H222688   1.637   2.279   3.202  2.8835  0.2175 -1.1329
  425TIP3   OH222689   2.610   2.094   3.486  0.0148  0.6641 -0.2143
  425TIP3    H122690   2.639   2.004   3.497  0.5817  0.6089 -1.8831
  425TIP3    H222691   2.534   2.102   3.543  1.4630 -0.0895  1.9506
  426TIP3   OH222692   5.280   6.475  11.889 -0.1375  0.1335 -0.4317
  426TIP3    H122693   5.338   6.402  11.867  0.9679  1.0360 -0.6135
  426TIP3    H222694   5.199   6.457  11.840 -0.2417 -1.4179  0.2403
  427TIP3   OH222695   3.849   3.319   1.777  0.0848  0.6995  0.3775
  427TIP3    H122696   3.914   3.386   1.797 -0.9616  1.7537  0.2835
  427TIP3    H222697   3.790   3.320   1.853  0.6732 -0.9027  0.9050
  428TIP3   OH222698   4.485   4.985   1.494 -0.4261  0.7547 -0.3170
  428TIP3    H122699   4.402   4.998   1.540 -1.4925  1.6093 -2.3455
  428TIP3    H222700   4.460   4.941   1.413  1.0841  1.2888 -1.0932
  429TIP3   OH222701   0.305   1.589  15.465  0.7442 -0.3766 -0.4756
  429TIP3    H122702   0.361   1.589  15.387  1.4015 -1.1456 -0.0156
  429TIP3    H222703   0.361   1.554  15.535  0.6243  1.5821  0.6765
  430TIP3   OH222704   4.659   5.654  14.319  0.3679  0.1190 -0.5143
  430TIP3    H122705   4.592   5.636  14.384  0.4520 -0.9465 -0.6953
  430TIP3    H222706   4.738   5.614  14.355  0.6809  0.5213 -0.7471
  431TIP3   OH222707   2.157   1.613  12.160 -0.0437 -0.2733 -0.5841
  431TIP3    H122708   2.114   1.549  12.103 -1.4078 -1.6945  1.8570
  431TIP3    H222709   2.159   1.570  12.246  3.7270  0.9208  0.0902
  432TIP3   OH222710   4.888   4.840  15.542  0.0622 -0.4250  0.0423
  432TIP3    H122711   4.831   4.890  15.600 -1.0996 -2.4559  0.7361
  432TIP3    H222712   4.853   4.751  15.544  1.5410 -1.1162 -1.7957
  433TIP3   OH222713   4.576   1.378  14.330 -0.0819  0.2467  0.5338
  433TIP3    H122714   4.504   1.355  14.388 -0.3819  0.3466  0.2045
  433TIP3    H222715   4.655   1.353  14.378 -0.3907 -3.1456 -0.4621
  434TIP3   OH222716   3.041   3.833   3.227 -0.7201 -0.7934 -0.1747
  434TIP3    H122717   3.131   3.846   3.198 -0.7711 -0.6542 -0.2668
  434TIP3    H222718   3.041   3.745   3.265 -0.0736 -0.0704  1.5987
  435TIP3   OH222719   1.941   6.546  13.074  0.3728  0.1600 -0.0092
  435TIP3    H122720   1.892   6.590  13.143  0.6356 -0.4175  0.5510
  435TIP3    H222721   1.936   6.454  13.096  1.6284  0.0789  0.0021
  436TIP3   OH222722   6.634   5.598  14.081 -0.1177 -0.2818  0.3072
  436TIP3    H122723   6.653   5.516  14.034 -1.6121 -0.4440 -0.0789
  436TIP3    H222724   6.613   5.570  14.170 -0.4042 -0.3078  0.2341
  437TIP3   OH222725   5.776   3.239  13.253  0.0194 -0.2506 -0.5992
  437TIP3    H122726   5.705   3.292  13.291 -0.6280 -0.7884 -1.0445
  437TIP3    H222727   5.837   3.227  13.326 -1.7488 -2.2400  0.6953
  438TIP3   OH222728   4.143   2.655  12.430 -0.3446  0.0477 -0.2719
  438TIP3    H122729   4.200   2.727  12.457 -0.9733  0.1292  0.9387
  438TIP3    H222730   4.059   2.697  12.412 -0.3012 -0.1986 -1.0866
  439TIP3   OH222731   1.711   0.644  16.192  0.0139  0.7849  0.1738
  439TIP3    H122732   1.636   0.619  16.137 -0.0872  0.4431  0.4660
  439TIP3    H222733   1.718   0.574  16.256  2.2431 -0.6243 -1.4527
  440TIP3   OH222734   6.030   3.424  11.080 -0.3261 -0.2733 -0.3836
  440TIP3    H122735   6.022   3.403  10.987  1.1047  1.5373 -0.9841
  440TIP3    H222736   6.124   3.435  11.094 -0.5896  0.3029  1.0847
  441TIP3   OH222737   6.329   4.934  13.661 -0.3542 -0.3603  0.6823
  441TIP3    H122738   6.245   4.927  13.706 -0.6424 -1.2753  0.0351
  441TIP3    H222739   6.367   4.846  13.667  0.7283  0.1304  1.2826
  442TIP3   OH222740   1.661   3.639   4.549  0.0443  0.2001  0.0664
  442TIP3    H122741   1.721   3.710   4.572  0.5330  0.3139 -1.4393
  442TIP3    H222742   1.714   3.560   4.557  0.3958  0.2921 -1.1697
  443TIP3   OH222743   5.794   1.101   6.436 -0.0143  0.2299  0.1070
  443TIP3    H122744   5.851   1.065   6.367 -0.0616  0.9619 -0.3292
  443TIP3    H222745   5.841   1.180   6.466  0.4309 -0.5489  1.5286
  444TIP3   OH222746   5.165   0.317  15.541 -0.0460  0.1666  0.0717
  444TIP3    H122747   5.258   0.313  15.562  0.0646 -0.4227 -0.5042
  444TIP3    H222748   5.156   0.396  15.487  0.2146 -0.0659 -0.3158
  445TIP3   OH222749   3.367   0.616   5.740 -0.4786  0.0289  0.1666
  445TIP3    H122750   3.301   0.680   5.765 -1.8622 -1.8526  1.5607
  445TIP3    H222751   3.332   0.532   5.770  2.4340 -1.0865  0.7186
  446TIP3   OH222752   2.939   2.941   3.735 -0.1551 -0.0153 -0.8785
  446TIP3    H122753   2.901   3.010   3.681  1.5062  1.6994  0.0103
  446TIP3    H222754   3.032   2.939   3.710 -0.2309 -2.3497 -1.2614
  447TIP3   OH222755   3.553   3.777   1.808 -0.7955 -0.6312  0.2121
  447TIP3    H122756   3.495   3.802   1.736 -1.2523  3.2167  1.6902
  447TIP3    H222757   3.626   3.839   1.803  1.5945 -3.2517  0.3837
  448TIP3   OH222758   0.322   2.262  11.719 -0.1380  0.2714  0.0142
  448TIP3    H122759   0.326   2.200  11.791 -0.6312 -2.5105 -2.1685
  448TIP3    H222760   0.411   2.265  11.684  0.0404  1.3971  0.5041
  449TIP3   OH222761   5.072   4.438  14.904 -0.2780 -0.3756 -0.0081
  449TIP3    H122762   4.987   4.412  14.871 -0.1719  1.6343 -2.1135
  449TIP3    H222763   5.114   4.484  14.831  1.7420  0.6012  1.6380
  450TIP3   OH222764   3.280   1.943  12.668 -0.8321 -0.2348 -0.3137
  450TIP3    H122765   3.343   1.909  12.604  0.4853 -0.6066  1.1293
  450TIP3    H222766   3.319   2.023  12.702 -0.8133 -0.7841  1.0396
  451TIP3   OH222767   5.101   1.232  12.757 -0.2892 -0.3286  0.1388
  451TIP3    H122768   5.140   1.149  12.786  0.9941  0.4788  0.8339
  451TIP3    H222769   5.063   1.269  12.836 -0.5494 -0.0865 -0.1000
  452TIP3   OH222770   5.021   3.622   0.668  0.3418 -0.1069  0.0179
  452TIP3    H122771   5.084   3.685   0.702 -1.5918  1.5044  0.8143
  452TIP3    H222772   4.960   3.675   0.616 -1.6951 -1.1882  1.1920
  453TIP3   OH222773   1.928   5.390   2.677 -0.1684 -0.2623 -0.0680
  453TIP3    H122774   1.915   5.345   2.593 -0.7485  1.6334 -1.0491
  453TIP3    H222775   1.981   5.466   2.656 -0.9498  0.6555  1.1380
  454TIP3   OH222776   4.011   0.356   5.558 -0.2802 -0.1059 -0.4847
  454TIP3    H122777   4.010   0.273   5.510  0.5047 -0.8581  0.7499
  454TIP3    H222778   4.045   0.333   5.645 -1.0941  1.3198  0.2426
  455TIP3   OH222779   4.577   5.261   5.155  0.1257 -0.1534  0.7087
  455TIP3    H122780   4.554   5.333   5.095  1.5928  0.2375  0.5862
  455TIP3    H222781   4.543   5.289   5.240 -1.2479 -0.3391  0.2602
  456TIP3   OH222782   6.763   1.073  11.361  0.2945  0.1806  0.5126
  456TIP3    H122783   6.787   0.982  11.345  0.0476 -0.4353  3.1900
  456TIP3    H222784   6.838   1.123  11.329  1.1546 -1.0880  0.4761
  457TIP3   OH222785   5.345   1.415  10.849 -0.7443  0.0688 -0.2006
  457TIP3    H122786   5.406   1.451  10.784 -1.8468  0.3768 -1.1135
  457TIP3    H222787   5.259   1.421  10.806 -1.3247 -1.0476  0.7425
  458TIP3   OH222788   1.889   6.060   1.746 -0.6218  0.2539  0.1092
  458TIP3    H122789   1.906   6.081   1.654 -0.5840  3.2689  0.7108
  458TIP3    H222790   1.807   6.105   1.766 -0.8819 -0.7506  1.4656
  459TIP3   OH222791   1.040   5.684   3.355 -0.1739 -0.3230  0.2949
  459TIP3    H122792   1.057   5.649   3.268  1.8064  1.5006 -0.1445
  459TIP3    H222793   0.969   5.747   3.343 -0.8518 -1.0935  0.2715
  460TIP3   OH222794   5.643   0.644   2.284 -0.3560  0.5071 -0.6607
  460TIP3    H122795   5.636   0.683   2.371 -1.5821 -0.9920 -0.0243
  460TIP3    H222796   5.568   0.680   2.236 -0.3401  0.4620 -0.7184
  461TIP3   OH222797   4.087   1.802  14.570  1.0934 -0.0427  0.2776
  461TIP3    H122798   4.064   1.784  14.661  2.1426  0.7518  0.7208
  461TIP3    H222799   4.180   1.781  14.564  0.5814 -2.1894 -1.1983
  462TIP3   OH222800   4.395   5.372  15.825 -0.7958  0.9006 -0.8095
  462TIP3    H122801   4.358   5.439  15.881  1.8733  1.5190  0.3434
  462TIP3    H222802   4.449   5.319  15.883 -1.2695 -1.0871 -2.0659
  463TIP3   OH222803   0.108   4.291  13.147 -0.6390  0.0641 -0.4649
  463TIP3    H122804   0.189   4.335  13.121  0.4868 -1.3209  0.5347
  463TIP3    H222805   0.039   4.342  13.104  0.8167  0.3901 -2.6316
  464TIP3   OH222806   3.698   5.981  11.288 -0.4126  0.0813 -0.1794
  464TIP3    H122807   3.780   5.931  11.294 -0.8526 -0.5888  0.5478
  464TIP3    H222808   3.630   5.915  11.275 -0.7975  0.6694 -1.2532
  465TIP3   OH222809   0.517   3.976   1.141  0.6583 -0.5911 -0.2259
  465TIP3    H122810   0.572   3.899   1.125 -0.1536 -0.7838 -2.3492
  465TIP3    H222811   0.561   4.047   1.093  1.2665  0.2770  1.5052
  466TIP3   OH222812   3.168   1.898   6.849  0.3721  0.1967  0.0471
  466TIP3    H122813   3.073   1.904   6.858  0.5574  0.8084  2.4176
  466TIP3    H222814   3.185   1.806   6.833 -0.5633 -0.1796  1.0738
  467TIP3   OH222815   0.608   4.472  11.583  0.5091 -0.1116 -0.3317
  467TIP3    H122816   0.588   4.547  11.527  0.3906 -0.0206 -0.1670
  467TIP3    H222817   0.614   4.398  11.523  1.3036  0.1468 -0.5824
  468TIP3   OH222818   1.593   4.923  15.291  0.3613  0.0238 -0.3659
  468TIP3    H122819   1.640   4.869  15.356  0.7180  1.8108  0.9498
  468TIP3    H222820   1.651   4.998  15.277 -0.5726  0.5790 -1.3769
  469TIP3   OH222821   0.374   0.442  16.910  0.1584 -0.7783 -0.0601
  469TIP3    H122822   0.394   0.529  16.876  1.0251 -1.4246 -1.3285
  469TIP3    H222823   0.446   0.423  16.970 -1.4545  0.4253  2.3769
  470TIP3   OH222824   1.618   2.113   0.799 -0.1959  0.0500  1.0985
  470TIP3    H122825   1.709   2.087   0.814 -0.3119 -0.3958  1.0640
  470TIP3    H222826   1.620   2.208   0.793  0.5786 -0.0727 -1.1143
  471TIP3   OH222827   0.316   0.677  12.354 -0.0252 -0.0523  0.1435
  471TIP3    H122828   0.298   0.720  12.438 -0.7192 -0.3763  0.1680
  471TIP3    H222829   0.230   0.654  12.320  0.3387 -2.1186  0.4997
  472TIP3   OH222830   3.592   0.640  11.066  0.3077  0.2657 -0.2698
  472TIP3    H122831   3.598   0.735  11.064  3.0728  0.1874  0.5417
  472TIP3    H222832   3.589   0.614  10.973  0.4550  1.0812 -0.5094
  473TIP3   OH222833   2.703   1.079  10.982 -0.5879  0.4295 -0.5042
  473TIP3    H122834   2.729   1.164  10.946  0.6840  0.1138 -0.3713
  473TIP3    H222835   2.712   1.018  10.909 -0.3804  0.2075 -0.2933
  474TIP3   OH222836   3.954   3.290   2.256  0.3126 -0.1665 -0.2150
  474TIP3    H122837   4.011   3.213   2.243 -0.7545 -0.9906 -0.1725
  474TIP3    H222838   4.013   3.365   2.247  1.0618 -0.9065 -2.2100
  475TIP3   OH222839   3.456   4.119  16.866  0.6661 -0.0543 -0.4443
  475TIP3    H122840   3.449   4.029  16.834  0.2134  0.0551 -0.6573
  475TIP3    H222841   3.540   4.150  16.834  0.1264  0.1335 -1.7314
  476TIP3   OH222842   5.964   1.835  14.962 -0.2235  0.4879 -0.3526
  476TIP3    H122843   5.989   1.794  15.044 -0.8409 -0.6027 -0.6839
  476TIP3    H222844   5.975   1.929  14.977  0.9344  0.2255  0.5264
  477TIP3   OH222845   5.258   4.181  11.849  0.3118  0.0741  0.6321
  477TIP3    H122846   5.307   4.261  11.868 -0.1382  0.2439  1.0741
  477TIP3    H222847   5.271   4.126  11.926 -1.6570  0.8344  1.5662
  478TIP3   OH222848   1.355   6.231   2.151  0.1680  0.1451 -0.1041
  478TIP3    H122849   1.393   6.311   2.187 -0.6079  0.6302 -0.3492
  478TIP3    H222850   1.261   6.250   2.143 -0.3057 -1.3544  1.3887
  479TIP3   OH222851   1.688   4.145  12.704 -0.1872  0.0954  0.2068
  479TIP3    H122852   1.692   4.226  12.653  0.6359 -0.0869 -0.0286
  479TIP3    H222853   1.595   4.121  12.704 -0.4019  0.8801  0.0390
  480TIP3   OH222854   6.428   5.598   1.582 -0.4559 -0.5540  0.1548
  480TIP3    H122855   6.364   5.539   1.543 -2.1831  0.1716  1.7463
  480TIP3    H222856   6.413   5.683   1.540 -0.2743 -0.4683  0.2563
  481TIP3   OH222857   1.336   0.030  14.156  0.2669  0.0523 -0.7311
  481TIP3    H122858   1.362   0.086  14.082  0.6985 -0.4752 -0.9877
  481TIP3    H222859   1.419  -0.001  14.193  0.1222  1.5575  0.9697
  482TIP3   OH222860   4.314   3.388   6.508  0.0514  0.1367  0.2495
  482TIP3    H122861   4.356   3.469   6.480  1.5815 -0.7001  0.0220
  482TIP3    H222862   4.222   3.399   6.484  0.5222  1.1800 -1.2184
  483TIP3   OH222863   2.267   4.350   2.896  0.0516  0.0192  0.1306
  483TIP3    H122864   2.214   4.363   2.817 -1.8070 -0.0020  1.3098
  483TIP3    H222865   2.219   4.284   2.946  3.0968 -2.8496 -0.3468
  484TIP3   OH222866   1.522   4.142   2.666  0.3236  0.2653 -0.3379
  484TIP3    H122867   1.598   4.105   2.621  1.4224  0.2248  1.4167
  484TIP3    H222868   1.467   4.067   2.688  1.5668 -0.1948  1.4630
  485TIP3   OH222869   5.012   5.643   1.461 -0.0662  0.1384 -0.4342
  485TIP3    H122870   5.058   5.617   1.541 -0.3560 -0.1836 -0.3721
  485TIP3    H222871   4.991   5.561   1.418 -0.8226  0.2715 -0.3256
  486TIP3   OH222872   4.840   5.657  13.191 -0.0208  0.5710  0.4229
  486TIP3    H122873   4.849   5.616  13.276 -1.5989 -2.3845 -0.6705
  486TIP3    H222874   4.747   5.648  13.170  0.7576 -1.8560 -2.8828
  487TIP3   OH222875   2.976   1.227  13.213  0.7461  0.1209 -0.0570
  487TIP3    H122876   2.957   1.321  13.213 -3.4134 -0.4808  1.3343
  487TIP3    H222877   3.033   1.214  13.288 -0.2995  1.3786  1.0127
  488TIP3   OH222878   0.316   2.757   2.967 -0.1598 -0.4895 -0.1532
  488TIP3    H122879   0.240   2.737   2.912 -0.2445 -0.0754 -0.1910
  488TIP3    H222880   0.299   2.711   3.049 -1.1964  0.8168  0.4032
  489TIP3   OH222881   3.540   5.566  12.418  0.6731 -0.0342  0.7056
  489TIP3    H122882   3.453   5.582  12.382 -0.3949  0.9258  3.4385
  489TIP3    H222883   3.585   5.650  12.410  1.1791 -0.3750 -0.1797
  490TIP3   OH222884   0.792   2.690  12.226 -0.6176 -0.6587  0.8158
  490TIP3    H122885   0.795   2.774  12.272 -1.6708  0.6672 -1.3937
  490TIP3    H222886   0.709   2.691  12.178 -0.2083 -2.5471 -0.0581
  491TIP3   OH222887   6.669   6.745  15.194  0.7961  0.3439 -0.4855
  491TIP3    H122888   6.574   6.755  15.188  0.6713 -1.3661 -2.6343
  491TIP3    H222889   6.703   6.791  15.118  1.5993  0.0385 -0.3185
  492TIP3   OH222890   4.608   6.312   0.815  0.0057  0.3558  0.1337
  492TIP3    H122891   4.540   6.245   0.806  0.4050  0.0075 -0.3962
  492TIP3    H222892   4.571   6.390   0.774  0.5441 -0.3040 -1.7091
  493TIP3   OH222893   1.084   1.754   3.581 -0.4311 -0.7189 -0.3419
  493TIP3    H122894   1.148   1.786   3.644 -1.2986 -0.9020  0.6696
  493TIP3    H222895   1.006   1.808   3.596 -1.1143 -1.7001 -0.2622
  494TIP3   OH222896   4.204   2.739  14.556  0.1392  0.1733 -0.7938
  494TIP3    H122897   4.185   2.806  14.621 -0.9880 -0.4045 -0.4987
  494TIP3    H222898   4.134   2.675  14.566  1.3295 -1.2048 -0.8701
  495TIP3   OH222899   6.546   1.452  16.289 -0.2572 -0.3411  0.0864
  495TIP3    H122900   6.463   1.406  16.278  0.9087 -2.1661 -2.1441
  495TIP3    H222901   6.591   1.403  16.358 -0.6937  0.1165  0.6967
  496TIP3   OH222902   3.905   0.006  11.573  0.3534  0.6881  0.0790
  496TIP3    H122903   3.954   0.046  11.501  1.7084  0.7416  0.9870
  496TIP3    H222904   3.964  -0.062  11.607 -0.6214  0.0690  0.5804
  497TIP3   OH222905   4.877   3.987  15.225  0.4907  0.1891 -0.6331
  497TIP3    H122906   4.811   4.039  15.178  2.0283  0.2248 -2.9217
  497TIP3    H222907   4.930   4.051  15.271  0.3832  0.3710 -0.7613
  498TIP3   OH222908   2.209   0.499   5.138  0.2727  0.1801  0.2987
  498TIP3    H122909   2.217   0.440   5.213 -0.3603 -1.5196 -0.9015
  498TIP3    H222910   2.115   0.502   5.120  0.3434  1.2002  0.0513
  499TIP3   OH222911   4.029   0.365  13.600 -0.0866  0.6025 -0.0328
  499TIP3    H122912   4.060   0.293  13.545  0.1339 -1.0807  2.1542
  499TIP3    H222913   4.059   0.444  13.556  0.4694 -0.6723 -2.0539
  500TIP3   OH222914   2.659   3.615   1.527  0.3511  0.0888  0.1161
  500TIP3    H122915   2.669   3.673   1.452  0.4100  1.0028  0.8158
  500TIP3    H222916   2.613   3.667   1.592  0.2623 -0.7065  0.7057
  501TIP3   OH222917   5.925   4.130  16.518 -0.3981 -0.5404 -0.4132
  501TIP3    H122918   5.834   4.157  16.510 -0.2904 -0.4186 -1.3556
  501TIP3    H222919   5.956   4.122  16.427  0.3484 -1.1799 -0.1134
  502TIP3   OH222920   5.673   2.655  10.985 -0.4232 -0.7209 -0.4599
  502TIP3    H122921   5.658   2.694  10.899 -0.1137  1.1247  0.2736
  502TIP3    H222922   5.719   2.723  11.034  1.6699 -2.6102  0.4134
  503TIP3   OH222923   1.254   5.699   0.568  0.1677  0.3792 -0.4372
  503TIP3    H122924   1.168   5.670   0.598  0.7157  0.2109  1.0510
  503TIP3    H222925   1.249   5.795   0.571 -0.0553  0.3739 -0.6130
  504TIP3   OH222926   0.941   5.244   4.319  0.3401  0.0147  0.1558
  504TIP3    H122927   0.938   5.159   4.274 -0.1014 -0.5988  1.2979
  504TIP3    H222928   0.927   5.308   4.250 -1.1898 -0.9419 -0.4731
  505TIP3   OH222929   3.850   3.577  14.373  0.2498  0.1269 -0.6889
  505TIP3    H122930   3.881   3.497  14.416  1.7170 -0.5242 -2.7730
  505TIP3    H222931   3.885   3.571  14.284 -1.9453  1.7560 -1.7720
  506TIP3   OH222932   4.664   2.594  11.325 -0.3240 -0.5753  0.2697
  506TIP3    H122933   4.718   2.616  11.249  0.4491 -0.7578  0.7561
  506TIP3    H222934   4.583   2.560  11.287 -0.4806  0.5776 -0.4745
  507TIP3   OH222935   0.371   5.322   3.009 -0.7897  0.1866 -0.7101
  507TIP3    H122936   0.413   5.382   2.947 -1.3080  0.6870 -0.5800
  507TIP3    H222937   0.334   5.253   2.955  0.9975 -0.7967 -0.7804
  508TIP3   OH222938   4.117   0.914  13.337 -0.3322  0.8574  0.1536
  508TIP3    H122939   4.082   0.957  13.415 -0.4849  0.1322  0.4951
  508TIP3    H222940   4.041   0.874  13.295 -0.1878  0.8839 -0.1365
  509TIP3   OH222941   1.717   0.173   3.095  0.2033 -0.3945  0.2399
  509TIP3    H122942   1.807   0.165   3.125  0.6483  1.4140 -0.4829
  509TIP3    H222943   1.677   0.238   3.154  0.3565  1.2523 -1.3612
  510TIP3   OH222944   2.998   5.571   5.934  0.0259  0.1512  0.5536
  510TIP3    H122945   2.980   5.524   6.015  1.3752  1.1677  1.4810
  510TIP3    H222946   3.078   5.619   5.951 -0.3282  1.3675 -0.9753
  511TIP3   OH222947   5.192   5.567  11.075 -0.1001  0.2004 -0.4703
  511TIP3    H122948   5.258   5.583  11.142 -0.7784 -0.4988  0.4003
  511TIP3    H222949   5.231   5.599  10.994  1.9109 -1.4853 -0.2629
  512TIP3   OH222950   1.626   3.890  12.967  0.7536  0.4370 -0.1111
  512TIP3    H122951   1.684   3.821  12.933  0.3829 -1.1129  2.1494
  512TIP3    H222952   1.648   3.895  13.060 -1.9180  0.6082  0.5951
  513TIP3   OH222953   4.565   6.148   0.232  0.2928 -0.6099 -0.1508
  513TIP3    H122954   4.628   6.139   0.160  1.3636 -0.9381  0.8030
  513TIP3    H222955   4.540   6.240   0.231 -0.8542 -0.8902 -1.8538
  514TIP3   OH222956   5.205   6.692   1.332 -0.4036 -0.3141  0.2718
  514TIP3    H122957   5.218   6.629   1.402  0.5594 -1.3030 -0.7423
  514TIP3    H222958   5.275   6.756   1.345  2.0070 -2.3212 -1.6311
  515TIP3   OH222959   1.756   3.529  11.114  0.0025  0.2202  0.1209
  515TIP3    H122960   1.754   3.494  11.025  0.5722  0.0960  0.1558
  515TIP3    H222961   1.818   3.474  11.161 -0.6527 -0.0234  0.7318
  516TIP3   OH222962   6.130   1.787  12.716 -0.2065  0.1890 -0.2709
  516TIP3    H122963   6.059   1.829  12.668 -1.2201 -2.2527 -1.0398
  516TIP3    H222964   6.192   1.759  12.649  0.8205  1.0186  0.2863
  517TIP3   OH222965   3.078   6.617   4.780 -0.1074  0.1340 -0.1003
  517TIP3    H122966   3.163   6.648   4.748  0.0172 -0.3207 -0.2206
  517TIP3    H222967   3.019   6.691   4.768  0.0685  0.1598 -0.8420
  518TIP3   OH222968   6.146   0.398   4.387 -0.2397  0.0995  0.2849
  518TIP3    H122969   6.176   0.325   4.333  0.7479 -0.7087  1.8631
  518TIP3    H222970   6.050   0.392   4.384 -0.1790 -1.2355  0.3149
  519TIP3   OH222971   4.594   0.093  13.767 -0.4198  0.0368 -0.0125
  519TIP3    H122972   4.547   0.013  13.746  0.5802  0.1614 -3.2245
  519TIP3    H222973   4.684   0.076  13.741  0.3439  1.4433  1.4715
  520TIP3   OH222974   5.175   0.550   4.344  0.4018 -0.2918 -0.2585
  520TIP3    H122975   5.194   0.524   4.434  0.0764 -1.7000 -0.5652
  520TIP3    H222976   5.125   0.476   4.308 -1.2810  1.1260 -0.9763
  521TIP3   OH222977   1.509   4.967   6.031  0.1240  0.1315  0.2385
  521TIP3    H122978   1.440   4.901   6.029  0.3024 -0.0530  0.0113
  521TIP3    H222979   1.465   5.048   6.056 -0.2496  0.0975 -0.2827
  522TIP3   OH222980   4.932   3.212   1.079  0.2218  0.7296 -0.3085
  522TIP3    H122981   5.027   3.221   1.082  0.4046 -0.6360 -1.5363
  522TIP3    H222982   4.910   3.208   0.986 -0.9343 -0.0153 -0.0246
  523TIP3   OH222983   1.233   1.510  16.841 -0.0975  0.0133 -0.8337
  523TIP3    H122984   1.324   1.482  16.829  0.5998  1.8765 -0.2567
  523TIP3    H222985   1.181   1.432  16.823  1.6496 -1.2886 -0.4690
  524TIP3   OH222986   0.422   2.095   1.561  0.8497 -0.4363 -1.1591
  524TIP3    H122987   0.356   2.055   1.505  2.0448  0.5274 -3.3698
  524TIP3    H222988   0.495   2.116   1.502  2.1915  0.6444  0.7581
  525TIP3   OH222989   3.254   2.785  13.358  0.5786 -0.1833 -0.4010
  525TIP3    H122990   3.324   2.792  13.423  1.7873 -1.5417 -1.4958
  525TIP3    H222991   3.292   2.822  13.278  0.0703 -0.9850 -1.0235
  526TIP3   OH222992   1.603   4.288   0.462  0.0491 -0.0054  0.0990
  526TIP3    H122993   1.510   4.308   0.460  0.3973  1.8062 -1.3382
  526TIP3    H222994   1.611   4.204   0.416 -0.8287  0.0659 -0.1956
  527TIP3   OH222995   6.748   6.038  12.029 -0.4699 -0.1248 -0.2880
  527TIP3    H122996   6.688   5.976  12.070 -0.4628 -0.6202 -1.0178
  527TIP3    H222997   6.821   6.045  12.091 -1.3877  0.7176  0.7518
  528TIP3   OH222998   2.539   6.609   4.614  0.2559  0.4677 -0.3286
  528TIP3    H122999   2.536   6.648   4.701  1.1090 -0.1614  0.0088
  528TIP3    H223000   2.473   6.540   4.616  1.0546 -0.3026  0.2284
  529TIP3   OH223001   5.376   5.294  10.862 -0.1515 -0.1305 -0.0317
  529TIP3    H123002   5.433   5.362  10.826  1.5777 -0.5994  1.6438
  529TIP3    H223003   5.303   5.289  10.800  0.8527  1.5611 -1.4652
  530TIP3   OH223004   5.241   2.102   3.881  0.0766  0.0374  0.4119
  530TIP3    H123005   5.318   2.139   3.924  0.9841 -0.5935 -0.6197
  530TIP3    H223006   5.220   2.166   3.813  0.4830 -0.3912 -0.1302
  531TIP3   OH223007   1.259   1.041  16.019  0.1448  0.3912  0.5862
  531TIP3    H123008   1.186   1.049  16.080 -0.9780 -0.1864 -0.6171
  531TIP3    H223009   1.218   1.044  15.932  1.5844  0.3119 -0.1321
  532TIP3   OH223010   3.881   6.431   5.484 -0.0038 -0.3752  0.4893
  532TIP3    H123011   3.856   6.521   5.506 -0.1064 -0.5112  0.9202
  532TIP3    H223012   3.826   6.376   5.538 -2.4884 -0.8191 -2.2322
  533TIP3   OH223013   1.070   4.272   1.735 -0.1386 -0.2817 -0.0683
  533TIP3    H123014   1.120   4.190   1.730 -1.2310 -1.1505  1.9651
  533TIP3    H223015   1.021   4.275   1.653  1.9307 -0.2309 -1.3806
  534TIP3   OH223016   0.673   4.843  11.047 -0.1526 -0.6180  0.1229
  534TIP3    H123017   0.595   4.896  11.028 -0.8833 -2.3069 -2.0243
  534TIP3    H223018   0.701   4.872  11.134 -2.0879  1.3254  0.1976
  535TIP3   OH223019   2.763   5.923   1.293 -0.4651 -0.9471 -0.3736
  535TIP3    H123020   2.702   5.912   1.221 -1.4022  0.2697  0.1992
  535TIP3    H223021   2.756   6.015   1.318  0.6650 -1.0717  0.5448
  536TIP3   OH223022   3.447   2.581  15.274 -0.5207  0.1622  0.5376
  536TIP3    H123023   3.375   2.644  15.266 -0.7061 -0.1394 -0.2424
  536TIP3    H223024   3.408   2.497  15.248  0.5217  0.2669 -1.5650
  537TIP3   OH223025   2.195   3.091  10.999  0.0299  0.2240 -0.6942
  537TIP3    H123026   2.218   3.182  10.980 -2.7023  0.4943 -3.5569
  537TIP3    H223027   2.171   3.091  11.091 -0.5026  2.5486 -0.7751
  538TIP3   OH223028   4.934   0.727   5.185 -0.3400 -0.1252 -0.0946
  538TIP3    H123029   4.885   0.797   5.141 -0.0108 -0.1762 -0.5491
  538TIP3    H223030   4.867   0.674   5.228 -0.6380  0.1385 -0.2319
  539TIP3   OH223031   6.759   3.846   1.023 -0.2262  0.3635 -0.2470
  539TIP3    H123032   6.724   3.785   0.957 -1.8369 -0.0764  0.9379
  539TIP3    H223033   6.688   3.855   1.087  1.2946  0.6875  1.4879
  540TIP3   OH223034   0.772   1.379   2.623 -0.2654  0.1158 -0.3483
  540TIP3    H123035   0.780   1.293   2.582 -0.2353  0.5030 -1.1701
  540TIP3    H223036   0.679   1.400   2.619 -0.1009  0.7368 -1.4684
  541TIP3   OH223037   2.799   1.978  15.518  0.4078 -0.4072 -0.1521
  541TIP3    H123038   2.803   1.895  15.565  0.0702  0.1696  0.9388
  541TIP3    H223039   2.869   2.031  15.558  0.2082  0.0421 -0.3907
  542TIP3   OH223040   1.574   2.427   5.552 -0.3173 -0.1576 -0.0883
  542TIP3    H123041   1.482   2.406   5.561 -0.3975  0.4202  0.5403
  542TIP3    H223042   1.575   2.516   5.516 -0.0359  0.3561  1.1229
  543TIP3   OH223043   6.036   3.582   1.531 -0.0514  0.4144  0.1691
  543TIP3    H123044   6.111   3.631   1.564  0.3824 -0.4380  0.4801
  543TIP3    H223045   5.965   3.603   1.591  0.6448 -0.8639  1.5140
  544TIP3   OH223046   0.349   1.509  16.294 -0.0630  0.4490  0.0028
  544TIP3    H123047   0.357   1.567  16.218  0.9746  1.4029  0.8209
  544TIP3    H223048   0.292   1.438  16.263  2.3280 -0.5449 -2.5038
  545TIP3   OH223049   4.992   1.345  11.064  0.4977 -0.4761 -0.4000
  545TIP3    H123050   5.048   1.267  11.063  0.9652 -0.2064  1.4608
  545TIP3    H223051   5.019   1.394  11.141  0.9677  2.1563 -2.1061
  546TIP3   OH223052   3.648   3.304  14.166 -0.2068  0.4611  0.0486
  546TIP3    H123053   3.583   3.368  14.137  0.3396  1.0744  0.1622
  546TIP3    H223054   3.665   3.325  14.257  1.6275  1.6100 -0.5054
  547TIP3   OH223055   2.624   6.133  14.846 -0.5001  0.1233  0.2113
  547TIP3    H123056   2.614   6.082  14.766 -0.7409 -0.1542  0.4148
  547TIP3    H223057   2.592   6.221  14.823 -2.5056 -0.4522  0.5365
  548TIP3   OH223058   1.224   4.099  16.930  0.2175  0.3411  0.6486
  548TIP3    H123059   1.233   4.159  16.856  1.1279 -0.0512  0.4177
  548TIP3    H223060   1.310   4.057  16.937 -0.7582 -1.9616 -0.0818
  549TIP3   OH223061   5.486   4.033   5.926  0.1333 -0.3591  0.3965
  549TIP3    H123062   5.479   4.072   6.013  0.7546  0.4521  0.0979
  549TIP3    H223063   5.400   3.994   5.910 -0.3460  0.4527  0.9182
  550TIP3   OH223064   1.362   4.411  16.974 -0.2634  0.3099 -0.0735
  550TIP3    H123065   1.279   4.439  17.012 -0.4241 -0.3769  0.0939
  550TIP3    H223066   1.355   4.435  16.881  0.1628  2.0628  0.3174
  551TIP3   OH223067   3.716   4.121  13.423  0.0688 -0.4759  0.1999
  551TIP3    H123068   3.701   4.159  13.509 -1.2681 -1.7140  0.5613
  551TIP3    H223069   3.720   4.196  13.364 -1.4186  0.2963  1.0179
  552TIP3   OH223070   4.151   1.041   3.097  0.1475 -0.3862  0.2902
  552TIP3    H123071   4.131   1.126   3.059  1.5145  0.6602  1.7969
  552TIP3    H223072   4.232   1.055   3.146 -0.0687 -2.3364  1.3003
  553TIP3   OH223073   0.871   4.929  13.456  0.1991  0.1210 -0.1186
  553TIP3    H123074   0.804   4.996  13.442  1.3997  1.2006 -1.0647
  553TIP3    H223075   0.934   4.944  13.385  1.0709 -1.3162  0.3131
  554TIP3   OH223076   5.436   4.020  12.460 -0.0285 -0.1093  0.0838
  554TIP3    H123077   5.471   4.106  12.437 -2.4829  1.4663  1.7551
  554TIP3    H223078   5.414   3.980  12.376 -0.2902  1.5769 -0.6937
  555TIP3   OH223079   1.924   5.987  13.447 -0.2426 -0.1211 -0.7131
  555TIP3    H123080   1.905   5.936  13.527  1.4388 -1.4625 -1.1009
  555TIP3    H223081   1.917   5.923  13.376 -0.0856  0.6694 -1.4514
  556TIP3   OH223082   2.610   1.618   2.486  1.1913 -0.2592  0.1399
  556TIP3    H123083   2.579   1.550   2.426 -0.2941 -0.1801  0.7565
  556TIP3    H223084   2.537   1.630   2.546  1.4125  1.9002  0.0315
  557TIP3   OH223085   3.594   6.773   2.483 -0.2226 -0.0635 -0.6788
  557TIP3    H123086   3.653   6.830   2.533  0.0560 -0.7807 -0.1680
  557TIP3    H223087   3.597   6.689   2.529 -2.1019  0.0299 -0.2782
  558TIP3   OH223088   4.070   4.626   2.686  0.0915  0.3266 -0.5029
  558TIP3    H123089   4.000   4.684   2.717  0.6250 -0.0769  1.6247
  558TIP3    H223090   4.023   4.551   2.649 -0.6646  0.0212  0.9715
  559TIP3   OH223091   3.281   2.664   2.619 -0.5303  0.3466  0.1375
  559TIP3    H123092   3.252   2.716   2.544  1.0316  0.0716 -0.6836
  559TIP3    H223093   3.204   2.661   2.676 -2.0576 -0.1577 -1.8286
  560TIP3   OH223094   1.134   1.987   1.694 -0.7248  0.3339  0.4690
  560TIP3    H123095   1.189   2.045   1.746 -1.1235  1.5184 -0.3788
  560TIP3    H223096   1.195   1.934   1.644 -0.3541  0.5670  0.6752
  561TIP3   OH223097   1.661   0.478   5.548 -0.3269 -0.0806  0.6723
  561TIP3    H123098   1.598   0.462   5.618 -0.8855 -0.3533  0.1157
  561TIP3    H223099   1.608   0.484   5.468  0.2000  1.2019  0.3909
  562TIP3   OH223100   1.757   1.511   4.786  0.4766 -0.6782  0.0777
  562TIP3    H123101   1.830   1.459   4.819  0.1248 -1.7665 -0.7865
  562TIP3    H223102   1.797   1.591   4.753  1.1165 -0.7047  0.7644
  563TIP3   OH223103   3.422   0.533  14.162 -0.7808 -0.3204  0.3408
  563TIP3    H123104   3.346   0.579  14.198 -0.8867 -0.1634 -0.0830
  563TIP3    H223105   3.385   0.473  14.098 -0.3892  1.3230 -1.5226
  564TIP3   OH223106   4.960   6.047  14.006 -0.2759  0.6258  0.1319
  564TIP3    H123107   4.890   6.002  13.958 -0.9065  1.6883  0.0333
  564TIP3    H223108   4.922   6.062  14.093  0.2600  0.1848  0.4486
  565TIP3   OH223109   6.655   2.170  13.082 -0.0305 -0.0165  0.2793
  565TIP3    H123110   6.593   2.156  13.153 -0.6905 -1.2041 -0.4802
  565TIP3    H223111   6.724   2.105  13.098  0.0388  0.0070  0.0763
  566TIP3   OH223112   2.423   1.753  13.751  0.4893  0.1788 -0.5237
  566TIP3    H123113   2.501   1.803  13.774  0.4090  0.3353 -0.5866
  566TIP3    H223114   2.354   1.790  13.806  0.4556  0.0575 -0.4865
  567TIP3   OH223115   6.356   5.644   6.603 -0.3843  0.2541  0.3528
  567TIP3    H123116   6.374   5.551   6.587 -0.1527  0.5523 -1.3717
  567TIP3    H223117   6.265   5.646   6.633  0.0307 -0.6260  1.7493
  568TIP3   OH223118   1.990   6.002  14.440  0.4457 -0.3464 -0.0867
  568TIP3    H123119   2.006   6.094  14.457  0.1760 -0.2331 -0.4182
  568TIP3    H223120   2.056   5.955  14.491  0.1599  0.0023  0.6103
  569TIP3   OH223121   6.731   0.002  16.662 -0.1336 -0.3568  0.2595
  569TIP3    H123122   6.819  -0.037  16.657 -0.5066 -1.2374  0.3652
  569TIP3    H223123   6.747   0.096  16.662  0.7522 -0.4835 -0.8829
  570TIP3   OH223124   1.331   1.847   5.104 -0.5062  0.0156 -0.5001
  570TIP3    H123125   1.357   1.756   5.092 -1.4689  0.0451 -3.8151
  570TIP3    H223126   1.413   1.896   5.093  0.0078 -0.3870  1.2429
  571TIP3   OH223127   4.538   3.381  16.912  0.1547 -0.1870 -0.6801
  571TIP3    H123128   4.456   3.367  16.866  0.0358  0.6408 -0.7316
  571TIP3    H223129   4.550   3.476  16.912  0.1032 -0.1459  1.0651
  572TIP3   OH223130   5.672   3.549  12.998  0.3496 -0.3206  0.6918
  572TIP3    H123131   5.747   3.571  13.054  0.2300  0.2758  0.6286
  572TIP3    H223132   5.623   3.631  12.992 -1.0685 -1.0484  1.8618
  573TIP3   OH223133   0.237   5.477  11.683  0.1526 -0.4524  0.0685
  573TIP3    H123134   0.157   5.530  11.675  0.7733  0.4952 -0.0639
  573TIP3    H223135   0.290   5.504  11.609 -0.1878 -2.5108 -0.9957
  574TIP3   OH223136   3.332   0.550  13.126 -0.3605  0.3665 -0.0807
  574TIP3    H123137   3.351   0.639  13.158 -0.6289  0.2950  0.2819
  574TIP3    H223138   3.398   0.535  13.058  1.5874 -0.2766  1.8304
  575TIP3   OH223139   1.199   2.807  12.245 -0.6735 -0.6307  0.3552
  575TIP3    H123140   1.294   2.798  12.246 -0.4306  1.4954  1.1178
  575TIP3    H223141   1.171   2.772  12.329 -0.3657  0.1711  0.8088
  576TIP3   OH223142   0.539   2.148  12.540  0.1368  0.3369 -0.0157
  576TIP3    H123143   0.519   2.056  12.523  2.2917 -0.5072  1.4945
  576TIP3    H223144   0.458   2.194  12.521 -1.0958 -1.8985 -0.5874
  577TIP3   OH223145   0.509   3.492  15.205 -0.0959  0.3082  1.0290
  577TIP3    H123146   0.597   3.497  15.166 -0.6957  0.6075 -0.3592
  577TIP3    H223147   0.451   3.529  15.138 -1.4104 -0.7694  1.5218
  578TIP3   OH223148   3.439   3.869   4.386  0.6671 -0.2166 -0.7979
  578TIP3    H123149   3.430   3.775   4.404  2.3424 -0.2204  0.2422
  578TIP3    H223150   3.350   3.898   4.366  0.0173 -1.9020 -0.5490
  579TIP3   OH223151   6.086   5.440  13.557 -0.4129  0.3460 -0.0432
  579TIP3    H123152   6.071   5.407  13.646 -1.7158  1.1510  0.0573
  579TIP3    H223153   6.115   5.530  13.569 -1.1980  0.6605 -0.4445
  580TIP3   OH223154   4.282   6.273   4.523  0.4342 -0.6040 -0.3716
  580TIP3    H123155   4.214   6.313   4.469 -1.2281 -1.8006  0.7279
  580TIP3    H223156   4.253   6.182   4.535  1.3083 -0.6895  1.5480
  581TIP3   OH223157   2.995   3.774   0.448  0.0966 -0.0130  0.2292
  581TIP3    H123158   2.988   3.686   0.410  0.9439  1.2983 -3.3581
  581TIP3    H223159   2.910   3.815   0.431  0.0524  0.2022  0.9439
  582TIP3   OH223160   5.296   2.102  10.918  0.1585  0.0373  0.3729
  582TIP3    H123161   5.328   2.132  11.003  1.2974  0.7808 -0.2935
  582TIP3    H223162   5.322   2.010  10.912  1.3882  0.3778  0.2372
  583TIP3   OH223163   3.596   3.935   2.657  0.1087  0.2678 -0.3096
  583TIP3    H123164   3.603   3.858   2.715 -0.2681  0.5195  0.0797
  583TIP3    H223165   3.576   4.007   2.716 -1.8631  0.2574 -0.8938
  584TIP3   OH223166   2.142   4.441  14.175 -0.6575 -0.4151 -0.4463
  584TIP3    H123167   2.183   4.429  14.261  0.3771 -0.2830 -0.9073
  584TIP3    H223168   2.107   4.355  14.153  0.7210 -0.9455 -0.7043
  585TIP3   OH223169   3.169   5.725   5.689  0.4771 -0.1588  0.0345
  585TIP3    H123170   3.235   5.728   5.619  0.5658  3.4538  0.1193
  585TIP3    H223171   3.216   5.755   5.767 -1.0598  1.8403  0.2382
  586TIP3   OH223172   0.864   6.708   4.170  0.0790 -0.2598 -0.4895
  586TIP3    H123173   0.793   6.714   4.233  0.5693 -1.8509  0.2834
  586TIP3    H223174   0.916   6.787   4.184 -0.0688 -0.3681  0.8246
  587TIP3   OH223175   6.701   1.469   4.661  0.3609  0.1011  0.7857
  587TIP3    H123176   6.755   1.433   4.731 -1.3867 -0.4739  1.9075
  587TIP3    H223177   6.671   1.554   4.694  0.4363  0.3394  0.2526
  588TIP3   OH223178   2.754   6.065   0.312  0.1515  0.3017  0.0101
  588TIP3    H123179   2.745   5.975   0.280  0.8786  0.2760 -0.1399
  588TIP3    H223180   2.734   6.120   0.236  1.2077  0.2449 -0.3298
  589TIP3   OH223181   6.163   3.144  11.482 -0.1145  0.0565 -0.1736
  589TIP3    H123182   6.240   3.106  11.524  0.2315  1.0565  0.1321
  589TIP3    H223183   6.089   3.098  11.520  0.2380  0.4146  0.9722
  590TIP3   OH223184   0.819   6.568  12.102  0.0003  0.1630  0.0198
  590TIP3    H123185   0.885   6.594  12.038 -0.7566  2.4404  0.0919
  590TIP3    H223186   0.744   6.626  12.086 -1.1214 -0.7964  1.4272
  591TIP3   OH223187   3.057   4.505  14.705  0.4725  0.3388  0.3032
  591TIP3    H123188   2.973   4.523  14.663  1.6883  0.6772 -2.1609
  591TIP3    H223189   3.090   4.591  14.730  1.2971  0.5170 -1.2972
  592TIP3   OH223190   0.783   1.048   1.426  0.4416  0.4431  0.3592
  592TIP3    H123191   0.818   1.076   1.511  1.3395  0.5209 -0.0296
  592TIP3    H223192   0.815   1.113   1.364 -0.9455  0.8885  0.0773
  593TIP3   OH223193   6.317   5.032  12.587  0.1651 -0.2410  0.0538
  593TIP3    H123194   6.336   5.035  12.680  1.7214 -1.8451 -0.1720
  593TIP3    H223195   6.319   4.939  12.564  1.7276  0.1913 -1.9079
  594TIP3   OH223196   4.823   3.421   3.034 -0.1698 -0.0624  0.2241
  594TIP3    H123197   4.806   3.355   2.967 -2.2573  0.4777  0.1386
  594TIP3    H223198   4.879   3.486   2.991 -0.5596 -0.2878 -0.6565
  595TIP3   OH223199   0.041   2.550  12.204  0.3872 -0.3731  0.3858
  595TIP3    H123200   0.095   2.561  12.125 -0.7231  0.2545 -0.3212
  595TIP3    H223201  -0.037   2.504  12.174 -0.4259  0.6034  0.9310
  596TIP3   OH223202   5.650   1.000   5.231 -0.4911  0.3985 -0.4195
  596TIP3    H123203   5.738   0.996   5.193 -0.7478  0.2449 -1.0092
  596TIP3    H223204   5.592   0.989   5.156 -1.0162  0.7123 -0.0545
  597TIP3   OH223205   6.312   4.944   1.614 -0.0455 -0.0578 -0.1152
  597TIP3    H123206   6.302   4.925   1.707 -3.0365 -0.8872 -0.4984
  597TIP3    H223207   6.315   4.858   1.572  1.3016  0.3062 -0.8161
  598TIP3   OH223208   2.911   4.935  12.083 -0.4607  0.0134  0.1878
  598TIP3    H123209   2.921   4.951  11.989  0.9521  0.8443  0.4497
  598TIP3    H223210   2.914   5.021  12.123 -2.0400 -0.2501  0.9496
  599TIP3   OH223211   6.667   1.944  15.431 -0.1026 -0.0449 -0.7503
  599TIP3    H123212   6.594   2.006  15.431  0.2953  0.4600  0.3769
  599TIP3    H223213   6.719   1.969  15.354 -0.6964  0.1101 -1.1019
  600TIP3   OH223214   4.439   1.316   4.114 -0.0683  0.0494  0.1255
  600TIP3    H123215   4.471   1.291   4.200  0.4131 -0.6962 -0.2630
  600TIP3    H223216   4.350   1.347   4.130  0.0640  0.0501  0.9054
  601TIP3   OH223217   2.133   5.385   3.889  0.5246  0.1239  0.4027
  601TIP3    H123218   2.184   5.383   3.808 -0.5362 -1.2483 -0.2879
  601TIP3    H223219   2.135   5.477   3.917 -1.2738  1.2801 -2.6879
  602TIP3   OH223220   0.003   3.661  13.725  0.2525  0.2541 -0.2176
  602TIP3    H123221  -0.057   3.706  13.666  0.5594  0.4559 -0.3812
  602TIP3    H223222   0.068   3.728  13.748 -1.1066  0.9025  2.1738
  603TIP3   OH223223   3.155   5.563   6.604  0.1461  0.4294 -0.2545
  603TIP3    H123224   3.219   5.517   6.658  1.0422  1.2523 -0.5791
  603TIP3    H223225   3.094   5.601   6.667  0.8416  0.8803  0.1638
  604TIP3   OH223226   0.904   3.322   3.174  0.1469 -0.2316  0.6951
  604TIP3    H123227   0.924   3.243   3.225 -0.2919 -0.6971  0.1643
  604TIP3    H223228   0.947   3.393   3.222  0.1849 -0.7297  1.4180
  605TIP3   OH223229   3.588   6.179   3.141  0.0391  0.1465  0.0172
  605TIP3    H123230   3.584   6.215   3.230 -0.1447  1.2463 -0.4148
  605TIP3    H223231   3.501   6.142   3.127  0.4910 -1.2562  0.7709
  606TIP3   OH223232   1.916   3.425  10.352 -0.5797 -0.0263  0.2448
  606TIP3    H123233   1.956   3.489  10.410 -0.9372  1.5927 -1.1979
  606TIP3    H223234   1.823   3.427  10.374 -0.4602 -0.7747  0.8428
  607TIP3   OH223235   0.535   6.156   0.352  0.2026  0.0932  0.4095
  607TIP3    H123236   0.569   6.239   0.317 -3.8730  0.8927 -2.3815
  607TIP3    H223237   0.568   6.090   0.292 -0.9652  0.5429 -0.7938
  608TIP3   OH223238   2.432   6.731   2.568 -0.5257  0.5764 -0.0308
  608TIP3    H123239   2.425   6.684   2.652  0.0436 -1.4753 -1.0728
  608TIP3    H223240   2.523   6.761   2.565 -0.0058 -0.9916 -0.7054
  609TIP3   OH223241   3.139   0.220   4.515 -0.6713 -0.6358  0.2523
  609TIP3    H123242   3.162   0.132   4.487  1.5359 -0.1559  0.2952
  609TIP3    H223243   3.190   0.233   4.595 -2.3513  0.0704  1.2530
  610TIP3   OH223244   0.764   6.171  10.876 -0.3974  0.2193  0.0134
  610TIP3    H123245   0.797   6.237  10.816  0.4178 -1.3356 -1.3136
  610TIP3    H223246   0.841   6.140  10.923 -0.7460  0.0894  0.5111
  611TIP3   OH223247   0.217   1.704  14.100  0.6975  0.2562 -0.0584
  611TIP3    H123248   0.197   1.794  14.127  0.9230 -0.1646  1.6073
  611TIP3    H223249   0.237   1.711  14.006 -0.7510  1.6977 -0.3033
  612TIP3   OH223250   4.957   3.633   0.140  0.5630  0.1635 -0.1981
  612TIP3    H123251   5.002   3.642   0.225  0.5565 -0.6276 -0.0992
  612TIP3    H223252   4.970   3.541   0.117  0.2685  0.2967 -0.8947
  613TIP3   OH223253   1.521   3.909   1.601  0.1948  0.2445  0.3249
  613TIP3    H123254   1.617   3.915   1.602  0.1497  1.3186  1.6681
  613TIP3    H223255   1.499   3.891   1.509  1.6331  1.1065 -0.2252
  614TIP3   OH223256   0.754   5.519   5.757 -0.1686 -0.0017 -0.2151
  614TIP3    H123257   0.721   5.602   5.723  0.2700 -0.2351 -1.2640
  614TIP3    H223258   0.710   5.452   5.705  0.5315 -0.3699 -0.3568
  615TIP3   OH223259   4.392   5.963   3.769  0.4060  0.2375  0.3656
  615TIP3    H123260   4.465   5.905   3.789 -0.6074 -1.5994 -0.9052
  615TIP3    H223261   4.318   5.927   3.818 -0.4502 -0.1415 -1.1278
  616TIP3   OH223262   4.277   0.204  16.589 -0.0257  0.0948  0.1081
  616TIP3    H123263   4.334   0.206  16.512  1.0156 -0.0760  0.8540
  616TIP3    H223264   4.291   0.289  16.631 -0.7481  0.2698  0.0099
  617TIP3   OH223265   6.339   3.864   2.121 -0.1103  0.0595 -0.8269
  617TIP3    H123266   6.379   3.906   2.198 -0.7317  1.1013 -1.0435
  617TIP3    H223267   6.326   3.773   2.148 -0.0458  0.3337  0.2015
  618TIP3   OH223268   5.418   4.842  14.929  0.0527 -0.1539 -0.4397
  618TIP3    H123269   5.376   4.771  14.977  1.3380 -0.7157 -0.1076
  618TIP3    H223270   5.420   4.915  14.992 -1.6684  0.3545 -0.9292
  619TIP3   OH223271   2.545   6.207  13.119 -0.0690 -0.0457 -0.3446
  619TIP3    H123272   2.617   6.252  13.076  0.8919 -1.4492 -0.2700
  619TIP3    H223273   2.557   6.115  13.097 -2.6077 -0.2020 -1.4057
  620TIP3   OH223274   0.177   0.123  16.459  0.8198  0.9291 -0.4911
  620TIP3    H123275   0.087   0.152  16.473 -0.6528 -1.7655 -3.1735
  620TIP3    H223276   0.182   0.038  16.502  2.2896  1.2539  0.0417
  621TIP3   OH223277   3.479   3.142  15.338  0.4422  0.9396 -0.5160
  621TIP3    H123278   3.428   3.203  15.391  0.5170  0.7331 -0.2047
  621TIP3    H223279   3.564   3.137  15.382  0.0852 -0.2210  0.0784
  622TIP3   OH223280   5.433   1.756  11.160 -0.8493  0.2100  0.9502
  622TIP3    H123281   5.488   1.760  11.081 -1.1825  0.2832  0.7231
  622TIP3    H223282   5.402   1.666  11.164 -0.3933  0.0632  1.3006
  623TIP3   OH223283   6.366   1.803  15.379 -0.5307 -0.0205  0.2671
  623TIP3    H123284   6.340   1.895  15.378 -2.3983 -0.4986  0.0984
  623TIP3    H223285   6.373   1.781  15.472 -1.0171  0.0777  0.3320
  624TIP3   OH223286   2.290   4.354  16.396  0.0390  0.3775  0.0181
  624TIP3    H123287   2.222   4.349  16.464 -0.4865  0.6226 -0.4799
  624TIP3    H223288   2.300   4.263  16.366  0.4258  0.2348  0.5643
  625TIP3   OH223289   3.987   6.205   0.450  0.0274 -0.3960  0.0220
  625TIP3    H123290   4.073   6.192   0.411  0.0813 -1.3085  0.4249
  625TIP3    H223291   3.952   6.282   0.405  1.2024  0.2211  0.1100
  626TIP3   OH223292   4.975   1.281   1.650  0.3864 -0.8287 -0.5506
  626TIP3    H123293   4.996   1.297   1.558  0.3627  1.7605 -0.1783
  626TIP3    H223294   5.060   1.270   1.693  0.8085  2.6436 -0.2034
  627TIP3   OH223295   0.135   4.916   4.683 -0.5572  0.2494  0.0753
  627TIP3    H123296   0.104   4.886   4.598  0.9972 -2.9868  0.4743
  627TIP3    H223297   0.228   4.935   4.670 -0.4482  0.3249  0.8900
  628TIP3   OH223298   2.768   2.574  14.739 -0.0104  0.0317 -0.3286
  628TIP3    H123299   2.808   2.642  14.793  0.6985 -0.9995  0.4736
  628TIP3    H223300   2.674   2.591  14.746  0.1318  0.6076  0.2852
  629TIP3   OH223301   0.767   1.440   1.676  0.7144 -0.0269  0.4469
  629TIP3    H123302   0.839   1.432   1.613  1.3166 -0.5147  1.1899
  629TIP3    H223303   0.689   1.414   1.627  1.3623 -1.7605  0.2622
  630TIP3   OH223304   1.089   5.307   1.917  0.0764 -0.4040  0.6177
  630TIP3    H123305   1.039   5.257   1.853  0.9608 -2.8051  1.6893
  630TIP3    H223306   1.054   5.279   2.002 -0.0691  1.5994  1.2765
  631TIP3   OH223307   3.602   5.988   4.658 -0.2257  0.7499 -0.0165
  631TIP3    H123308   3.677   5.938   4.691 -1.4245 -1.2417 -0.1392
  631TIP3    H223309   3.575   6.042   4.732 -0.8646 -1.2306  1.2881
  632TIP3   OH223310   1.795   5.071   4.187  0.1286  0.5994 -0.2405
  632TIP3    H123311   1.702   5.091   4.202  0.2962  1.2228 -0.0105
  632TIP3    H223312   1.831   5.058   4.274  0.5200  1.5799 -0.2457
  633TIP3   OH223313   4.214   6.695   4.288 -0.1857 -0.1889 -0.6115
  633TIP3    H123314   4.122   6.667   4.290 -0.2907  0.1844 -0.0612
  633TIP3    H223315   4.215   6.772   4.231 -0.1473 -0.4228 -0.9290
  634TIP3   OH223316   2.440   1.031   2.012  0.3339  0.3310  0.3741
  634TIP3    H123317   2.404   0.997   1.930  3.8223 -1.9897 -0.3836
  634TIP3    H223318   2.474   1.117   1.989 -1.7288  1.1942  0.3432
  635TIP3   OH223319   1.001   3.714   6.074  0.2374  0.0184 -0.2954
  635TIP3    H123320   0.929   3.773   6.098 -0.3584 -1.0583  0.6098
  635TIP3    H223321   0.965   3.661   6.002 -0.5111 -1.6828  1.2715
  636TIP3   OH223322   3.523   5.295  13.538  0.4143 -0.6102 -0.4253
  636TIP3    H123323   3.595   5.354  13.560 -0.5439  0.5113 -0.2361
  636TIP3    H223324   3.461   5.349  13.488  0.1602 -1.8127 -1.4682
  637TIP3   OH223325   1.526   1.261   6.133 -0.1862 -0.2824 -0.1094
  637TIP3    H123326   1.596   1.326   6.134 -0.3524 -0.0662  2.2273
  637TIP3    H223327   1.451   1.308   6.097 -0.0226  0.5248  0.5737
  638TIP3   OH223328   6.256   3.378  13.823  0.2518 -0.4898  0.0461
  638TIP3    H123329   6.224   3.325  13.896 -0.3574 -0.3955 -0.1490
  638TIP3    H223330   6.344   3.406  13.851 -0.2951  0.2483  1.1165
  639TIP3   OH223331   1.861   5.219  17.129  0.6575 -0.7086  0.1006
  639TIP3    H123332   1.848   5.221  17.034  0.0383  0.0386  0.1956
  639TIP3    H223333   1.798   5.153  17.160 -0.2169  0.1300  0.1445
  640TIP3   OH223334   5.771   1.745  15.221 -0.1565 -0.0179 -0.6771
  640TIP3    H123335   5.757   1.817  15.282 -0.8041 -0.0976 -0.7219
  640TIP3    H223336   5.861   1.755  15.191  0.4285 -0.3963  0.8527
  641TIP3   OH223337   0.087   0.968  16.488 -0.6501 -0.2523 -0.1495
  641TIP3    H123338   0.150   1.034  16.517 -0.5952 -0.8118  1.0778
  641TIP3    H223339   0.138   0.908  16.434 -0.1552 -0.5885  0.6696
  642TIP3   OH223340   2.842   3.069   2.839 -0.0771 -0.8512 -0.5894
  642TIP3    H123341   2.826   3.122   2.761  0.0354 -0.8521 -0.6141
  642TIP3    H223342   2.865   3.132   2.907  0.1661 -0.8772 -0.6482
  643TIP3   OH223343   0.888   6.326   0.425 -0.0471 -0.5163 -0.2728
  643TIP3    H123344   0.831   6.320   0.501  0.0859  0.8117 -0.0496
  643TIP3    H223345   0.828   6.343   0.352 -0.0982 -0.9940 -0.3471
  644TIP3   OH223346   4.752   6.141   1.822 -0.1769 -0.2989  0.5439
  644TIP3    H123347   4.806   6.062   1.831  1.0412  0.4942  0.3990
  644TIP3    H223348   4.752   6.179   1.909  0.1216  0.0920  0.3750
  645TIP3   OH223349   3.053   2.061  17.068 -0.2405 -0.4914 -0.2912
  645TIP3    H123350   3.085   2.078  16.980  0.9363 -1.4660 -0.0837
  645TIP3    H223351   3.131   2.062  17.123 -0.7152 -1.6292  0.4501
  646TIP3   OH223352   3.759   5.194   3.411  0.4065  0.0091 -0.2767
  646TIP3    H123353   3.852   5.207   3.427  0.3982  0.2350 -0.4192
  646TIP3    H223354   3.731   5.134   3.480  0.6385  0.0109 -0.1818
  647TIP3   OH223355   0.089   0.110  12.829  0.1561 -0.5266  0.4105
  647TIP3    H123356   0.154   0.052  12.868 -0.4300 -0.2597  1.8333
  647TIP3    H223357   0.100   0.193  12.877 -0.2390 -0.0231 -0.3531
  648TIP3   OH223358   2.045   2.259  16.151 -0.0393  0.0242  0.0252
  648TIP3    H123359   2.012   2.342  16.185  1.0275  0.3199  0.3544
  648TIP3    H223360   2.003   2.251  16.065 -1.4179  0.0970  0.6576
  649TIP3   OH223361   0.757   4.959  15.961  0.3227 -0.4901 -0.0669
  649TIP3    H123362   0.697   5.010  16.014  0.3058  0.4699 -0.9815
  649TIP3    H223363   0.777   4.882  16.014  1.6944  1.2441  2.1207
  650TIP3   OH223364   2.362   0.612  11.176 -0.1421  0.5512  0.5898
  650TIP3    H123365   2.438   0.665  11.198  1.5961 -0.9399 -1.4347
  650TIP3    H223366   2.385   0.570  11.093 -3.9038  1.4155 -1.0990
  651TIP3   OH223367   1.841   2.512   3.294  0.1875  0.0181 -0.3532
  651TIP3    H123368   1.769   2.563   3.332 -0.2364 -1.0520  0.3450
  651TIP3    H223369   1.907   2.577   3.272  0.1840  0.7954  1.6500
  652TIP3   OH223370   1.839   6.407  13.597 -0.4707 -0.3368 -0.2220
  652TIP3    H123371   1.754   6.399  13.554 -0.8880  2.7352 -0.2002
  652TIP3    H223372   1.902   6.414  13.525 -1.0329  3.5396 -0.5551
  653TIP3   OH223373   6.544   5.462   3.113 -0.6649  0.1137 -0.0046
  653TIP3    H123374   6.598   5.480   3.037 -1.4249  0.8113 -0.3993
  653TIP3    H223375   6.515   5.371   3.103  1.5990 -0.7890  0.9744
  654TIP3   OH223376   2.220   0.719  14.780 -0.1982  0.1857 -0.3261
  654TIP3    H123377   2.217   0.740  14.873  0.2845 -1.0026 -0.0377
  654TIP3    H223378   2.217   0.624  14.776  0.1049  0.2103 -1.5187
  655TIP3   OH223379   0.356   6.641   6.352  0.0826 -0.0034 -0.2419
  655TIP3    H123380   0.447   6.618   6.333  0.7891  2.3652 -0.1156
  655TIP3    H223381   0.351   6.735   6.334 -2.2743 -0.0057  0.0644
  656TIP3   OH223382   2.564   3.750  10.777  0.3591  0.5377  0.3201
  656TIP3    H123383   2.505   3.749  10.702 -1.4003  1.7446  1.6316
  656TIP3    H223384   2.525   3.689  10.840  1.5477 -0.0731  0.5132
  657TIP3   OH223385   0.544   3.992  15.431 -0.6547 -0.0740 -0.8603
  657TIP3    H123386   0.612   4.042  15.384 -0.0547  2.2923  2.1967
  657TIP3    H223387   0.466   4.048  15.425 -0.9856 -0.4797 -0.3225
  658TIP3   OH223388   4.015   2.261   3.772  0.0989 -0.3793 -0.0544
  658TIP3    H123389   4.071   2.238   3.698  1.1140  2.2831 -0.2471
  658TIP3    H223390   4.070   2.318   3.827 -1.6126  0.2501  1.1036
  659TIP3   OH223391   4.985   0.831   1.067  0.4731 -0.1409  0.1446
  659TIP3    H123392   5.000   0.789   1.152 -2.6818  0.1639  0.9761
  659TIP3    H223393   4.940   0.764   1.015 -1.9780  1.1106  0.4845
  660TIP3   OH223394   0.796   2.420  12.268  0.4114 -0.3700 -0.4046
  660TIP3    H123395   0.784   2.512  12.245  1.2817 -0.0028  0.5618
  660TIP3    H223396   0.886   2.400  12.243  0.1719 -1.0267 -0.7841
  661TIP3   OH223397   6.170   5.709  14.155 -0.2223  0.3908  0.0521
  661TIP3    H123398   6.189   5.790  14.107 -0.6450 -0.0236 -0.8324
  661TIP3    H223399   6.096   5.671  14.109 -1.6254  0.7067  1.9382
  662TIP3   OH223400   3.164   0.387  12.129 -0.1392 -0.1756  0.1545
  662TIP3    H123401   3.181   0.330  12.205 -1.5808 -0.8142  0.0270
  662TIP3    H223402   3.176   0.329  12.053  2.2626  0.6946 -0.2091
  663TIP3   OH223403   3.199   1.165  13.366 -0.4181  0.6768  0.3503
  663TIP3    H123404   3.284   1.149  13.325 -0.7883  3.2430 -1.7456
  663TIP3    H223405   3.221   1.192  13.455  0.8587 -0.0848  0.2995
  664TIP3   OH223406   6.528   0.858  10.503 -0.5979 -0.3253 -0.2703
  664TIP3    H123407   6.481   0.799  10.561 -1.7799  1.3256  0.5248
  664TIP3    H223408   6.471   0.867  10.427  0.5759 -1.8416 -1.3934
  665TIP3   OH223409   1.256   6.330  16.426 -0.2991  0.2157  0.0136
  665TIP3    H123410   1.331   6.380  16.395 -0.4920  0.2754 -0.3625
  665TIP3    H223411   1.182   6.364  16.375 -0.2442 -1.2439 -1.0850
  666TIP3   OH223412   0.411   4.394  14.886  1.0332 -0.2236  0.7313
  666TIP3    H123413   0.329   4.444  14.889  1.9845  1.5531 -1.0754
  666TIP3    H223414   0.398   4.332  14.814  1.3055  0.1534  0.3519
  667TIP3   OH223415   4.836   0.685  13.797  0.2548  0.2573  0.1585
  667TIP3    H123416   4.870   0.686  13.886  1.4469 -1.1384 -0.2428
  667TIP3    H223417   4.753   0.638  13.804  0.5366 -0.2006  0.4750
  668TIP3   OH223418   1.771   3.473  16.253  0.6280  0.3232  0.4361
  668TIP3    H123419   1.761   3.425  16.335  0.9442  1.2898  1.0579
  668TIP3    H223420   1.783   3.564  16.280  2.8220  0.4051 -0.5683
  669TIP3   OH223421   4.400   6.762   4.022  0.5172 -0.0510  0.8115
  669TIP3    H123422   4.400   6.853   3.995 -0.1481 -0.6819 -1.6161
  669TIP3    H223423   4.310   6.732   4.006  0.1757 -0.6994  3.3941
  670TIP3   OH223424   5.900   5.786   0.411  0.3398  0.2302  0.0061
  670TIP3    H123425   5.834   5.853   0.427 -2.3302 -2.5047  1.4962
  670TIP3    H223426   5.922   5.795   0.318  1.3710  4.0648  0.4661
  671TIP3   OH223427   0.423   2.004   2.817  0.0571  0.2553  0.2392
  671TIP3    H123428   0.421   1.928   2.876 -0.4392 -0.9598 -1.2730
  671TIP3    H223429   0.388   2.076   2.870  0.5849 -0.5279  1.7315
  672TIP3   OH223430   2.869   1.665  16.800 -0.4690 -0.0066 -0.5455
  672TIP3    H123431   2.845   1.625  16.883  1.3850 -2.2546 -1.0151
  672TIP3    H223432   2.964   1.677  16.804 -0.3512 -0.0394 -2.2839
  673TIP3   OH223433   1.580   4.478  16.670  0.2273  0.5233 -0.0038
  673TIP3    H123434   1.541   4.507  16.587  1.2547  0.2147 -0.6224
  673TIP3    H223435   1.573   4.383  16.667 -1.8831  0.5765  1.3841
  674TIP3   OH223436   4.964   5.921   1.751  0.1286  0.1563  0.1429
  674TIP3    H123437   5.022   5.853   1.786  1.5033  0.8630 -0.6677
  674TIP3    H223438   5.002   6.003   1.782 -1.4858  0.5944  1.0775
  675TIP3   OH223439   0.597   2.605  11.679  0.3213 -0.1536 -0.0062
  675TIP3    H123440   0.674   2.626  11.626 -0.4928  0.3469 -1.0313
  675TIP3    H223441   0.577   2.514  11.657  1.8732 -1.0317  1.9166
  676TIP3   OH223442   6.176   5.844   5.961 -0.4212 -0.2164 -0.2709
  676TIP3    H123443   6.091   5.870   5.998 -0.0160 -1.5441  1.7285
  676TIP3    H223444   6.239   5.861   6.032  0.3801 -3.0098 -0.1933
  677TIP3   OH223445   6.078   5.133  14.475  0.2224 -0.5101  0.3586
  677TIP3    H123446   5.986   5.120  14.499  0.3041 -2.1127 -0.1068
  677TIP3    H223447   6.101   5.055  14.425  2.2076 -0.7701  1.5628
  678TIP3   OH223448   5.887   6.653   0.405  0.1113 -0.5592  0.0821
  678TIP3    H123449   5.836   6.731   0.426  0.2926 -1.0521  2.7128
  678TIP3    H223450   5.970   6.688   0.370 -0.3018  0.3726  0.0028
  679TIP3   OH223451   5.761   3.021   2.948  0.3502 -0.5449  0.1607
  679TIP3    H123452   5.695   3.041   2.882  1.2085 -0.5514 -0.7301
  679TIP3    H223453   5.725   2.948   2.998 -0.7182  0.0708  0.3174
  680TIP3   OH223454   2.237   4.173   5.039  0.5527  0.1848 -0.1608
  680TIP3    H123455   2.319   4.128   5.062  0.2301  0.4074  1.5790
  680TIP3    H223456   2.193   4.114   4.978 -0.2036 -2.2889  2.5684
  681TIP3   OH223457   5.755   0.130  15.719  0.4363  0.6848  0.0212
  681TIP3    H123458   5.815   0.095  15.653 -0.3607 -0.2341 -0.2453
  681TIP3    H223459   5.683   0.168  15.668  0.0790  0.4576  0.3578
  682TIP3   OH223460   6.537   4.353   6.053 -0.4320  0.2506  0.2228
  682TIP3    H123461   6.544   4.365   6.148  1.7522 -0.5203  0.2282
  682TIP3    H223462   6.456   4.398   6.029 -0.5151  1.3576  2.3003
  683TIP3   OH223463   2.214   3.284   2.842  0.5796 -0.1399 -0.2628
  683TIP3    H123464   2.245   3.292   2.752 -2.1418  3.0231 -1.1363
  683TIP3    H223465   2.121   3.305   2.837  0.3388  0.2840  3.2931
  684TIP3   OH223466   4.921   5.299   3.126  0.2872 -0.1875 -0.3718
  684TIP3    H123467   4.844   5.354   3.112  0.7487  0.9289  1.0844
  684TIP3    H223468   4.911   5.266   3.216  0.8405 -1.1550 -0.6470
  685TIP3   OH223469   3.059   4.040  12.738  0.1161 -0.4777  0.3680
  685TIP3    H123470   3.074   4.045  12.833  1.6663  0.4424  0.1099
  685TIP3    H223471   2.972   4.000  12.730  0.1786 -1.0742  2.1564
  686TIP3   OH223472   0.532   4.480   4.006  0.5161 -0.1330 -0.2609
  686TIP3    H123473   0.468   4.551   3.998  1.8397  1.0747 -0.5826
  686TIP3    H223474   0.500   4.427   4.079 -0.6386  0.6634 -0.1644
  687TIP3   OH223475   2.996   4.873  16.709 -0.2899 -0.3484 -0.1937
  687TIP3    H123476   3.040   4.912  16.785  0.3346  1.9853 -1.6811
  687TIP3    H223477   2.942   4.943  16.674 -2.0429 -1.9519 -0.8631
  688TIP3   OH223478   4.419   6.195  12.382  0.0220 -0.1863  0.0024
  688TIP3    H123479   4.468   6.138  12.441  0.0928 -1.2809 -1.0868
  688TIP3    H223480   4.368   6.251  12.441  0.4526 -0.9131  1.1057
  689TIP3   OH223481   5.984   1.742  14.702 -0.3195  0.1204 -0.1579
  689TIP3    H123482   5.963   1.761  14.793 -0.4424  1.2039 -0.3910
  689TIP3    H223483   6.027   1.822  14.671  0.3399 -0.4978 -0.8558
  690TIP3   OH223484   1.037   3.350  11.153 -0.2080  0.0281  0.5183
  690TIP3    H123485   1.036   3.366  11.247 -1.2418 -2.4920  1.0358
  690TIP3    H223486   1.128   3.363  11.127 -0.3831  3.6011  1.2036
  691TIP3   OH223487   3.166   1.823   1.721  0.1396  0.1431 -0.2142
  691TIP3    H123488   3.129   1.911   1.714 -0.2894  0.0881  1.1406
  691TIP3    H223489   3.260   1.835   1.706  0.5252  1.2842  2.5294
  692TIP3   OH223490   5.266   0.519   2.352 -0.1167  0.5324  0.5644
  692TIP3    H123491   5.298   0.542   2.439 -0.5414 -0.9323  1.1504
  692TIP3    H223492   5.269   0.423   2.350 -1.2500  0.4874 -0.5925
  693TIP3   OH223493   6.041   3.844   2.969  0.1221 -0.2300  0.4981
  693TIP3    H123494   6.129   3.806   2.960 -0.1303 -0.4458 -1.8017
  693TIP3    H223495   6.055   3.939   2.965  0.2376 -0.2752 -0.5201
  694TIP3   OH223496   3.308   4.295  11.586  0.0383  0.4436 -1.0267
  694TIP3    H123497   3.250   4.263  11.655  0.8944  0.9863 -0.0311
  694TIP3    H223498   3.255   4.291  11.506 -0.3681 -2.0008 -0.7074
  695TIP3   OH223499   0.558   5.429  13.914  0.0417 -0.1760  0.2106
  695TIP3    H123500   0.516   5.514  13.902 -1.9702 -0.7828  2.3195
  695TIP3    H223501   0.530   5.378  13.838 -0.4340  0.4068 -0.0074
  696TIP3   OH223502   3.360   4.637  16.254 -0.1984 -0.0393  0.0968
  696TIP3    H123503   3.323   4.591  16.179 -0.3372  0.5461 -0.1983
  696TIP3    H223504   3.339   4.582  16.329 -1.5983  0.2349 -0.0771
  697TIP3   OH223505   0.764   6.192   2.977 -0.2606 -0.0866  0.2524
  697TIP3    H123506   0.750   6.100   2.954  0.0930 -0.1597  0.3296
  697TIP3    H223507   0.734   6.240   2.900 -0.2151 -0.2778  0.1143
  698TIP3   OH223508   1.855   2.366   5.614 -1.0916 -0.2231  0.2466
  698TIP3    H123509   1.777   2.326   5.574 -1.7265  0.6857  0.5499
  698TIP3    H223510   1.834   2.459   5.621  0.3067  0.1585 -0.2892
  699TIP3   OH223511   6.187   4.185  15.592 -0.6446  0.2803  0.6308
  699TIP3    H123512   6.147   4.266  15.623 -1.7553  0.0226 -0.0460
  699TIP3    H223513   6.125   4.151  15.527 -0.0960 -0.9992  0.7383
  700TIP3   OH223514   0.073   2.628  16.242  0.2793  0.0515  0.1255
  700TIP3    H123515   0.073   2.679  16.323  2.5678  0.1678  0.1242
  700TIP3    H223516   0.099   2.540  16.268 -1.1216 -0.4864 -0.2169
  701TIP3   OH223517   6.081   2.509   1.857 -0.0215  0.2997  0.2488
  701TIP3    H123518   6.044   2.449   1.921 -1.8999  2.3337  1.1965
  701TIP3    H223519   6.068   2.596   1.895  0.9957  1.4480 -1.8252
  702TIP3   OH223520   0.367   2.061   3.536  0.1316  0.3804 -0.1951
  702TIP3    H123521   0.453   2.039   3.499 -0.0103  0.6575 -0.7056
  702TIP3    H223522   0.361   2.156   3.526  0.3594  0.5543  1.1472
  703TIP3   OH223523   5.106   4.554  13.607  0.4218  0.3542  0.1596
  703TIP3    H123524   5.019   4.517  13.622 -0.4827  1.0032 -2.8730
  703TIP3    H223525   5.091   4.647  13.592  2.0006  0.9839  2.0634
  704TIP3   OH223526   5.625   3.681   0.133 -0.3541 -0.1775 -0.0306
  704TIP3    H123527   5.647   3.617   0.200  2.0195  0.1122 -0.4488
  704TIP3    H223528   5.665   3.647   0.053 -2.2211  0.0139 -1.1009
  705TIP3   OH223529   2.500   3.825   6.682  0.1022  0.2144 -0.0522
  705TIP3    H123530   2.556   3.748   6.671 -1.6823 -1.1271 -0.1559
  705TIP3    H223531   2.550   3.883   6.741  1.1233 -1.3866  0.7172
  706TIP3   OH223532   5.597   5.661   2.804  0.6803  0.1880  0.2930
  706TIP3    H123533   5.515   5.613   2.819 -0.0804  1.5778  0.8290
  706TIP3    H223534   5.614   5.705   2.887  1.2206  1.0036 -0.2367
  707TIP3   OH223535   2.466   5.662   4.247 -0.1345 -0.1105 -0.7997
  707TIP3    H123536   2.383   5.710   4.249 -1.7682 -2.6298 -2.4142
  707TIP3    H223537   2.510   5.688   4.327 -1.9293  2.2287 -0.4497
  708TIP3   OH223538   6.492   5.415  14.588 -0.2002 -0.0713 -0.2648
  708TIP3    H123539   6.546   5.450  14.659 -0.4170 -2.7845  1.4009
  708TIP3    H223540   6.403   5.441  14.610 -0.0878  0.5755 -0.5427
  709TIP3   OH223541   4.180   5.642   0.420 -0.4023 -0.0928  0.6083
  709TIP3    H123542   4.134   5.698   0.483 -2.3135 -0.5858 -0.2829
  709TIP3    H223543   4.168   5.686   0.335  1.4646  0.1530  0.4184
  710TIP3   OH223544   6.794   1.236  14.329 -0.4776  0.7803 -0.1865
  710TIP3    H123545   6.830   1.297  14.264 -1.1817 -0.1819 -1.5392
  710TIP3    H223546   6.869   1.191  14.365  0.0293  2.1722  0.5826
  711TIP3   OH223547   4.909   4.412   2.982  0.1641 -0.2106 -0.2420
  711TIP3    H123548   4.867   4.327   2.969  0.2179 -0.2361 -0.2485
  711TIP3    H223549   4.846   4.463   3.033  0.9752 -0.9247  1.5233
  712TIP3   OH223550   1.051   6.281  10.880  0.4874  0.4310 -0.2539
  712TIP3    H123551   1.108   6.337  10.827  1.3999  0.0818  0.3365
  712TIP3    H223552   1.087   6.193  10.869  0.7735  0.3661  1.0237
  713TIP3   OH223553   2.703   2.377  13.302 -0.1751  0.4398  0.3199
  713TIP3    H123554   2.761   2.310  13.263  0.6896  1.1985  0.2643
  713TIP3    H223555   2.750   2.407  13.379 -1.1439  0.1097  1.0571
  714TIP3   OH223556   0.976   6.136  15.057  0.4200  0.8258 -0.2172
  714TIP3    H123557   1.064   6.156  15.026  0.8108 -2.1434 -1.3448
  714TIP3    H223558   0.918   6.172  14.990  1.0208 -0.6258 -1.5889
  715TIP3   OH223559   0.673   6.354   5.495  0.4308  0.1729 -0.3394
  715TIP3    H123560   0.629   6.418   5.439  0.1468  1.3051  1.0955
  715TIP3    H223561   0.762   6.350   5.461 -0.0663 -0.1620 -1.6609
  716TIP3   OH223562   1.590   2.399  14.793  0.4028 -0.0413  0.1322
  716TIP3    H123563   1.626   2.477  14.837 -0.7443  1.1732 -0.9928
  716TIP3    H223564   1.525   2.365  14.854 -0.7894  1.3093 -0.3392
  717TIP3   OH223565   3.848   6.295  16.639  0.6823  1.0793  0.1037
  717TIP3    H123566   3.903   6.366  16.605  0.5842  0.5075 -1.3246
  717TIP3    H223567   3.873   6.218  16.586  0.7367  0.0501  1.5521
  718TIP3   OH223568   1.211   3.688  11.046  0.3263  0.2022  0.8084
  718TIP3    H123569   1.226   3.726  10.960 -1.8907  0.2822  0.3911
  718TIP3    H223570   1.292   3.643  11.068  2.1967  3.1025  0.2504
  719TIP3   OH223571   2.974   0.341  15.422 -0.2107 -0.8593  0.6612
  719TIP3    H123572   3.002   0.250  15.420 -2.3156 -1.5764 -1.2842
  719TIP3    H223573   2.897   0.341  15.480 -1.9725 -0.9931 -1.5585
  720TIP3   OH223574   4.375   4.898  12.194  0.0886  0.5583  0.4731
  720TIP3    H123575   4.425   4.978  12.205  0.4577  0.4680 -0.4295
  720TIP3    H223576   4.284   4.928  12.185  0.1479  0.8281  0.7670
  721TIP3   OH223577   2.833   3.177   0.469  0.1370 -0.5604 -0.0319
  721TIP3    H123578   2.858   3.167   0.561 -0.2191  1.4490  0.3226
  721TIP3    H223579   2.741   3.151   0.466 -0.1867  0.4980  0.4321
  722TIP3   OH223580   1.025   4.034   3.487 -0.0961 -0.3146 -0.3011
  722TIP3    H123581   1.117   4.048   3.464 -0.1578  0.0766 -0.3113
  722TIP3    H223582   1.025   4.020   3.581 -0.1280  0.6239 -0.1537
  723TIP3   OH223583   4.786   4.948  10.457 -0.2653  1.0346  0.1611
  723TIP3    H123584   4.706   4.895  10.451  0.0705  0.6849 -2.7350
  723TIP3    H223585   4.854   4.886  10.483 -0.4867  0.7804  0.1394
  724TIP3   OH223586   1.643   1.000   2.227  0.3066 -0.4407 -0.4826
  724TIP3    H123587   1.572   1.036   2.174  0.5395 -0.8063 -1.0494
  724TIP3    H223588   1.629   0.905   2.224  0.2483 -0.4640  0.2177
  725TIP3   OH223589   0.886   6.385  16.563  0.8987 -0.0782  0.0095
  725TIP3    H123590   0.898   6.355  16.653  1.2124  1.1611  0.4058
  725TIP3    H223591   0.906   6.309  16.509 -0.4600 -1.1882  1.0038
  726TIP3   OH223592   0.393   1.463   0.021  1.0193 -0.1805 -0.0843
  726TIP3    H123593   0.379   1.527   0.091 -0.1512  0.4216 -0.8303
  726TIP3    H223594   0.363   1.380   0.058 -0.7082  0.3471 -0.2239
  727TIP3   OH223595   6.103   5.983  11.601  0.3825 -0.1440 -0.1463
  727TIP3    H123596   6.017   5.941  11.608 -0.0612  0.8243  0.3618
  727TIP3    H223597   6.165   5.913  11.624 -0.3497 -0.4983  0.8541
  728TIP3   OH223598   2.369   4.082  14.568  0.1578  0.1117  0.0417
  728TIP3    H123599   2.279   4.082  14.533  0.8277 -0.4367 -1.8387
  728TIP3    H223600   2.416   4.142  14.510  0.9918  0.4634  1.0728
  729TIP3   OH223601   5.361   6.163  16.149 -0.0921  0.4006 -0.1795
  729TIP3    H123602   5.426   6.093  16.142 -0.9899 -0.5678  0.8143
  729TIP3    H223603   5.399   6.225  16.211 -0.6785 -0.8660  1.5121
  730TIP3   OH223604   0.533   4.890  10.327  0.5881  0.2053  0.4115
  730TIP3    H123605   0.438   4.890  10.320  0.6040  1.1503  0.0613
  730TIP3    H223606   0.552   4.830  10.399 -0.3320  0.8055  1.1768
  731TIP3   OH223607   3.036   0.045  12.654 -0.1065 -0.7860  0.0486
  731TIP3    H123608   3.097   0.049  12.580 -0.5390 -1.6634 -0.3664
  731TIP3    H223609   2.949   0.054  12.615 -0.2874 -0.2942  0.5569
  732TIP3   OH223610   1.477   6.731   5.572 -0.3231  0.5114 -0.1840
  732TIP3    H123611   1.525   6.711   5.492 -3.2639 -2.4662 -1.4585
  732TIP3    H223612   1.428   6.810   5.551 -1.3108 -0.4137 -1.5698
  733TIP3   OH223613   0.096   6.267  13.656  0.7361 -0.7210 -0.3869
  733TIP3    H123614   0.052   6.223  13.583 -0.3647 -1.0237  0.4237
  733TIP3    H223615   0.026   6.285  13.718  1.3229  1.3267 -0.2639
  734TIP3   OH223616   3.088   1.112   0.887 -0.2092 -0.5444  0.0429
  734TIP3    H123617   3.044   1.081   0.966 -0.0925 -2.3336 -0.5486
  734TIP3    H223618   3.174   1.142   0.918 -1.0076  1.0528  0.8953
  735TIP3   OH223619   4.334   0.728   5.141  0.6626  0.1540  0.3361
  735TIP3    H123620   4.401   0.789   5.172 -1.8361  3.7968 -0.8039
  735TIP3    H223621   4.346   0.725   5.046 -0.4482  0.4416  0.1780
  736TIP3   OH223622   2.588   6.136  16.054 -0.1456  0.5193  0.2641
  736TIP3    H123623   2.524   6.074  16.017 -0.7435  0.2950  1.6355
  736TIP3    H223624   2.655   6.080  16.093 -0.7925  0.6884  1.6921
  737TIP3   OH223625   4.866   1.937   5.834 -0.0253 -0.0708  0.1153
  737TIP3    H123626   4.815   1.938   5.915 -1.8172  0.2498 -0.9523
  737TIP3    H223627   4.815   1.883   5.774  0.9888  0.1227 -0.9772
  738TIP3   OH223628   3.681   6.234  15.733  0.0878 -0.4771 -0.5370
  738TIP3    H123629   3.629   6.216  15.655  0.2285  1.2726 -1.0816
  738TIP3    H223630   3.739   6.306  15.707  1.3465 -1.0090  0.6768
  739TIP3   OH223631   4.379   2.936   2.864  0.2378 -0.1902  0.3855
  739TIP3    H123632   4.372   2.846   2.834 -3.6556 -0.2601  0.9808
  739TIP3    H223633   4.357   2.933   2.957  0.1882  1.3556  0.4639
  740TIP3   OH223634   4.193   6.155   2.475  0.2728 -0.3389  0.5153
  740TIP3    H123635   4.199   6.080   2.415  1.1960  0.9603 -1.0794
  740TIP3    H223636   4.100   6.180   2.472  0.4428  0.2146 -1.0617
  741TIP3   OH223637   5.810   2.199  11.059 -0.3597  0.5756  0.5305
  741TIP3    H123638   5.885   2.180  11.115  0.4653  1.8427 -0.0858
  741TIP3    H223639   5.760   2.117  11.056  1.1957 -0.4182  0.6706
  742TIP3   OH223640   1.093   5.646  16.210 -1.1061  0.3780  0.4552
  742TIP3    H123641   1.044   5.689  16.280 -0.2603 -0.7084  1.7655
  742TIP3    H223642   1.139   5.574  16.253 -1.9122 -1.4334 -1.5248
  743TIP3   OH223643   6.346   5.386   4.211  0.2683 -0.3735  0.2247
  743TIP3    H123644   6.319   5.450   4.276  1.1449  1.0334 -0.7404
  743TIP3    H223645   6.273   5.381   4.150 -0.9527 -2.3829  1.7115
  744TIP3   OH223646   3.764   3.504  12.946  0.3213  0.1173 -0.1949
  744TIP3    H123647   3.680   3.547  12.962 -1.2440 -2.6078 -0.4158
  744TIP3    H223648   3.781   3.456  13.027  0.6184 -0.9356 -0.8662
  745TIP3   OH223649   5.117   0.311   5.690 -0.1361  0.8808 -0.0433
  745TIP3    H123650   5.045   0.268   5.736  0.0620  0.0578 -0.4831
  745TIP3    H223651   5.082   0.396   5.664 -0.1741  1.4975  1.8367
  746TIP3   OH223652   1.673   3.096   2.722 -0.7376 -0.8041  0.2088
  746TIP3    H123653   1.714   3.044   2.791 -0.4249  0.0667  0.7099
  746TIP3    H223654   1.620   3.160   2.770 -0.7682 -0.3882 -0.3657
  747TIP3   OH223655   2.081   4.413   3.202 -0.3223 -0.1723  0.4774
  747TIP3    H123656   2.132   4.417   3.284  1.9870 -1.5118 -0.7654
  747TIP3    H223657   2.094   4.498   3.162 -3.1911  1.2841  2.3355
  748TIP3   OH223658   3.653   0.212   5.972 -0.8728  0.0803 -0.1258
  748TIP3    H123659   3.630   0.214   6.065 -1.7646  0.1444 -0.3424
  748TIP3    H223660   3.716   0.283   5.962 -2.7180  1.8172 -0.0645
  749TIP3   OH223661   2.146   3.305   0.888 -0.3413 -1.1390  0.4567
  749TIP3    H123662   2.054   3.286   0.866 -0.4273 -2.8569  1.9702
  749TIP3    H223663   2.181   3.220   0.915  2.2380 -0.8843 -1.7180
  750TIP3   OH223664   6.184   5.127   4.414  0.0859 -0.5270  0.0767
  750TIP3    H123665   6.191   5.168   4.500 -1.6802 -0.4251  0.2067
  750TIP3    H223666   6.268   5.143   4.372  0.1715  1.4028  0.9277
  751TIP3   OH223667   6.359   0.870   0.054  0.5241  0.1794  0.1273
  751TIP3    H123668   6.440   0.839   0.016  0.3180  1.8837 -1.9195
  751TIP3    H223669   6.314   0.915  -0.018 -1.3880  0.8721  1.6417
  752TIP3   OH223670   1.850   2.266  13.760 -0.4862  0.6059 -0.3264
  752TIP3    H123671   1.755   2.253  13.758 -0.4294 -1.1400  2.2509
  752TIP3    H223672   1.867   2.303  13.847  1.2577  0.0135 -0.3793
  753TIP3   OH223673   5.501   2.595   1.471 -0.0705  0.1514 -0.7182
  753TIP3    H123674   5.475   2.662   1.407 -0.0699  0.7248 -0.1369
  753TIP3    H223675   5.594   2.581   1.455 -0.2643 -0.3667 -1.4270
  754TIP3   OH223676   0.141   3.297   4.106  0.0608  0.0988  0.3933
  754TIP3    H123677   0.083   3.225   4.083  0.2202  0.5187 -1.4367
  754TIP3    H223678   0.223   3.278   4.060  0.5650  0.7627  0.9792
  755TIP3   OH223679   2.851   5.857   5.956  0.3756 -0.1311  0.6271
  755TIP3    H123680   2.850   5.932   5.896 -2.4250 -1.2136 -0.8398
  755TIP3    H223681   2.888   5.786   5.903 -0.1105 -0.5793  0.8885
  756TIP3   OH223682   2.255   6.703  11.911 -0.4806 -0.0295 -0.1368
  756TIP3    H123683   2.302   6.778  11.948  1.8518 -1.0278 -0.9150
  756TIP3    H223684   2.274   6.706  11.818 -1.4383 -0.8761 -0.3799
  757TIP3   OH223685   4.122   2.434   3.334 -0.2721 -0.1350  0.4223
  757TIP3    H123686   4.203   2.413   3.381 -0.8913 -2.5650  0.5019
  757TIP3    H223687   4.060   2.368   3.362 -1.1905 -0.6459 -2.4872
  758TIP3   OH223688   3.602   2.279   2.573  0.6238  0.0304 -0.0910
  758TIP3    H123689   3.636   2.208   2.628 -1.0948 -0.2161  0.7478
  758TIP3    H223690   3.622   2.253   2.484  0.0502 -1.5358  0.2022
  759TIP3   OH223691   2.681   4.708   4.545 -0.1894 -0.2101 -0.1819
  759TIP3    H123692   2.618   4.647   4.583 -0.8979  0.0402 -0.9061
  759TIP3    H223693   2.739   4.653   4.493 -0.1930 -0.3790 -0.0082
  760TIP3   OH223694   4.744   3.636  15.063  0.0713 -0.2836  0.0274
  760TIP3    H123695   4.727   3.576  14.991  2.7321 -3.3724  1.6616
  760TIP3    H223696   4.810   3.696  15.029 -0.5749 -0.0370 -0.8243
  761TIP3   OH223697   3.008   4.056   4.836  0.1423 -0.5202 -0.1955
  761TIP3    H123698   3.100   4.057   4.810 -0.1447 -0.8751 -1.2788
  761TIP3    H223699   2.992   3.967   4.865  0.2554 -0.3324  0.4605
  762TIP3   OH223700   3.388   0.567  16.353 -0.1320  0.2544 -0.1419
  762TIP3    H123701   3.445   0.631  16.396 -2.4303  1.4210  1.3484
  762TIP3    H223702   3.396   0.488  16.407  1.1362 -0.1043 -0.8021
  763TIP3   OH223703   5.712   4.177  13.551  0.2466 -0.0961 -0.1869
  763TIP3    H123704   5.697   4.095  13.597  1.7697 -0.7077 -0.7292
  763TIP3    H223705   5.676   4.162  13.463  0.6752 -0.2527 -0.3380
  764TIP3   OH223706   5.703   6.539  16.973 -0.0307 -0.3733 -0.0737
  764TIP3    H123707   5.754   6.457  16.971 -0.7107 -0.8133 -2.1718
  764TIP3    H223708   5.629   6.522  16.915 -2.1615  0.5586  2.2028
  765TIP3   OH223709   3.205   3.838  12.091  0.2544 -0.1925  0.7411
  765TIP3    H123710   3.249   3.830  12.006 -0.2932 -0.5075  0.4789
  765TIP3    H223711   3.261   3.789  12.151  1.4793  1.3530  0.9007
  766TIP3   OH223712   0.909   5.933  12.320  0.0564 -0.0923 -0.0195
  766TIP3    H123713   0.989   5.978  12.347 -1.9478  3.3820  0.8411
  766TIP3    H223714   0.882   5.883  12.398  0.6675 -0.1994  0.1309
  767TIP3   OH223715   6.646   4.005   6.609 -0.5382 -0.6921 -0.9901
  767TIP3    H123716   6.688   4.064   6.546 -1.0102 -2.1230 -2.7204
  767TIP3    H223717   6.679   3.918   6.588  0.5968 -1.0921  1.9014
  768TIP3   OH223718   4.243   0.301  12.341  0.1605 -0.3520 -0.0405
  768TIP3    H123719   4.203   0.309  12.254  1.8889 -1.1776 -0.9697
  768TIP3    H223720   4.187   0.239  12.387 -0.0271 -0.9934 -1.0850
  769TIP3   OH223721   2.230   6.039  15.978  0.3296  0.2875 -0.1103
  769TIP3    H123722   2.256   5.990  16.056  1.6627  1.0953 -0.0004
  769TIP3    H223723   2.241   6.131  16.003 -2.8325  0.7463 -0.0601
  770TIP3   OH223724   5.130   5.330   3.591  0.1133  0.4989 -0.0497
  770TIP3    H123725   5.180   5.349   3.670  1.1294 -0.3740 -0.4536
  770TIP3    H223726   5.197   5.308   3.525 -0.7927 -1.6312 -0.3513
  771TIP3   OH223727   2.503   6.618  12.381 -0.3100 -0.7386  0.4131
  771TIP3    H123728   2.435   6.620  12.448  0.1736 -1.8088  0.9664
  771TIP3    H223729   2.547   6.702  12.389 -1.1332 -0.3053  0.4997
  772TIP3   OH223730   5.424   3.403   6.048  0.3461 -0.6464 -0.4103
  772TIP3    H123731   5.332   3.379   6.036  0.3108 -1.2333  0.8642
  772TIP3    H223732   5.470   3.355   5.979 -0.2884 -0.3581 -1.0510
  773TIP3   OH223733   5.885   1.554  13.898  0.3460 -0.0946  0.1765
  773TIP3    H123734   5.872   1.465  13.931  0.5772 -0.1159  0.2122
  773TIP3    H223735   5.858   1.611  13.970  0.0007 -0.1336  0.0782
  774TIP3   OH223736   2.687   5.224   2.155 -0.1105 -0.2044  0.1162
  774TIP3    H123737   2.639   5.296   2.115 -0.4417 -0.8466 -0.6904
  774TIP3    H223738   2.754   5.201   2.090  0.1430 -0.4625  0.4671
  775TIP3   OH223739   2.284   1.918   1.527  0.4422  0.2579  0.4195
  775TIP3    H123740   2.337   1.841   1.508  0.8340 -0.2771  3.1418
  775TIP3    H223741   2.348   1.985   1.552  0.1169  1.5931 -2.0669
  776TIP3   OH223742   3.661   3.309  14.453  0.5631  0.4542 -0.7361
  776TIP3    H123743   3.756   3.301  14.457  0.5787  0.4122 -1.1026
  776TIP3    H223744   3.630   3.218  14.445  0.4146  0.3631  0.6432
  777TIP3   OH223745   5.166   4.410  16.460 -0.3992 -0.1530 -0.7036
  777TIP3    H123746   5.200   4.478  16.402 -0.5409  0.1897 -0.3844
  777TIP3    H223747   5.156   4.452  16.545  0.3932 -0.8244 -0.2687
  778TIP3   OH223748   3.671   4.256   4.241  0.3868 -0.3858 -0.2865
  778TIP3    H123749   3.578   4.239   4.227  0.9214 -2.8843 -1.2677
  778TIP3    H223750   3.700   4.303   4.163 -0.2187  1.4774  0.5386
  779TIP3   OH223751   4.489   0.699   3.184  0.5657 -0.0777 -0.1106
  779TIP3    H123752   4.463   0.622   3.134 -0.3949  0.7642 -0.9675
  779TIP3    H223753   4.503   0.667   3.273 -0.4611 -1.1176 -0.3028
  780TIP3   OH223754   3.266   6.046   2.571  0.7512  0.0531  0.2848
  780TIP3    H123755   3.299   6.094   2.648 -0.5432 -0.0994  0.9636
  780TIP3    H223756   3.178   6.082   2.557  0.7072 -0.4212 -0.6982
  781TIP3   OH223757   5.259   1.948   0.289 -0.4863  0.4061 -1.0118
  781TIP3    H123758   5.303   1.867   0.263 -0.7348 -0.4155  0.9355
  781TIP3    H223759   5.314   2.018   0.254  0.9284 -0.6027 -0.8897
  782TIP3   OH223760   1.400   4.884  13.357 -0.2313 -0.1068  0.7031
  782TIP3    H123761   1.362   4.892  13.269  1.4327  0.6067 -0.0087
  782TIP3    H223762   1.495   4.878  13.341  0.1402  0.4576  2.4861
  783TIP3   OH223763   4.034   1.336  16.319 -0.1855 -0.5320 -0.1962
  783TIP3    H123764   4.109   1.288  16.354 -1.2346 -2.3838 -0.3182
  783TIP3    H223765   4.061   1.362  16.231  1.0940  0.8273  0.5585
  784TIP3   OH223766   1.916   1.319  11.524 -0.6361  0.4190  0.3014
  784TIP3    H123767   1.826   1.287  11.530 -0.4461  0.1145  2.0378
  784TIP3    H223768   1.970   1.240  11.526 -0.3150  0.6039 -0.6723
  785TIP3   OH223769   5.768   0.760  10.615  0.2146 -1.2219  0.0139
  785TIP3    H123770   5.704   0.759  10.687  0.0795  0.5892 -0.0420
  785TIP3    H223771   5.841   0.708  10.648 -0.1576 -1.0555  1.1688
  786TIP3   OH223772   0.880   1.844   1.298 -0.2339  0.3309  0.2683
  786TIP3    H123773   0.822   1.782   1.343  0.1775 -0.4376 -0.2544
  786TIP3    H223774   0.857   1.929   1.336 -0.4526 -0.1994  1.3627
  787TIP3   OH223775   3.109   4.955  16.934 -0.2812  0.0574  0.4395
  787TIP3    H123776   3.089   4.895  17.007  2.6120  1.7830  2.8982
  787TIP3    H223777   3.196   4.928  16.905 -0.8837  0.2075 -1.6306
  788TIP3   OH223778   3.797   2.670  15.957 -0.1382  0.3113  0.2788
  788TIP3    H123779   3.819   2.715  15.876 -0.3840 -2.2270 -1.3243
  788TIP3    H223780   3.873   2.684  16.014  1.1314  0.1464 -1.3155
  789TIP3   OH223781   2.143   1.721   4.854 -0.6295  0.1244 -0.4897
  789TIP3    H123782   2.235   1.732   4.878 -1.2665  2.6987  1.1653
  789TIP3    H223783   2.141   1.734   4.759  0.4280  3.0708 -0.2003
  790TIP3   OH223784   1.815   5.461   0.782  0.2016 -0.0819 -0.2103
  790TIP3    H123785   1.751   5.412   0.730  0.7534  0.6300 -1.6042
  790TIP3    H223786   1.900   5.423   0.759  0.4684  0.3633  0.0227
  791TIP3   OH223787   0.889   5.240  12.933  0.0918 -0.1470  0.1129
  791TIP3    H123788   0.915   5.332  12.939 -1.0627  0.1792  0.2648
  791TIP3    H223789   0.794   5.241  12.940  0.0570 -1.3529  0.0332
  792TIP3   OH223790   0.253   5.987   3.117 -0.1727 -0.1347 -0.2945
  792TIP3    H123791   0.271   5.902   3.076  0.8785 -0.1777  0.2046
  792TIP3    H223792   0.325   6.043   3.087  0.7936 -0.2398  1.6426
  793TIP3   OH223793   1.672   4.960   1.962 -0.6375 -0.1242 -0.1497
  793TIP3    H123794   1.693   4.872   1.933  0.2824  0.1506 -0.3359
  793TIP3    H223795   1.618   4.948   2.040  1.3782 -0.8461  1.1859
  794TIP3   OH223796   6.114   1.811   3.960  0.4624  0.1502 -0.1180
  794TIP3    H123797   6.173   1.853   3.897  0.7155 -1.3091 -0.8864
  794TIP3    H223798   6.069   1.884   4.003  2.8744  1.3389  0.5741
  795TIP3   OH223799   3.443   0.680  15.262 -0.4041 -0.0661 -0.2956
  795TIP3    H123800   3.370   0.620  15.248 -1.5385  1.3402 -0.5927
  795TIP3    H223801   3.488   0.683  15.177 -2.1419  1.7828 -1.2109
  796TIP3   OH223802   4.284   0.901  12.805 -0.3477 -0.1400  0.2096
  796TIP3    H123803   4.289   0.960  12.730 -1.7627 -0.2250  0.0224
  796TIP3    H223804   4.243   0.953  12.874 -0.6546 -0.5765  0.3670
  797TIP3   OH223805   4.162   4.153  16.170 -0.7542  0.2208  0.0410
  797TIP3    H123806   4.184   4.070  16.127 -0.3299  0.8379 -0.9926
  797TIP3    H223807   4.104   4.197  16.107  1.8203  2.2138 -1.1429
  798TIP3   OH223808   1.668   1.576   3.446 -0.0292 -1.0464  0.1644
  798TIP3    H123809   1.693   1.669   3.443 -0.3584 -0.9255  0.8805
  798TIP3    H223810   1.750   1.529   3.457 -0.0274 -0.6650  2.2879
  799TIP3   OH223811   0.117   3.183   3.293  0.0342 -0.3802  0.8074
  799TIP3    H123812   0.183   3.206   3.358  0.2977  0.5409  0.2365
  799TIP3    H223813   0.041   3.157   3.344 -0.0831  1.2321  1.5166
  800TIP3   OH223814   3.863   1.379   4.278 -0.5783  0.2852 -0.0769
  800TIP3    H123815   3.902   1.460   4.311  2.7530 -1.2766  0.1565
  800TIP3    H223816   3.922   1.350   4.209 -0.8598 -2.6450  0.7801
  801TIP3   OH223817   1.030   5.797   1.365 -0.1205 -0.7115  0.2924
  801TIP3    H123818   1.103   5.781   1.424 -0.3115 -0.0392  0.7212
  801TIP3    H223819   1.071   5.824   1.283  0.1819 -2.6126 -0.2297
  802TIP3   OH223820   5.789   6.258  15.303 -0.2798  0.0681  0.4527
  802TIP3    H123821   5.705   6.287  15.339 -1.5977 -0.3119 -2.0914
  802TIP3    H223822   5.828   6.207  15.373 -2.1872  0.2153  1.7098
  803TIP3   OH223823   4.290   3.327   6.808 -0.0439 -0.0515 -0.5785
  803TIP3    H123824   4.347   3.251   6.814 -0.3943 -0.2727  0.0293
  803TIP3    H223825   4.267   3.332   6.715 -1.2976 -1.6494 -0.3982
  804TIP3   OH223826   5.383   2.976   1.720 -0.3629  0.6975 -0.4213
  804TIP3    H123827   5.300   3.009   1.688 -0.3786  0.4166 -0.6767
  804TIP3    H223828   5.364   2.886   1.748 -0.1016  0.5611 -0.6778
  805TIP3   OH223829   2.590   1.990  14.171 -0.1939 -0.4005 -0.0093
  805TIP3    H123830   2.544   2.063  14.129 -1.4923 -0.0494  1.9153
  805TIP3    H223831   2.642   2.031  14.240 -0.1718 -1.2032  0.4570
  806TIP3   OH223832   0.287   1.241   1.371 -0.1866 -0.3405 -0.6919
  806TIP3    H123833   0.230   1.190   1.313 -0.8093 -1.8776  1.1416
  806TIP3    H223834   0.376   1.215   1.346 -0.3940 -0.2604 -1.5536
  807TIP3   OH223835   6.290   0.233  16.757 -0.7748  0.0434 -0.5279
  807TIP3    H123836   6.223   0.240  16.825  0.8084 -1.8245  1.3450
  807TIP3    H223837   6.246   0.263  16.677 -3.3766  0.2446  0.8742
  808TIP3   OH223838   1.099   2.947  10.439 -0.3894  0.0316 -0.2229
  808TIP3    H123839   1.181   2.953  10.391 -1.4762  1.9443 -1.9873
  808TIP3    H223840   1.104   3.015  10.506 -1.1188  1.2312 -1.3525
  809TIP3   OH223841   2.526   0.266   0.771  0.5021 -0.0197 -0.0915
  809TIP3    H123842   2.441   0.265   0.814 -0.0470 -1.2602 -1.1275
  809TIP3    H223843   2.579   0.204   0.820  0.5954  0.2486  0.1473
  810TIP3   OH223844   5.251   4.669   1.708  0.4187  0.4613  0.4137
  810TIP3    H123845   5.319   4.733   1.689 -1.0320  1.9397  0.0152
  810TIP3    H223846   5.225   4.686   1.798  0.0856  0.3682  0.3381
  811TIP3   OH223847   5.848   1.463   1.469  0.6445 -0.2300 -0.5197
  811TIP3    H123848   5.780   1.448   1.534 -0.0825  1.1121 -0.9352
  811TIP3    H223849   5.926   1.485   1.520  0.4037 -0.4029 -0.0774
  812TIP3   OH223850   0.655   4.283  14.667 -0.4289  0.0851 -0.6775
  812TIP3    H123851   0.714   4.209  14.685 -1.7190 -1.4355 -2.3597
  812TIP3    H223852   0.713   4.359  14.660  1.2731 -1.2400 -1.6575
  813TIP3   OH223853   4.765   0.112  12.174 -0.7669  0.5549  0.2324
  813TIP3    H123854   4.852   0.107  12.214 -0.8743  1.1037  0.5472
  813TIP3    H223855   4.717   0.173  12.229 -0.7794  1.7003 -1.0124
  814TIP3   OH223856   3.060   1.021  15.407  0.1292  0.6956  0.1791
  814TIP3    H123857   3.137   0.966  15.394  0.8079  1.5423  0.5697
  814TIP3    H223858   3.024   0.993  15.492  0.5130  0.9119  0.4110
  815TIP3   OH223859   3.588   2.641   2.455  0.0027 -0.4860 -0.6799
  815TIP3    H123860   3.643   2.585   2.510 -0.5547 -0.1522  0.2459
  815TIP3    H223861   3.539   2.695   2.517  0.2773  0.8057 -1.5315
  816TIP3   OH223862   3.251   4.625   0.984  0.6131  0.1201 -0.5291
  816TIP3    H123863   3.247   4.576   1.066 -0.4899  0.8766 -0.1031
  816TIP3    H223864   3.201   4.572   0.922 -0.7714  0.7724 -0.0107
  817TIP3   OH223865   4.697   2.416   1.967  0.2616  0.2903 -0.1468
  817TIP3    H123866   4.622   2.450   1.918  0.4021 -1.3527 -1.6369
  817TIP3    H223867   4.721   2.335   1.920  1.5698 -0.4013  1.6015
  818TIP3   OH223868   4.508   4.993   5.054 -0.2956  0.0372 -0.5384
  818TIP3    H123869   4.534   5.082   5.080 -2.5345  1.0129 -1.3851
  818TIP3    H223870   4.562   4.975   4.977  0.1853  0.6442 -0.3637
  819TIP3   OH223871   2.503   3.394  11.282 -0.4944  0.1819  0.0807
  819TIP3    H123872   2.490   3.392  11.377  1.4213 -1.3178  0.3807
  819TIP3    H223873   2.598   3.396  11.271 -0.6937  0.8601 -1.8256
  820TIP3   OH223874   5.170   3.399   5.142 -0.3058  0.1899 -0.1573
  820TIP3    H123875   5.143   3.474   5.089 -0.5303 -0.0194 -0.3406
  820TIP3    H223876   5.266   3.400   5.139 -0.3116 -0.9652 -2.1994
  821TIP3   OH223877   0.693   4.107  16.399  0.2303 -0.2836  0.0075
  821TIP3    H123878   0.684   4.016  16.428  1.0078 -0.2325  0.4208
  821TIP3    H223879   0.660   4.159  16.472  0.2487 -0.2141 -0.0331
  822TIP3   OH223880   3.359   4.095  13.788  1.1252  0.0577  0.2785
  822TIP3    H123881   3.296   4.026  13.810 -0.4520  1.8655  1.8048
  822TIP3    H223882   3.431   4.049  13.746 -0.8757 -2.2244 -0.9300
  823TIP3   OH223883   1.279   6.532   5.410  0.3853  0.0853  0.0985
  823TIP3    H123884   1.332   6.607   5.383 -0.1765  0.3892 -0.1953
  823TIP3    H223885   1.339   6.458   5.410  0.4241  0.0657 -1.9933
  824TIP3   OH223886   4.744   5.410   3.982 -0.3344 -0.1866 -0.2476
  824TIP3    H123887   4.809   5.377   4.044 -1.1638  0.2308  0.8697
  824TIP3    H223888   4.700   5.332   3.950 -0.3115 -0.3696  0.1587
  825TIP3   OH223889   5.330   6.045  13.998 -0.3457  0.3042 -0.6174
  825TIP3    H123890   5.412   6.038  13.950 -0.3464 -0.1891 -0.5445
  825TIP3    H223891   5.268   6.082  13.934  0.1492  1.5568 -0.4144
  826TIP3   OH223892   1.283   4.739  13.572  0.3965 -0.3991  0.1605
  826TIP3    H123893   1.345   4.741  13.645  0.5069  2.2085  0.0664
  826TIP3    H223894   1.337   4.758  13.495 -0.3088  0.6250 -0.0881
  827TIP3   OH223895   5.820   3.445   0.019 -0.2948 -0.7324  0.2934
  827TIP3    H123896   5.867   3.472   0.097  0.2391  0.9976 -0.5905
  827TIP3    H223897   5.884   3.449  -0.052  0.1992 -5.4870  0.1341
  828TIP3   OH223898   4.767   5.118  16.199 -0.0073  0.4046 -0.2497
  828TIP3    H123899   4.685   5.148  16.237 -0.0760 -0.6979  0.5231
  828TIP3    H223900   4.794   5.045  16.255 -0.9148 -2.3650 -3.1352
  829TIP3   OH223901   4.720   3.815  12.751  0.0040  0.1543  0.1687
  829TIP3    H123902   4.684   3.814  12.839 -1.8475 -0.4259 -0.5476
  829TIP3    H223903   4.756   3.728  12.738  0.7649  0.4059  0.5124
  830TIP3   OH223904   3.599   4.104  14.256 -0.5137  0.7117 -0.1778
  830TIP3    H123905   3.641   4.116  14.341 -0.7786  0.9903 -0.0850
  830TIP3    H223906   3.672   4.097  14.194 -0.2923 -0.5134  0.1975
  831TIP3   OH223907   0.849   1.844  15.200 -0.2470 -0.7077  0.4372
  831TIP3    H123908   0.804   1.759  15.199  0.7114 -1.2547 -1.5918
  831TIP3    H223909   0.898   1.846  15.118  0.9904  1.1725  1.1565
  832TIP3   OH223910   6.504   2.386   5.455  0.0838 -0.3639  0.4889
  832TIP3    H123911   6.482   2.472   5.492  0.0189 -1.2833  2.7353
  832TIP3    H223912   6.600   2.383   5.459  0.0512 -0.6701  1.0956
  833TIP3   OH223913   1.175   1.438  15.691  0.1210 -0.1742 -0.2132
  833TIP3    H123914   1.252   1.479  15.650  0.6032  0.0414  0.8639
  833TIP3    H223915   1.205   1.412  15.778 -1.0302 -0.0809  0.2356
  834TIP3   OH223916   2.436   5.273  11.849 -0.0186  0.5406 -0.3759
  834TIP3    H123917   2.464   5.357  11.886 -1.7297 -0.3520  3.4070
  834TIP3    H223918   2.349   5.291  11.813  0.3287  0.7158 -1.1509
  835TIP3   OH223919   5.903   1.595  11.781 -0.4498 -0.1628 -0.0348
  835TIP3    H123920   5.915   1.510  11.739 -0.2754 -0.4335  0.5579
  835TIP3    H223921   5.828   1.634  11.736 -2.0141 -1.5916  1.2219
  836TIP3   OH223922   0.457   2.522  16.273 -0.5895 -0.0787 -0.0455
  836TIP3    H123923   0.503   2.594  16.315 -0.5371 -0.6257  0.8509
  836TIP3    H223924   0.415   2.562  16.196  1.6492  0.3651 -1.1228
  837TIP3   OH223925   2.963   0.339   1.334  0.0419  0.6162 -0.1748
  837TIP3    H123926   2.907   0.276   1.289 -1.9538  0.6634  2.0497
  837TIP3    H223927   3.043   0.290   1.355 -0.4756 -0.4381 -0.6030
  838TIP3   OH223928   2.641   5.643  13.488  0.3073  0.3001  0.1278
  838TIP3    H123929   2.643   5.625  13.582  0.7003 -2.3516 -0.3236
  838TIP3    H223930   2.565   5.595  13.456  1.4958 -0.7991 -1.2095
  839TIP3   OH223931   1.209   6.244   4.141 -0.2042  0.0484  0.5121
  839TIP3    H123932   1.280   6.189   4.108  1.0639  2.5808 -1.2768
  839TIP3    H223933   1.171   6.193   4.213  2.1291 -2.2491  0.2652
  840TIP3   OH223934   3.597   0.424  15.825 -0.0654 -0.0697 -0.6354
  840TIP3    H123935   3.583   0.510  15.786 -1.1914 -0.5440 -1.3218
  840TIP3    H223936   3.690   0.405  15.808  0.2262  1.0379 -0.3743
  841TIP3   OH223937   5.091   2.263   2.641 -0.8912 -0.2206 -0.3916
  841TIP3    H123938   5.084   2.344   2.590 -2.0920 -0.2961 -0.3745
  841TIP3    H223939   5.044   2.198   2.589 -3.2765 -0.0119  1.3328
  842TIP3   OH223940   2.530   5.371  13.614  1.1430  0.8229 -0.1030
  842TIP3    H123941   2.606   5.314  13.620  0.0452 -0.7636 -0.8346
  842TIP3    H223942   2.468   5.324  13.559 -0.6606  1.7584  1.0260
  843TIP3   OH223943   6.491   2.879  14.785  0.0384  0.4987 -0.9234
  843TIP3    H123944   6.458   2.958  14.741  0.9067  0.7030 -1.2325
  843TIP3    H223945   6.459   2.807  14.731 -0.3488  0.6603 -0.9156
  844TIP3   OH223946   6.607   3.815  12.119 -0.4379  0.2978  0.0684
  844TIP3    H123947   6.606   3.743  12.182  0.9951 -0.1918 -0.4335
  844TIP3    H223948   6.639   3.890  12.168 -0.1437  0.1303  0.1304
  845TIP3   OH223949   3.064   4.805  16.422  0.5929 -0.1050  0.0996
  845TIP3    H123950   3.136   4.837  16.477  0.3686 -0.5701  0.6693
  845TIP3    H223951   2.990   4.797  16.482  0.7354 -2.0799  0.0749
  846TIP3   OH223952   0.583   4.426   4.578  0.4270 -0.0251 -0.3195
  846TIP3    H123953   0.516   4.464   4.521  0.5735 -0.2573 -0.6552
  846TIP3    H223954   0.616   4.351   4.529  1.2256  0.3262 -0.3453
  847TIP3   OH223955   6.494   5.179  15.955 -0.1262 -0.2240  0.8213
  847TIP3    H123956   6.529   5.255  16.000 -1.8968  1.4000 -0.3522
  847TIP3    H223957   6.402   5.202  15.936 -0.0581 -1.5961 -1.7437
  848TIP3   OH223958   1.321   1.723   0.599  0.4271 -0.5071  0.7928
  848TIP3    H123959   1.369   1.788   0.650  2.2175 -2.1869  1.3635
  848TIP3    H223960   1.308   1.650   0.660  2.0657 -2.3193 -0.8953
  849TIP3   OH223961   6.224   5.494   4.890  0.0717 -0.3892  0.3814
  849TIP3    H123962   6.312   5.474   4.859  0.2835 -0.6414  1.1452
  849TIP3    H223963   6.168   5.474   4.815  0.4953 -1.7654  0.4101
  850TIP3   OH223964   3.106   0.953  12.124  0.1806  0.0656 -0.9043
  850TIP3    H123965   3.023   0.955  12.171  1.0491 -0.9375  0.7566
  850TIP3    H223966   3.086   0.991  12.038 -1.6347  1.2576 -0.0102
  851TIP3   OH223967   5.024   3.096  15.783  0.1143 -0.0042 -0.7241
  851TIP3    H123968   5.038   3.151  15.859 -0.1277  0.9063 -1.3204
  851TIP3    H223969   5.042   3.007  15.814 -0.7624  0.2519  0.5824
  852TIP3   OH223970   5.058   1.757  13.637 -0.3810 -0.1637  0.1863
  852TIP3    H123971   5.105   1.768  13.554  1.3216  0.7456  1.2234
  852TIP3    H223972   4.965   1.766  13.613  0.0903  0.4328 -1.5688
  853TIP3   OH223973   0.358   3.883  12.307  0.0518 -0.4883  0.2515
  853TIP3    H123974   0.413   3.949  12.266 -0.0331 -0.5160  0.0906
  853TIP3    H223975   0.268   3.910  12.287  0.0052 -0.3703  0.6286
  854TIP3   OH223976   5.172   1.946  12.292 -0.2869  0.0528 -0.0228
  854TIP3    H123977   5.228   1.874  12.263 -0.2174 -0.1329  0.5421
  854TIP3    H223978   5.134   1.914  12.374  1.7143  1.6269  1.6134
  855TIP3   OH223979   3.250   6.074   0.560 -0.0071 -0.3152 -0.2811
  855TIP3    H123980   3.161   6.040   0.569  0.4706 -1.3554  0.8327
  855TIP3    H223981   3.291   6.017   0.495  0.1552 -0.5058 -0.0128
  856TIP3   OH223982   2.156   2.504   2.519  0.2865 -0.0024  0.5694
  856TIP3    H123983   2.180   2.507   2.612  2.5821 -0.9790  0.0795
  856TIP3    H223984   2.133   2.412   2.503 -1.0350  0.3414  0.3380
  857TIP3   OH223985   4.967   5.452   5.281 -0.1677  0.0334  0.1545
  857TIP3    H123986   4.881   5.493   5.289 -0.6388 -0.8609 -0.1474
  857TIP3    H223987   4.951   5.359   5.299  1.1265  0.1666  2.5509
  858TIP3   OH223988   1.041   3.189  15.006 -0.5142  0.0452  0.5536
  858TIP3    H123989   1.033   3.230  15.092  0.9618  1.0684  0.2418
  858TIP3    H223990   1.066   3.098  15.024 -0.2139  0.2551  1.2048
  859TIP3   OH223991   0.200   0.713   1.828 -0.1149 -0.4859 -0.0196
  859TIP3    H123992   0.179   0.806   1.823  0.4122 -0.3816 -0.5024
  859TIP3    H223993   0.126   0.674   1.875 -1.0724 -0.0486 -1.1002
  860TIP3   OH223994   6.197   3.501  10.648 -0.2106 -0.4033 -0.1295
  860TIP3    H123995   6.174   3.533  10.561 -0.5521 -1.5298 -0.4753
  860TIP3    H223996   6.256   3.428  10.631  0.3781 -0.1071  0.6227
  861TIP3   OH223997   3.316   1.958  12.994 -0.2200  0.3652  0.5514
  861TIP3    H123998   3.344   1.888  12.934 -0.7616  0.3519  0.3107
  861TIP3    H223999   3.265   1.912  13.062 -0.3787  0.4956  0.5205
  862TIP3   OH224000   0.259   3.019  11.766  0.2421  0.4588  0.1009
  862TIP3    H124001   0.353   3.023  11.781  0.6050 -1.5112 -1.3093
  862TIP3    H224002   0.239   3.101  11.721  1.2458  0.9533  0.5230
  863TIP3   OH224003   1.850   1.540  11.874 -0.8098 -0.4167  0.5889
  863TIP3    H124004   1.848   1.444  11.879 -0.3799 -0.3732  1.9040
  863TIP3    H224005   1.819   1.569  11.960 -0.3144  0.6188  0.4309
  864TIP3   OH224006   2.427   4.512   1.587  0.5548 -0.0060  0.4192
  864TIP3    H124007   2.368   4.505   1.511  1.0447 -0.5050  0.0801
  864TIP3    H224008   2.461   4.602   1.583  0.1844  0.1331  0.3457
  865TIP3   OH224009   6.775   6.025   3.828  0.1598  0.2238 -0.3264
  865TIP3    H124010   6.820   5.941   3.823  0.7055  0.4287  0.7944
  865TIP3    H224011   6.693   6.006   3.873 -0.4921  0.0108 -1.5676
  866TIP3   OH224012   1.066   0.248  12.306  0.1742  0.2622  0.2520
  866TIP3    H124013   0.980   0.206  12.315  0.3804 -0.3300 -0.4172
  866TIP3    H224014   1.128   0.184  12.340  0.4399  0.2494 -0.2406
  867TIP3   OH224015   0.726   2.405  10.961  0.2819  0.3965 -0.0070
  867TIP3    H124016   0.671   2.359  10.898  0.9887 -1.1787  0.4831
  867TIP3    H224017   0.691   2.494  10.963 -0.7870  0.0400 -1.3852
  868TIP3   OH224018   5.951   0.599   3.061  0.1250 -0.1021  0.2444
  868TIP3    H124019   6.017   0.649   3.109  1.6936 -0.5034 -1.3930
  868TIP3    H224020   5.950   0.513   3.103  0.5693 -0.0578  0.3491
  869TIP3   OH224021   2.653   5.245  14.083  0.0593 -0.0044 -0.2447
  869TIP3    H124022   2.730   5.189  14.089 -0.8896 -1.2256  1.0627
  869TIP3    H224023   2.603   5.209  14.010 -0.0342 -0.1985 -0.0854
  870TIP3   OH224024   5.632   0.517   1.385  0.0639 -0.4373 -0.0818
  870TIP3    H124025   5.580   0.489   1.310 -1.5015 -0.0965  0.8336
  870TIP3    H224026   5.651   0.610   1.367  0.2218 -0.5200 -0.3437
  871TIP3   OH224027   1.023   3.659   4.780 -0.4997 -0.0593  0.0819
  871TIP3    H124028   1.050   3.694   4.865 -2.7854  1.4114  0.2780
  871TIP3    H224029   0.955   3.595   4.801  1.2399 -2.2620 -0.5150
  872TIP3   OH224030   1.968   4.928   3.526  0.0999 -0.1434 -0.5661
  872TIP3    H124031   2.063   4.944   3.533  0.2720  1.5153 -4.4128
  872TIP3    H224032   1.929   5.003   3.572  0.6546 -0.1164 -0.1176
  873TIP3   OH224033   0.987   5.010  13.689  0.0183 -0.0641  0.2916
  873TIP3    H124034   0.911   5.027  13.745 -0.0319 -0.4866  0.3524
  873TIP3    H224035   0.949   4.984  13.605  0.0925  0.6201  0.0360
  874TIP3   OH224036   1.552   2.238   2.383  0.2401 -0.1075  0.1549
  874TIP3    H124037   1.605   2.286   2.446  1.2687  1.6975 -1.9571
  874TIP3    H224038   1.539   2.299   2.311 -2.0576 -1.6002 -0.8259
  875TIP3   OH224039   5.622   6.306  15.679  0.3036 -0.7648 -0.4891
  875TIP3    H124040   5.552   6.316  15.615 -0.2278  0.2553  0.2195
  875TIP3    H224041   5.690   6.255  15.634 -0.2725 -0.5027 -1.6711
  876TIP3   OH224042   2.575   3.239   1.861  0.6202  0.4750 -0.1367
  876TIP3    H124043   2.632   3.164   1.847  1.5025  1.0571  0.2203
  876TIP3    H224044   2.489   3.201   1.877  1.0109 -0.4490 -0.1626
  877TIP3   OH224045   1.309   3.448  14.293  0.0091 -0.0673 -0.4133
  877TIP3    H124046   1.357   3.367  14.315  1.7896  0.7164 -1.1915
  877TIP3    H224047   1.242   3.420  14.232  0.5712 -0.9814 -0.6412
  878TIP3   OH224048   0.672   2.521   0.962  0.7589  0.4575  0.1970
  878TIP3    H124049   0.709   2.480   0.883 -1.8723  0.8923 -1.3839
  878TIP3    H224050   0.578   2.502   0.957  0.3504  1.3855  2.7376
  879TIP3   OH224051   5.354   5.132   0.959 -0.2533 -0.6665  0.0202
  879TIP3    H124052   5.280   5.188   0.981 -0.6205 -0.5553 -1.4155
  879TIP3    H224053   5.431   5.181   0.987 -0.6413 -0.0786  0.0629
  880TIP3   OH224054   4.785   1.318   6.165 -0.5649 -0.6612 -0.4877
  880TIP3    H124055   4.862   1.262   6.165  0.2542  0.4328 -0.9012
  880TIP3    H224056   4.719   1.268   6.214  0.8075 -1.0333  1.0667
  881TIP3   OH224057   0.746   1.336  16.431  0.0513  0.4036 -0.3120
  881TIP3    H124058   0.784   1.263  16.479  1.0539  0.1207 -1.4910
  881TIP3    H224059   0.655   1.339  16.461 -0.0157 -1.3385 -0.2332
  882TIP3   OH224060   0.540   2.045   4.367  0.9230  0.5179 -0.1903
  882TIP3    H124061   0.488   2.044   4.447  2.2084 -0.4845  0.6748
  882TIP3    H224062   0.572   1.955   4.358  2.8792  1.1883 -0.4122
  883TIP3   OH224063   5.752   5.272  11.418  0.6664 -0.7970  0.0704
  883TIP3    H124064   5.701   5.193  11.402  2.0779 -1.2601 -2.5952
  883TIP3    H224065   5.790   5.295  11.333  3.5788  0.4152  1.5496
  884TIP3   OH224066   6.120   6.712   5.650 -0.5085  0.3848 -0.1566
  884TIP3    H124067   6.085   6.751   5.730 -1.9585 -0.4169 -0.3652
  884TIP3    H224068   6.140   6.787   5.594 -2.0388  0.8952 -0.0665
  885TIP3   OH224069   1.397   6.288  16.669  0.2418  0.0512 -0.8254
  885TIP3    H124070   1.342   6.266  16.744 -0.3841  3.7946  0.0405
  885TIP3    H224071   1.336   6.296  16.596  0.4520 -0.8768 -1.1157
  886TIP3   OH224072   1.704   5.849   2.234 -0.3314 -0.6129 -0.1492
  886TIP3    H124073   1.685   5.762   2.197 -1.3635  0.3023 -1.9434
  886TIP3    H224074   1.799   5.857   2.228 -0.3587 -0.9389 -1.7345
  887TIP3   OH224075   5.255   2.357  14.334  0.4881  0.3727 -0.3997
  887TIP3    H124076   5.304   2.439  14.325  0.3947  0.5849  0.8007
  887TIP3    H224077   5.284   2.322  14.419  1.5037 -1.5089 -1.4515
  888TIP3   OH224078   1.967   5.385  11.949 -0.4766 -0.0492  0.7570
  888TIP3    H124079   1.892   5.366  12.006 -0.2357  2.4035  1.9840
  888TIP3    H224080   1.942   5.464  11.901  0.2034 -0.8437 -0.9975
  889TIP3   OH224081   4.095   3.377   2.597  0.2997  0.1052 -0.2945
  889TIP3    H124082   4.160   3.447   2.606 -0.6676  1.5925 -3.4091
  889TIP3    H224083   4.019   3.409   2.646  1.3342 -1.0860  2.3133
  890TIP3   OH224084   4.680   6.217   4.767 -0.1555 -0.1723 -0.0409
  890TIP3    H124085   4.703   6.227   4.675 -1.0717  0.5264 -0.2105
  890TIP3    H224086   4.681   6.306   4.801 -0.6398 -0.3372  0.4158
  891TIP3   OH224087   0.519   5.651   5.616  0.2619 -0.0132  0.3260
  891TIP3    H124088   0.442   5.652   5.672  0.3324 -0.5032  0.4336
  891TIP3    H224089   0.536   5.743   5.597 -0.2826  0.1060  0.3923
  892TIP3   OH224090   5.513   2.196  16.321 -0.3641  0.0408 -0.1224
  892TIP3    H124091   5.566   2.234  16.251  0.0121 -0.1995  0.0305
  892TIP3    H224092   5.531   2.252  16.397 -1.1540  0.6031 -0.3348
  893TIP3   OH224093   3.564   5.506  12.119 -0.6028  0.3804 -0.5625
  893TIP3    H124094   3.538   5.589  12.159 -0.4575  1.0795 -1.8738
  893TIP3    H224095   3.640   5.528  12.066  1.4072 -1.1917  1.4362
  894TIP3   OH224096   5.417   2.974  11.910 -0.1838 -0.8270 -0.0307
  894TIP3    H124097   5.474   3.049  11.928  1.4459 -1.6121 -1.6093
  894TIP3    H224098   5.349   3.010  11.852  0.7419 -0.5999 -1.0025
  895TIP3   OH224099   0.489   2.252   2.632 -0.1830  0.2227 -0.1329
  895TIP3    H124100   0.404   2.264   2.675  0.5865  2.4236  0.8823
  895TIP3    H224101   0.550   2.237   2.704  0.6054  0.6327 -0.7099
  896TIP3   OH224102   3.399   4.051   1.863  0.3268  0.7195  0.5889
  896TIP3    H124103   3.410   4.031   1.770  2.7810 -0.8457  1.1212
  896TIP3    H224104   3.370   3.968   1.902  0.6883  0.9792  1.4286
  897TIP3   OH224105   4.328   5.528   1.530  0.1443  0.2427 -0.3872
  897TIP3    H124106   4.361   5.611   1.565 -0.4205 -0.1671  1.1825
  897TIP3    H224107   4.406   5.472   1.524 -0.0376 -0.4210  2.4347
  898TIP3   OH224108   5.127   4.514  12.461 -0.1389  0.0302  0.3312
  898TIP3    H124109   5.200   4.470  12.417 -1.1634 -1.1761 -0.1992
  898TIP3    H224110   5.153   4.518  12.553 -0.1299 -2.0030  0.4645
  899TIP3   OH224111   1.229   5.171   4.649 -0.5177  0.2076  0.3165
  899TIP3    H124112   1.251   5.169   4.556 -2.6971  0.6212 -0.2658
  899TIP3    H224113   1.154   5.112   4.656 -0.4587  0.2843  1.8002
  900TIP3   OH224114   6.095   3.885   5.203 -0.3083  0.4482  0.5549
  900TIP3    H124115   6.038   3.882   5.126 -0.6084 -0.1951  0.7928
  900TIP3    H224116   6.090   3.797   5.240 -0.6872  0.9213  1.6865
  901TIP3   OH224117   1.872   3.651  15.626  0.3814  0.2259  0.4892
  901TIP3    H124118   1.954   3.609  15.599  0.4664  0.1169  0.9026
  901TIP3    H224119   1.893   3.744  15.630  0.8903  0.0811  1.9332
  902TIP3   OH224120   6.056   6.775  13.723  0.5243 -0.6356  0.3869
  902TIP3    H124121   6.019   6.691  13.693 -0.2924 -0.4685  0.8743
  902TIP3    H224122   5.997   6.802  13.794 -0.6629  1.5226 -1.2834
  903TIP3   OH224123   0.799   2.132   4.834  0.2849  0.2335  0.3616
  903TIP3    H124124   0.807   2.080   4.914 -0.3646 -1.7040 -0.7706
  903TIP3    H224125   0.710   2.114   4.803  0.8995  0.0216 -1.3888
  904TIP3   OH224126   4.255   4.270  12.862 -0.3239 -0.9929  0.4188
  904TIP3    H124127   4.317   4.337  12.834 -0.0731 -0.3511  2.3706
  904TIP3    H224128   4.176   4.287  12.810  0.1248  0.0818  0.0687
  905TIP3   OH224129   5.622   6.136  15.930  0.2126 -0.0900 -0.0861
  905TIP3    H124130   5.642   6.202  15.864  1.2336 -1.0302 -0.7628
  905TIP3    H224131   5.650   6.053  15.889  3.1613 -0.4927  2.4198
  906TIP3   OH224132   1.608   0.473   6.551 -0.2670  0.0919  0.0878
  906TIP3    H124133   1.554   0.398   6.578  1.5047 -1.2429  0.1104
  906TIP3    H224134   1.642   0.448   6.465 -0.8937  1.6036 -0.6416
  907TIP3   OH224135   1.079   2.484  13.634  0.1306 -0.2679  0.6727
  907TIP3    H124136   1.120   2.482  13.547 -0.4431 -1.3620  0.4173
  907TIP3    H224137   1.129   2.550  13.682  0.8059 -0.0382 -0.3111
  908TIP3   OH224138   6.196   3.250  15.580 -0.1477  0.2276  0.3213
  908TIP3    H124139   6.152   3.269  15.663  0.8417  0.5697  0.7838
  908TIP3    H224140   6.198   3.154  15.576 -0.7880  0.2063  0.3621
  909TIP3   OH224141   3.971   1.068  16.130 -0.4415  0.1436  0.2097
  909TIP3    H124142   3.952   1.118  16.209 -0.3063  2.2948 -1.0494
  909TIP3    H224143   3.897   1.086  16.072  0.3727  0.1347 -0.8532
  910TIP3   OH224144   6.618   4.761   5.304  0.1050 -0.1677 -0.1948
  910TIP3    H124145   6.557   4.824   5.267  0.2178 -0.6724 -1.3084
  910TIP3    H224146   6.563   4.698   5.350 -0.1440 -0.1193 -0.4234
  911TIP3   OH224147   2.441   6.009  12.003  0.0355 -0.1313  0.9490
  911TIP3    H124148   2.435   5.916  11.980 -0.6652 -0.3199  1.8634
  911TIP3    H224149   2.376   6.051  11.946  1.9326  0.1684 -1.1499
  912TIP3   OH224150   0.812   3.090   3.913  0.5378  0.1833 -0.5071
  912TIP3    H124151   0.813   3.147   3.836  1.9971  2.6019  1.1395
  912TIP3    H224152   0.889   3.116   3.963 -1.0622 -0.2605  2.4366
  913TIP3   OH224153   5.971   3.639   4.561 -0.0060 -0.1695  0.1893
  913TIP3    H124154   5.917   3.680   4.493 -1.4407  0.1285  1.4539
  913TIP3    H224155   6.002   3.558   4.522 -0.3136  0.2802 -1.0231
  914TIP3   OH224156   2.008   1.019   0.177  0.2091 -0.4680  0.4439
  914TIP3    H124157   2.075   0.966   0.133 -0.3072 -1.7556  1.1564
  914TIP3    H224158   2.058   1.085   0.225  1.0780 -1.9927  1.7352
  915TIP3   OH224159   6.566   4.305  12.167 -0.2590 -0.1930  0.1805
  915TIP3    H124160   6.581   4.349  12.083 -2.0249 -0.2328 -0.1842
  915TIP3    H224161   6.581   4.373  12.233 -2.3372  0.8754 -0.3483
  916TIP3   OH224162   4.393   2.538  15.258  0.8715  0.0462  0.1892
  916TIP3    H124163   4.312   2.583  15.236  1.0274  0.2078 -0.0615
  916TIP3    H224164   4.460   2.606  15.255  1.2076 -0.3054 -0.8155
  917TIP3   OH224165   4.399   2.041  10.989  0.3586  1.0546 -0.8647
  917TIP3    H124166   4.457   2.104  10.946  1.6769 -0.0585 -0.7910
  917TIP3    H224167   4.456   1.967  11.009 -1.1022 -0.0676 -0.7478
  918TIP3   OH224168   2.050   3.842  14.070  0.1185  0.1768  0.0588
  918TIP3    H124169   1.961   3.826  14.101 -1.4461 -3.0769 -4.8901
  918TIP3    H224170   2.042   3.919  14.012  0.4216 -0.2742 -0.5968
  919TIP3   OH224171   3.967   4.691  15.221  0.0011  0.1156  0.0247
  919TIP3    H124172   3.907   4.765  15.212  1.1433  1.1468  0.5904
  919TIP3    H224173   3.910   4.614  15.225 -1.2188  0.9695 -0.4014
  920TIP3   OH224174   0.233   2.630   0.151  0.2772  0.3075 -0.9650
  920TIP3    H124175   0.208   2.666   0.066  0.1597  2.9821  0.0764
  920TIP3    H224176   0.328   2.623   0.148  0.2295 -0.1574 -1.5002
  921TIP3   OH224177   5.609   5.266   5.169  0.5699 -0.2564 -0.5641
  921TIP3    H124178   5.581   5.319   5.244 -0.2081 -2.4233  0.7835
  921TIP3    H224179   5.669   5.201   5.207  0.3505 -1.2682 -1.8657
  922TIP3   OH224180   0.189   3.150  14.112 -0.2345 -0.0946 -0.3176
  922TIP3    H124181   0.168   3.075  14.055 -0.8129 -0.0661 -0.1479
  922TIP3    H224182   0.154   3.226  14.065 -0.5064 -0.0446 -0.0343
  923TIP3   OH224183   2.737   3.524  11.543  0.7493 -0.0155  0.2048
  923TIP3    H124184   2.787   3.562  11.471  2.1769  0.3020  1.3052
  923TIP3    H224185   2.798   3.462  11.584 -1.0532 -2.5207 -0.7048
  924TIP3   OH224186   2.830   3.553  15.518  0.3829 -0.3173  0.4044
  924TIP3    H124187   2.835   3.457  15.525  1.1806 -0.4991 -1.8405
  924TIP3    H224188   2.914   3.584  15.552 -0.2090 -0.3008  1.9522
  925TIP3   OH224189   1.313   2.442  12.008  0.2131 -0.2844 -0.0963
  925TIP3    H124190   1.408   2.429  11.999  0.6322  0.7604  2.0683
  925TIP3    H224191   1.294   2.417  12.099 -1.4040  0.5010 -0.1869
  926TIP3   OH224192   2.944   3.978  17.054  0.0174  0.8520  0.0401
  926TIP3    H124193   2.850   3.965  17.044  0.1759 -0.4960  0.2134
  926TIP3    H224194   2.984   3.895  17.027  1.3372  2.1442 -2.4018
  927TIP3   OH224195   2.963   2.474   0.749 -0.6885 -0.2369  0.9447
  927TIP3    H124196   2.948   2.422   0.828 -1.6325 -0.4200  0.6475
  927TIP3    H224197   3.055   2.502   0.757 -0.7607 -0.2669  2.0928
  928TIP3   OH224198   5.115   6.156   2.577  0.4624 -0.2548  0.3114
  928TIP3    H124199   5.023   6.179   2.586  0.4772 -0.1281  0.1318
  928TIP3    H224200   5.128   6.085   2.639  0.6248  0.7783  1.4886
  929TIP3   OH224201   6.591   4.950  14.137  0.0821  0.4946  0.0851
  929TIP3    H124202   6.609   4.870  14.088 -4.2591 -1.6740  1.4738
  929TIP3    H224203   6.641   4.941  14.218  1.9336  0.7482 -0.9758
  930TIP3   OH224204   4.053   0.174   4.104  0.4684 -0.3790 -0.1964
  930TIP3    H124205   4.070   0.107   4.038  1.2545  0.4054 -0.8214
  930TIP3    H224206   4.139   0.192   4.143  0.2305  0.0812  0.1412
  931TIP3   OH224207   2.292   6.662   5.142  0.4831 -0.2388  0.2149
  931TIP3    H124208   2.263   6.650   5.233  2.4134 -0.4703  0.8415
  931TIP3    H224209   2.365   6.723   5.148  0.2102  0.2736 -1.2923
  932TIP3   OH224210   1.117   2.818   0.058 -0.6137 -0.2324  0.1347
  932TIP3    H124211   1.152   2.729   0.053 -0.3823 -0.1129 -0.5146
  932TIP3    H224212   1.135   2.846   0.148  0.9061 -0.2144 -0.1376
  933TIP3   OH224213   4.081   0.033  14.903 -0.2997  0.0594  0.9229
  933TIP3    H124214   4.108   0.094  14.835 -1.8839  0.4126  0.5754
  933TIP3    H224215   4.163  -0.004  14.935  0.4956 -0.0934 -1.1316
  934TIP3   OH224216   5.548   5.225  10.313 -0.1483  0.1812 -0.4571
  934TIP3    H124217   5.537   5.320  10.324  0.3951  0.0018  2.1974
  934TIP3    H224218   5.478   5.187  10.366 -0.1385 -0.9159 -1.2069
  935TIP3   OH224219   3.503   3.184   4.479  0.2310 -0.1899  0.2375
  935TIP3    H124220   3.558   3.229   4.543 -0.7124  1.0952  0.1977
  935TIP3    H224221   3.422   3.235   4.477  0.2480 -0.1273 -2.0157
  936TIP3   OH224222   6.087   1.928  12.261  0.1315  0.1892  0.0503
  936TIP3    H124223   6.048   1.915  12.347 -0.8106 -0.1798 -0.4269
  936TIP3    H224224   6.176   1.959  12.280  0.9616 -2.5793  1.2176
  937TIP3   OH224225   3.210   2.821   3.242  0.9335 -0.1095  0.1069
  937TIP3    H124226   3.183   2.749   3.299 -1.3597 -0.9694 -1.8650
  937TIP3    H224227   3.254   2.778   3.168  1.0188  0.6706 -0.3134
  938TIP3   OH224228   2.242   3.940  15.164 -0.4012 -0.0877  0.2170
  938TIP3    H124229   2.318   3.937  15.106  2.0807 -0.6303  3.2311
  938TIP3    H224230   2.223   3.848  15.183 -0.8849  0.0959  0.6541
  939TIP3   OH224231   1.692   2.357  13.411 -0.0530  0.1289  0.5687
  939TIP3    H124232   1.762   2.299  13.438 -0.6003 -1.0620 -0.5112
  939TIP3    H224233   1.612   2.307  13.425 -0.5391  0.6105 -0.3740
  940TIP3   OH224234   5.943   5.374   5.956 -0.7376  0.3942  0.1658
  940TIP3    H124235   5.994   5.345   6.031  0.4430  0.5757 -0.5343
  940TIP3    H224236   5.893   5.448   5.988 -0.3860  0.3486  0.8316
  941TIP3   OH224237   3.395   6.261  12.554 -0.4488 -0.1800  0.5563
  941TIP3    H124238   3.305   6.231  12.552 -0.3541 -0.4317 -0.2884
  941TIP3    H224239   3.399   6.331  12.489 -0.3205  0.6994  1.4662
  942TIP3   OH224240   3.860   2.216  16.202 -0.2546 -0.1781  0.0428
  942TIP3    H124241   3.831   2.307  16.207  0.1641 -0.0889  1.3081
  942TIP3    H224242   3.939   2.214  16.256  1.6441 -0.6000 -2.5962
  943TIP3   OH224243   4.887   2.172  13.317 -0.3503  0.1968 -0.2190
  943TIP3    H124244   4.976   2.196  13.291  0.8139 -2.2917  1.1256
  943TIP3    H224245   4.876   2.211  13.404 -0.2383 -0.2105 -0.0214
  944TIP3   OH224246   0.805   4.883  17.055 -0.2633  0.2602  0.4105
  944TIP3    H124247   0.791   4.808  16.997 -0.6394 -0.2327  1.1164
  944TIP3    H224248   0.717   4.916  17.072 -0.1430  0.4963  0.5764
  945TIP3   OH224249   5.230   5.097   1.719  0.7481  0.8305  0.0489
  945TIP3    H124250   5.138   5.121   1.733  0.0068 -1.8959  0.5193
  945TIP3    H224251   5.261   5.072   1.806  1.6729  0.8839 -0.2565
  946TIP3   OH224252   6.085   1.365   3.056 -0.6472  0.1042  0.0997
  946TIP3    H124253   6.134   1.306   3.113  2.2348  0.9341 -1.3266
  946TIP3    H224254   6.062   1.311   2.980  2.1324  0.6557 -1.2825
  947TIP3   OH224255   6.040   4.164   5.585  0.0267 -0.1459 -0.0187
  947TIP3    H124256   6.018   4.094   5.646  1.2310 -0.7571 -0.2472
  947TIP3    H224257   6.122   4.200   5.619  0.8444 -0.6581 -1.3866
  948TIP3   OH224258   1.459   0.858  12.916 -0.4535  0.4767 -0.0661
  948TIP3    H124259   1.431   0.878  13.005 -0.6025 -0.8932  0.2186
  948TIP3    H224260   1.377   0.849  12.867 -0.4026  0.2815 -0.1179
  949TIP3   OH224261   2.811   5.643   1.247 -0.3066  0.5646 -0.2013
  949TIP3    H124262   2.741   5.705   1.230 -1.1632  0.3051  2.0692
  949TIP3    H224263   2.886   5.679   1.200 -0.7021  3.4608  1.1470
  950TIP3   OH224264   3.827   4.850   5.816 -0.5105  0.6792  0.0220
  950TIP3    H124265   3.877   4.886   5.743 -0.5290 -1.1948 -1.0008
  950TIP3    H224266   3.738   4.883   5.803 -0.2453  1.3740 -0.0538
  951TIP3   OH224267   4.861   2.343   2.318 -0.3461 -0.1957 -0.7922
  951TIP3    H124268   4.911   2.333   2.237  0.6523  1.4459 -0.4179
  951TIP3    H224269   4.806   2.420   2.303  0.2109  0.4156  0.2633
  952TIP3   OH224270   4.436   3.642  14.195 -1.0336 -1.0102 -0.5970
  952TIP3    H124271   4.390   3.603  14.121 -1.5205  0.2207 -0.9759
  952TIP3    H224272   4.418   3.736  14.187 -0.5879 -0.7928  0.7404
  953TIP3   OH224273   0.400   1.299  12.879  0.0559  0.0342 -0.1039
  953TIP3    H124274   0.458   1.274  12.806  0.0728  0.7064 -0.3311
  953TIP3    H224275   0.312   1.297  12.841  0.1792  1.9325 -0.6321
  954TIP3   OH224276   4.982   5.713   3.704  0.0914 -0.3600 -0.5467
  954TIP3    H124277   4.988   5.721   3.609 -0.6065 -1.8303 -0.7323
  954TIP3    H224278   5.059   5.663   3.729  0.2968  0.0616 -0.3210
  955TIP3   OH224279   1.266   5.345  12.406  0.2738  0.5860 -0.0762
  955TIP3    H124280   1.212   5.419  12.381 -0.1428  0.3179  0.0245
  955TIP3    H224281   1.278   5.295  12.324 -1.0323 -0.2538  0.2169
  956TIP3   OH224282   3.491   3.275   3.893  0.3072  0.4810 -0.1556
  956TIP3    H124283   3.506   3.187   3.857 -0.2787  0.7670 -1.1189
  956TIP3    H224284   3.430   3.316   3.832 -1.0599  0.8470  1.3904
  957TIP3   OH224285   4.815   5.674  11.532 -0.5131  0.2696 -0.0174
  957TIP3    H124286   4.848   5.757  11.566  0.5258  0.7060 -1.9517
  957TIP3    H224287   4.887   5.639  11.479 -1.4384 -1.1958 -0.3751
  958TIP3   OH224288   1.972   0.194  17.069 -0.2391 -0.0236 -0.1162
  958TIP3    H124289   1.960   0.258  17.140 -1.7722  1.5548 -1.7270
  958TIP3    H224290   2.037   0.235  17.011 -0.3224 -0.4941 -0.5416
  959TIP3   OH224291   2.000   3.442   0.032  0.1641 -0.1497 -0.1629
  959TIP3    H124292   2.018   3.530  -0.003  1.3319 -0.4428 -0.3396
  959TIP3    H224293   1.989   3.455   0.126  1.6983  0.0328  0.0216
  960TIP3   OH224294   3.513   5.335  16.945 -0.1745  0.2278  0.4392
  960TIP3    H124295   3.508   5.422  16.985 -0.2639  0.6178 -0.4060
  960TIP3    H224296   3.607   5.318  16.937 -0.1104 -0.6421  2.4622
  961TIP3   OH224297   0.874   4.499   0.521  0.1185 -0.4105 -0.2317
  961TIP3    H124298   0.892   4.553   0.444 -0.5335  0.3058  0.0958
  961TIP3    H224299   0.864   4.562   0.593 -3.1990 -0.6715 -0.2783
  962TIP3   OH224300   0.880   2.560  15.430 -0.1846 -0.2709 -0.5070
  962TIP3    H124301   0.913   2.528  15.514 -1.6067  2.5891  1.2911
  962TIP3    H224302   0.812   2.497  15.406 -0.9242 -0.2805  1.4074
  963TIP3   OH224303   2.488   1.233  13.782  0.1988  0.1453  0.2659
  963TIP3    H124304   2.475   1.314  13.733  0.6800  0.4171  0.5714
  963TIP3    H224305   2.475   1.258  13.874  0.7025 -0.0342  0.3946
  964TIP3   OH224306   2.352   3.559  14.947 -0.2403  0.1040 -0.1880
  964TIP3    H124307   2.438   3.518  14.937  0.3312  1.1781  0.0816
  964TIP3    H224308   2.355   3.634  14.888 -0.4557  0.9506  0.8383
  965TIP3   OH224309   0.846   6.663   2.927 -0.3864 -0.1303 -0.2345
  965TIP3    H124310   0.824   6.615   2.848  0.9524 -1.6663  0.2759
  965TIP3    H224311   0.924   6.713   2.904  0.3225 -0.9882  0.2205
  966TIP3   OH224312   1.020   5.545  15.109  0.6483  0.5720  0.2435
  966TIP3    H124313   1.011   5.640  15.101 -1.0515  0.4809  0.6438
  966TIP3    H224314   0.965   5.523  15.185  0.3156 -0.8195 -0.3859
  967TIP3   OH224315   0.542   4.831   0.594 -0.4952  0.1261  0.4307
  967TIP3    H124316   0.599   4.874   0.658  1.2058  1.2763 -1.7481
  967TIP3    H224317   0.507   4.755   0.641  2.9703 -0.7743  1.8961
  968TIP3   OH224318   3.649   2.218  15.193 -0.1888  0.0153  1.2468
  968TIP3    H124319   3.630   2.279  15.122  2.0424 -1.0108 -0.3518
  968TIP3    H224320   3.697   2.271  15.257  0.5934  0.2486  0.4832
  969TIP3   OH224321   1.786   5.987  14.113 -0.0627 -0.2166 -0.1123
  969TIP3    H124322   1.846   5.980  14.039  1.2115  1.4714  0.6929
  969TIP3    H224323   1.705   5.948  14.081  1.1503 -1.7168 -1.5594
  970TIP3   OH224324   5.586   1.721  12.077 -0.4664  0.0174 -0.2527
  970TIP3    H124325   5.677   1.749  12.078 -0.8589  1.3899 -1.0174
  970TIP3    H224326   5.562   1.720  11.984 -1.7306  1.4149  0.0248
  971TIP3   OH224327   5.067   6.540   6.736 -0.1036  0.4230 -0.1216
  971TIP3    H124328   5.108   6.470   6.685 -0.9462 -1.5428  1.7835
  971TIP3    H224329   4.985   6.502   6.768 -0.4566  2.1943  1.2253
  972TIP3   OH224330   5.899   5.102   2.498  0.4036 -0.4211  0.2900
  972TIP3    H124331   5.952   5.043   2.446 -0.3399  1.3256 -2.7217
  972TIP3    H224332   5.815   5.056   2.509  1.3906 -1.8750  2.3489
  973TIP3   OH224333   5.058   2.812  15.087  0.0192 -0.2215  0.0918
  973TIP3    H124334   5.043   2.743  15.022 -1.0516  0.4381 -0.3804
  973TIP3    H224335   4.985   2.872  15.076  1.3177  1.3937 -0.0052
  974TIP3   OH224336   2.800   1.037   4.136  0.0758  0.8624  0.0583
  974TIP3    H124337   2.787   0.943   4.127  0.5405  0.7984  0.0282
  974TIP3    H224338   2.894   1.047   4.153 -0.2646  1.1669  2.0615
  975TIP3   OH224339   4.233   3.772   6.726  0.2468 -0.5119  0.2298
  975TIP3    H124340   4.259   3.821   6.804 -0.6554 -0.5272  0.5560
  975TIP3    H224341   4.198   3.839   6.667 -1.1124 -0.7567  0.7280
  976TIP3   OH224342   6.215   0.709  16.942 -0.0765  0.2504  0.4043
  976TIP3    H124343   6.127   0.691  16.974 -0.7114  0.9895 -0.8524
  976TIP3    H224344   6.270   0.641  16.981 -1.5525 -1.4713 -0.3880
  977TIP3   OH224345   1.440   2.114  14.798  0.1865  0.6445  0.6284
  977TIP3    H124346   1.501   2.054  14.756 -0.6552 -0.4885  0.9706
  977TIP3    H224347   1.455   2.101  14.892 -0.1339  0.8411  0.7079
  978TIP3   OH224348   5.986   3.304  16.121  0.3705  0.6794 -0.4355
  978TIP3    H124349   5.949   3.221  16.089 -1.0926  0.4869  1.5531
  978TIP3    H224350   5.909   3.357  16.144  1.3012  1.6606  0.5362
  979TIP3   OH224351   3.281   3.054  14.837  0.2414  0.2298  0.4134
  979TIP3    H124352   3.265   3.052  14.931  0.0959  0.9078  0.4082
  979TIP3    H224353   3.259   3.143  14.811  0.9415  0.2482 -0.1424
  980TIP3   OH224354   2.294   5.136  15.964 -0.4657 -0.2006 -0.1799
  980TIP3    H124355   2.305   5.203  16.031 -0.3170 -1.2564  0.8976
  980TIP3    H224356   2.307   5.181  15.882  0.8435  0.8455  0.5746
  981TIP3   OH224357   0.806   2.408   3.382  0.1300 -0.0460  0.4787
  981TIP3    H124358   0.813   2.421   3.477  0.6054 -1.8977  0.7445
  981TIP3    H224359   0.749   2.478   3.352 -2.1687 -0.9000  2.5336
  982TIP3   OH224360   3.399   0.312   5.907 -0.0656 -0.1847  0.1487
  982TIP3    H124361   3.414   0.258   5.829  0.4553 -0.8648  0.7065
  982TIP3    H224362   3.452   0.271   5.975 -2.3831 -1.1018  1.5324
  983TIP3   OH224363   4.593   3.018   6.015 -0.1747  0.3485  0.0095
  983TIP3    H124364   4.605   3.101   5.968 -0.6612  1.0121  1.0313
  983TIP3    H224365   4.514   3.030   6.067  0.7023 -0.0935  1.5307
  984TIP3   OH224366   3.541   1.538  15.692  0.2086  0.4635 -0.1758
  984TIP3    H124367   3.592   1.465  15.657  0.1156  0.5509 -0.5007
  984TIP3    H224368   3.474   1.498  15.747 -0.4203  0.2434 -1.0791
  985TIP3   OH224369   2.631   3.448  14.172  0.1689  0.1958  0.7967
  985TIP3    H124370   2.643   3.542  14.164  0.2149  0.2116  1.0492
  985TIP3    H224371   2.716   3.411  14.149  0.1203  0.2102  0.5932
  986TIP3   OH224372   3.578   1.624   0.920 -0.1343 -0.4468  0.0840
  986TIP3    H124373   3.668   1.653   0.932 -0.4327  0.5228  0.0518
  986TIP3    H224374   3.552   1.592   1.007  0.0498 -0.1831  0.2377
  987TIP3   OH224375   6.143   1.090  13.311 -0.2764 -0.0129 -0.3147
  987TIP3    H124376   6.170   1.045  13.231  1.5929 -0.7847  0.6924
  987TIP3    H224377   6.093   1.024  13.360  0.7719 -0.4194  0.2616
  988TIP3   OH224378   2.121   2.546   2.105  0.1908  0.1829  0.5036
  988TIP3    H124379   2.075   2.625   2.133 -1.5968 -1.1155  1.4312
  988TIP3    H224380   2.151   2.565   2.017  2.2383  2.8619  1.6580
  989TIP3   OH224381   1.631   1.059  11.266  0.6427 -0.0737  0.1849
  989TIP3    H124382   1.589   0.976  11.247  0.9555  0.0000 -0.8731
  989TIP3    H224383   1.711   1.035  11.312  1.6617 -0.5085 -1.7091
  990TIP3   OH224384   4.254   4.041   5.330 -0.6150  0.5092  0.0968
  990TIP3    H124385   4.240   3.985   5.253  2.9384 -0.7995  0.2298
  990TIP3    H224386   4.267   4.129   5.294  0.6114 -0.0176 -0.8020
  991TIP3   OH224387   1.012   3.372   1.537 -0.5762 -0.5766  0.6713
  991TIP3    H124388   1.028   3.396   1.628 -0.3310 -3.0153  1.3360
  991TIP3    H224389   1.087   3.317   1.514 -0.6078  0.0416 -1.0532
  992TIP3   OH224390   0.843   5.398  14.958  0.5493  0.5893 -0.5785
  992TIP3    H124391   0.910   5.460  14.984  1.4659 -0.5513 -0.1437
  992TIP3    H224392   0.767   5.419  15.013  0.4629  1.9987 -1.2032
  993TIP3   OH224393   4.110   1.061  12.948 -0.1015  0.1670 -0.3573
  993TIP3    H124394   4.086   1.096  12.862 -0.3550 -1.8025 -1.1545
  993TIP3    H224395   4.026   1.046  12.992 -0.0497 -0.2964 -0.4091
  994TIP3   OH224396   0.224   4.749  12.502  0.8174  0.3624 -0.3077
  994TIP3    H124397   0.297   4.732  12.442  1.0940 -1.8106  0.5733
  994TIP3    H224398   0.265   4.757  12.588  0.0347 -1.0679  0.2218
  995TIP3   OH224399   2.606   0.547   1.427 -0.2919 -0.5860 -0.0757
  995TIP3    H124400   2.606   0.523   1.520  1.6024 -1.8745 -0.3595
  995TIP3    H224401   2.670   0.617   1.420 -0.4149 -0.5040 -0.4264
  996TIP3   OH224402   6.269   5.872   4.223  0.3671 -0.2787 -0.1596
  996TIP3    H124403   6.213   5.795   4.237 -1.3133  1.1761  1.5559
  996TIP3    H224404   6.354   5.847   4.260  0.4052 -1.8699 -1.1824
  997TIP3   OH224405   0.898   0.136  12.672 -0.0127  0.5218 -0.0795
  997TIP3    H124406   0.987   0.167  12.689 -0.1089  0.2151  1.0139
  997TIP3    H224407   0.882   0.161  12.581  1.0770  0.8504 -0.2005
  998TIP3   OH224408   1.671   2.247  14.362 -0.1694  0.1349  0.2105
  998TIP3    H124409   1.689   2.319  14.424  1.1420  2.1212 -2.2691
  998TIP3    H224410   1.725   2.175  14.394 -0.3259  0.7266  1.9463
  999TIP3   OH224411   6.590   1.064  12.253 -0.1645 -0.2712  0.4844
  999TIP3    H124412   6.556   1.034  12.169  0.6567 -0.8556  0.3547
  999TIP3    H224413   6.658   1.127  12.230  1.3959 -1.8362  0.6416
 1000TIP3   OH224414   6.174   6.566  16.684 -0.5096  0.1943 -0.3433
 1000TIP3    H124415   6.150   6.566  16.777 -0.3199 -1.6612 -0.2545
 1000TIP3    H224416   6.122   6.494  16.647 -0.0917  0.4993 -1.5293
 1001TIP3   OH224417   5.463   1.822   5.284 -0.2164 -0.5259  0.0939
 1001TIP3    H124418   5.382   1.845   5.238  0.3045  0.7808 -0.2183
 1001TIP3    H224419   5.446   1.844   5.375  0.0574  0.5851 -0.1043
 1002TIP3   OH224420   4.112   1.825   3.312 -0.0607 -0.0564 -0.2098
 1002TIP3    H124421   4.029   1.847   3.354 -1.0122 -1.3627 -1.2854
 1002TIP3    H224422   4.163   1.781   3.380  0.5421  2.3018  0.9827
 1003TIP3   OH224423   5.116   2.225   4.417 -0.0016 -0.0397  0.1351
 1003TIP3    H124424   5.200   2.235   4.462  0.4077 -2.5937  0.0375
 1003TIP3    H224425   5.138   2.233   4.324 -0.3068  1.7119  0.1711
 1004TIP3   OH224426   2.452   4.904  17.073 -0.6530 -0.5520  0.0020
 1004TIP3    H124427   2.401   4.828  17.101  0.9081 -2.0657 -1.0273
 1004TIP3    H224428   2.477   4.883  16.983  1.3305  0.3462  0.3049
 1005TIP3   OH224429   3.736   2.034  13.406  0.4884 -0.2233  0.3661
 1005TIP3    H124430   3.750   1.959  13.465 -0.1663  1.5511  2.9600
 1005TIP3    H224431   3.656   2.074  13.438  1.2033  2.0020 -0.4802
 1006TIP3   OH224432   3.351   0.868   3.345 -0.6889  0.1888 -0.3674
 1006TIP3    H124433   3.288   0.929   3.306 -1.3944  0.9962  1.8563
 1006TIP3    H224434   3.433   0.916   3.345 -0.6523  0.1338 -0.9399
 1007TIP3   OH224435   0.858   3.190   2.955  0.2529 -0.3420  0.4716
 1007TIP3    H124436   0.951   3.165   2.949  0.1151 -0.6678 -0.6824
 1007TIP3    H224437   0.858   3.269   3.008  1.5130  1.0999 -1.5229
 1008TIP3   OH224438   6.609   0.632  12.514 -0.1275 -0.0685 -0.2453
 1008TIP3    H124439   6.606   0.681  12.432 -1.9455 -0.6004 -0.5422
 1008TIP3    H224440   6.523   0.590  12.520  0.4336 -1.0867  1.2987
 1009TIP3   OH224441   1.453   3.935  14.771 -0.4851 -0.5682 -0.6570
 1009TIP3    H124442   1.366   3.906  14.796 -0.8106  0.3549 -0.6566
 1009TIP3    H224443   1.513   3.876  14.817 -1.1062 -0.7528 -0.0664
 1010TIP3   OH224444   6.610   1.482   0.970  0.1136  0.5179 -0.0847
 1010TIP3    H124445   6.641   1.391   0.970 -1.9592 -0.2586 -1.3837
 1010TIP3    H224446   6.562   1.490   1.053 -0.6925  0.0145 -0.4839
 1011TIP3   OH224447   5.332   4.926   5.055 -0.1901  0.4168 -0.8439
 1011TIP3    H124448   5.288   5.003   5.092 -1.2603 -0.2054 -0.7617
 1011TIP3    H224449   5.425   4.947   5.058 -0.2253  0.5739  1.8726
 1012TIP3   OH224450   0.121   4.087   5.566  0.5063 -0.4790  0.2734
 1012TIP3    H124451   0.164   4.002   5.574  0.9462 -0.1101  2.3644
 1012TIP3    H224452   0.110   4.099   5.472  2.6186 -1.7704 -0.2126
 1013TIP3   OH224453   5.113   1.574   5.583  0.4087  0.6038 -0.1702
 1013TIP3    H124454   5.061   1.585   5.663  0.3594  0.6654 -0.2107
 1013TIP3    H224455   5.063   1.620   5.515 -0.7159 -1.3462 -0.7360
 1014TIP3   OH224456   6.042   3.896   2.028  0.4249  0.2043  0.1395
 1014TIP3    H124457   5.955   3.872   2.061 -0.5817  0.5121 -2.0517
 1014TIP3    H224458   6.092   3.814   2.030 -0.4456 -0.3418 -0.0167
 1015TIP3   OH224459   4.835   0.683  10.418 -0.0807  0.0965  0.1686
 1015TIP3    H124460   4.768   0.751  10.428  0.2978  0.3389  1.1300
 1015TIP3    H224461   4.914   0.721  10.457  0.6720 -0.1228 -1.1058
 1016TIP3   OH224462   1.744   1.375   3.100 -0.2142 -0.6146 -0.7196
 1016TIP3    H124463   1.730   1.453   3.047  0.5313  0.0921  0.0743
 1016TIP3    H224464   1.837   1.377   3.122 -0.2855 -1.4595 -0.2784
 1017TIP3   OH224465   4.502   2.621   2.935 -0.2648 -0.4779 -0.1901
 1017TIP3    H124466   4.533   2.551   2.993 -1.3575  0.3053  1.4072
 1017TIP3    H224467   4.448   2.677   2.991  1.3354  2.2137 -1.1491
 1018TIP3   OH224468   3.970   5.750  11.750 -0.3225 -0.1248 -0.0787
 1018TIP3    H124469   4.051   5.700  11.761 -0.2820 -0.1130 -0.3118
 1018TIP3    H224470   3.952   5.745  11.656 -0.0358  0.7440 -0.1882
 1019TIP3   OH224471   1.286   0.677  10.863 -0.1809 -0.0246  0.4385
 1019TIP3    H124472   1.196   0.652  10.882  0.3114 -2.5589 -0.1333
 1019TIP3    H224473   1.284   0.709  10.773 -0.6119  0.6888  0.6952
 1020TIP3   OH224474   1.300   0.427  15.471  0.5596  0.4364  0.0092
 1020TIP3    H124475   1.379   0.412  15.419  1.1657  0.1638  0.9720
 1020TIP3    H224476   1.262   0.340  15.483 -0.3355  0.6593 -1.1176
 1021TIP3   OH224477   5.189   2.236   3.343 -0.2701  0.5739  0.1509
 1021TIP3    H124478   5.262   2.280   3.300 -0.3913  0.4895 -0.1484
 1021TIP3    H224479   5.229   2.179   3.408  0.0343 -0.5793 -0.9971
 1022TIP3   OH224480   1.212   1.651   0.208 -0.1769 -0.1894  0.0218
 1022TIP3    H124481   1.205   1.744   0.233 -0.9479 -0.4310  0.7644
 1022TIP3    H224482   1.145   1.640   0.141  0.1260 -0.1492 -0.2934
 1023TIP3   OH224483   3.771   4.440   4.636  0.7622 -0.4518  0.3235
 1023TIP3    H124484   3.767   4.370   4.571  2.8805  1.7162 -2.4193
 1023TIP3    H224485   3.705   4.504   4.608 -0.0228 -0.5640  1.8222
 1024TIP3   OH224486   2.138   0.176   2.226  0.4850  0.0049 -0.8921
 1024TIP3    H124487   2.175   0.241   2.166  0.6999  1.0376  0.3009
 1024TIP3    H224488   2.215   0.137   2.269  0.3089  0.1937 -0.3916
 1025TIP3   OH224489   3.891   3.414  12.000  0.0900 -0.2134 -0.4606
 1025TIP3    H124490   3.821   3.355  12.030 -0.4171  0.9301  0.7110
 1025TIP3    H224491   3.944   3.360  11.941 -0.2032 -1.9337  0.7591
 1026TIP3   OH224492   4.546   4.861  15.473 -0.4272 -0.1417 -0.0490
 1026TIP3    H124493   4.601   4.887  15.547 -0.1737  0.0159 -0.2921
 1026TIP3    H224494   4.457   4.883  15.500 -0.1085  2.4235 -0.8350
 1027TIP3   OH224495   0.389   0.914  11.801 -0.2519 -0.4262 -0.0799
 1027TIP3    H124496   0.420   0.953  11.882  1.8201  0.9632 -1.4411
 1027TIP3    H224497   0.468   0.883  11.757 -1.4068 -1.9565 -1.1859
 1028TIP3   OH224498   3.264   6.353   3.871 -0.1394  0.5935  0.3175
 1028TIP3    H124499   3.251   6.372   3.778 -0.4908  1.4073  0.5177
 1028TIP3    H224500   3.338   6.408   3.896  0.5988 -0.3719  0.2987
 1029TIP3   OH224501   6.521   3.791   2.586 -0.2892  0.2197  0.2243
 1029TIP3    H124502   6.516   3.708   2.633 -0.0790 -1.6478 -2.8377
 1029TIP3    H224503   6.609   3.825   2.607  0.5255 -1.4918 -0.2441
 1030TIP3   OH224504   3.841   6.731  12.214 -0.0145 -0.3228 -0.0702
 1030TIP3    H124505   3.777   6.732  12.143 -1.1291  1.1287  0.8672
 1030TIP3    H224506   3.894   6.653  12.198 -3.3153 -2.8825  0.2121
 1031TIP3   OH224507   5.148   2.631  14.443 -0.2573 -0.1063  1.1375
 1031TIP3    H124508   5.189   2.636  14.529  0.0974 -1.4739  1.0795
 1031TIP3    H224509   5.221   2.634  14.381 -0.3242 -1.1073  0.9814
 1032TIP3   OH224510   0.424   6.744   3.958  0.3296 -0.3110 -0.1220
 1032TIP3    H124511   0.493   6.773   3.898  0.3506  0.8060  0.3993
 1032TIP3    H224512   0.442   6.652   3.973  0.6262 -0.4850 -1.4254
 1033TIP3   OH224513   0.643   5.269   5.662 -0.4639  0.4558  0.1748
 1033TIP3    H124514   0.712   5.215   5.623  0.3764 -0.3266  2.5627
 1033TIP3    H224515   0.574   5.207   5.685 -1.8274  1.1762 -1.7711
 1034TIP3   OH224516   2.507   2.270  14.091 -0.6586  0.4785 -0.7196
 1034TIP3    H124517   2.594   2.308  14.101 -0.2878 -0.1352 -1.4816
 1034TIP3    H224518   2.453   2.342  14.058 -0.8791  1.3362  1.4041
 1035TIP3   OH224519   4.646   5.506   5.594 -0.1658 -0.0697 -0.1484
 1035TIP3    H124520   4.659   5.495   5.500 -0.0796  2.9942 -0.6071
 1035TIP3    H224521   4.557   5.476   5.610  0.7168 -3.2171 -0.6078
 1036TIP3   OH224522   0.326   1.892   5.496 -0.1602  0.1186  0.0980
 1036TIP3    H124523   0.287   1.973   5.531  0.7446 -0.1421  1.8072
 1036TIP3    H224524   0.290   1.822   5.550 -0.0554 -0.5275 -0.6392
 1037TIP3   OH224525   3.946   0.743   5.172 -0.1234 -0.1675 -0.1606
 1037TIP3    H124526   3.944   0.652   5.140 -0.1923 -0.1904 -0.0917
 1037TIP3    H224527   3.858   0.758   5.205 -0.9808  0.8426 -2.6973
 1038TIP3   OH224528   1.826   2.938  11.765  0.5055  0.1981  0.3245
 1038TIP3    H124529   1.837   2.864  11.705  0.1521 -0.1897  0.7282
 1038TIP3    H224530   1.912   2.951  11.803  0.7264  0.4292 -0.2476
 1039TIP3   OH224531   6.551   4.408  10.867 -0.0418 -0.2233 -0.1187
 1039TIP3    H124532   6.641   4.392  10.837  0.9597  2.0016  1.4761
 1039TIP3    H224533   6.547   4.367  10.953 -0.5542 -0.2299 -0.1427
 1040TIP3   OH224534   3.678   4.992  12.658  0.2550  0.0310 -0.4470
 1040TIP3    H124535   3.608   4.946  12.704  0.8056 -0.0811  0.3002
 1040TIP3    H224536   3.744   4.924  12.641  1.0362  0.4945  0.5884
 1041TIP3   OH224537   2.286   1.148  15.630 -0.0032 -0.2359  0.1676
 1041TIP3    H124538   2.199   1.180  15.653  0.6417  1.0565  0.9752
 1041TIP3    H224539   2.317   1.102  15.709  0.4302  0.2135  0.2703
 1042TIP3   OH224540   3.072   5.455   6.380  0.0095  0.1445  0.6685
 1042TIP3    H124541   3.032   5.369   6.391 -1.9187  0.9941  0.6391
 1042TIP3    H224542   3.105   5.478   6.467  1.3148 -0.9558  0.4942
 1043TIP3   OH224543   3.633   6.386   1.009 -0.4859  0.0958 -0.2062
 1043TIP3    H124544   3.713   6.439   1.011 -1.9407  2.3971  0.3152
 1043TIP3    H224545   3.648   6.323   0.939  1.7640  0.4740 -0.1355
 1044TIP3   OH224546   3.206   3.369  11.793  0.4101  0.4227  0.7739
 1044TIP3    H124547   3.231   3.282  11.763 -0.5096 -0.1087  1.4592
 1044TIP3    H224548   3.216   3.425  11.717 -0.2779 -0.5529 -0.0643
 1045TIP3   OH224549   3.006   0.247   3.477 -0.2992  0.5101  0.0407
 1045TIP3    H124550   3.064   0.269   3.404  0.1652  1.6592  0.7212
 1045TIP3    H224551   2.922   0.285   3.453 -0.2004  0.7101  0.0051
 1046TIP3   OH224552   2.288   6.530  16.992 -0.5385 -0.5226 -0.3613
 1046TIP3    H124553   2.237   6.464  17.039 -2.4594  0.4128 -1.0457
 1046TIP3    H224554   2.378   6.496  16.993 -0.9513 -1.7355  1.7651
 1047TIP3   OH224555   2.076   1.903   2.947  0.0052 -0.0073 -0.5270
 1047TIP3    H124556   2.143   1.923   2.882 -1.9602  0.7515 -2.4303
 1047TIP3    H224557   2.059   1.987   2.990 -0.6032  0.0876 -0.9423
 1048TIP3   OH224558   0.635   4.274  11.395  0.5636 -0.6888  0.0651
 1048TIP3    H124559   0.700   4.211  11.365 -0.0442  0.1256 -3.4691
 1048TIP3    H224560   0.612   4.323  11.316 -0.5857  2.5177  2.1863
 1049TIP3   OH224561   3.480   4.530   6.210  0.0813  0.5458 -0.2374
 1049TIP3    H124562   3.478   4.505   6.303 -0.2513 -0.1495 -0.4215
 1049TIP3    H224563   3.420   4.604   6.204 -1.0032 -0.3008 -0.1369
 1050TIP3   OH224564   0.267   5.912   3.949 -0.3691  0.0894  0.2758
 1050TIP3    H124565   0.269   6.006   3.967 -2.0596 -0.0116  1.2462
 1050TIP3    H224566   0.329   5.900   3.877 -0.5126  2.0291 -0.2347
 1051TIP3   OH224567   1.252   5.755   1.521  0.4951 -0.0709 -0.1214
 1051TIP3    H124568   1.287   5.692   1.458  0.5899 -0.0236 -0.1164
 1051TIP3    H224569   1.329   5.791   1.565  0.4450  0.0876 -0.1613
 1052TIP3   OH224570   3.324   0.560  12.319  0.6054 -0.6372  0.1582
 1052TIP3    H124571   3.258   0.505  12.362  0.9080 -0.5145  0.7843
 1052TIP3    H224572   3.395   0.499  12.298 -0.6847 -1.3031 -2.7684
 1053TIP3   OH224573   1.919   6.502  14.635 -0.0518 -0.3082 -0.1111
 1053TIP3    H124574   1.940   6.516  14.727  1.6695 -0.4034 -0.4699
 1053TIP3    H224575   1.829   6.535  14.626  0.0629  0.4966  1.3928
 1054TIP3   OH224576   0.657   4.195   4.436  0.4232  0.6538  0.2246
 1054TIP3    H124577   0.713   4.159   4.504  0.7038  0.1433 -0.2699
 1054TIP3    H224578   0.603   4.122   4.407  0.3934  0.8345 -0.1863
 1055TIP3   OH224579   3.104   0.830  13.581 -0.1659 -0.0903  0.1911
 1055TIP3    H124580   3.062   0.865  13.502 -0.9068 -1.4256 -0.0305
 1055TIP3    H224581   3.044   0.763  13.613 -0.0184  0.6235  2.0855
 1056TIP3   OH224582   2.411   4.327  15.567  0.3720 -0.0945 -0.3942
 1056TIP3    H124583   2.506   4.316  15.556  0.4936 -1.1503  1.3452
 1056TIP3    H224584   2.373   4.259  15.511  0.6954 -0.6300  0.0332
 1057TIP3   OH224585   2.039   2.863  13.658 -0.7104 -0.2752 -0.1252
 1057TIP3    H124586   2.088   2.939  13.689 -0.9793 -0.2895  0.3407
 1057TIP3    H224587   1.954   2.869  13.701 -1.0913 -0.3039 -0.8513
 1058TIP3   OH224588   4.633   0.636   6.653 -0.4342 -0.3030  0.2461
 1058TIP3    H124589   4.664   0.647   6.743 -1.8627  1.3217  0.5955
 1058TIP3    H224590   4.650   0.544   6.633  1.7290 -0.2213  1.4423
 1059TIP3   OH224591   4.165   6.051   1.184 -0.1401 -0.2919  0.0491
 1059TIP3    H124592   4.090   6.110   1.192 -0.3921 -0.5972 -0.0331
 1059TIP3    H224593   4.146   5.981   1.245 -0.6854 -1.1661 -1.0768
 1060TIP3   OH224594   1.219   0.335   1.429 -0.0883  0.2767  0.3793
 1060TIP3    H124595   1.202   0.295   1.345 -0.2453 -2.2933  1.5516
 1060TIP3    H224596   1.276   0.273   1.475  1.6911  2.5309  1.4539
 1061TIP3   OH224597   0.309   2.232   5.309  0.3139 -0.2088 -0.0746
 1061TIP3    H124598   0.350   2.316   5.289  0.5898 -0.4100 -0.3456
 1061TIP3    H224599   0.299   2.233   5.405 -0.6456  0.5743 -0.1690
 1062TIP3   OH224600   3.781   6.594   0.049 -0.0341 -0.0677  0.1840
 1062TIP3    H124601   3.733   6.535  -0.009  0.6853  1.9969 -2.7353
 1062TIP3    H224602   3.713   6.648   0.090 -0.4845 -0.8257  0.4521
 1063TIP3   OH224603   5.053   4.570  16.689 -0.8571  0.5451 -0.0588
 1063TIP3    H124604   5.113   4.635  16.726 -1.5949  1.2713 -0.1092
 1063TIP3    H224605   4.974   4.619  16.668 -2.1517 -0.6928  1.6238
 1064TIP3   OH224606   1.733   2.545  13.820  0.4339  0.0263 -0.9020
 1064TIP3    H124607   1.686   2.478  13.771  1.6555 -0.2615 -1.7473
 1064TIP3    H224608   1.824   2.538  13.789  0.5800  2.1543 -1.1262
 1065TIP3   OH224609   1.096   2.217  11.480  0.1596 -0.4116 -0.0765
 1065TIP3    H124610   1.167   2.241  11.420 -0.2491  0.7620 -0.1100
 1065TIP3    H224611   1.140   2.203  11.564  0.4595  0.1356 -0.1389
 1066TIP3   OH224612   2.073   0.128   3.753  0.4129 -0.2142 -0.3279
 1066TIP3    H124613   1.991   0.127   3.703 -0.7022 -1.9396  1.3914
 1066TIP3    H224614   2.067   0.206   3.808 -0.5778 -0.8474  0.4970
 1067TIP3   OH224615   4.375   1.439  15.137 -0.3126 -0.2900 -0.0207
 1067TIP3    H124616   4.351   1.349  15.113 -1.2039  0.1601 -0.8804
 1067TIP3    H224617   4.357   1.445  15.230  0.3007 -1.1662  0.1725
 1068TIP3   OH224618   3.212   0.438  14.653  0.5650 -0.1646 -0.2207
 1068TIP3    H124619   3.142   0.494  14.620  1.0916  0.3074 -0.5622
 1068TIP3    H224620   3.240   0.481  14.734  1.1724  0.2529 -0.6374
 1069TIP3   OH224621   0.417   1.361   3.185 -0.3903 -0.3493  0.0623
 1069TIP3    H124622   0.459   1.443   3.209 -1.6893  0.5349 -0.5925
 1069TIP3    H224623   0.461   1.335   3.104 -0.9048  0.4567 -0.4981
 1070TIP3   OH224624   2.642   1.570   1.738  0.7456  0.1830  0.1238
 1070TIP3    H124625   2.715   1.534   1.789  1.0644 -0.3985 -0.7273
 1070TIP3    H224626   2.665   1.553   1.647  0.2394  1.3201 -0.2319
 1071TIP3   OH224627   2.962   3.637   2.460  0.1118 -0.4655  0.1458
 1071TIP3    H124628   2.994   3.571   2.521  1.6223  1.3650  1.4623
 1071TIP3    H224629   2.928   3.587   2.386  1.7535 -2.6855  0.7772
 1072TIP3   OH224630   3.430   1.842   1.651 -0.0006  0.4827 -0.1026
 1072TIP3    H124631   3.501   1.906   1.647  0.2249  0.2556  0.2024
 1072TIP3    H224632   3.449   1.791   1.729 -0.7584  0.7188  0.2434
 1073TIP3   OH224633   5.743   5.177   3.198  0.7742 -0.4250  0.0220
 1073TIP3    H124634   5.778   5.105   3.250  0.7408 -1.2852 -1.1144
 1073TIP3    H224635   5.797   5.178   3.119  0.5919  0.6245 -0.1116
 1074TIP3   OH224636   5.235   6.642  12.636 -0.3671 -0.7200  0.2212
 1074TIP3    H124637   5.298   6.645  12.708  1.3399 -3.1705 -1.0338
 1074TIP3    H224638   5.289   6.636  12.557 -2.1908  1.2326 -1.2844
 1075TIP3   OH224639   1.904   6.677   3.632  0.5273  0.0449  0.3386
 1075TIP3    H124640   1.875   6.612   3.568 -1.1630 -0.3532  1.4223
 1075TIP3    H224641   1.999   6.678   3.624  0.4572 -1.0813 -1.1170
 1076TIP3   OH224642   2.841   1.179  15.600 -0.1066 -0.0422  0.9903
 1076TIP3    H124643   2.800   1.182  15.513 -0.6611 -1.9297  1.1460
 1076TIP3    H224644   2.781   1.226  15.657 -0.3274  0.2010  0.5577
 1077TIP3   OH224645   0.902   0.406  11.271  0.1782 -0.0549  0.0023
 1077TIP3    H124646   0.968   0.341  11.295 -0.4748 -1.6229 -2.1255
 1077TIP3    H224647   0.933   0.442  11.188 -1.1469 -0.1238 -0.5380
 1078TIP3   OH224648   1.415   0.541  13.501 -0.1066  0.8570  0.5579
 1078TIP3    H124649   1.327   0.574  13.520 -0.4400 -0.4697  1.4181
 1078TIP3    H224650   1.443   0.499  13.582  0.4097 -0.7015 -0.3848
 1079TIP3   OH224651   2.988   3.325  11.464  0.1747 -0.5570 -0.2305
 1079TIP3    H124652   3.068   3.377  11.464  0.8447 -1.5227 -1.1120
 1079TIP3    H224653   2.955   3.331  11.553  1.8195 -0.9796  0.4523
 1080TIP3   OH224654   0.566   3.837  16.738 -0.1175 -0.7972  0.0395
 1080TIP3    H124655   0.623   3.891  16.793  0.1238 -0.3492 -0.6345
 1080TIP3    H224656   0.483   3.883  16.736 -0.4346 -1.3173  0.8119
 1081TIP3   OH224657   1.273   2.619  14.958  0.1630  0.4807  0.1149
 1081TIP3    H124658   1.212   2.660  15.019  0.8174  0.4663  0.7993
 1081TIP3    H224659   1.242   2.528  14.950 -1.1932  1.0235 -1.2799
 1082TIP3   OH224660   3.596   4.330  12.797  1.0469  0.0714 -0.1780
 1082TIP3    H124661   3.618   4.298  12.709 -0.7987  0.3919 -0.8059
 1082TIP3    H224662   3.501   4.333  12.798  1.0516  0.8235  1.5917
 1083TIP3   OH224663   0.342   5.032  11.278 -0.4503  0.1852 -0.1758
 1083TIP3    H124664   0.340   4.952  11.225 -3.2124  0.5416 -0.7757
 1083TIP3    H224665   0.289   5.011  11.355  1.4815  0.4707  1.3033
 1084TIP3   OH224666   1.354   2.905   1.094 -0.1382 -0.2716 -0.6394
 1084TIP3    H124667   1.379   2.878   1.182  3.6901  2.5052 -0.6516
 1084TIP3    H224668   1.284   2.969   1.108 -1.5167 -1.8670  0.0913
 1085TIP3   OH224669   0.399   1.847   0.392  0.2630 -0.4204  0.2029
 1085TIP3    H124670   0.462   1.910   0.356 -0.5433  0.4962  0.3595
 1085TIP3    H224671   0.415   1.848   0.486  1.2292 -1.5543  0.0675
 1086TIP3   OH224672   0.500   2.066  10.931 -0.0131 -0.0098 -0.3788
 1086TIP3    H124673   0.460   1.981  10.950  0.4268 -0.3991 -1.1249
 1086TIP3    H224674   0.438   2.108  10.871 -0.7966  0.6989  0.8826
 1087TIP3   OH224675   6.052   0.797   3.473 -0.6259 -0.3810  1.0410
 1087TIP3    H124676   6.005   0.864   3.423 -1.0256 -0.9803  0.6121
 1087TIP3    H224677   6.134   0.785   3.425 -0.8845 -0.7452  0.6811
 1088TIP3   OH224678   3.399   1.857   1.122 -0.1321 -0.0087  0.1833
 1088TIP3    H124679   3.411   1.807   1.203  0.7233  1.5953  1.0879
 1088TIP3    H224680   3.389   1.947   1.151  0.6364  0.6575 -1.5251
 1089TIP3   OH224681   5.149   2.928   4.438 -0.1780 -0.2388 -0.1145
 1089TIP3    H124682   5.077   2.984   4.409 -0.2479  0.6575  1.6297
 1089TIP3    H224683   5.114   2.839   4.435  0.1488 -0.3934 -3.5976
 1090TIP3   OH224684   3.539   0.238  16.467  0.1317 -0.3901 -0.1061
 1090TIP3    H124685   3.524   0.238  16.562 -0.8588  2.1410 -0.1936
 1090TIP3    H224686   3.611   0.299  16.454 -0.5215  0.1865 -1.0792
 1091TIP3   OH224687   3.380   0.102  13.021 -1.0730  0.5999 -0.2791
 1091TIP3    H124688   3.324   0.092  13.098  0.8373  1.1775  1.2997
 1091TIP3    H224689   3.329   0.154  12.960 -2.7677 -0.1313  0.4629
 1092TIP3   OH224690   0.622   5.109  13.001  0.8211 -0.4800 -0.1274
 1092TIP3    H124691   0.570   5.039  13.040  0.8479  0.1564  1.0757
 1092TIP3    H224692   0.566   5.145  12.932 -0.8378  0.9152  1.8315
 1093TIP3   OH224693   5.215   4.550   3.040 -0.3707 -0.3198 -0.5047
 1093TIP3    H124694   5.261   4.544   3.124 -2.4425 -2.5625  0.5970
 1093TIP3    H224695   5.146   4.615   3.055 -1.5076 -1.5877  0.0170
 1094TIP3   OH224696   6.752   1.041  16.700  0.5728  0.2905 -0.2354
 1094TIP3    H124697   6.796   0.978  16.758  0.0134 -0.2821 -0.4170
 1094TIP3    H224698   6.800   1.034  16.617  0.4174 -0.0144 -0.3014
 1095TIP3   OH224699   2.807   1.470  15.495  0.0805  0.4552  0.5826
 1095TIP3    H124700   2.798   1.416  15.417 -0.1295  1.2082  0.0757
 1095TIP3    H224701   2.772   1.416  15.566 -2.3755  0.8112 -0.2762
 1096TIP3   OH224702   0.706   1.520   4.344  0.0693  0.6879  0.2083
 1096TIP3    H124703   0.788   1.493   4.384 -0.4176 -1.6043 -0.1852
 1096TIP3    H224704   0.643   1.523   4.416 -0.6953 -2.9707 -0.0912
 1097TIP3   OH224705   3.511   0.038  13.911 -0.4133  0.2373  0.6230
 1097TIP3    H124706   3.493  -0.055  13.926  0.7654 -0.1986 -0.4366
 1097TIP3    H224707   3.450   0.064  13.842 -0.7356  0.2572  0.9121
 1098TIP3   OH224708   2.830   1.664  15.920 -0.2808  0.7609  0.5699
 1098TIP3    H124709   2.824   1.577  15.959 -1.3415  0.9373  0.8197
 1098TIP3    H224710   2.745   1.704  15.937  0.0255  1.6674  0.0264
 1099TIP3   OH224711   5.401   6.457   1.420 -0.1068 -0.3682 -0.3977
 1099TIP3    H124712   5.408   6.375   1.468  1.9393  1.0156  1.9039
 1099TIP3    H224713   5.472   6.511   1.454 -4.0625  4.1776  1.8208
 1100TIP3   OH224714   2.924   6.237   6.178 -0.1646 -0.3491  0.6253
 1100TIP3    H124715   2.989   6.294   6.220  0.8086 -0.7166 -0.3330
 1100TIP3    H224716   2.946   6.241   6.085 -1.2555 -0.8279  0.3372
 1101TIP3   OH224717   4.216   3.119   1.530  0.0578 -0.6117 -0.1018
 1101TIP3    H124718   4.136   3.113   1.582  0.1391 -0.6630  0.0158
 1101TIP3    H224719   4.217   3.038   1.479 -0.6223 -0.0483 -1.0434
 1102TIP3   OH224720   1.659   5.699  13.063 -0.5876 -0.0791  0.1082
 1102TIP3    H124721   1.604   5.750  13.122 -1.0485  1.2607 -1.3992
 1102TIP3    H224722   1.723   5.762  13.029  0.3255 -1.0524 -0.0416
 1103TIP3   OH224723   4.349   4.393  13.321 -0.5926  0.4804 -0.3755
 1103TIP3    H124724   4.255   4.378  13.330 -0.7855  2.0238  0.6042
 1103TIP3    H224725   4.388   4.347  13.396 -0.7807  1.3907  0.3032
 1104TIP3   OH224726   3.797   0.213   5.299 -0.0124  0.3010  0.3132
 1104TIP3    H124727   3.889   0.191   5.288 -0.0144  0.5439 -0.2346
 1104TIP3    H224728   3.778   0.194   5.390  0.2020 -1.1169  0.0783
 1105TIP3   OH224729   0.206   6.628  13.975 -0.6673  0.5430  0.2647
 1105TIP3    H124730   0.228   6.711  14.017  0.4045 -0.1269  1.0984
 1105TIP3    H224731   0.231   6.561  14.039 -3.3233 -0.4093  0.4570
 1106TIP3   OH224732   6.749   1.265  12.622  0.3395  0.8096  0.3228
 1106TIP3    H124733   6.741   1.174  12.592 -0.0119  0.3405  1.7391
 1106TIP3    H224734   6.830   1.297  12.583  0.2962 -0.0011 -0.4621
 1107TIP3   OH224735   2.516   1.087  14.609 -0.2863  0.3009  0.2629
 1107TIP3    H124736   2.525   1.144  14.533 -2.4185  2.6418  1.6028
 1107TIP3    H224737   2.450   1.023  14.583  1.8760 -1.5067 -1.1347
 1108TIP3   OH224738   2.297   2.214  13.608  0.0451  0.2837  0.6381
 1108TIP3    H124739   2.228   2.149  13.613  1.0853 -1.2013 -1.9742
 1108TIP3    H224740   2.352   2.197  13.685 -0.2235 -1.3554  0.5104
 1109TIP3   OH224741   5.202   2.046  11.553  0.2862 -0.7179  0.0698
 1109TIP3    H124742   5.126   2.056  11.610  0.7609 -2.7139  1.1435
 1109TIP3    H224743   5.166   2.044  11.465 -0.3747  3.5080  0.0075
 1110TIP3   OH224744   4.416   4.454   2.735  0.2543 -0.1156 -0.2851
 1110TIP3    H124745   4.382   4.529   2.783 -0.8533 -0.4757 -0.4850
 1110TIP3    H224746   4.376   4.460   2.649  0.3124 -0.8209 -0.3677
 1111TIP3   OH224747   6.760   3.220   1.543  0.3810 -0.1771  0.1359
 1111TIP3    H124748   6.705   3.299   1.544 -1.2314 -1.2442  2.4715
 1111TIP3    H224749   6.718   3.163   1.479 -0.8546 -0.6877  1.3648
 1112TIP3   OH224750   2.988   5.630  15.167 -0.5270  0.0108  0.4027
 1112TIP3    H124751   2.951   5.624  15.255 -0.6193 -1.0088  0.3064
 1112TIP3    H224752   2.991   5.540  15.136 -0.8288  0.3951 -0.7821
 1113TIP3   OH224753   0.763   0.988  11.373 -0.5214 -0.3906  0.1212
 1113TIP3    H124754   0.782   1.057  11.310  0.4967 -1.0791 -0.3533
 1113TIP3    H224755   0.840   0.930  11.370 -1.8053 -2.1793 -0.3544
 1114TIP3   OH224756   1.958   5.550   6.521 -0.4651  0.1889  0.1226
 1114TIP3    H124757   1.989   5.475   6.572  1.9448  1.1875  0.2539
 1114TIP3    H224758   1.993   5.627   6.566 -0.9578  1.2698 -1.2529
 1115TIP3   OH224759   6.247   3.413   1.078  0.4492 -0.6912  0.7087
 1115TIP3    H124760   6.186   3.487   1.073  0.2247 -0.7163  2.4579
 1115TIP3    H224761   6.246   3.387   1.170  3.7855 -0.1085  1.0291
 1116TIP3   OH224762   3.271   4.563  16.534  0.5489 -0.2302 -0.5784
 1116TIP3    H124763   3.230   4.569  16.620  1.3723 -0.6106 -0.1453
 1116TIP3    H224764   3.365   4.569  16.551  0.7367 -0.5568 -1.4234
 1117TIP3   OH224765   2.124   0.368   1.026  0.7486  0.0902  0.7290
 1117TIP3    H124766   2.095   0.449   1.067  0.1481  1.0200 -1.3944
 1117TIP3    H224767   2.049   0.308   1.037 -0.1243  0.9049 -0.4761
 1118TIP3   OH224768   4.735   3.013  10.281  0.1682  0.0079 -0.0178
 1118TIP3    H124769   4.644   2.988  10.293  0.7739 -2.2010  0.4741
 1118TIP3    H224770   4.780   2.931  10.261  1.9780  1.1152 -0.8088
 1119TIP3   OH224771   3.674   3.628  15.570  0.1318  0.0972 -0.6986
 1119TIP3    H124772   3.760   3.613  15.609  0.6565  1.9000 -1.0838
 1119TIP3    H224773   3.622   3.667  15.641  0.4647  1.4676 -1.1798
 1120TIP3   OH224774   4.305   3.776   3.753 -0.7013 -0.2153  0.3759
 1120TIP3    H124775   4.331   3.842   3.689  4.2706 -1.8217  0.3259
 1120TIP3    H224776   4.240   3.723   3.707  1.8462 -0.6459 -3.1930
 1121TIP3   OH224777   3.784   0.531   4.422 -0.0679  0.1056  0.0779
 1121TIP3    H124778   3.844   0.492   4.358 -0.7493  1.3447 -1.3883
 1121TIP3    H224779   3.697   0.521   4.382 -0.7732 -0.9317  1.7921
 1122TIP3   OH224780   0.324   2.086  11.912  0.1140 -0.6785  0.2453
 1122TIP3    H124781   0.267   2.009  11.916  2.0353 -2.1783  0.5846
 1122TIP3    H224782   0.367   2.088  11.997  0.3923  0.5487  0.0848
 1123TIP3   OH224783   3.386   5.947  13.249  0.2034  0.3736 -0.1017
 1123TIP3    H124784   3.437   5.899  13.315  1.1436 -1.4348 -2.0461
 1123TIP3    H224785   3.403   6.039  13.268  2.4463 -0.1434  0.6833
 1124TIP3   OH224786   4.008   1.637   5.418 -0.3084  0.1565  0.6479
 1124TIP3    H124787   3.959   1.561   5.388  0.2529  0.4393 -1.0761
 1124TIP3    H224788   3.947   1.685   5.474 -0.7420 -1.4207  1.5861
 1125TIP3   OH224789   4.221   3.136   2.543 -0.0376  0.2470  0.5988
 1125TIP3    H124790   4.268   3.110   2.622 -1.1603 -0.2286  1.1253
 1125TIP3    H224791   4.160   3.204   2.572 -1.9623 -1.4067  0.5980
 1126TIP3   OH224792   2.825   3.624   4.057 -0.4035 -0.0006  0.7688
 1126TIP3    H124793   2.858   3.577   4.134 -1.5313 -1.7087  0.2837
 1126TIP3    H224794   2.730   3.609   4.059 -0.3608 -0.9305 -1.4454
 1127TIP3   OH224795   1.198   2.007  12.070 -0.1938 -0.0175  0.3699
 1127TIP3    H124796   1.120   2.062  12.062 -0.3041 -0.3054 -0.7126
 1127TIP3    H224797   1.189   1.943  12.000  1.8385  0.9828 -0.8972
 1128TIP3   OH224798   2.860   4.566  13.767 -0.1415  0.3131  0.4587
 1128TIP3    H124799   2.832   4.530  13.852  3.1331  1.0059  2.0118
 1128TIP3    H224800   2.910   4.495  13.727 -1.5579  0.0418 -0.9007
 1129TIP3   OH224801   3.510   6.635  12.436  0.2841  0.3379 -0.2108
 1129TIP3    H124802   3.434   6.596  12.393 -0.2726  2.9797 -1.8938
 1129TIP3    H224803   3.584   6.605  12.385 -0.3153  2.8854 -2.8751
 1130TIP3   OH224804   4.254   2.069   1.175  0.7648 -0.4322 -0.0604
 1130TIP3    H124805   4.253   2.049   1.268 -0.0108 -0.2683 -0.0269
 1130TIP3    H224806   4.177   2.124   1.161  1.0606 -0.1703 -0.7368
 1131TIP3   OH224807   4.848   6.408  11.952 -0.4103 -0.2589  0.2563
 1131TIP3    H124808   4.790   6.479  11.980  1.7115  0.9543  2.0011
 1131TIP3    H224809   4.879   6.435  11.866 -0.6326  0.2839  0.3395
 1132TIP3   OH224810   5.730   6.112   5.282  0.1949 -0.2125  0.0878
 1132TIP3    H124811   5.765   6.054   5.214 -0.0919  0.8130 -0.9653
 1132TIP3    H224812   5.803   6.169   5.305  0.1048 -0.1404  0.1958
 1133TIP3   OH224813   0.930   6.225   1.570 -0.1026 -0.1283 -0.7686
 1133TIP3    H124814   0.919   6.304   1.622  0.4929  0.0729 -0.9365
 1133TIP3    H224815   0.850   6.175   1.584  0.2814 -0.3567  0.7964
 1134TIP3   OH224816   5.807   3.261  11.490 -0.3151 -0.3489 -0.6041
 1134TIP3    H124817   5.842   3.343  11.456  0.0104 -0.6741 -1.0594
 1134TIP3    H224818   5.721   3.252  11.449 -0.1525 -0.4685 -0.9184
 1135TIP3   OH224819   2.604   5.296   1.105 -0.9067  0.0723 -0.3351
 1135TIP3    H124820   2.668   5.254   1.162  1.9021  1.1659 -2.4706
 1135TIP3    H224821   2.583   5.379   1.148  2.1143  1.4522 -1.2775
 1136TIP3   OH224822   0.987   6.389   3.005 -0.4640 -0.3436  0.1371
 1136TIP3    H124823   0.893   6.374   3.018 -0.7200  0.9330 -0.1162
 1136TIP3    H224824   1.004   6.474   3.046  1.2946 -1.9910  3.1777
 1137TIP3   OH224825   0.589   2.661   2.683  0.4155 -0.8672  0.3167
 1137TIP3    H124826   0.540   2.587   2.717  1.1916 -1.4536  0.1953
 1137TIP3    H224827   0.670   2.663   2.735  0.1991  0.1947  0.6460
 1138TIP3   OH224828   4.782   6.196   4.178  0.1456  0.2969 -0.0556
 1138TIP3    H124829   4.849   6.160   4.120  0.2746  0.3855  0.0400
 1138TIP3    H224830   4.799   6.154   4.263 -1.1549 -1.2493 -0.5007
 1139TIP3   OH224831   3.997   2.301   6.471  0.3616  0.1834 -0.0290
 1139TIP3    H124832   3.907   2.283   6.442  0.6537  0.9834 -1.5459
 1139TIP3    H224833   4.003   2.258   6.557 -1.0060 -1.1270 -0.5286
 1140TIP3   OH224834   0.518   3.325  11.252  0.2094  0.2535  0.2195
 1140TIP3    H124835   0.613   3.315  11.265  0.1768  0.5250  0.6982
 1140TIP3    H224836   0.497   3.262  11.183  0.4634 -1.0458  1.2796
 1141TIP3   OH224837   1.231   5.907   2.767 -0.1889 -0.2154 -0.1289
 1141TIP3    H124838   1.159   5.843   2.763 -0.4937  0.1861 -1.3291
 1141TIP3    H224839   1.243   5.936   2.677  1.4337 -0.2021  0.0549
 1142TIP3   OH224840   0.581   5.914  11.049 -0.0153  0.1000  0.6374
 1142TIP3    H124841   0.641   5.868  10.990  0.5847 -0.8083  1.8938
 1142TIP3    H224842   0.555   5.992  11.001  2.0019  0.4158 -0.0424
 1143TIP3   OH224843   3.958   0.584   2.999 -0.0779 -0.6391 -0.1786
 1143TIP3    H124844   3.892   0.562   3.064 -0.1598 -0.1328 -0.0837
 1143TIP3    H224845   3.958   0.680   2.997  1.2706 -0.6071  0.4510
 1144TIP3   OH224846   1.652   4.676  11.312 -0.4853  0.3660 -0.5681
 1144TIP3    H124847   1.704   4.755  11.298 -0.3744  0.1733 -1.2893
 1144TIP3    H224848   1.683   4.614  11.246 -0.8383 -0.1485 -0.2653
 1145TIP3   OH224849   1.114   0.249   2.172 -0.3682  0.0519 -0.2389
 1145TIP3    H124850   1.198   0.218   2.207 -1.2412 -1.3204  0.7317
 1145TIP3    H224851   1.105   0.337   2.208  0.1856 -0.1747  0.4985
 1146TIP3   OH224852   1.675   0.700   4.112 -0.0689  0.2650 -0.5198
 1146TIP3    H124853   1.759   0.658   4.091 -1.0539 -0.8072 -2.6437
 1146TIP3    H224854   1.613   0.627   4.113 -1.1062  1.1428  0.2821
 1147TIP3   OH224855   6.283   0.325   5.427  0.5976 -0.0861 -0.0438
 1147TIP3    H124856   6.201   0.346   5.382 -0.1578 -1.3463  0.6897
 1147TIP3    H224857   6.331   0.408   5.430  0.8072  0.0557 -3.2997
 1148TIP3   OH224858   2.392   3.725   1.049  0.5696  0.5586  0.2215
 1148TIP3    H124859   2.385   3.738   1.144  1.2929  0.3470  0.3112
 1148TIP3    H224860   2.375   3.632   1.036 -0.5346  0.7789  0.0267
 1149TIP3   OH224861   2.611   1.038  11.508 -0.3799 -0.0195 -0.1007
 1149TIP3    H124862   2.586   0.945  11.508  0.5931 -0.2889 -0.3110
 1149TIP3    H224863   2.686   1.043  11.449  0.8521  0.5314  1.4323
 1150TIP3   OH224864   6.663   2.558   4.626  0.7874  0.2407 -0.1133
 1150TIP3    H124865   6.711   2.565   4.708 -1.4910 -1.9755  1.5548
 1150TIP3    H224866   6.571   2.565   4.651  0.0077 -0.4719 -2.4695
 1151TIP3   OH224867   3.855   0.812   4.152 -0.0819 -0.5832  0.4416
 1151TIP3    H124868   3.866   0.875   4.082  0.1875 -0.6065  0.4628
 1151TIP3    H224869   3.764   0.824   4.181  0.7811  1.8899  2.4628
 1152TIP3   OH224870   5.211   2.017  15.151  0.6112  0.4801  0.9208
 1152TIP3    H124871   5.214   2.036  15.057 -0.3893 -0.3599  0.6958
 1152TIP3    H224872   5.285   1.958  15.166 -0.2999 -0.8883  0.2612
 1153TIP3   OH224873   0.404   6.608  14.742 -0.6843  0.4090  0.1754
 1153TIP3    H124874   0.345   6.541  14.708 -1.6549  1.2261  0.2181
 1153TIP3    H224875   0.488   6.589  14.700 -1.5163  0.5760 -1.6775
 1154TIP3   OH224876   4.192   6.059   0.633 -0.6512 -0.3403 -0.1702
 1154TIP3    H124877   4.154   6.028   0.716  0.2058 -0.3129  0.2403
 1154TIP3    H224878   4.209   6.152   0.647 -2.5253  0.2121 -1.1500
 1155TIP3   OH224879   4.802   4.739  14.658 -0.4029 -0.2101 -0.1640
 1155TIP3    H124880   4.773   4.666  14.603  1.6846 -2.6267  1.6854
 1155TIP3    H224881   4.860   4.790  14.602 -0.9482 -0.6460 -1.1535
 1156TIP3   OH224882   3.772   1.951  15.683  0.2934 -0.0667 -0.3154
 1156TIP3    H124883   3.726   2.025  15.642  0.6819  0.1832 -0.3052
 1156TIP3    H224884   3.800   1.985  15.768  0.1316 -0.3541 -0.1437
 1157TIP3   OH224885   0.799   3.445   5.548  0.4055  0.5424 -0.1955
 1157TIP3    H124886   0.752   3.413   5.471  0.0582  0.3629  0.0929
 1157TIP3    H224887   0.772   3.537   5.556 -0.2962  0.2943  0.2777
 1158TIP3   OH224888   4.382   0.333   5.684 -0.1886  0.3172 -0.2246
 1158TIP3    H124889   4.473   0.337   5.712 -0.8675 -0.6893  2.4749
 1158TIP3    H224890   4.352   0.424   5.685  0.2583  0.4743  0.9918
 1159TIP3   OH224891   0.903   3.230  10.687 -0.6292 -0.0048 -0.1953
 1159TIP3    H124892   0.850   3.281  10.625 -0.6046 -1.4513 -1.4426
 1159TIP3    H224893   0.845   3.160  10.717 -0.0234 -0.4718 -0.0929
 1160TIP3   OH224894   1.203   3.756  15.514 -0.2082 -0.4152  0.4938
 1160TIP3    H124895   1.162   3.807  15.444  2.5968  1.9094  0.3353
 1160TIP3    H224896   1.202   3.814  15.590  0.9536 -1.0465  1.0167
 1161TIP3   OH224897   6.320   0.880  13.864 -0.0218 -0.4605 -0.0169
 1161TIP3    H124898   6.401   0.838  13.895  0.4457 -0.4301 -1.1514
 1161TIP3    H224899   6.332   0.973  13.885  0.2358 -0.4574 -0.1731
 1162TIP3   OH224900   3.162   6.046  13.897  0.1124 -0.4573  0.1914
 1162TIP3    H124901   3.088   5.986  13.884  0.8727 -1.3943  0.0275
 1162TIP3    H224902   3.229   6.014  13.837  0.7236  0.2611  0.4819
 1163TIP3   OH224903   6.131   3.635   0.374  0.2042  0.1412 -0.2022
 1163TIP3    H124904   6.162   3.717   0.334 -0.4593  1.1301  1.2413
 1163TIP3    H224905   6.209   3.598   0.415  1.1559 -1.4207 -3.0895
 1164TIP3   OH224906   4.127   2.420  12.285 -0.5755  0.1909 -0.0298
 1164TIP3    H124907   4.129   2.454  12.196 -0.8608  0.2154 -0.0279
 1164TIP3    H224908   4.137   2.498  12.340  0.7319  0.0620 -0.0472
 1165TIP3   OH224909   3.333   1.154   0.112  0.3873 -0.1562 -0.3747
 1165TIP3    H124910   3.264   1.088   0.120  1.6747 -1.3962  1.6101
 1165TIP3    H224911   3.344   1.188   0.200  2.6765 -0.4676 -0.4583
 1166TIP3   OH224912   2.092   6.554   5.356  0.4578  1.0533 -0.4897
 1166TIP3    H124913   2.067   6.627   5.300  0.6188  0.4726 -1.3289
 1166TIP3    H224914   2.079   6.587   5.445 -0.2618  1.8184 -0.8667
 1167TIP3   OH224915   6.119   0.621   2.835 -0.3663 -0.1016  0.5128
 1167TIP3    H124916   6.075   0.680   2.897  1.1621 -0.4409  2.0249
 1167TIP3    H224917   6.080   0.535   2.852 -0.1155 -0.1506  0.8533
 1168TIP3   OH224918   4.789   1.990  17.123 -0.6230  0.1942  0.1562
 1168TIP3    H124919   4.726   2.060  17.106 -1.8756 -0.8509  0.3974
 1168TIP3    H224920   4.815   1.960  17.036  0.7226  1.6064  0.0189
 1169TIP3   OH224921   3.218   6.551   2.339  0.0872 -0.8177 -0.4926
 1169TIP3    H124922   3.300   6.502   2.331  0.8590  0.3295  0.1446
 1169TIP3    H224923   3.203   6.586   2.251  2.2302  1.9305  0.1087
 1170TIP3   OH224924   4.659   0.740  11.911 -0.2414  0.3635  0.6458
 1170TIP3    H124925   4.604   0.761  11.986 -1.2470  1.7937 -0.4425
 1170TIP3    H224926   4.597   0.719  11.841  0.4227  3.3514 -1.0209
 1171TIP3   OH224927   5.062   1.599   4.719  0.4274 -0.2208 -0.0577
 1171TIP3    H124928   5.073   1.684   4.762  0.8087  0.5636 -1.6414
 1171TIP3    H224929   5.142   1.551   4.739  0.6274  0.1543  0.0423
 1172TIP3   OH224930   6.236   5.969   2.250  0.5660 -0.7413 -0.4460
 1172TIP3    H124931   6.182   5.945   2.326 -0.0185 -0.0436 -0.6274
 1172TIP3    H224932   6.210   6.059   2.230  0.6798 -0.9298 -1.5003
 1173TIP3   OH224933   2.048   5.523   5.005  0.6697 -0.5476 -0.4421
 1173TIP3    H124934   2.074   5.599   5.058  3.2004 -1.6231  0.0038
 1173TIP3    H224935   2.080   5.545   4.917  1.3731 -1.0513 -0.3197
 1174TIP3   OH224936   3.064   0.350  12.703 -0.1190 -0.3305 -0.2712
 1174TIP3    H124937   3.070   0.444  12.719  3.0995 -0.1445 -1.8688
 1174TIP3    H224938   2.990   0.340  12.643 -1.5818  0.8936  1.2259
 1175TIP3   OH224939   2.353   4.089   2.283  0.0781 -0.4182  0.1502
 1175TIP3    H124940   2.390   4.118   2.366 -0.6586 -2.1348  1.1293
 1175TIP3    H224941   2.278   4.146   2.269  0.5878  0.3047  0.3156
 1176TIP3   OH224942   5.731   3.428  12.749  0.1894  0.0964  0.0738
 1176TIP3    H124943   5.690   3.493  12.807  1.5082  1.1781 -0.1520
 1176TIP3    H224944   5.825   3.437  12.765  0.4085 -2.9231  1.2304
 1177TIP3   OH224945   2.927   4.925   0.273  0.6033 -0.1545 -0.5121
 1177TIP3    H124946   2.848   4.973   0.296 -0.3624 -1.7897 -0.2783
 1177TIP3    H224947   2.930   4.929   0.177  0.3228  0.0444 -0.5138
 1178TIP3   OH224948   1.891   3.786   4.579  0.2589  0.1029  0.3102
 1178TIP3    H124949   1.916   3.760   4.668 -0.3906 -1.6254  0.0380
 1178TIP3    H224950   1.886   3.881   4.582  0.6461  0.1043  2.0174
 1179TIP3   OH224951   3.807   3.477   2.445  0.0281 -0.4680 -0.0684
 1179TIP3    H124952   3.837   3.456   2.357  0.0535 -0.7892  0.0130
 1179TIP3    H224953   3.825   3.397   2.496 -0.1985 -0.3679  0.1721
 1180TIP3   OH224954   4.091   3.670  11.447  0.3531 -0.1702 -0.2311
 1180TIP3    H124955   4.048   3.662  11.533  0.8910 -1.3011 -0.0448
 1180TIP3    H224956   4.125   3.759  11.445  2.7058 -0.9246  1.8923
 1181TIP3   OH224957   4.371   4.364   2.110 -0.4571  0.1402  0.0786
 1181TIP3    H124958   4.370   4.437   2.048 -1.5501  0.1852  0.1275
 1181TIP3    H224959   4.414   4.398   2.188 -0.9843  0.7565  0.1082
 1182TIP3   OH224960   3.323   6.553  15.460  0.1234  0.0356  0.0739
 1182TIP3    H124961   3.264   6.510  15.523 -0.8692  0.1689 -0.7419
 1182TIP3    H224962   3.408   6.512  15.476 -0.6985 -2.0231 -0.4302
 1183TIP3   OH224963   5.746   5.250  16.118  0.0381 -0.1546 -0.2371
 1183TIP3    H124964   5.814   5.284  16.177  0.8943 -1.1994 -0.5822
 1183TIP3    H224965   5.781   5.167  16.087 -1.4705 -0.7780 -0.3486
 1184TIP3   OH224966   1.411   3.172  15.556  0.1387  0.1054 -0.1057
 1184TIP3    H124967   1.341   3.167  15.492 -0.0544  1.1273  0.0101
 1184TIP3    H224968   1.469   3.241  15.523  0.0240  0.6587  0.8051
 1185TIP3   OH224969   1.519   5.917   4.327 -0.1910  0.6515 -0.4406
 1185TIP3    H124970   1.543   5.979   4.395  0.4043 -1.4282  1.3347
 1185TIP3    H224971   1.453   5.861   4.367  0.4971 -0.9206 -1.3951
 1186TIP3   OH224972   4.877   2.812   2.002 -0.3328 -0.2349 -0.5442
 1186TIP3    H124973   4.944   2.748   2.026  0.5723  0.7106 -0.4552
 1186TIP3    H224974   4.807   2.760   1.963  0.1664 -1.3190 -0.0557
 1187TIP3   OH224975   5.219   4.289   6.532  0.3923  0.4414  0.5255
 1187TIP3    H124976   5.227   4.381   6.556 -0.5077  0.4487  0.8480
 1187TIP3    H224977   5.307   4.263   6.507  1.0344  0.9273  2.1278
 1188TIP3   OH224978   6.342   5.877   5.663  0.0959 -0.4862 -0.3082
 1188TIP3    H124979   6.337   5.801   5.605  0.8243 -1.1944  0.5261
 1188TIP3    H224980   6.403   5.851   5.732  1.7902  1.4887 -0.9414
 1189TIP3   OH224981   5.717   6.110   1.635  0.7096  0.1145  0.6873
 1189TIP3    H124982   5.694   6.098   1.727 -1.3085 -2.0494 -0.0199
 1189TIP3    H224983   5.653   6.173   1.602 -0.2788 -1.1215  0.1850
 1190TIP3   OH224984   4.647   2.535   5.537  0.0295 -0.1385 -0.5456
 1190TIP3    H124985   4.592   2.487   5.475 -1.8777  0.8663  0.3131
 1190TIP3    H224986   4.736   2.501   5.520 -0.3670  0.0787 -3.8193
 1191TIP3   OH224987   0.042   4.177   3.597  0.2630  0.1907  0.1584
 1191TIP3    H124988  -0.011   4.250   3.566 -0.9762 -1.4417 -1.8601
 1191TIP3    H224989   0.056   4.123   3.519  2.8094 -0.7397  1.1534
 1192TIP3   OH224990   2.137   1.575   0.600  0.4032  0.6085 -0.6456
 1192TIP3    H124991   2.183   1.585   0.516  2.2258  1.9953  0.4232
 1192TIP3    H224992   2.116   1.482   0.605  0.9651  0.3588 -2.2994
 1193TIP3   OH224993   6.297   0.073   1.039  0.1506 -0.6580 -0.2864
 1193TIP3    H124994   6.299  -0.016   1.003  1.6161 -0.1934 -1.5095
 1193TIP3    H224995   6.222   0.074   1.098 -0.6027 -2.3565 -1.1392
 1194TIP3   OH224996   1.278   2.264  12.977  0.0770 -0.1020 -0.1295
 1194TIP3    H124997   1.351   2.202  12.983 -0.2518 -0.5243 -0.4732
 1194TIP3    H224998   1.296   2.329  13.045  0.8803 -0.0916 -0.3393
 1195TIP3   OH224999   4.224   4.825   4.427 -0.8199  0.1325 -0.0658
 1195TIP3    H125000   4.233   4.776   4.509  0.3028  1.2920  0.5361
 1195TIP3    H225001   4.152   4.885   4.444  0.7525  1.8401  0.8877
 1196TIP3   OH225002   1.190   1.380  14.859 -0.3520 -0.4652 -0.1650
 1196TIP3    H125003   1.274   1.424  14.847 -0.4591  0.8141  2.9405
 1196TIP3    H225004   1.211   1.286  14.857  1.0022 -0.1748 -0.3183
 1197TIP3   OH225005   2.185   3.021   2.943 -0.0999 -0.0032 -0.2657
 1197TIP3    H125006   2.182   3.049   3.035 -2.1728 -0.4010 -0.1626
 1197TIP3    H225007   2.206   3.101   2.894 -0.4559  0.5317  0.4350
 1198TIP3   OH225008   0.440   1.523  12.557 -0.1064 -0.0370  0.4499
 1198TIP3    H125009   0.487   1.481  12.485 -0.7820  0.7946 -0.4978
 1198TIP3    H225010   0.361   1.471  12.569 -0.7066  0.6501 -0.4023
 1199TIP3   OH225011   5.238   4.708   4.153 -0.4581  0.1597  0.1283
 1199TIP3    H125012   5.215   4.800   4.165 -0.6639 -0.0857  2.0776
 1199TIP3    H225013   5.199   4.684   4.069 -1.7679  1.4513  0.3181
 1200TIP3   OH225014   3.734   4.384  14.423 -0.0202 -0.0001  0.2014
 1200TIP3    H125015   3.825   4.413  14.410 -0.1869  0.9941  1.1057
 1200TIP3    H225016   3.692   4.400  14.338  0.1068  1.6867  0.4207
 1201TIP3   OH225017   4.340   2.502   4.114  0.4610 -0.3467 -0.0700
 1201TIP3    H125018   4.353   2.595   4.135 -0.9113 -0.1268 -0.1190
 1201TIP3    H225019   4.303   2.464   4.193  0.3917 -0.7174 -0.2792
 1202TIP3   OH225020   1.597   1.615   1.684  0.3264 -0.6696  0.0492
 1202TIP3    H125021   1.691   1.599   1.685  0.7042  0.7710 -2.7113
 1202TIP3    H225022   1.588   1.706   1.713 -0.3295 -1.0208  1.0094
 1203TIP3   OH225023   0.034   6.412   2.601 -0.4517 -0.7534 -0.1631
 1203TIP3    H125024  -0.032   6.440   2.538 -0.1976 -1.7919 -0.9222
 1203TIP3    H225025   0.079   6.339   2.558  0.3318 -0.8994  0.8591
 1204TIP3   OH225026   6.280   1.249  15.592 -0.9102 -0.3011  0.1143
 1204TIP3    H125027   6.272   1.189  15.517 -2.6645  0.4209 -0.3287
 1204TIP3    H225028   6.296   1.192  15.667  0.6971 -1.0557 -0.7493
 1205TIP3   OH225029   6.482   1.178  14.709 -0.0775 -0.0295 -0.1666
 1205TIP3    H125030   6.406   1.148  14.660  0.5171  0.4621 -1.4399
 1205TIP3    H225031   6.448   1.205  14.794 -1.4675  1.1339 -1.0670
 1206TIP3   OH225032   5.524   0.985   0.644  0.3980 -0.0103  0.1146
 1206TIP3    H125033   5.437   1.005   0.677 -0.4695  0.5995 -2.3457
 1206TIP3    H225034   5.530   0.890   0.646  0.2228 -0.0083  1.5382
 1207TIP3   OH225035   3.236   1.833  13.881  0.4605  0.2760 -0.4905
 1207TIP3    H125036   3.236   1.804  13.972 -0.0079 -0.8059 -0.8188
 1207TIP3    H225037   3.174   1.907  13.879  0.1337  0.0177 -0.0155
 1208TIP3   OH225038   2.011   5.086  13.793 -0.6481  0.0962  0.0685
 1208TIP3    H125039   2.044   5.117  13.878 -0.2469  1.4714 -0.5633
 1208TIP3    H225040   1.915   5.087  13.804 -0.5991 -1.8521  1.1924
 1209TIP3   OH225041   0.582   4.962  16.747  0.0019  0.6753  0.0448
 1209TIP3    H125042   0.605   4.992  16.835  1.2347 -0.3518  0.0996
 1209TIP3    H225043   0.633   5.019  16.689  0.1412  0.5475  0.0415
 1210TIP3   OH225044   5.595   4.820   1.336  0.4178  0.2401 -0.3546
 1210TIP3    H125045   5.544   4.894   1.304 -0.2379 -0.4602 -0.9740
 1210TIP3    H225046   5.542   4.784   1.408  1.7659  1.6633  1.4724
 1211TIP3   OH225047   6.438   3.274   1.435  0.2049  0.9404 -0.2107
 1211TIP3    H125048   6.364   3.224   1.401 -0.5806  1.3352  0.8522
 1211TIP3    H225049   6.399   3.335   1.498  1.2469  2.2791 -0.8136
 1212TIP3   OH225050   2.692   5.532  14.566 -0.0714  0.6051 -0.1430
 1212TIP3    H125051   2.722   5.516  14.476 -0.2376 -1.3560  0.1136
 1212TIP3    H225052   2.638   5.611  14.559 -1.2856 -0.3176 -2.0658
 1213TIP3   OH225053   5.632   2.692  16.355  0.6286  0.6177 -0.1365
 1213TIP3    H125054   5.596   2.758  16.414 -1.4476 -1.8763  1.6485
 1213TIP3    H225055   5.705   2.653  16.404 -0.2396 -0.5392  0.2964
 1214TIP3   OH225056   3.480   3.060  14.432  0.3384 -0.1407  0.9207
 1214TIP3    H125057   3.475   2.968  14.404 -0.1291  0.0682  0.2839
 1214TIP3    H225058   3.389   3.084  14.451  0.3115  0.4853  0.0687
 1215TIP3   OH225059   2.740   4.678   2.828  0.2760  0.6909  0.2878
 1215TIP3    H125060   2.650   4.663   2.856  0.8961 -0.4316  1.8752
 1215TIP3    H225061   2.735   4.684   2.733 -1.5233  1.1523  0.3715
 1216TIP3   OH225062   1.394   0.709  16.581 -0.3422 -0.3615 -0.5988
 1216TIP3    H125063   1.391   0.626  16.532 -1.0102 -1.0288  0.5391
 1216TIP3    H225064   1.434   0.686  16.664  0.1286  0.6245 -0.5451
 1217TIP3   OH225065   3.265   5.675   2.803 -0.1891 -0.2678  0.2519
 1217TIP3    H125066   3.242   5.596   2.852  0.3470 -1.2723 -1.0371
 1217TIP3    H225067   3.293   5.738   2.869 -0.2715 -1.2816  1.2819
 1218TIP3   OH225068   6.399   6.435  10.790  0.7531 -0.1885 -0.1031
 1218TIP3    H125069   6.416   6.343  10.813  1.2282  0.4629  2.3431
 1218TIP3    H225070   6.330   6.462  10.850  1.2024  1.2959 -0.2377
 1219TIP3   OH225071   0.547   6.505  13.824  0.7689  0.3240  0.4961
 1219TIP3    H125072   0.547   6.451  13.903 -0.9571 -1.5405 -0.6673
 1219TIP3    H225073   0.621   6.472  13.773  2.1890  1.8636  1.4852
 1220TIP3   OH225074   6.353   2.919   6.080  0.2244 -0.3705 -0.4162
 1220TIP3    H125075   6.374   2.850   6.142  1.1497  2.8652  3.3198
 1220TIP3    H225076   6.315   2.874   6.005  0.4948 -4.7937  1.7972
 1221TIP3   OH225077   1.914   2.593   0.693  0.0211 -0.0634 -0.0769
 1221TIP3    H125078   1.901   2.600   0.788  0.6241 -0.4985  0.0431
 1221TIP3    H225079   1.891   2.680   0.660  2.2921  0.9780  0.7852
 1222TIP3   OH225080   4.872   2.233  14.623 -0.2843  0.1151  0.5325
 1222TIP3    H125081   4.778   2.230  14.605  0.1369  0.0964 -2.0510
 1222TIP3    H225082   4.910   2.278  14.547  1.9887 -1.5993  0.5362
 1223TIP3   OH225083   0.351   1.323   4.781  0.2000  0.6818  0.0014
 1223TIP3    H125084   0.390   1.237   4.769 -1.4224  0.0204 -0.7601
 1223TIP3    H225085   0.375   1.348   4.870  1.8884  0.0898 -0.2591
 1224TIP3   OH225086   4.120   4.563  15.813  0.2542 -0.1990  0.5498
 1224TIP3    H125087   4.187   4.567  15.880 -0.5008  0.3314  1.2881
 1224TIP3    H225088   4.052   4.508  15.850  0.1357 -0.4701 -0.0614
 1225TIP3   OH225089   1.516   5.851   2.904 -0.3917  0.8528 -0.6266
 1225TIP3    H125090   1.527   5.766   2.862  0.0187 -0.7730  2.4594
 1225TIP3    H225091   1.423   5.873   2.891 -0.5398 -0.1351 -1.3145
 1226TIP3   OH225092   4.051   3.430   3.462 -0.3169 -0.0089 -0.2131
 1226TIP3    H125093   3.973   3.479   3.435 -1.2073 -1.1142  0.2523
 1226TIP3    H225094   4.020   3.340   3.471  0.9633 -0.4188  0.2597
 1227TIP3   OH225095   2.295   6.503   4.012 -0.1366  0.1729 -0.2777
 1227TIP3    H125096   2.237   6.487   4.087  1.8616  2.4466  1.9191
 1227TIP3    H225097   2.272   6.591   3.982 -0.3614 -0.4023 -1.8812
 1228TIP3   OH225098   0.218   1.673  15.186 -0.2609  0.0481 -0.8244
 1228TIP3    H125099   0.136   1.698  15.229 -1.0902 -1.8246 -1.2380
 1228TIP3    H225100   0.283   1.734  15.223 -1.3573 -0.0037  1.3849
 1229TIP3   OH225101   4.306   4.742  14.040 -0.1449 -0.3212  0.3404
 1229TIP3    H125102   4.393   4.748  13.999  0.1248 -0.9670  0.8058
 1229TIP3    H225103   4.249   4.793  13.982  0.7410  0.9899  0.5888
 1230TIP3   OH225104   1.301   4.768   3.347  0.2204 -0.3676  0.6476
 1230TIP3    H125105   1.282   4.826   3.421 -0.5550 -0.9378  0.9055
 1230TIP3    H225106   1.222   4.716   3.336 -0.4194  0.9696 -1.7775
 1231TIP3   OH225107   3.959   1.243  15.109  0.5644 -0.0871 -0.4235
 1231TIP3    H125108   4.000   1.330  15.118 -1.2472  0.6230  2.6742
 1231TIP3    H225109   3.918   1.228  15.194  0.1548 -3.7093 -1.1218
 1232TIP3   OH225110   1.816   1.819  15.140  0.0641  0.0404 -0.1770
 1232TIP3    H125111   1.853   1.823  15.052  0.3649 -3.0053 -0.3166
 1232TIP3    H225112   1.890   1.795  15.195 -0.2896  1.1377  0.8143
 1233TIP3   OH225113   5.364   4.276  13.159 -0.4564 -0.2066 -0.1715
 1233TIP3    H125114   5.376   4.182  13.174  0.3669 -0.2831 -1.1688
 1233TIP3    H225115   5.328   4.281  13.070 -0.6753  0.4148 -0.0506
 1234TIP3   OH225116   1.099   1.093  14.657 -0.5362 -0.1099  0.1976
 1234TIP3    H125117   1.080   1.147  14.581 -1.0780  1.6553  1.5344
 1234TIP3    H225118   1.182   1.050  14.636 -0.3205  0.8798 -1.0829
 1235TIP3   OH225119   5.401   4.630   5.034  0.4446 -0.2074  0.0788
 1235TIP3    H125120   5.399   4.594   5.123 -0.3346 -2.2478 -0.7234
 1235TIP3    H225121   5.378   4.722   5.046 -0.8099 -0.7007  1.8718
 1236TIP3   OH225122   3.736   2.343   5.583  0.2690  0.2223  0.0198
 1236TIP3    H125123   3.699   2.364   5.669  0.0724 -1.5867  0.4219
 1236TIP3    H225124   3.826   2.378   5.587 -0.1049  1.1760  0.5063
 1237TIP3   OH225125   2.918   6.579   2.150 -0.1470  0.0135  0.3646
 1237TIP3    H125126   2.994   6.523   2.162  0.4787  0.6060 -0.7019
 1237TIP3    H225127   2.954   6.668   2.149 -1.1576  0.5189  2.4467
 1238TIP3   OH225128   0.164   5.001   2.039 -0.5263  0.1247 -0.0223
 1238TIP3    H125129   0.223   5.074   2.019 -0.4600 -0.0482 -0.4868
 1238TIP3    H225130   0.118   5.028   2.118 -0.1583  0.4645  0.0806
 1239TIP3   OH225131   5.015   2.462   0.900  0.3607  0.4632  0.3074
 1239TIP3    H125132   5.053   2.446   0.813 -0.7780 -1.0475  0.0517
 1239TIP3    H225133   4.998   2.556   0.902  2.9003  0.9953 -0.0371
 1240TIP3   OH225134   6.725   3.866  15.101  0.0960 -0.3930  0.3604
 1240TIP3    H125135   6.689   3.779  15.117 -0.4779 -0.7017 -2.1018
 1240TIP3    H225136   6.806   3.850  15.053 -0.2560  0.3900 -0.5351
 1241TIP3   OH225137   3.753   4.745  16.825 -0.1347  0.1419 -0.3635
 1241TIP3    H125138   3.805   4.806  16.773  0.8848 -1.2962 -1.0758
 1241TIP3    H225139   3.781   4.761  16.915  2.1409 -1.0550 -0.7794
 1242TIP3   OH225140   2.769   0.094  16.227 -0.1777 -0.6979 -0.7419
 1242TIP3    H125141   2.832   0.075  16.297 -1.0616  0.9211  0.5645
 1242TIP3    H225142   2.717   0.014  16.220  0.3168 -1.1068  0.0084
 1243TIP3   OH225143   1.317   4.944   3.757  0.0101 -0.3748  0.4724
 1243TIP3    H125144   1.354   4.991   3.683  0.3851 -0.2977  0.7090
 1243TIP3    H225145   1.248   4.889   3.719 -0.4930  0.4284  0.2030
 1244TIP3   OH225146   1.175   1.111  16.283 -0.2549 -0.3581  0.0680
 1244TIP3    H125147   1.172   1.030  16.333  1.3831 -0.9625 -0.7637
 1244TIP3    H225148   1.186   1.180  16.349  0.4720 -1.0076  0.6330
 1245TIP3   OH225149   5.898   2.842  13.541  0.2501 -0.1112  0.4106
 1245TIP3    H125150   5.852   2.896  13.605  0.5056 -0.3569  0.7993
 1245TIP3    H225151   5.850   2.760  13.539 -0.1914  0.1523 -0.2482
 1246TIP3   OH225152   0.699   3.405  15.023 -0.2230 -0.0238  0.1210
 1246TIP3    H125153   0.757   3.480  15.040 -0.4122  0.4655 -1.2412
 1246TIP3    H225154   0.661   3.424  14.937 -1.5174 -0.9114  0.4799
 1247TIP3   OH225155   6.049   4.091  12.776  0.1352 -0.2755 -0.6879
 1247TIP3    H125156   6.127   4.042  12.800 -0.8147 -2.1758 -1.2596
 1247TIP3    H225157   5.984   4.068  12.843 -0.2375  0.5163 -0.7562
 1248TIP3   OH225158   3.689   2.414  15.376  0.1948 -0.0784 -0.0016
 1248TIP3    H125159   3.595   2.429  15.364  0.2990  0.5344 -0.1158
 1248TIP3    H225160   3.721   2.495  15.418  0.5616 -0.5364  0.6244
 1249TIP3   OH225161   5.062   2.532  11.951 -0.4566  0.0823  0.3847
 1249TIP3    H125162   4.981   2.530  12.003 -0.7638 -1.2891 -0.1141
 1249TIP3    H225163   5.080   2.626  11.939 -2.4147  0.4400 -0.1526
 1250TIP3   OH225164   2.109   1.987  11.156  0.2947 -0.4118 -0.1847
 1250TIP3    H125165   2.029   1.992  11.103  0.2557 -0.1739 -0.1090
 1250TIP3    H225166   2.180   2.001  11.094  0.2757 -0.6193 -0.2512
 1251TIP3   OH225167   2.181   3.935  11.388  0.2969  0.6344 -0.6868
 1251TIP3    H125168   2.100   3.982  11.408 -0.5787 -0.8340 -0.6110
 1251TIP3    H225169   2.251   3.990  11.424 -0.7155  1.5911 -0.1351
 1252TIP3   OH225170   4.175   6.302   3.721  0.4241 -0.3745 -0.5859
 1252TIP3    H125171   4.187   6.247   3.643  0.3922  0.2871 -1.0617
 1252TIP3    H225172   4.225   6.257   3.790 -0.2173 -1.3975 -0.7686
 1253TIP3   OH225173   0.962   2.010  13.506 -0.4226  0.2032 -0.8840
 1253TIP3    H125174   1.057   2.000  13.505 -0.3896  0.5171 -0.8248
 1253TIP3    H225175   0.947   2.104  13.493 -0.6948  0.3292  0.2498
 1254TIP3   OH225176   3.921   5.305  14.229 -0.5680  0.1865 -0.3267
 1254TIP3    H125177   3.830   5.295  14.257 -1.0611  1.1732 -1.4832
 1254TIP3    H225178   3.971   5.306  14.310 -1.3792 -1.9997  0.2847
 1255TIP3   OH225179   5.316   2.500   2.394  0.2282  0.4984 -0.5566
 1255TIP3    H125180   5.357   2.439   2.455  1.6853  1.3962 -0.5856
 1255TIP3    H225181   5.224   2.503   2.420  0.5711 -0.0906  0.7757
 1256TIP3   OH225182   6.314   0.424   2.444  0.1570 -0.0966 -0.2899
 1256TIP3    H125183   6.397   0.387   2.475  0.1774  0.1967  0.0053
 1256TIP3    H225184   6.340   0.495   2.385  0.1149  0.1706  0.0136
 1257TIP3   OH225185   3.507   4.411  14.187  0.4076  0.6798  0.1667
 1257TIP3    H125186   3.448   4.340  14.163  0.8956 -0.0952  1.2150
 1257TIP3    H225187   3.593   4.384  14.155  0.5286  0.9802  0.2262
 1258TIP3   OH225188   0.433   0.190  11.779 -0.0930 -0.1438 -0.3660
 1258TIP3    H125189   0.374   0.129  11.735 -0.9624  0.3732  0.0418
 1258TIP3    H225190   0.439   0.157  11.868 -2.2873  1.4564  0.4828
 1259TIP3   OH225191   5.915   3.155  13.745 -0.0130  0.6308 -0.2711
 1259TIP3    H125192   5.846   3.098  13.779  0.1673 -0.7639 -2.0933
 1259TIP3    H225193   5.880   3.244  13.756 -0.9926  0.1070  1.1469
 1260TIP3   OH225194   0.557   5.648  10.706 -0.3899 -0.5051 -0.0668
 1260TIP3    H125195   0.635   5.698  10.683 -1.8101  0.6994 -2.8446
 1260TIP3    H225196   0.584   5.557  10.699  0.6048 -0.1283 -1.9083
 1261TIP3   OH225197   3.674   1.511  10.472 -0.0318 -0.4445  0.3368
 1261TIP3    H125198   3.766   1.519  10.449 -0.5916 -1.2650 -2.6984
 1261TIP3    H225199   3.664   1.420  10.500 -0.4571 -1.5349 -2.9521
 1262TIP3   OH225200   4.645   4.104  10.806  0.3220 -0.2342  0.0998
 1262TIP3    H125201   4.692   4.085  10.888 -0.4178 -1.2051  0.3210
 1262TIP3    H225202   4.682   4.187  10.776 -0.4139  0.9295  2.1999
 1263TIP3   OH225203   0.214   1.931   3.240 -0.5867  0.1051 -0.6444
 1263TIP3    H125204   0.286   1.897   3.187 -0.0564  0.9637 -0.4877
 1263TIP3    H225205   0.136   1.913   3.189 -0.2250 -0.5035 -0.9869
 1264TIP3   OH225206   4.197   5.788  14.726 -0.0076  0.2203 -0.0033
 1264TIP3    H125207   4.253   5.865  14.714 -1.8378  1.6560 -0.0068
 1264TIP3    H225208   4.126   5.802  14.663 -1.4126 -0.4326  1.3814
 1265TIP3   OH225209   3.306   1.667   0.537 -0.0581 -0.3573 -0.3290
 1265TIP3    H125210   3.268   1.626   0.460  0.8420 -0.7729 -0.5634
 1265TIP3    H225211   3.236   1.724   0.571 -1.0023 -1.3490 -0.5417
 1266TIP3   OH225212   1.553   2.016   4.996 -0.6159  0.5881 -0.0136
 1266TIP3    H125213   1.615   2.081   4.963 -0.9397 -0.1555 -2.2389
 1266TIP3    H225214   1.580   1.934   4.955 -1.8494 -0.1581  0.6149
 1267TIP3   OH225215   0.258   6.520  16.238 -0.1557 -0.2781  0.5529
 1267TIP3    H125216   0.246   6.614  16.251  1.4491 -0.1714  1.4975
 1267TIP3    H225217   0.194   6.479  16.297 -2.5776  0.1312 -1.5920
 1268TIP3   OH225218   4.738   2.509   0.312  0.0586 -0.3253  0.1324
 1268TIP3    H125219   4.823   2.529   0.351  0.6936  0.6259 -1.6318
 1268TIP3    H225220   4.739   2.414   0.298  0.1985 -0.5417  1.4657
 1269TIP3   OH225221   0.863   2.381  11.488  0.1704  0.3554  0.0445
 1269TIP3    H125222   0.843   2.369  11.396  0.5595  1.6399 -0.2379
 1269TIP3    H225223   0.946   2.335  11.501 -0.1309 -0.2396 -0.1219
 1270TIP3   OH225224   1.246   6.478   2.916  0.2351  0.2943  0.0754
 1270TIP3    H125225   1.268   6.553   2.861 -0.5556  0.3523 -0.1831
 1270TIP3    H225226   1.289   6.496   3.000  0.4944  0.7723 -0.1557
 1271TIP3   OH225227   0.876   4.880  13.933  0.3861 -0.2367 -0.1269
 1271TIP3    H125228   0.790   4.866  13.892  1.0853 -0.4078 -1.6015
 1271TIP3    H225229   0.857   4.890  14.026 -1.2129 -0.4782 -0.4019
 1272TIP3   OH225230   1.180   3.423   1.061  0.8034  0.0537 -0.4587
 1272TIP3    H125231   1.181   3.333   1.094 -1.0875 -0.1508 -0.8751
 1272TIP3    H225232   1.102   3.429   1.007  1.7788  1.4970 -1.8230
 1273TIP3   OH225233   0.271   3.903   5.259 -0.3594 -0.0003 -0.2311
 1273TIP3    H125234   0.221   3.907   5.340 -0.0962 -1.4890  0.0303
 1273TIP3    H225235   0.220   3.846   5.202  1.2367 -2.0796  0.2602
 1274TIP3   OH225236   5.228   2.770   3.985 -0.4822  1.1893 -0.5819
 1274TIP3    H125237   5.191   2.700   4.038  0.7392  0.4227 -0.7233
 1274TIP3    H225238   5.199   2.850   4.029 -0.9375  0.5983  0.2376
 1275TIP3   OH225239   1.426   4.711  13.807  0.1944  0.2524 -0.3103
 1275TIP3    H125240   1.478   4.791  13.794 -1.4114  1.3906 -0.0500
 1275TIP3    H225241   1.483   4.654  13.858  0.5220  2.2018  1.6522
 1276TIP3   OH225242   2.615   6.238  10.810 -0.2075  0.4556  0.6094
 1276TIP3    H125243   2.691   6.293  10.829 -1.6345  2.3487  1.1753
 1276TIP3    H225244   2.648   6.172  10.749  2.0182  0.8163  1.3169
 1277TIP3   OH225245   5.745   1.039   4.233 -0.3470  0.1879 -0.6865
 1277TIP3    H125246   5.674   0.984   4.266  0.1135  0.3924  0.7027
 1277TIP3    H225247   5.734   1.122   4.279  1.3558 -0.0966  0.3307
 1278TIP3   OH225248   1.330   1.619   6.538  0.5411 -0.5804  0.2386
 1278TIP3    H125249   1.284   1.540   6.566  0.8864 -1.2328 -0.9919
 1278TIP3    H225250   1.267   1.666   6.484  0.7376 -0.6265 -0.0335
 1279TIP3   OH225251   1.612   6.774  14.821  0.2387  0.0820 -0.3264
 1279TIP3    H125252   1.616   6.693  14.872  1.0689  1.1369  1.3349
 1279TIP3    H225253   1.687   6.769  14.762 -0.6985 -1.1151 -1.5099
 1280TIP3   OH225254   3.152   1.530  13.025 -0.7913  0.3180  0.4696
 1280TIP3    H125255   3.134   1.511  12.933 -0.1368  3.6693 -0.4959
 1280TIP3    H225256   3.234   1.485  13.044 -0.8488 -0.2735 -0.6189
 1281TIP3   OH225257   4.924   2.883  15.556  0.3995 -0.1598 -0.7698
 1281TIP3    H125258   4.982   2.956  15.579  0.5995 -0.1909 -1.1816
 1281TIP3    H225259   4.955   2.853  15.471  1.1373 -1.5517 -0.0549
 1282TIP3   OH225260   4.875   3.456  15.249  0.1495 -0.6240  0.5502
 1282TIP3    H125261   4.943   3.499  15.300 -0.6961  0.1905  1.0172
 1282TIP3    H225262   4.846   3.522  15.186 -0.3919 -0.8746  0.5324
 1283TIP3   OH225263   0.359   2.221  11.134 -0.4943 -0.0564  0.2830
 1283TIP3    H125264   0.438   2.190  11.090 -0.4583  0.1117  0.2282
 1283TIP3    H225265   0.317   2.279  11.070  0.7755  2.0902  1.3082
 1284TIP3   OH225266   0.490   5.249  11.218 -0.3456 -0.0796 -0.1547
 1284TIP3    H125267   0.401   5.283  11.224 -1.0609 -0.8389 -3.9199
 1284TIP3    H225268   0.482   5.156  11.242 -0.6193 -0.1654 -0.5604
 1285TIP3   OH225269   0.055   6.756  14.191 -0.0146  0.2430 -0.0485
 1285TIP3    H125270   0.054   6.664  14.214 -1.6854  0.8007  2.5270
 1285TIP3    H225271  -0.014   6.766  14.126  0.1031 -0.2923 -0.2562
 1286TIP3   OH225272   5.717   2.372  11.878  0.5418  0.2480  0.0291
 1286TIP3    H125273   5.794   2.429  11.882  0.9303 -0.3571  2.4534
 1286TIP3    H225274   5.712   2.331  11.964 -0.8054 -1.9998 -1.0190
 1287TIP3   OH225275   3.017   5.762  13.514  0.5705 -0.2108  0.0590
 1287TIP3    H125276   3.082   5.703  13.476 -0.3367 -1.0235 -0.2645
 1287TIP3    H225277   2.997   5.723  13.599  0.5422  0.0733  0.1838
 1288TIP3   OH225278   0.523   0.553   3.848  0.5322  0.9601 -0.4871
 1288TIP3    H125279   0.586   0.597   3.905 -0.8991 -0.4033  2.4236
 1288TIP3    H225280   0.450   0.614   3.841  0.4119  0.8466 -0.2373
 1289TIP3   OH225281   6.223   0.040  12.619 -0.1076  0.4531 -0.0290
 1289TIP3    H125282   6.218   0.090  12.700  0.4401 -1.1940  1.0637
 1289TIP3    H225283   6.310   0.061  12.583  0.0646  0.3684  0.3439
 1290TIP3   OH225284   0.925   1.256   1.295  0.2837  0.8902  0.0143
 1290TIP3    H125285   0.980   1.196   1.244  0.3099  1.1886 -0.3087
 1290TIP3    H225286   0.986   1.300   1.354 -0.1188 -1.8789  2.7914
 1291TIP3   OH225287   2.162   4.561  13.692 -0.2603 -0.7859 -0.5272
 1291TIP3    H125288   2.083   4.612  13.709  1.3804  2.1093 -0.8233
 1291TIP3    H225289   2.197   4.541  13.779 -1.6663 -2.8609 -0.3654
 1292TIP3   OH225290   5.550   2.867  13.488  0.3789 -0.2932 -0.2499
 1292TIP3    H125291   5.598   2.821  13.558  0.1734 -0.3940 -0.1754
 1292TIP3    H225292   5.601   2.850  13.409 -0.1725 -1.4004 -0.3928
 1293TIP3   OH225293   3.024   3.380   5.845 -0.1492  0.2914 -0.3055
 1293TIP3    H125294   3.053   3.311   5.905  0.3575  0.4353 -0.3774
 1293TIP3    H225295   3.105   3.424   5.819 -0.4742  0.9525 -0.2130
 1294TIP3   OH225296   5.216   1.105   0.264 -0.4524 -0.2958 -0.1499
 1294TIP3    H125297   5.223   1.186   0.214  0.7600 -0.2864  0.0194
 1294TIP3    H225298   5.201   1.037   0.198  0.7236 -0.2290 -0.5039
 1295TIP3   OH225299   5.195   3.449   0.737 -0.3842  0.0188 -0.3743
 1295TIP3    H125300   5.118   3.486   0.693 -0.5319  1.0205  0.7085
 1295TIP3    H225301   5.240   3.524   0.776  1.3047 -0.5118 -1.1947
 1296TIP3   OH225302   4.260   3.498  14.934  0.2023 -0.1768  0.5059
 1296TIP3    H125303   4.251   3.412  14.976  0.0734  0.3551  1.5904
 1296TIP3    H225304   4.170   3.524  14.914  0.2706 -0.4725 -0.2021
 1297TIP3   OH225305   1.819   1.103  10.896  0.0021  0.3603  0.0648
 1297TIP3    H125306   1.771   1.185  10.887 -0.4615  0.2749  1.4560
 1297TIP3    H225307   1.770   1.041  10.841  0.8186  1.1540 -1.6342
 1298TIP3   OH225308   2.282   0.574   1.792 -0.0371  0.3522 -0.0326
 1298TIP3    H125309   2.279   0.484   1.758 -2.0382  0.0134  0.8561
 1298TIP3    H225310   2.229   0.625   1.731  1.4434  1.0664 -0.7723
 1299TIP3   OH225311   3.839   6.452  15.663  0.3617  0.2637  0.2709
 1299TIP3    H125312   3.892   6.392  15.611  0.5100  0.4267  0.2323
 1299TIP3    H225313   3.875   6.539  15.643  0.6396  0.2962  0.8984
 1300TIP3   OH225314   2.663   3.666   5.898 -0.7561  0.1672  0.8091
 1300TIP3    H125315   2.648   3.758   5.919  0.2567  0.3764  0.7020
 1300TIP3    H225316   2.758   3.660   5.886 -0.7528 -0.9830  1.2595
 1301TIP3   OH225317   4.184   3.639  12.452  0.1891 -0.4343 -0.4897
 1301TIP3    H125318   4.263   3.652  12.400  0.7576 -1.7837 -0.0049
 1301TIP3    H225319   4.211   3.581  12.523 -0.7459  0.7277  0.8785
 1302TIP3   OH225320   4.384   3.563  10.202  0.4987 -0.0785 -0.0670
 1302TIP3    H125321   4.468   3.607  10.195  0.3111  0.4592  0.7791
 1302TIP3    H225322   4.403   3.482  10.249  0.4644  0.3707  0.7608
 1303TIP3   OH225323   5.928   5.344  13.203  0.0523 -0.3121  0.8202
 1303TIP3    H125324   5.890   5.302  13.126 -0.8814 -2.0492  2.1644
 1303TIP3    H225325   6.015   5.305  13.211 -0.1536 -0.7269  1.0775
 1304TIP3   OH225326   0.732   5.920   6.290  0.1666  0.2275 -0.3299
 1304TIP3    H125327   0.814   5.893   6.331 -0.2147  0.7624  0.8313
 1304TIP3    H225328   0.757   5.987   6.227  0.6608  0.1311 -0.2426
 1305TIP3   OH225329   2.581   0.739  11.299 -0.1479  0.0547  0.1419
 1305TIP3    H125330   2.665   0.739  11.253 -1.2967 -1.4712 -2.1527
 1305TIP3    H225331   2.604   0.737  11.391  2.3910 -1.6923 -0.4331
 1306TIP3   OH225332   4.632   0.683  15.443 -0.4565 -0.3426 -0.0470
 1306TIP3    H125333   4.691   0.616  15.477 -0.7119 -0.0102  1.0762
 1306TIP3    H225334   4.690   0.750  15.406 -0.0423  0.4208  1.8544
 1307TIP3   OH225335   4.339   3.408  12.242 -0.1662  0.4692  0.3941
 1307TIP3    H125336   4.418   3.368  12.206  0.0092  1.3469 -0.2169
 1307TIP3    H225337   4.325   3.361  12.325  0.1472 -0.6970 -0.1866
 1308TIP3   OH225338   5.781   5.880  10.625 -0.1553  0.2128  0.0455
 1308TIP3    H125339   5.841   5.949  10.595 -1.5515  1.3085 -0.3134
 1308TIP3    H225340   5.694   5.912  10.601 -1.1177 -0.2271  2.6464
 1309TIP3   OH225341   1.511   5.663   0.647  0.1352 -0.3670 -0.1660
 1309TIP3    H125342   1.563   5.737   0.615 -0.9932  1.0294  1.0300
 1309TIP3    H225343   1.421   5.684   0.619 -0.3833 -0.6544  1.2092
 1310TIP3   OH225344   0.780   1.108   2.511  0.3130  0.2602 -1.1854
 1310TIP3    H125345   0.779   1.030   2.567  0.2589  1.6051  0.7830
 1310TIP3    H225346   0.753   1.075   2.425 -1.5452 -1.5984 -0.0084
 1311TIP3   OH225347   2.742   1.460   0.285  0.1157  0.6870  0.0959
 1311TIP3    H125348   2.789   1.468   0.202 -1.0431 -0.2053 -0.6735
 1311TIP3    H225349   2.776   1.379   0.324 -0.4973  0.2436 -0.2818
 1312TIP3   OH225350   2.014   4.629   1.720  0.0445 -0.5423  0.9405
 1312TIP3    H125351   2.085   4.591   1.772  1.1892  0.7033  0.3478
 1312TIP3    H225352   2.056   4.695   1.666 -1.8633  1.7426  2.0728
 1313TIP3   OH225353   2.331   5.715  13.174  0.1068 -0.2076  0.2529
 1313TIP3    H125354   2.357   5.743  13.262 -1.2844  0.1971  0.5748
 1313TIP3    H225355   2.235   5.712  13.178 -0.1829  2.2892 -1.9413
 1314TIP3   OH225356   3.888   2.517   3.999  0.0093  0.0646 -0.9648
 1314TIP3    H125357   3.829   2.441   4.007  1.6225 -1.1598 -0.1881
 1314TIP3    H225358   3.975   2.479   3.996  1.0153  1.9574  1.3575
 1315TIP3   OH225359   6.655   2.079   2.066 -0.5206 -0.7306  0.0786
 1315TIP3    H125360   6.626   2.170   2.072 -0.4913 -0.5310 -2.0801
 1315TIP3    H225361   6.591   2.037   2.008  0.6326 -1.5634 -0.6313
 1316TIP3   OH225362   5.827   1.432   2.944 -0.9718 -0.1029  0.5779
 1316TIP3    H125363   5.856   1.508   2.894 -1.6780 -0.2849 -0.1426
 1316TIP3    H225364   5.895   1.418   3.010  0.4873 -0.4343 -0.9332
 1317TIP3   OH225365   2.788   3.897  11.547 -0.2379 -0.3928  0.6404
 1317TIP3    H125366   2.719   3.866  11.605  0.4116  0.0738  1.7006
 1317TIP3    H225367   2.869   3.867  11.589  0.2760  0.5930  0.3780
 1318TIP3   OH225368   0.500   1.855  13.788  0.0756  0.7700 -0.3616
 1318TIP3    H125369   0.538   1.787  13.843 -0.5321  1.4946  0.9960
 1318TIP3    H225370   0.428   1.812  13.742 -0.8116  0.6409  1.0736
 1319TIP3   OH225371   2.967   6.773  11.444 -1.2694 -0.4218  0.3964
 1319TIP3    H125372   2.942   6.850  11.394  0.2611 -0.5224 -0.5807
 1319TIP3    H225373   2.993   6.709  11.379  1.5178 -0.2907  1.2512
 1320TIP3   OH225374   3.756   5.237   0.778  0.1037  0.2020 -0.0538
 1320TIP3    H125375   3.750   5.326   0.812  1.5849  0.0060  0.8280
 1320TIP3    H225376   3.732   5.181   0.852 -0.2602 -0.1455 -0.4302
 1321TIP3   OH225377   2.702   5.479   4.765  0.2854  0.2095  0.2798
 1321TIP3    H125378   2.758   5.426   4.710 -0.7138 -2.2087  1.4125
 1321TIP3    H225379   2.737   5.568   4.758  2.8853 -0.8045 -0.6847
 1322TIP3   OH225380   4.789   4.852   0.863  0.3277 -0.0582 -0.0110
 1322TIP3    H125381   4.812   4.760   0.848 -1.7560 -1.0326  2.1583
 1322TIP3    H225382   4.717   4.869   0.802  1.1248  0.3947 -0.8634
 1323TIP3   OH225383   3.105   6.013  15.101  0.2666 -0.9595 -0.4670
 1323TIP3    H125384   3.131   6.075  15.168 -0.0918  1.0741 -2.1145
 1323TIP3    H225385   3.121   5.927  15.140  1.5124  0.1444  1.6110
 1324TIP3   OH225386   4.628   0.786  14.548  0.1426 -0.0128 -0.1068
 1324TIP3    H125387   4.625   0.828  14.633  0.8586  0.1378 -0.1521
 1324TIP3    H225388   4.545   0.739  14.541 -0.5280  1.1144  0.0796
 1325TIP3   OH225389   3.241   4.777   4.204 -0.2296  0.1276  0.2644
 1325TIP3    H125390   3.180   4.719   4.158  1.3376 -1.3527 -0.0483
 1325TIP3    H225391   3.197   4.797   4.287 -2.6071  1.9086 -1.2694
 1326TIP3   OH225392   3.387   0.752   5.265  0.0269  0.3569  0.2294
 1326TIP3    H125393   3.357   0.713   5.182 -0.1352 -0.5427  0.7059
 1326TIP3    H225394   3.393   0.846   5.245 -1.2248  0.3245 -0.4487
 1327TIP3   OH225395   2.221   1.665   3.914  0.1953  0.1823  0.2424
 1327TIP3    H125396   2.158   1.638   3.848  1.0439  0.1076 -0.5527
 1327TIP3    H225397   2.285   1.593   3.916 -0.5386 -0.4781  2.1242
 1328TIP3   OH225398   1.469   4.368  13.049  0.2159 -0.0396 -0.5615
 1328TIP3    H125399   1.481   4.281  13.011  3.5785 -0.2723  0.6608
 1328TIP3    H225400   1.534   4.422  13.004 -3.2865  2.6388 -2.9771
 1329TIP3   OH225401   3.524   4.854  14.318  0.0071 -0.3073 -0.9628
 1329TIP3    H125402   3.493   4.764  14.325 -1.3405  0.1454 -0.9520
 1329TIP3    H225403   3.446   4.906  14.300  0.6489  0.9577 -0.2575
 1330TIP3   OH225404   4.651   5.170   6.403 -0.1013 -0.1935  0.1366
 1330TIP3    H125405   4.685   5.082   6.415  0.3300 -0.2153 -1.0431
 1330TIP3    H225406   4.685   5.220   6.476  1.0069 -0.6388 -0.0592
 1331TIP3   OH225407   0.742   0.237  10.939 -0.4983 -0.0721 -0.2823
 1331TIP3    H125408   0.681   0.196  10.878 -1.9831  1.0529  0.3958
 1331TIP3    H225409   0.782   0.308  10.889 -1.9501  1.0531  0.1059
 1332TIP3   OH225410   1.970   6.347   0.964 -0.4980  0.0432  0.4760
 1332TIP3    H125411   1.966   6.426   1.019  0.7679 -0.2561  1.0500
 1332TIP3    H225412   1.889   6.300   0.983 -0.7367  0.6514  1.0128
 1333TIP3   OH225413   3.515   4.913   0.513 -0.1820  0.2767 -0.3529
 1333TIP3    H125414   3.442   4.855   0.536 -0.1257  0.0444 -0.7462
 1333TIP3    H225415   3.504   4.989   0.570 -1.0547  0.4935 -0.7971
 1334TIP3   OH225416   1.077   1.277  11.599 -0.6127  0.1665 -0.3878
 1334TIP3    H125417   1.106   1.232  11.520 -1.5755 -1.5302  0.1877
 1334TIP3    H225418   1.005   1.334  11.569  0.5781  1.3587 -1.1026
 1335TIP3   OH225419   2.030   3.094  13.020 -0.3919 -0.0181 -0.2383
 1335TIP3    H125420   2.018   3.053  12.934 -0.7879 -1.7688  0.6079
 1335TIP3    H225421   2.124   3.104  13.029 -0.2555 -1.1240 -0.3210
 1336TIP3   OH225422   3.090   3.571  12.274 -0.5717  0.0003 -0.0784
 1336TIP3    H125423   3.011   3.624  12.262 -1.2856 -0.8244  0.9292
 1336TIP3    H225424   3.091   3.512  12.198 -1.2655 -0.4072  0.2199
 1337TIP3   OH225425   4.211   0.623   2.828  0.4090  0.2936  0.8003
 1337TIP3    H125426   4.216   0.681   2.904 -0.3163 -1.1125  1.9672
 1337TIP3    H225427   4.124   0.636   2.793  0.6860  0.8197  0.2931
 1338TIP3   OH225428   3.198   4.603   1.420 -0.3620  0.1155  0.4031
 1338TIP3    H125429   3.238   4.554   1.349  0.7603  0.9527  0.4321
 1338TIP3    H225430   3.272   4.645   1.465 -0.9290 -1.0425  2.5813
 1339TIP3   OH225431   1.142   2.907   1.870  0.1241 -0.0261 -0.1925
 1339TIP3    H125432   1.105   2.887   1.956  0.2479 -1.8338 -0.5039
 1339TIP3    H225433   1.066   2.925   1.814 -0.0104  0.3374  0.1063
 1340TIP3   OH225434   2.267   0.423  13.822 -0.2124  0.2689 -0.1415
 1340TIP3    H125435   2.353   0.466  13.819 -0.2609  0.3459 -2.0495
 1340TIP3    H225436   2.253   0.394  13.732 -1.4470 -1.2610  0.5103
 1341TIP3   OH225437   0.302   3.837   2.431 -0.7018  0.3657  0.1920
 1341TIP3    H125438   0.210   3.856   2.409 -0.9243 -0.6360  0.2154
 1341TIP3    H225439   0.319   3.751   2.392 -0.0383  0.1433  0.9430
 1342TIP3   OH225440   4.698   5.684   3.964 -0.3335 -0.0431 -0.0355
 1342TIP3    H125441   4.709   5.589   3.966  0.6481  0.0664  0.3698
 1342TIP3    H225442   4.642   5.700   3.889  0.5497 -0.8549 -0.8994
 1343TIP3   OH225443   3.868   6.634   6.373 -0.4681 -0.2208 -0.9332
 1343TIP3    H125444   3.810   6.711   6.375  0.2468  0.3197 -0.8400
 1343TIP3    H225445   3.935   6.656   6.308  1.1840  0.2979  0.8554
 1344TIP3   OH225446   3.316   3.105  13.372  0.2272  0.6138 -0.0680
 1344TIP3    H125447   3.239   3.048  13.376  0.4710  0.3536  1.1577
 1344TIP3    H225448   3.308   3.150  13.287  1.3974 -3.1634 -2.4400
 1345TIP3   OH225449   2.299   1.481   3.093 -0.0983  0.2813  0.4850
 1345TIP3    H125450   2.355   1.434   3.031 -1.5125 -0.4337 -0.2994
 1345TIP3    H225451   2.335   1.570   3.095 -0.8909  0.7906 -2.5821
 1346TIP3   OH225452   4.941   3.792  11.842 -0.1713 -0.3303 -0.0966
 1346TIP3    H125453   4.939   3.887  11.838 -0.1659 -0.3659 -1.2724
 1346TIP3    H225454   4.873   3.764  11.781  1.0566 -1.0876 -1.1735
 1347TIP3   OH225455   0.640   1.060   1.037  0.2248 -0.2524 -0.1790
 1347TIP3    H125456   0.719   1.022   1.075 -0.1994 -1.2764 -0.2711
 1347TIP3    H225457   0.669   1.100   0.956  0.9292  0.8682  0.6052
 1348TIP3   OH225458   2.772   4.418  14.472  0.0215  0.2112  0.3677
 1348TIP3    H125459   2.814   4.335  14.448 -0.5899 -0.7553  2.4179
 1348TIP3    H225460   2.731   4.448  14.391  0.0381 -1.6306 -0.3904
 1349TIP3   OH225461   1.951   0.217   2.482 -0.1308 -0.4345 -0.4269
 1349TIP3    H125462   1.991   0.300   2.454  0.3069 -0.4726  0.0802
 1349TIP3    H225463   1.861   0.241   2.506  0.2543  0.0581  0.5659
 1350TIP3   OH225464   1.213   3.768   5.000 -0.0903 -0.5071 -0.0232
 1350TIP3    H125465   1.301   3.748   5.031  0.3267  1.3371  0.1071
 1350TIP3    H225466   1.156   3.718   5.058  0.8437 -0.8294  0.6476
 1351TIP3   OH225467   2.812   0.121   4.976  0.5241 -0.3734  0.3604
 1351TIP3    H125468   2.757   0.145   4.901  0.6349 -0.9047  0.1021
 1351TIP3    H225469   2.861   0.200   4.996  0.0616 -0.0518  0.2464
 1352TIP3   OH225470   1.084   0.577   2.261  1.0119 -0.4403 -0.1048
 1352TIP3    H125471   1.151   0.539   2.205  0.7464  0.2532 -0.9090
 1352TIP3    H225472   1.109   0.669   2.271 -0.2125  0.0302 -1.0647
 1353TIP3   OH225473   6.381   0.992   1.713  0.6060 -0.1845 -0.2107
 1353TIP3    H125474   6.402   0.984   1.620 -0.3424  0.1547 -0.4667
 1353TIP3    H225475   6.321   1.067   1.717 -0.4606 -1.0515  0.4879
 1354TIP3   OH225476   4.395   2.058  12.455 -0.0026 -0.4117  1.1499
 1354TIP3    H125477   4.479   2.057  12.500  0.2500  0.8868  0.7499
 1354TIP3    H225478   4.360   2.146  12.471  0.3418  0.3258 -1.5746
 1355TIP3   OH225479   5.076   1.964   6.160 -0.0502 -0.3635 -0.2866
 1355TIP3    H125480   5.015   1.893   6.141 -0.0535 -0.6760  0.8348
 1355TIP3    H225481   5.161   1.930   6.133 -0.2524 -0.2241 -1.1209
 1356TIP3   OH225482   6.510   2.708   3.539  0.1474  0.2578  0.5935
 1356TIP3    H125483   6.451   2.652   3.591 -0.3213  0.0132 -0.1842
 1356TIP3    H225484   6.593   2.704   3.585 -0.6935  1.5031  2.3685
 1357TIP3   OH225485   5.650   1.615   1.925 -0.0395 -0.2564 -0.0995
 1357TIP3    H125486   5.659   1.642   1.834  0.3133  0.5304  0.1555
 1357TIP3    H225487   5.617   1.525   1.921 -3.3044  0.8522 -0.9907
 1358TIP3   OH225488   5.013   3.510  16.334 -0.0787  0.2064  0.3771
 1358TIP3    H125489   5.082   3.566  16.369  1.2560  0.2369 -2.1029
 1358TIP3    H225490   5.048   3.421  16.341 -0.7082  0.0008  1.0557
 1359TIP3   OH225491   1.910   3.988   5.056  0.3545  0.0415 -0.3683
 1359TIP3    H125492   1.847   3.925   5.090  0.8454  0.3087  1.1091
 1359TIP3    H225493   1.858   4.052   5.008 -0.5723  0.4417  1.0955
 1360TIP3   OH225494   0.026   4.307  14.551  0.2427 -0.1729 -0.6414
 1360TIP3    H125495  -0.053   4.340  14.594  0.4261 -0.7441  0.1494
 1360TIP3    H225496  -0.002   4.287  14.461 -0.1423  1.0336 -0.8131
 1361TIP3   OH225497   0.530   4.036   2.449  0.2807  0.2615 -0.6804
 1361TIP3    H125498   0.465   3.966   2.447  0.3206  0.1200  1.1204
 1361TIP3    H225499   0.614   3.992   2.445  0.3469  0.0282  1.7101
 1362TIP3   OH225500   1.865   5.649  12.127  0.0333 -0.3497  0.1885
 1362TIP3    H125501   1.790   5.705  12.149  0.2160 -0.4507  1.1177
 1362TIP3    H225502   1.854   5.572  12.182  0.4577 -0.6758 -0.1761
 1363TIP3   OH225503   4.824   6.110  14.731 -0.5283 -0.3033 -0.4573
 1363TIP3    H125504   4.842   6.204  14.729  0.0242 -0.4165 -0.9952
 1363TIP3    H225505   4.910   6.069  14.726 -0.7187 -0.8450  0.3767
 1364TIP3   OH225506   4.113   4.424  14.932  0.2927  0.2762 -0.7277
 1364TIP3    H125507   4.111   4.340  14.977 -2.2849  0.3292 -0.5480
 1364TIP3    H225508   4.133   4.488  15.001  1.5638 -0.0964 -0.7305
 1365TIP3   OH225509   2.053   0.173   5.485 -0.7417 -0.0901  0.2546
 1365TIP3    H125510   2.133   0.219   5.460 -0.8127  1.7478  2.9962
 1365TIP3    H225511   2.084   0.090   5.521 -0.5141 -1.7042 -3.2603
 1366TIP3   OH225512   6.593   0.468   2.539 -0.3230  0.2134 -0.5300
 1366TIP3    H125513   6.611   0.504   2.626  0.0928 -0.0935 -0.4803
 1366TIP3    H225514   6.680   0.449   2.504 -0.5203 -0.4611 -0.6677
 1367TIP3   OH225515   1.583   6.747   2.164  0.8567  0.0325  0.6747
 1367TIP3    H125516   1.587   6.668   2.218 -0.6190  0.4859  1.5147
 1367TIP3    H225517   1.614   6.719   2.078  2.5804 -0.8826  1.5284
 1368TIP3   OH225518   6.177   5.785   5.262 -0.1305  0.2153  0.1609
 1368TIP3    H125519   6.153   5.785   5.169 -2.4291  1.7545  0.6520
 1368TIP3    H225520   6.269   5.759   5.264  0.8852  2.9447 -2.8165
 1369TIP3   OH225521   4.601   5.656  13.426 -0.7502  0.3751 -0.3616
 1369TIP3    H125522   4.577   5.737  13.470  1.6126  2.0191 -1.8917
 1369TIP3    H225523   4.618   5.681  13.336  2.1426 -1.3196 -0.4194
 1370TIP3   OH225524   1.407   3.463  15.933 -0.1103  0.1496  0.6304
 1370TIP3    H125525   1.356   3.478  15.854  1.8694 -1.7145 -1.1113
 1370TIP3    H225526   1.361   3.392  15.978  1.0546 -1.8503 -1.1701
 1371TIP3   OH225527   0.757   3.013   0.789 -0.6551 -0.4483 -0.2238
 1371TIP3    H125528   0.666   3.006   0.818 -0.7376  0.4693 -0.2180
 1371TIP3    H225529   0.797   2.930   0.814 -1.0869 -0.2534  1.1986
 1372TIP3   OH225530   2.855   0.769   1.558 -0.4527  0.2588  0.2292
 1372TIP3    H125531   2.937   0.809   1.588  0.1904 -0.5420 -0.3867
 1372TIP3    H225532   2.871   0.674   1.564  0.1757 -0.0588 -3.5176
 1373TIP3   OH225533   0.915   0.543   0.197 -0.0585  0.3283  0.1196
 1373TIP3    H125534   0.931   0.533   0.291  0.9217 -1.1259 -0.1588
 1373TIP3    H225535   0.889   0.634   0.187 -1.6654  0.1454  1.9928
 1374TIP3   OH225536   5.671   3.733  13.743 -0.0274  0.4486 -0.2510
 1374TIP3    H125537   5.757   3.772  13.732  0.3616 -0.7824 -1.9779
 1374TIP3    H225538   5.609   3.803  13.723  0.5120  1.5031  1.5666
 1375TIP3   OH225539   5.871   6.058   0.597  0.7641  0.2204  0.2342
 1375TIP3    H125540   5.958   6.050   0.557  0.6560 -1.3928  0.2564
 1375TIP3    H225541   5.888   6.061   0.691  0.8321  0.7646  0.2086
 1376TIP3   OH225542   0.296   0.627  14.202  0.1333  0.0230  0.1144
 1376TIP3    H125543   0.263   0.544  14.167 -0.3976  0.8362 -1.4342
 1376TIP3    H225544   0.336   0.604  14.285 -1.8454 -1.4729  0.7433
 1377TIP3   OH225545   0.170   3.589   5.630  0.0696 -0.2130  0.0383
 1377TIP3    H125546   0.192   3.547   5.714  2.1831  1.6053  0.4840
 1377TIP3    H225547   0.224   3.542   5.566  1.4976  0.9183  0.3544
 1378TIP3   OH225548   2.383   4.117   4.518 -0.2551 -0.2708  0.1002
 1378TIP3    H125549   2.388   4.065   4.599  1.1206  0.3886  0.4650
 1378TIP3    H225550   2.450   4.078   4.461 -0.5669 -0.1278 -0.3636
 1379TIP3   OH225551   2.205   4.414   3.477 -0.0614 -0.3007  0.5384
 1379TIP3    H125552   2.180   4.503   3.503 -0.9803  1.4062 -4.8447
 1379TIP3    H225553   2.293   4.425   3.439 -0.3682 -1.5390 -0.5835
 1380TIP3   OH225554   1.775   4.574   2.458  0.5091 -0.4971 -0.0012
 1380TIP3    H125555   1.788   4.619   2.374 -0.8030  0.3810  0.2311
 1380TIP3    H225556   1.858   4.528   2.474  1.0817  0.0134 -1.3598
 1381TIP3   OH225557   5.730   2.631   1.192 -0.9426 -0.0137  0.2154
 1381TIP3    H125558   5.773   2.614   1.109 -0.5867 -1.3352  0.6405
 1381TIP3    H225559   5.689   2.547   1.215  0.1771 -0.1062  2.0564
 1382TIP3   OH225560   4.891   1.699  10.505  0.7484 -0.0621 -0.1622
 1382TIP3    H125561   4.903   1.791  10.529  0.3586 -0.1337  0.3376
 1382TIP3    H225562   4.952   1.651  10.561  0.2663 -0.1819  0.2692
 1383TIP3   OH225563   3.526   6.758   0.095  0.2775 -0.3884 -0.0412
 1383TIP3    H125564   3.489   6.742   0.182  2.5527 -0.7171  0.9174
 1383TIP3    H225565   3.580   6.836   0.106  1.0573 -0.7784 -1.0215
 1384TIP3   OH225566   2.551   5.181  14.576  0.4927  0.2448 -0.4127
 1384TIP3    H125567   2.539   5.114  14.509 -0.1071  1.1372 -1.2234
 1384TIP3    H225568   2.482   5.245  14.559  0.9700  1.0091  0.4192
 1385TIP3   OH225569   3.897   4.704   6.518 -0.0566 -0.0264 -0.5684
 1385TIP3    H125570   3.895   4.751   6.601 -1.8057 -0.7926 -0.1222
 1385TIP3    H225571   3.990   4.695   6.497  0.6253 -2.2639  2.7577
 1386TIP3   OH225572   4.172   1.909  13.582  0.1972  0.2443 -0.0466
 1386TIP3    H125573   4.155   1.817  13.561  0.1660  0.4874 -1.1584
 1386TIP3    H225574   4.250   1.931  13.531 -0.3101  1.0744 -0.4980
 1387TIP3   OH225575   2.802   5.622  16.855  0.4068  0.3385  0.9635
 1387TIP3    H125576   2.845   5.638  16.771  0.8110 -0.1151  1.0839
 1387TIP3    H225577   2.745   5.547  16.838  0.1319  0.5433  0.9717
 1388TIP3   OH225578   6.694   0.754  11.814 -0.0116  0.1240  0.1472
 1388TIP3    H125579   6.712   0.827  11.755 -0.3211 -0.1924 -0.3529
 1388TIP3    H225580   6.768   0.752  11.874 -0.7445  1.8183  1.1672
 1389TIP3   OH225581   4.447   4.371   4.564  0.5123  0.1327  0.1662
 1389TIP3    H125582   4.389   4.443   4.586  0.6364  1.1267 -2.3827
 1389TIP3    H225583   4.389   4.297   4.549  0.0282  0.6534 -0.6120
 1390TIP3   OH225584   1.668   1.721  13.966  0.1780 -0.3178 -0.0584
 1390TIP3    H125585   1.724   1.790  14.002 -0.0831  0.5038 -1.1994
 1390TIP3    H225586   1.604   1.767  13.913  0.5111 -1.5006 -1.5422
 1391TIP3   OH225587   4.227   6.391   2.340  0.5721  0.2720  0.4319
 1391TIP3    H125588   4.297   6.453   2.356  0.9194 -0.3999  1.5784
 1391TIP3    H225589   4.247   6.316   2.396  0.0315 -0.7840 -0.7362
 1392TIP3   OH225590   4.685   5.976   2.787  0.1942 -0.5046 -0.3018
 1392TIP3    H125591   4.711   5.898   2.739  1.8829  0.4768 -1.0912
 1392TIP3    H225592   4.601   6.001   2.748 -1.9370 -3.4253  1.9138
 1393TIP3   OH225593   2.006   4.725  10.751 -0.1125  0.6877  0.1508
 1393TIP3    H125594   2.085   4.683  10.717 -0.4031  1.6605 -1.9217
 1393TIP3    H225595   1.975   4.779  10.678 -2.2902  0.8990  1.1579
 1394TIP3   OH225596   5.957   6.734  12.505  0.2862  0.0923 -0.6286
 1394TIP3    H125597   5.876   6.748  12.555  0.2699  1.5564 -1.0308
 1394TIP3    H225598   6.026   6.770  12.561  0.5425 -0.2248 -0.7378
 1395TIP3   OH225599   1.151   0.484  12.190 -0.8175 -0.3804 -0.7710
 1395TIP3    H125600   1.188   0.447  12.109 -2.0347 -2.1003 -0.5736
 1395TIP3    H225601   1.114   0.409  12.236 -0.7610  0.6809  1.0828
 1396TIP3   OH225602   0.733   5.828  12.132 -0.2815  0.6378  0.0735
 1396TIP3    H125603   0.702   5.840  12.221  1.4239  3.2495  0.4011
 1396TIP3    H225604   0.818   5.872  12.129  1.0604 -1.7672 -2.1276
 1397TIP3   OH225605   3.338   5.145   3.256 -0.2457  0.1835 -0.2980
 1397TIP3    H125606   3.243   5.157   3.258 -1.0187 -4.0394 -0.8638
 1397TIP3    H225607   3.365   5.179   3.171 -0.7729  3.3922  0.7112
 1398TIP3   OH225608   5.835   1.705   0.650 -0.2961 -0.2507  0.7852
 1398TIP3    H125609   5.796   1.789   0.626 -1.5022 -1.1756 -0.6377
 1398TIP3    H225610   5.763   1.642   0.643  1.0740 -1.7679 -0.3720
 1399TIP3   OH225611   3.218   1.658   4.704  0.7531  0.0549 -0.4052
 1399TIP3    H125612   3.195   1.651   4.797  0.4092 -0.3265 -0.5164
 1399TIP3    H225613   3.133   1.667   4.659  0.9570  1.1697 -0.6092
 1400TIP3   OH225614   1.252   0.479   5.547 -0.2437 -0.3370  0.0466
 1400TIP3    H125615   1.224   0.536   5.475 -1.0469 -0.8078 -0.0235
 1400TIP3    H225616   1.176   0.475   5.605  0.5714  0.4904  1.2356
 1401TIP3   OH225617   1.644   3.844  13.922  0.8447 -0.0911  0.1018
 1401TIP3    H125618   1.686   3.782  13.863 -0.3445 -0.7445 -0.0822
 1401TIP3    H225619   1.593   3.901  13.865  0.4862 -0.0949  0.4144
 1402TIP3   OH225620   1.260   2.403   2.373  0.5527  0.5034  0.2774
 1402TIP3    H125621   1.179   2.441   2.340  1.0709  2.0715  0.7160
 1402TIP3    H225622   1.314   2.391   2.294  0.5554  1.1338  0.1783
 1403TIP3   OH225623   1.282   3.187   4.945 -0.5871 -0.3249 -0.4279
 1403TIP3    H125624   1.347   3.204   4.877 -0.6689 -0.1068 -0.4519
 1403TIP3    H225625   1.320   3.117   4.998  0.1961  0.6154  0.2692
 1404TIP3   OH225626   3.564   5.892   4.026  0.4266 -0.0753  0.1359
 1404TIP3    H125627   3.658   5.880   4.039  0.3357 -1.7902 -0.4612
 1404TIP3    H225628   3.538   5.817   3.971 -1.2482  0.4659  0.1389
 1405TIP3   OH225629   4.371   1.072   5.521 -0.2509  0.1957 -0.1083
 1405TIP3    H125630   4.351   1.021   5.600 -0.4100  0.5658  0.0910
 1405TIP3    H225631   4.287   1.112   5.496  0.2877  2.1185  0.9834
 1406TIP3   OH225632   5.931   5.984   3.166 -0.0296 -0.2165  0.4215
 1406TIP3    H125633   5.900   5.992   3.076 -1.4845  1.8014  1.0369
 1406TIP3    H225634   5.860   6.019   3.219  1.1817 -0.4726  2.3011
 1407TIP3   OH225635   1.112   1.130  10.505 -0.1865 -0.0396 -0.1516
 1407TIP3    H125636   1.176   1.197  10.528  0.0491 -0.8795  1.8157
 1407TIP3    H225637   1.039   1.179  10.465  0.3678  1.2700  0.3873
 1408TIP3   OH225638   5.113   2.845   1.749 -0.0072 -0.3238 -0.1199
 1408TIP3    H125639   5.053   2.843   1.824  0.0035 -1.6940 -0.1166
 1408TIP3    H225640   5.058   2.818   1.675 -0.4755  2.7045 -1.0147
 1409TIP3   OH225641   0.433   2.769   4.045  0.1572  0.2366 -0.9331
 1409TIP3    H125642   0.371   2.808   3.984 -0.7922  1.5738  0.7980
 1409TIP3    H225643   0.468   2.842   4.095  0.0753 -0.8861  0.8524
 1410TIP3   OH225644   5.583   2.053   5.836 -0.2138 -0.4197  0.1346
 1410TIP3    H125645   5.488   2.067   5.839 -0.2280  0.1921 -1.6900
 1410TIP3    H225646   5.597   2.008   5.752  1.2239  0.6883 -0.2562
 1411TIP3   OH225647   6.467   4.174   1.274  0.2091 -0.2407  0.5433
 1411TIP3    H125648   6.528   4.247   1.281 -0.7997  0.7211 -0.2802
 1411TIP3    H225649   6.477   4.142   1.184  2.0406 -2.4516  1.4171
 1412TIP3   OH225650   4.149   0.246   3.070 -0.4351 -0.0334  0.0902
 1412TIP3    H125651   4.158   0.315   3.135  0.5834 -1.6382  1.7327
 1412TIP3    H225652   4.055   0.241   3.053 -0.7563  0.2767  1.6329
 1413TIP3   OH225653   4.879   5.154   2.035  0.1143 -0.3081 -0.2002
 1413TIP3    H125654   4.874   5.249   2.048  1.8665  0.2731 -2.7625
 1413TIP3    H225655   4.816   5.136   1.965 -0.0043 -0.9741  0.0738
 1414TIP3   OH225656   4.205   4.999   4.841 -1.0572  0.4511  0.0874
 1414TIP3    H125657   4.144   4.928   4.822 -1.0426 -0.0826  1.9098
 1414TIP3    H225658   4.287   4.955   4.864 -0.5369  1.1208 -0.3940
 1415TIP3   OH225659   6.593   1.840   2.521  0.3045  0.6751  0.1793
 1415TIP3    H125660   6.627   1.779   2.586 -1.3162 -0.7098 -0.1896
 1415TIP3    H225661   6.601   1.794   2.438 -0.3245  1.2418 -0.2068
 1416TIP3   OH225662   4.581   5.478   4.234 -0.9488 -0.5112  0.3950
 1416TIP3    H125663   4.596   5.417   4.162  0.4319 -0.3827  0.5512
 1416TIP3    H225664   4.655   5.464   4.293 -0.1289  1.8651  0.0439
 1417TIP3   OH225665   5.719   5.354  14.750 -0.1262  0.0794 -0.0868
 1417TIP3    H125666   5.709   5.393  14.663  0.9967  0.5373 -0.0158
 1417TIP3    H225667   5.749   5.426  14.805  0.8805 -0.6130  0.2872
 1418TIP3   OH225668   2.871   5.358   2.409  0.0045  0.1645 -0.2160
 1418TIP3    H125669   2.939   5.296   2.386 -1.3960 -1.0454 -1.3134
 1418TIP3    H225670   2.863   5.351   2.504  1.9056  0.9205  0.0326
 1419TIP3   OH225671   2.374   4.110  12.851  0.5354 -0.5929 -0.2973
 1419TIP3    H125672   2.470   4.107  12.847  0.5957 -0.4412  0.6707
 1419TIP3    H225673   2.356   4.147  12.937 -0.3993 -2.0615  0.1791
 1420TIP3   OH225674   6.038   4.130   2.886  0.2270  0.5182 -0.2079
 1420TIP3    H125675   5.968   4.100   2.828 -0.2447  0.6721  0.2720
 1420TIP3    H225676   6.113   4.142   2.829 -0.3944  1.2395 -0.8947
 1421TIP3   OH225677   5.392   4.059  11.619  0.3537 -0.4107 -0.2507
 1421TIP3    H125678   5.478   4.093  11.645  0.2077 -1.5394  1.9202
 1421TIP3    H225679   5.334   4.084  11.690 -1.1191  0.1784 -1.6095
 1422TIP3   OH225680   4.046   6.342  14.998  0.2076  0.1711 -0.0894
 1422TIP3    H125681   4.046   6.304  15.086 -0.5962 -1.0602 -0.5921
 1422TIP3    H225682   4.015   6.432  15.012  0.6961  0.1954  0.9535
 1423TIP3   OH225683   4.048   1.280   6.190  0.1843 -0.6406 -0.2577
 1423TIP3    H125684   4.033   1.372   6.210  1.5785 -0.1349 -1.3353
 1423TIP3    H225685   4.031   1.234   6.272 -3.2967  0.1729 -0.3555
 1424TIP3   OH225686   0.970   0.805   2.873 -0.1034 -0.0988 -0.6842
 1424TIP3    H125687   0.949   0.749   2.948 -0.3750  1.5676  0.5196
 1424TIP3    H225688   1.019   0.748   2.814  0.5883 -1.3045  0.9941
 1425TIP3   OH225689   6.307   0.966  12.642  0.0016  0.7154  0.9789
 1425TIP3    H125690   6.375   0.965  12.709 -0.0467 -1.0837  1.0289
 1425TIP3    H225691   6.355   0.966  12.559  0.0719  0.0821  1.0153
 1426TIP3   OH225692   4.606   2.151  14.784 -0.3284 -0.0052 -0.2507
 1426TIP3    H125693   4.679   2.116  14.734 -0.6212 -0.4807 -0.3511
 1426TIP3    H225694   4.528   2.111  14.745 -0.6686  0.7304 -0.3454
 1427TIP3   OH225695   3.640   0.334  12.751 -0.6146  0.3727 -0.5087
 1427TIP3    H125696   3.724   0.306  12.787 -1.0288  1.4148  1.4058
 1427TIP3    H225697   3.648   0.318  12.657  1.7588  0.5206 -0.3989
 1428TIP3   OH225698   2.185   1.651   1.771 -0.2226 -0.1818  0.2878
 1428TIP3    H125699   2.266   1.604   1.790 -0.5883 -1.1125 -0.3668
 1428TIP3    H225700   2.213   1.729   1.723  0.3140 -0.2994  0.4042
 1429TIP3   OH225701   1.637   3.282   2.462 -0.1890 -0.4122 -0.6786
 1429TIP3    H125702   1.670   3.197   2.436 -0.1385 -0.5675 -0.1249
 1429TIP3    H225703   1.687   3.305   2.541 -1.1072 -0.4751 -0.0497
 1430TIP3   OH225704   6.015   0.419   2.511  0.4148  0.3325  0.7887
 1430TIP3    H125705   6.106   0.406   2.482  0.3796 -3.4912  1.7661
 1430TIP3    H225706   5.962   0.386   2.438 -0.3688  3.5115 -0.2197
 1431TIP3   OH225707   5.831   5.985  12.344  0.0657 -0.1709 -0.2729
 1431TIP3    H125708   5.861   5.895  12.337  1.0768  0.1436 -0.0955
 1431TIP3    H225709   5.759   5.991  12.281  1.2702 -0.5778 -1.7588
 1432TIP3   OH225710   4.461   0.817  11.429  0.3350  0.7484 -0.6062
 1432TIP3    H125711   4.397   0.888  11.419 -0.4987 -0.0429 -1.1077
 1432TIP3    H225712   4.415   0.739  11.397  0.9358 -0.1798  0.7201
 1433TIP3   OH225713   4.775   0.431   5.303 -0.2145 -0.4196 -0.0924
 1433TIP3    H125714   4.853   0.377   5.314 -1.6420 -2.4682  0.4210
 1433TIP3    H225715   4.755   0.426   5.209  0.4763  0.4625 -0.3013
 1434TIP3   OH225716   6.757   4.437  13.635 -0.1981  0.7011 -0.4513
 1434TIP3    H125717   6.816   4.430  13.560  0.6136  1.2501  0.1102
 1434TIP3    H225718   6.815   4.432  13.711 -1.1415 -1.6175  0.2343
 1435TIP3   OH225719   5.334   4.525   3.947  0.4041  0.5081 -0.1619
 1435TIP3    H125720   5.390   4.497   4.020 -1.3730 -0.5945  0.8399
 1435TIP3    H225721   5.393   4.574   3.890  2.4187 -0.6998  0.7623
 1436TIP3   OH225722   4.509   6.254  14.302 -0.5813  0.1582  0.1648
 1436TIP3    H125723   4.462   6.195  14.242 -0.1991  0.9633 -0.9742
 1436TIP3    H225724   4.552   6.196  14.364 -0.2500 -0.7915 -0.9054
 1437TIP3   OH225725   3.163   2.781  11.480  0.8016  0.6244  0.3793
 1437TIP3    H125726   3.252   2.816  11.488  0.5112  1.6601 -0.5707
 1437TIP3    H225727   3.113   2.828  11.547  1.1014 -0.4904  1.4085
 1438TIP3   OH225728   2.760   1.706  12.506 -0.2070  0.3523  0.4702
 1438TIP3    H125729   2.714   1.697  12.423  0.2808  1.2196  0.0952
 1438TIP3    H225730   2.765   1.616  12.540  4.2905 -1.1562 -2.9950
 1439TIP3   OH225731   1.582   4.664   0.271 -0.0859 -0.3430  0.0528
 1439TIP3    H125732   1.669   4.702   0.288 -0.1873 -0.8839  2.0302
 1439TIP3    H225733   1.540   4.663   0.356 -2.9591  1.9907 -1.1719
 1440TIP3   OH225734   2.329   1.011  15.895  0.2509 -0.4432  0.1799
 1440TIP3    H125735   2.411   0.969  15.921 -0.6663 -0.7418  2.8363
 1440TIP3    H225736   2.273   0.939  15.869  0.3477 -0.3565 -0.2863
 1441TIP3   OH225737   1.874   3.786  13.219  0.0226 -0.3079  0.4563
 1441TIP3    H125738   1.914   3.748  13.296  3.0759 -0.0913 -0.8736
 1441TIP3    H225739   1.879   3.718  13.152 -1.3802 -0.0663  0.0670
 1442TIP3   OH225740   3.686   5.989  14.071  0.8383  0.1474  0.1220
 1442TIP3    H125741   3.724   6.076  14.076 -0.3291  0.8681 -2.0586
 1442TIP3    H225742   3.758   5.930  14.093  1.5819  1.6120  1.9543
 1443TIP3   OH225743   4.744   6.634  12.105  0.0016 -0.1410 -0.0529
 1443TIP3    H125744   4.755   6.728  12.120  0.6369 -0.2683  0.3173
 1443TIP3    H225745   4.651   6.619  12.120  0.0381  0.2944  0.7014
 1444TIP3   OH225746   4.279   4.440   6.334 -0.2136  0.1316 -0.2261
 1444TIP3    H125747   4.360   4.439   6.283  0.6803 -3.7549  0.9227
 1444TIP3    H225748   4.309   4.443   6.425 -1.2824 -1.3566  0.2184
 1445TIP3   OH225749   6.689   2.254  12.658 -0.1270  0.7556  0.3912
 1445TIP3    H125750   6.708   2.194  12.729  1.7824  0.9914  0.1416
 1445TIP3    H225751   6.602   2.229  12.627  0.0370 -0.9166  1.2125
 1446TIP3   OH225752   0.396   0.760  10.399  0.3462 -0.3293 -0.3264
 1446TIP3    H125753   0.401   0.668  10.374  1.0354 -0.0431 -1.2755
 1446TIP3    H225754   0.320   0.795  10.352  0.0645 -0.4168  0.0601
 1447TIP3   OH225755   5.722   5.707   1.828 -0.7422 -0.1279  0.0657
 1447TIP3    H125756   5.695   5.654   1.753 -2.9578  0.7188  0.1781
 1447TIP3    H225757   5.761   5.643   1.889  0.7661 -0.8701 -1.6028
 1448TIP3   OH225758   3.572   3.886  15.509 -0.3367 -1.0058 -0.2970
 1448TIP3    H125759   3.632   3.814  15.527  0.6009 -0.2368 -0.2821
 1448TIP3    H225760   3.614   3.935  15.438 -1.3791 -0.9475 -0.8971
 1449TIP3   OH225761   5.255   0.016   2.709  0.0550  0.1770 -0.2805
 1449TIP3    H125762   5.307   0.038   2.786 -0.2445 -0.1058  0.0055
 1449TIP3    H225763   5.317   0.019   2.636  0.5578 -0.5564  0.1121
 1450TIP3   OH225764   4.991   2.503   0.430 -0.3450 -0.7900  0.0156
 1450TIP3    H125765   5.041   2.552   0.496  0.1579  1.5837 -1.9898
 1450TIP3    H225766   5.024   2.414   0.437  2.2502  0.1145  0.6605
 1451TIP3   OH225767   2.887   0.758   4.702  0.0586 -0.1458  0.1301
 1451TIP3    H125768   2.893   0.773   4.608  1.0093  1.4725  0.4153
 1451TIP3    H225769   2.965   0.799   4.738  0.0881 -1.3806  1.5753
 1452TIP3   OH225770   4.065   4.534  12.038 -0.7333  0.2447 -0.4637
 1452TIP3    H125771   4.014   4.611  12.063  0.0626  0.5511  0.2552
 1452TIP3    H225772   4.153   4.568  12.023 -0.6753 -0.3160 -1.4715
 1453TIP3   OH225773   5.066   4.787  13.495  0.0523 -0.2068 -0.1370
 1453TIP3    H125774   5.111   4.793  13.411  0.4833  0.8730  0.1464
 1453TIP3    H225775   4.992   4.847  13.487  0.5437  0.5040  0.5057
 1454TIP3   OH225776   1.229   5.445  11.737 -0.6621  0.1703  0.4998
 1454TIP3    H125777   1.237   5.355  11.770 -1.0460  0.3468  1.0918
 1454TIP3    H225778   1.318   5.480  11.741  0.1468 -1.1539 -2.6694
 1455TIP3   OH225779   0.965   1.080  12.931 -0.2089  0.1578 -0.3678
 1455TIP3    H125780   1.033   1.137  12.894  1.5152 -1.1212  0.7167
 1455TIP3    H225781   0.922   1.134  12.997  1.4334  0.2493  0.6800
 1456TIP3   OH225782   2.415   5.180  17.043  0.2702 -0.0686 -0.5879
 1456TIP3    H125783   2.329   5.216  17.061  0.4311  0.4979 -0.9318
 1456TIP3    H225784   2.408   5.087  17.067 -0.4661 -0.0559 -0.7513
 1457TIP3   OH225785   1.660   2.207  15.516 -0.4544 -0.0030 -0.6822
 1457TIP3    H125786   1.688   2.138  15.456  0.3746 -1.3352  1.1442
 1457TIP3    H225787   1.594   2.166  15.572 -0.9848  1.1010 -0.4682
 1458TIP3   OH225788   0.357   4.004   0.163  0.4196 -0.2505  0.4080
 1458TIP3    H125789   0.389   4.091   0.186 -0.0594 -0.2624  1.1800
 1458TIP3    H225790   0.347   3.959   0.248 -2.6375  0.1076  0.3604
 1459TIP3   OH225791   5.932   3.304  10.528 -0.8097  0.4130 -0.0435
 1459TIP3    H125792   5.901   3.260  10.449  0.6319  1.6433 -1.3579
 1459TIP3    H225793   5.934   3.397  10.504 -1.3073  0.9381  1.7936
 1460TIP3   OH225794   0.492   0.078  16.332  0.5312 -0.0879  0.2202
 1460TIP3    H125795   0.426   0.112  16.393 -1.2663 -0.4496 -1.4290
 1460TIP3    H225796   0.527   0.155  16.288 -0.9618 -0.0372 -0.9690
 1461TIP3   OH225797   1.886   1.249   2.490 -0.2195  0.5157  0.4247
 1461TIP3    H125798   1.938   1.296   2.554  1.3597  2.4359 -2.0910
 1461TIP3    H225799   1.828   1.315   2.452  0.5151  0.0377 -1.6704
 1462TIP3   OH225800   2.993   1.818  12.685  0.0149 -0.0272  0.2018
 1462TIP3    H125801   3.088   1.815  12.678  0.0778 -0.4640  1.2150
 1462TIP3    H225802   2.963   1.809  12.594  0.9664  2.8827 -0.5081
 1463TIP3   OH225803   3.149   2.692  17.064  0.3392 -0.2578 -0.1700
 1463TIP3    H125804   3.118   2.678  16.974 -3.0365  0.9928  0.6666
 1463TIP3    H225805   3.233   2.737  17.053 -0.3617  0.6162 -2.7251
 1464TIP3   OH225806   3.113   5.675  16.238 -0.0031  0.0603  0.2026
 1464TIP3    H125807   3.167   5.742  16.281 -0.1938  0.9880 -0.9457
 1464TIP3    H225808   3.080   5.621  16.310  1.0412  0.5354  1.0699
 1465TIP3   OH225809   5.442   4.601  16.828 -0.2937 -0.0620  0.0687
 1465TIP3    H125810   5.503   4.635  16.894 -0.4374  0.3735 -0.0201
 1465TIP3    H225811   5.476   4.635  16.745  0.3459 -1.2622 -0.1844
 1466TIP3   OH225812   2.830   5.031  14.241  0.7665 -0.3627  0.4595
 1466TIP3    H125813   2.914   5.065  14.272  0.1847 -0.1603  1.8968
 1466TIP3    H225814   2.849   4.997  14.154  2.4042 -0.5775  0.8598
 1467TIP3   OH225815   2.075   4.733   2.389 -0.0781 -0.0022 -0.0453
 1467TIP3    H125816   2.062   4.652   2.341 -0.1588  0.5156 -0.9234
 1467TIP3    H225817   2.097   4.798   2.322  0.1088  0.6776  0.6470
 1468TIP3   OH225818   5.867   1.095   2.026 -0.0365  0.0050 -0.1196
 1468TIP3    H125819   5.889   1.090   2.119 -0.1942  1.3282  0.0115
 1468TIP3    H225820   5.930   1.038   1.983  1.3955  0.9743  0.6087
 1469TIP3   OH225821   4.312   5.160   1.082  0.0557  0.1116  0.0528
 1469TIP3    H125822   4.289   5.105   1.157  0.5379  0.4629  0.4692
 1469TIP3    H225823   4.238   5.153   1.023 -0.5136  0.1559  0.7541
 1470TIP3   OH225824   4.250   5.144   2.039  0.1871 -0.4443  0.3747
 1470TIP3    H125825   4.193   5.194   2.097  0.8469  1.3013 -0.4066
 1470TIP3    H225826   4.338   5.159   2.074  0.7975  2.0214 -1.9196
 1471TIP3   OH225827   4.869   3.205   5.103 -0.9940 -0.0220 -0.2516
 1471TIP3    H125828   4.894   3.135   5.043 -0.7754  0.0095 -0.1983
 1471TIP3    H225829   4.793   3.247   5.062 -0.8406  0.0018 -0.5050
 1472TIP3   OH225830   5.846   0.807  15.617  0.6368 -0.3540  0.5130
 1472TIP3    H125831   5.898   0.728  15.607 -0.8200 -1.5125  1.5043
 1472TIP3    H225832   5.799   0.794  15.700  0.5356  1.6625  0.8233
 1473TIP3   OH225833   5.586   5.985  12.223 -0.6586 -0.5345  0.1497
 1473TIP3    H125834   5.526   5.991  12.296 -1.5255  4.4883 -0.6042
 1473TIP3    H225835   5.530   5.971  12.146 -0.6350  1.0816 -0.2036
 1474TIP3   OH225836   1.792   1.327   5.501  1.1188 -0.1854  0.1056
 1474TIP3    H125837   1.749   1.351   5.419 -0.1567 -0.2699  0.7399
 1474TIP3    H225838   1.865   1.271   5.473  0.6019 -0.3568 -0.9517
 1475TIP3   OH225839   2.743   6.378  13.039  0.3256  0.2672  0.0716
 1475TIP3    H125840   2.830   6.362  13.004  0.8231  3.0570 -0.2330
 1475TIP3    H225841   2.730   6.473  13.030 -2.3630  0.0967  0.9892
 1476TIP3   OH225842   3.198   6.169  16.846 -0.4760 -0.6417  0.1000
 1476TIP3    H125843   3.262   6.133  16.908  0.4726  0.5613 -0.1370
 1476TIP3    H225844   3.251   6.205  16.775 -1.3984  0.6089  0.0183
 1477TIP3   OH225845   4.465   0.300   2.896  0.0727 -0.1617  0.5134
 1477TIP3    H125846   4.419   0.284   2.813  2.2539  1.6788 -1.1457
 1477TIP3    H225847   4.435   0.229   2.953 -3.0246 -0.3700 -1.1589
 1478TIP3   OH225848   1.143   3.797   3.122  0.2228  0.3683  0.3163
 1478TIP3    H125849   1.165   3.885   3.090 -0.9606  0.6261  0.1567
 1478TIP3    H225850   1.061   3.809   3.170  1.4625 -0.1808  2.7084
 1479TIP3   OH225851   5.147   6.004  13.001 -0.2725  0.3552  0.3829
 1479TIP3    H125852   5.164   5.952  13.080  0.9400 -0.0881 -0.1514
 1479TIP3    H225853   5.068   5.964  12.963 -0.6992  0.3882  1.1963
 1480TIP3   OH225854   0.171   4.473  14.809 -0.5150 -0.5844 -0.4519
 1480TIP3    H125855   0.172   4.392  14.757 -2.0821 -2.4532  2.1644
 1480TIP3    H225856   0.085   4.511  14.791 -1.6985 -2.0289  1.6769
 1481TIP3   OH225857   1.655   1.921   2.412 -0.4331 -0.0179  0.2764
 1481TIP3    H125858   1.699   1.978   2.349  0.4376 -0.2312  0.6739
 1481TIP3    H225859   1.661   1.967   2.495 -0.5909 -0.2422  0.4148
 1482TIP3   OH225860   3.098   3.790   4.931  0.3606 -0.2333 -0.3472
 1482TIP3    H125861   3.092   3.715   4.990 -1.8682  0.6479  0.6384
 1482TIP3    H225862   3.124   3.863   4.988  1.2343  0.0355 -1.0580
 1483TIP3   OH225863   4.222   3.238  16.392 -0.0910  0.1846  0.2406
 1483TIP3    H125864   4.299   3.210  16.344 -0.4028  1.0702 -0.8218
 1483TIP3    H225865   4.151   3.236  16.327 -1.0214 -0.8109  1.2469
 1484TIP3   OH225866   1.668   4.826  12.088  0.2311 -0.3975  0.1901
 1484TIP3    H125867   1.735   4.885  12.123 -0.2282  0.0170  0.3902
 1484TIP3    H225868   1.608   4.810  12.161  0.0985 -0.7435  0.0096
 1485TIP3   OH225869   2.437   5.519  12.130 -0.1908 -0.1727  0.3065
 1485TIP3    H125870   2.393   5.593  12.171 -0.9306 -2.5106  4.1807
 1485TIP3    H225871   2.376   5.487  12.064 -0.7058  1.3778 -0.0042
 1486TIP3   OH225872   1.626   0.519  12.274  0.1531  0.0117 -0.0285
 1486TIP3    H125873   1.641   0.552  12.363 -1.3019  0.7023 -0.0064
 1486TIP3    H225874   1.708   0.476  12.250  0.2305 -1.1057  2.0303
 1487TIP3   OH225875   2.295   3.894  10.926 -0.7108  0.6687 -0.2675
 1487TIP3    H125876   2.291   3.853  11.012 -0.9199 -0.3476 -0.7404
 1487TIP3    H225877   2.385   3.879  10.897 -0.3150  1.9894  0.2222
 1488TIP3   OH225878   4.672   2.412  11.836 -0.8051 -0.1704  0.0979
 1488TIP3    H125879   4.578   2.402  11.848 -0.9624 -0.2216 -1.0385
 1488TIP3    H225880   4.703   2.324  11.816 -0.2726 -0.4130  1.8275
 1489TIP3   OH225881   3.267   5.906   2.252  0.0563 -0.0973  0.0578
 1489TIP3    H125882   3.322   5.978   2.282  0.4756 -0.6946  0.7599
 1489TIP3    H225883   3.183   5.947   2.229  0.7974  0.8245 -1.0945
 1490TIP3   OH225884   6.353   1.806   5.430 -0.2521  0.1397  0.0747
 1490TIP3    H125885   6.395   1.836   5.350  0.5796  1.2038  0.8731
 1490TIP3    H225886   6.315   1.886   5.468 -0.7067 -0.3610  0.6935
 1491TIP3   OH225887   1.694   6.097   3.169 -0.0605 -0.1987 -0.2805
 1491TIP3    H125888   1.643   6.140   3.237  0.0669 -2.0645  1.0647
 1491TIP3    H225889   1.631   6.080   3.098  0.0162  2.6237 -1.1436
 1492TIP3   OH225890   6.190   0.116  15.650 -0.3255 -0.1360 -0.4978
 1492TIP3    H125891   6.234   0.096  15.732 -1.4775 -0.5302  0.0559
 1492TIP3    H225892   6.162   0.207  15.659  1.1662  0.4352 -1.2487
 1493TIP3   OH225893   4.025   2.952   0.044  0.3054  0.4870  0.1524
 1493TIP3    H125894   3.974   3.005   0.105 -1.3456 -0.5112 -0.2891
 1493TIP3    H225895   4.116   2.964   0.071 -0.3051  0.6678  2.3256
 1494TIP3   OH225896   1.426   5.385   1.602 -0.3060  0.0139  0.6248
 1494TIP3    H125897   1.357   5.407   1.538 -0.4093  0.6756  0.9596
 1494TIP3    H225898   1.507   5.394   1.553 -0.3716  0.7620  0.6440
 1495TIP3   OH225899   2.317   0.732   1.365  0.0923  0.0317 -0.0217
 1495TIP3    H125900   2.276   0.805   1.318  1.1644  0.8467  0.2717
 1495TIP3    H225901   2.369   0.687   1.299  0.7789  0.5602  0.1494
 1496TIP3   OH225902   4.509   3.041  16.372  0.0698  0.2642 -0.2708
 1496TIP3    H125903   4.602   3.061  16.382  0.2428 -0.7632  0.2992
 1496TIP3    H225904   4.482   3.090  16.294  0.8470  1.3407  0.1117
 1497TIP3   OH225905   3.071   3.046  11.645 -0.3379 -0.3375  0.5270
 1497TIP3    H125906   2.996   3.091  11.605 -1.5467 -0.6786  2.2876
 1497TIP3    H225907   3.053   3.049  11.739  0.7877 -2.3613  0.8520
 1498TIP3   OH225908   2.648   5.943   3.467  0.5969  0.0832 -0.4169
 1498TIP3    H125909   2.725   5.940   3.523 -0.2096  0.6267  0.7597
 1498TIP3    H225910   2.594   6.013   3.504 -0.3335 -0.0974 -1.3882
 1499TIP3   OH225911   4.245   0.613  15.839  0.5414 -0.5069 -0.6655
 1499TIP3    H125912   4.235   0.626  15.745 -0.2007  0.4600 -0.4721
 1499TIP3    H225913   4.166   0.652  15.877  1.7637  0.9581  0.5028
 1500TIP3   OH225914   2.132   2.769   2.353 -0.1641 -0.1206  0.9349
 1500TIP3    H125915   2.064   2.823   2.392  0.3176  0.9438  0.3553
 1500TIP3    H225916   2.121   2.683   2.393  0.5667  0.9797  3.7539
 1501TIP3   OH225917   4.682   0.144   5.235  0.1023 -0.9950  0.0619
 1501TIP3    H125918   4.700   0.134   5.142  0.6044  0.6475 -0.0639
 1501TIP3    H225919   4.769   0.141   5.277  0.0204 -0.3515  0.2974
 1502TIP3   OH225920   5.711   6.185  10.784 -0.4709  0.3995 -0.2064
 1502TIP3    H125921   5.804   6.179  10.808 -0.3512 -0.1610 -0.7627
 1502TIP3    H225922   5.706   6.143  10.698 -1.5589 -1.2976  0.6367
 1503TIP3   OH225923   3.852   0.171  16.690 -0.1003  0.1604  0.2242
 1503TIP3    H125924   3.823   0.121  16.614 -0.6574 -1.8156  1.6460
 1503TIP3    H225925   3.917   0.232  16.655  1.9779 -2.7252 -1.4463
 1504TIP3   OH225926   5.580   5.320  12.599 -0.4750 -0.1819  0.1130
 1504TIP3    H125927   5.665   5.328  12.555 -0.0057  3.0017  1.3362
 1504TIP3    H225928   5.518   5.361  12.538 -1.4095 -3.0615 -1.0725
 1505TIP3   OH225929   5.916   6.320   1.825 -0.0267  0.0368 -0.0944
 1505TIP3    H125930   6.000   6.301   1.866  0.2674 -0.4591 -0.8978
 1505TIP3    H225931   5.870   6.236   1.825  0.4332 -0.2585 -1.7645
 1506TIP3   OH225932   3.623   1.161   0.050  0.3332 -0.4569  0.5187
 1506TIP3    H125933   3.591   1.184  -0.037  0.5467 -1.4468  0.1690
 1506TIP3    H225934   3.566   1.209   0.110 -2.3139 -2.6112 -0.0452
 1507TIP3   OH225935   2.289   5.298  15.745  0.4058 -0.3805 -0.2674
 1507TIP3    H125936   2.341   5.330  15.671  0.4142 -0.8101 -0.4513
 1507TIP3    H225937   2.199   5.318  15.721  0.4115 -0.4843 -0.3792
 1508TIP3   OH225938   0.162   1.664   2.303 -0.5810 -0.4954 -0.0950
 1508TIP3    H125939   0.217   1.719   2.247 -0.8488  0.4797  0.5884
 1508TIP3    H225940   0.076   1.705   2.300 -0.7905 -0.8871  0.4059
 1509TIP3   OH225941   0.334   5.423  12.642  0.0373 -0.7290 -0.5751
 1509TIP3    H125942   0.275   5.443  12.569  1.0788  0.1807 -1.1956
 1509TIP3    H225943   0.280   5.374  12.704 -1.3102 -0.0621 -1.1945
 1510TIP3   OH225944   6.120   5.694  16.669 -0.0535  0.5416 -0.5058
 1510TIP3    H125945   6.065   5.682  16.746  0.5697 -0.5278 -0.2030
 1510TIP3    H225946   6.210   5.685  16.701  0.2134  0.0292 -1.3536
 1511TIP3   OH225947   0.190   3.072   0.997  0.5423 -0.1380  0.4354
 1511TIP3    H125948   0.128   3.144   0.990  1.1549  0.8310  3.4803
 1511TIP3    H225949   0.264   3.098   0.941 -0.7871 -0.3112 -1.5147
 1512TIP3   OH225950   1.784   1.744   5.226  0.4863  0.3783  0.1192
 1512TIP3    H125951   1.804   1.835   5.245  1.7992  0.0875  0.2015
 1512TIP3    H225952   1.867   1.706   5.197  0.2777 -1.1003  1.3049
 1513TIP3   OH225953   5.394   3.740  15.812  0.5393  0.3269  0.0249
 1513TIP3    H125954   5.303   3.722  15.789  1.1822 -1.6560 -1.2151
 1513TIP3    H225955   5.433   3.653  15.824  2.7056  1.0488 -1.3261
 1514TIP3   OH225956   3.874   4.670  11.693 -0.0258 -0.1054  0.0399
 1514TIP3    H125957   3.897   4.760  11.673  0.9135 -0.1453  0.8637
 1514TIP3    H225958   3.854   4.631  11.608  0.7515  0.5660 -0.4659
 1515TIP3   OH225959   2.386   6.376   3.096  0.4782  0.0630  0.2159
 1515TIP3    H125960   2.378   6.461   3.139 -0.1164  0.5725 -0.8763
 1515TIP3    H225961   2.450   6.389   3.027  0.3682 -0.3713  0.0262
 1516TIP3   OH225962   6.431   1.863   5.185 -0.2555  0.5486  0.0486
 1516TIP3    H125963   6.479   1.808   5.123 -0.6956 -0.4593  0.5702
 1516TIP3    H225964   6.423   1.948   5.141  1.9455  0.7513 -0.0609
 1517TIP3   OH225965   3.211   0.694   6.556 -0.6548  0.6346  0.1795
 1517TIP3    H125966   3.180   0.750   6.485 -0.6949  0.0026 -0.3133
 1517TIP3    H225967   3.146   0.624   6.562 -0.1196  0.1221  0.1408
 1518TIP3   OH225968   0.705   1.851  15.617 -0.1648 -0.1023 -0.7049
 1518TIP3    H125969   0.773   1.787  15.637 -0.1818 -0.0283 -0.3979
 1518TIP3    H225970   0.728   1.928  15.670 -1.6782 -0.8224  1.1354
 1519TIP3   OH225971   1.791   0.844  15.959 -0.9151 -0.0985 -0.7186
 1519TIP3    H125972   1.782   0.926  15.910 -0.1982  1.3584  1.4115
 1519TIP3    H225973   1.703   0.824  15.990 -0.9732  0.2790 -0.6392
 1520TIP3   OH225974   2.454   6.052   0.328  0.0896  0.0365 -0.2817
 1520TIP3    H125975   2.543   6.078   0.308 -0.1365  0.3887 -0.8562
 1520TIP3    H225976   2.416   6.127   0.372  0.1627 -0.2228  0.2304
 1521TIP3   OH225977   3.841   6.698   5.596 -0.0216 -0.1803  0.1000
 1521TIP3    H125978   3.936   6.681   5.596 -0.3410 -2.3491  0.2034
 1521TIP3    H225979   3.814   6.676   5.685 -0.6923 -0.0386 -0.0684
 1522TIP3   OH225980   5.121   3.486   1.758 -0.2760 -0.5375  0.3750
 1522TIP3    H125981   5.213   3.459   1.763 -0.3226 -1.2619 -1.6723
 1522TIP3    H225982   5.071   3.408   1.783 -0.3864  0.2480  2.8569
 1523TIP3   OH225983   0.382   6.194   0.956  0.2680  0.4115 -0.0014
 1523TIP3    H125984   0.442   6.268   0.947  1.8792 -0.8874 -0.1929
 1523TIP3    H225985   0.330   6.196   0.875  0.9356  0.7702 -0.4269
 1524TIP3   OH225986   0.114   4.818  11.432 -0.3198  0.6438 -0.0124
 1524TIP3    H125987   0.055   4.862  11.371 -0.6738 -1.7656 -1.5410
 1524TIP3    H225988   0.057   4.759  11.482  0.0945  1.9662  2.1668
 1525TIP3   OH225989   0.452   5.500   6.511 -0.1292  0.2073 -0.6344
 1525TIP3    H125990   0.486   5.574   6.562  1.5319 -0.3351 -0.9127
 1525TIP3    H225991   0.472   5.423   6.565 -1.4407 -0.1054 -0.5550
 1526TIP3   OH225992   4.505   5.991  12.865 -0.0024 -0.5807  0.1249
 1526TIP3    H125993   4.581   5.977  12.923  0.4963  0.9240 -0.1021
 1526TIP3    H225994   4.543   6.024  12.784 -0.9066  0.3870  0.0745
 1527TIP3   OH225995   3.978   4.398  11.172  0.0613  0.1013 -0.2407
 1527TIP3    H125996   3.927   4.321  11.147 -0.1922  0.4681 -0.8936
 1527TIP3    H225997   4.046   4.404  11.105  1.4312 -0.7921  1.0211
 1528TIP3   OH225998   5.005   3.407   4.140  0.0587 -0.2405  0.0906
 1528TIP3    H125999   4.988   3.499   4.119 -1.5076 -0.1913  1.3365
 1528TIP3    H226000   4.919   3.365   4.130  0.5508 -1.3667  0.4998
 1529TIP3   OH226001   6.298   4.289   1.549 -0.4857 -0.7525 -0.0761
 1529TIP3    H126002   6.330   4.339   1.623  0.2177 -0.4026 -0.6028
 1529TIP3    H226003   6.350   4.209   1.550 -0.5600 -0.8011 -0.1179
 1530TIP3   OH226004   1.988   5.934   0.084  0.1284  0.6515 -0.5304
 1530TIP3    H126005   1.894   5.936   0.100  0.3100  0.9889  0.6292
 1530TIP3    H226006   2.027   5.940   0.172  1.2370  1.8195 -1.0769
 1531TIP3   OH226007   1.098   2.020   2.374 -0.2064  0.2567  0.9079
 1531TIP3    H126008   1.046   2.095   2.403  0.0799  0.4414  0.9377
 1531TIP3    H226009   1.181   2.028   2.421  0.2362  0.5182  0.0993
 1532TIP3   OH226010   0.511   5.383  11.809  0.1687 -0.2474  0.2481
 1532TIP3    H126011   0.549   5.469  11.788  1.3810 -1.3520 -2.5118
 1532TIP3    H226012   0.416   5.397  11.805  0.3440  0.9800 -0.1587
 1533TIP3   OH226013   2.955   1.637   1.767  0.4693 -0.0061  0.3811
 1533TIP3    H126014   3.027   1.673   1.715  0.4900  0.1450  0.5123
 1533TIP3    H226015   2.886   1.703   1.762  0.4795  0.0185  0.5622
 1534TIP3   OH226016   1.768   5.100  12.768  0.3663 -0.5855 -0.1989
 1534TIP3    H126017   1.692   5.158  12.762 -0.6256 -1.7139  0.9081
 1534TIP3    H226018   1.843   5.159  12.781 -0.2308  0.5742 -1.6678
 1535TIP3   OH226019   3.005   2.038   1.707 -0.0647  0.5278  0.3512
 1535TIP3    H126020   3.006   2.074   1.796 -1.1184 -1.7610  1.3768
 1535TIP3    H226021   2.931   1.977   1.707 -0.2639  0.6648 -2.2108
 1536TIP3   OH226022   4.270   4.531   2.520  0.5414 -0.3236 -0.1816
 1536TIP3    H126023   4.209   4.593   2.560  0.7743 -0.2184  0.0076
 1536TIP3    H226024   4.219   4.491   2.449  0.7511  0.9593 -1.1095
 1537TIP3   OH226025   6.172   2.670  11.281  0.5788 -0.2722  0.2820
 1537TIP3    H126026   6.164   2.601  11.215  0.1614  0.1055 -0.0665
 1537TIP3    H226027   6.195   2.749  11.231 -0.0264  0.0810  0.5514
 1538TIP3   OH226028   2.847   2.666   4.207  0.3473 -0.2787 -0.5178
 1538TIP3    H126029   2.864   2.580   4.245 -0.9995 -1.6154 -2.6677
 1538TIP3    H226030   2.928   2.714   4.218  1.0349 -1.7073  1.0410
 1539TIP3   OH226031   5.843   6.307  17.015  0.1600  0.5582 -0.1733
 1539TIP3    H126032   5.778   6.262  17.070  2.3582 -0.0614  2.1459
 1539TIP3    H226033   5.876   6.239  16.957 -1.0048  0.8103 -1.1682
 1540TIP3   OH226034   0.568   3.562   0.908  0.0926  0.1825 -0.4354
 1540TIP3    H126035   0.616   3.520   0.980  0.8252  0.5478 -0.6971
 1540TIP3    H226036   0.596   3.653   0.910 -2.0086  0.8477  0.5523
 1541TIP3   OH226037   0.071   5.943   5.624  0.6770  0.2203  0.1452
 1541TIP3    H126038   0.027   6.020   5.659  0.9419  0.3828  0.1299
 1541TIP3    H226039   0.116   5.975   5.545 -0.0691 -0.1843 -0.4547
 1542TIP3   OH226040   5.768   1.898  13.799 -0.3753  0.2781 -0.2941
 1542TIP3    H126041   5.841   1.853  13.841  0.8191  0.7436 -1.7588
 1542TIP3    H226042   5.807   1.979  13.765 -1.0930 -0.3128 -2.7115
 1543TIP3   OH226043   2.472   3.060  11.670 -0.4415  0.1978 -0.0714
 1543TIP3    H126044   2.469   3.020  11.757 -0.3614  1.7264  0.6654
 1543TIP3    H226045   2.547   3.018  11.627 -1.3519 -1.6149  0.0337
 1544TIP3   OH226046   0.175   3.800   0.533  0.2302 -0.0744 -0.1610
 1544TIP3    H126047   0.144   3.808   0.443  0.9784 -1.2813 -0.5548
 1544TIP3    H226048   0.152   3.711   0.559  0.9794 -0.1052  0.4568
 1545TIP3   OH226049   3.784   0.544   4.049 -0.3548 -0.4307 -0.4740
 1545TIP3    H126050   3.793   0.638   4.067  1.8689 -0.0897 -2.6821
 1545TIP3    H226051   3.816   0.535   3.959  1.2855 -3.5597  0.2976
 1546TIP3   OH226052   0.804   1.974  13.048 -0.5903  1.1071 -1.4220
 1546TIP3    H126053   0.767   2.040  12.988  1.2788  1.1330 -2.6268
 1546TIP3    H226054   0.885   1.946  13.005  0.0564  0.0217  0.4193
 1547TIP3   OH226055   0.348   6.607  15.251 -0.3829  0.0991  0.1626
 1547TIP3    H126056   0.274   6.567  15.205 -0.1691  1.7992 -1.7754
 1547TIP3    H226057   0.380   6.537  15.308 -2.4473 -1.1992 -0.1412
 1548TIP3   OH226058   6.033   3.171  11.251 -0.3214  0.7525 -0.5099
 1548TIP3    H126059   6.080   3.189  11.333  2.1925  0.4196 -1.7810
 1548TIP3    H226060   5.995   3.255  11.227 -2.9179  0.4375  1.9568
 1549TIP3   OH226061   2.313   1.794   1.028 -0.1421  0.5351  0.7461
 1549TIP3    H126062   2.313   1.890   1.030 -0.3623  0.6562 -1.8243
 1549TIP3    H226063   2.221   1.770   1.025 -0.0803  0.2571  1.0143
 1550TIP3   OH226064   1.514   5.512  12.948 -0.0224 -0.0278 -0.4560
 1550TIP3    H126065   1.573   5.573  12.992 -0.2791 -0.9764  1.2889
 1550TIP3    H226066   1.536   5.426  12.986 -3.2446 -0.2865  1.1473
 1551TIP3   OH226067   2.317   2.333   1.653 -0.1760  0.5631  0.3364
 1551TIP3    H126068   2.336   2.303   1.565 -0.4330 -1.7464  0.9861
 1551TIP3    H226069   2.400   2.322   1.701 -0.7773 -1.2793  1.0818
 1552TIP3   OH226070   1.385   1.337   0.387  0.1464  0.7004 -0.1937
 1552TIP3    H126071   1.360   1.257   0.340  0.6781  0.4032  0.0166
 1552TIP3    H226072   1.303   1.371   0.421 -0.4852  1.7187 -2.5387
 1553TIP3   OH226073   5.210   1.652   3.752 -0.5085 -0.5346  0.1847
 1553TIP3    H126074   5.233   1.579   3.694 -0.5597 -1.9895  1.9052
 1553TIP3    H226075   5.119   1.634   3.777 -0.7888  0.5838  0.0058
 1554TIP3   OH226076   5.959   5.611  10.934 -0.1356  0.1111 -0.4017
 1554TIP3    H126077   6.041   5.625  10.887 -0.0137 -1.1382 -0.6051
 1554TIP3    H226078   5.972   5.654  11.019  0.3407  0.7768 -0.8030
 1555TIP3   OH226079   1.396   0.213  16.438 -0.0113 -0.7901  0.8947
 1555TIP3    H126080   1.351   0.205  16.353  0.9215 -1.4201  0.4345
 1555TIP3    H226081   1.395   0.124  16.473  1.7961 -1.0503  0.3719
 1556TIP3   OH226082   2.404   2.216  12.949  0.5779 -0.0263 -0.2596
 1556TIP3    H126083   2.347   2.178  13.016 -1.9073 -0.6704 -2.5517
 1556TIP3    H226084   2.468   2.147  12.930  0.9001 -0.0803  0.9698
 1557TIP3   OH226085   3.418   4.483  16.000 -0.3096  0.2440 -0.0551
 1557TIP3    H126086   3.416   4.507  15.908  1.7404  0.0683 -0.1933
 1557TIP3    H226087   3.326   4.468  16.023 -1.0449  2.0797 -1.5572
 1558TIP3   OH226088   5.078   2.760   0.958  0.0525  0.4440 -1.0591
 1558TIP3    H126089   5.098   2.853   0.957 -0.5074  0.6517  1.1549
 1558TIP3    H226090   5.142   2.722   1.018 -0.5297 -0.3574 -0.9209
 1559TIP3   OH226091   2.524   1.087   3.212 -0.3017  0.1456  0.5964
 1559TIP3    H126092   2.543   1.003   3.253  0.9551  0.0549 -0.1255
 1559TIP3    H226093   2.610   1.125   3.193 -0.8434  0.8070 -0.6785
 1560TIP3   OH226094   0.225   4.426  10.987  0.1814  0.0589  0.2886
 1560TIP3    H126095   0.262   4.494  10.930 -1.6511 -0.0858 -1.1604
 1560TIP3    H226096   0.186   4.474  11.060 -0.1255  0.4980 -0.1568
 1561TIP3   OH226097   6.189   1.560   0.066  0.5517  0.4429  0.2781
 1561TIP3    H126098   6.142   1.483   0.098 -1.0200  1.8299  1.4834
 1561TIP3    H226099   6.226   1.600   0.144 -0.7716  2.2456  0.0273
 1562TIP3   OH226100   4.067   2.484   0.864  0.5494 -0.6345  0.0464
 1562TIP3    H126101   4.005   2.462   0.794 -0.4926 -0.2259  0.8207
 1562TIP3    H226102   4.151   2.495   0.819 -0.3641  1.0207 -1.3745
 1563TIP3   OH226103   2.769   5.702   5.270  0.2831  0.2059 -0.0962
 1563TIP3    H126104   2.802   5.753   5.344 -0.6702  1.9695 -0.8395
 1563TIP3    H226105   2.831   5.719   5.199  0.7932 -0.9070  0.0593
 1564TIP3   OH226106   1.701   3.653  13.722  0.2558 -0.0046  0.5380
 1564TIP3    H126107   1.757   3.575  13.730 -0.1841 -0.7069 -2.2488
 1564TIP3    H226108   1.613   3.621  13.743  0.0837 -0.3081 -0.5540
 1565TIP3   OH226109   3.100   0.616  13.338  0.3602  0.4469 -0.4688
 1565TIP3    H126110   3.104   0.593  13.430 -1.2705  0.6799 -0.3061
 1565TIP3    H226111   3.127   0.536  13.292 -0.4015 -0.2097  0.1909
 1566TIP3   OH226112   0.990   4.549  15.635 -1.1589  0.3558  0.5132
 1566TIP3    H126113   0.897   4.531  15.642 -0.9007 -0.4895  2.4435
 1566TIP3    H226114   1.029   4.467  15.605 -0.9008  0.2956  1.0017
 1567TIP3   OH226115   1.235   6.775  13.880 -0.1806 -0.3190 -0.5565
 1567TIP3    H126116   1.251   6.833  13.805  0.3150 -0.4813 -0.5813
 1567TIP3    H226117   1.194   6.831  13.946  3.0241  0.8647  0.5983
 1568TIP3   OH226118   0.266   4.624   4.149 -0.2561 -0.2815  0.6205
 1568TIP3    H126119   0.320   4.687   4.197 -0.1831 -0.0179  0.1949
 1568TIP3    H226120   0.279   4.647   4.057  0.1355 -1.2112  0.4341
 1569TIP3   OH226121   3.075   5.023  14.992  0.1326 -0.4809 -0.4448
 1569TIP3    H126122   3.153   5.072  14.967 -0.6266  0.7090 -0.5843
 1569TIP3    H226123   3.064   4.958  14.923 -0.0971  0.6419 -1.5200
 1570TIP3   OH226124   5.987   1.759  16.663  0.6837 -0.5125 -0.0822
 1570TIP3    H126125   6.036   1.821  16.718  1.7126  0.2360 -1.7659
 1570TIP3    H226126   6.053   1.724  16.603 -0.0866 -2.5191  0.1779
 1571TIP3   OH226127   1.410   4.522  15.481 -1.0344  0.4056 -0.1346
 1571TIP3    H126128   1.465   4.540  15.405 -0.6849  0.4439  0.1218
 1571TIP3    H226129   1.448   4.443  15.520 -0.6830  0.8674  0.4805
 1572TIP3   OH226130   3.395   2.675  14.905  0.1873  0.0418 -0.4080
 1572TIP3    H126131   3.487   2.675  14.880  0.8191 -1.3255  1.7215
 1572TIP3    H226132   3.391   2.729  14.984 -0.1965 -2.4698  1.3879
 1573TIP3   OH226133   4.070   3.100  15.781  0.3884 -0.3616 -0.0337
 1573TIP3    H126134   4.100   3.106  15.872 -1.1485 -1.2172  0.5715
 1573TIP3    H226135   4.149   3.113  15.729  1.7685 -2.2173  1.4376
 1574TIP3   OH226136   1.467   0.259   1.954 -0.1132  0.5499  0.0960
 1574TIP3    H126137   1.422   0.190   1.906  0.1309  0.0585  0.5602
 1574TIP3    H226138   1.560   0.238   1.945 -0.0958 -0.2825  1.8230
 1575TIP3   OH226139   0.572   1.130  14.455 -0.2219 -0.1364  0.0919
 1575TIP3    H126140   0.653   1.161  14.496 -1.6806  3.0050  0.9465
 1575TIP3    H226141   0.505   1.189  14.489 -2.7959 -2.2142 -1.0688
 1576TIP3   OH226142   2.681   3.417  10.842 -1.0930  0.5183  0.5089
 1576TIP3    H126143   2.660   3.326  10.862  0.6878 -0.5822 -2.0794
 1576TIP3    H226144   2.727   3.449  10.920  0.4760 -1.6539  0.5796
 1577TIP3   OH226145   1.919   5.758   4.805  0.3786 -0.1194 -0.2014
 1577TIP3    H126146   1.906   5.851   4.824 -0.4109 -0.2855  0.1022
 1577TIP3    H226147   1.988   5.757   4.738 -1.1352  0.8268 -1.8661
 1578TIP3   OH226148   0.054   2.744   4.724  0.2130  0.3043 -0.3223
 1578TIP3    H126149   0.067   2.686   4.799 -0.2191  2.4251  1.5073
 1578TIP3    H226150   0.142   2.760   4.691  0.6185  0.8190  0.9477
 1579TIP3   OH226151   6.614   0.464   6.144 -0.3011  0.3568  0.7265
 1579TIP3    H126152   6.689   0.516   6.173  0.2430  0.5071 -0.8865
 1579TIP3    H226153   6.651   0.380   6.117 -0.4124  1.0442 -1.7799
 1580TIP3   OH226154   4.307   5.496  11.492 -1.2416 -0.2152  0.4500
 1580TIP3    H126155   4.389   5.545  11.497 -0.9561 -0.3834 -1.5700
 1580TIP3    H226156   4.312   5.432  11.563  1.8300 -2.3014 -1.4027
 1581TIP3   OH226157   2.048   4.538  10.994 -0.7442  0.7491  0.5497
 1581TIP3    H126158   1.982   4.493  10.941  0.2800 -1.4436  1.0484
 1581TIP3    H226159   2.062   4.622  10.949 -0.9872 -0.4164 -1.8305
 1582TIP3   OH226160   0.187   5.327  15.187  0.1979 -0.4790  0.2417
 1582TIP3    H126161   0.269   5.289  15.158  0.6473  0.1000  0.7236
 1582TIP3    H226162   0.163   5.276  15.264  0.5147 -0.1528  0.5611
 1583TIP3   OH226163   3.342   2.036   3.312  0.2821  0.2841 -0.1974
 1583TIP3    H126164   3.289   2.017   3.389 -0.9607 -0.3038 -1.1745
 1583TIP3    H226165   3.367   1.950   3.278 -1.3720  0.4148 -1.9082
 1584TIP3   OH226166   3.470   4.047  14.621 -0.9510  0.2781  0.7651
 1584TIP3    H126167   3.429   4.041  14.707  0.5376 -0.3847  1.4666
 1584TIP3    H226168   3.434   3.973  14.572  0.4395 -1.1962  1.8684
 1585TIP3   OH226169   6.791   3.852  16.161  0.4436  0.1433  0.6544
 1585TIP3    H126170   6.830   3.934  16.130 -0.2310  0.8617  1.6412
 1585TIP3    H226171   6.771   3.868  16.253  0.5474 -1.2375  0.9416
 1586TIP3   OH226172   5.059   1.977  11.320  0.5734  0.6470  0.2457
 1586TIP3    H126173   5.086   1.946  11.234  1.7985  0.2922  0.7339
 1586TIP3    H226174   4.964   1.986  11.314  0.5432 -0.2278 -0.8628
 1587TIP3   OH226175   3.791   1.674  12.737  0.5008 -0.3724  0.0732
 1587TIP3    H126176   3.881   1.701  12.717  0.8804 -1.6239 -0.0551
 1587TIP3    H226177   3.737   1.750  12.717  1.4330  0.0799 -0.7970
 1588TIP3   OH226178   4.195   5.165  14.155 -0.2374 -0.0706  0.2166
 1588TIP3    H126179   4.237   5.133  14.076  1.1738  2.2222 -0.0634
 1588TIP3    H226180   4.123   5.219  14.123 -0.4438 -0.1531  0.5398
 1589TIP3   OH226181   1.321   4.924  14.344  0.3301  0.2390  0.3333
 1589TIP3    H126182   1.383   4.860  14.379  1.1066  1.0556  0.4995
 1589TIP3    H226183   1.353   4.942  14.256  0.8132  1.2561  0.7010
 1590TIP3   OH226184   2.474   2.999  13.918 -0.0521  0.4250 -0.2220
 1590TIP3    H126185   2.560   2.983  13.878  0.2493 -1.3218  1.0118
 1590TIP3    H226186   2.461   2.925  13.977 -1.6452  1.5585  0.9316
 1591TIP3   OH226187   5.066   3.850  16.244 -0.0441 -0.4794  0.6003
 1591TIP3    H126188   4.987   3.808  16.210 -0.2395  1.7396 -1.9552
 1591TIP3    H226189   5.137   3.811  16.193 -0.1203  1.3649 -1.0166
 1592TIP3   OH226190   5.099   2.413  11.217  0.1029  0.0579 -0.2203
 1592TIP3    H126191   5.020   2.425  11.269  1.1391 -1.4861  1.8730
 1592TIP3    H226192   5.170   2.444  11.274  1.2367 -1.2925 -0.8300
 1593TIP3   OH226193   1.621   4.120  16.007 -0.2650  0.1652  0.3824
 1593TIP3    H126194   1.714   4.128  15.985 -0.4843  0.3065 -0.5345
 1593TIP3    H226195   1.617   4.047  16.069  0.5922  0.9212  1.3601
 1594TIP3   OH226196   5.899   5.283  14.181  0.0601  0.6081  0.8389
 1594TIP3    H126197   5.816   5.328  14.201  1.4037  2.3359  3.1276
 1594TIP3    H226198   5.957   5.310  14.252  2.0958 -1.9604  0.2806
 1595TIP3   OH226199   3.517   3.329   6.280 -0.2280  0.0465 -0.1039
 1595TIP3    H126200   3.555   3.414   6.302  0.8848 -0.1929 -0.9824
 1595TIP3    H226201   3.457   3.348   6.208 -1.8209  0.4223  1.2694
 1596TIP3   OH226202   5.778   6.699   0.112 -0.5896 -0.4161  0.2185
 1596TIP3    H126203   5.723   6.641   0.164 -0.9482 -1.2041 -0.9873
 1596TIP3    H226204   5.848   6.642   0.077 -0.3800  0.0721 -0.1802
 1597TIP3   OH226205   4.852   2.938   4.111  0.0372 -0.0229 -0.4391
 1597TIP3    H126206   4.775   2.993   4.097  0.6773  0.7903 -0.8317
 1597TIP3    H226207   4.905   2.988   4.174  0.3006 -0.5229 -0.2641
 1598TIP3   OH226208   3.404   1.771  14.460  0.5163  0.6536 -0.7179
 1598TIP3    H126209   3.413   1.863  14.485 -0.1800  1.3288 -2.7340
 1598TIP3    H226210   3.310   1.758  14.450  0.7113  0.3401 -2.4466
 1599TIP3   OH226211   4.802   3.387  11.715  0.5821  0.6464  0.4315
 1599TIP3    H126212   4.708   3.392  11.735  0.9325  0.3701  2.3117
 1599TIP3    H226213   4.807   3.398  11.620 -1.3329  0.9053  0.3274
 1600TIP3   OH226214   5.646   3.613  10.952 -0.0108  0.8142  0.3292
 1600TIP3    H126215   5.656   3.593  10.859  3.6008  4.9657 -0.5592
 1600TIP3    H226216   5.580   3.682  10.955 -2.2219 -1.2073  1.4042
 1601TIP3   OH226217   4.697   1.066   6.190  0.4928  0.2036 -0.1951
 1601TIP3    H126218   4.644   0.986   6.190  1.8450 -0.9095  3.2756
 1601TIP3    H226219   4.772   1.044   6.134  0.3310 -0.5633 -0.1250
 1602TIP3   OH226220   4.864   5.856   2.608 -0.2350 -0.5688 -0.1185
 1602TIP3    H126221   4.923   5.928   2.632  0.6856 -1.3517  0.0280
 1602TIP3    H226222   4.910   5.810   2.537 -1.6435  0.0547 -1.4916
 1603TIP3   OH226223   2.634   0.290  14.227  0.5855  0.0589  0.5726
 1603TIP3    H126224   2.682   0.368  14.254  0.1077 -0.0667  1.8421
 1603TIP3    H226225   2.688   0.216  14.254  0.7236 -0.0684 -0.0276
 1604TIP3   OH226226   0.851   0.633   5.157 -0.5144  0.5511 -0.7448
 1604TIP3    H126227   0.805   0.549   5.162  0.3764  0.0902  0.2374
 1604TIP3    H226228   0.940   0.610   5.131 -0.4567  1.2737 -1.2006
 1605TIP3   OH226229   5.384   5.346  15.050 -0.1875  0.0896  0.5035
 1605TIP3    H126230   5.319   5.347  14.980  0.5535  0.8193 -0.2042
 1605TIP3    H226231   5.407   5.438  15.063  2.1937 -0.2492 -0.7440
 1606TIP3   OH226232   5.614   1.519   4.223  0.3867  0.1176  0.3801
 1606TIP3    H126233   5.541   1.459   4.207  0.2738  0.7120 -1.5098
 1606TIP3    H226234   5.692   1.465   4.210  0.2991  0.4735 -2.1248
 1607TIP3   OH226235   0.566   6.423  11.382 -0.1545 -0.2797 -0.3403
 1607TIP3    H126236   0.581   6.375  11.300  0.5118 -0.4748 -0.1121
 1607TIP3    H226237   0.503   6.491  11.359 -0.3543 -0.6443 -0.9013
 1608TIP3   OH226238   1.439   3.068  12.384 -0.3171  0.0224  0.0476
 1608TIP3    H126239   1.424   3.028  12.470 -1.3265 -0.7852 -0.4842
 1608TIP3    H226240   1.523   3.112  12.393 -0.1626 -0.4762  1.3007
 1609TIP3   OH226241   1.090   0.116   1.292 -0.5004 -0.2566 -0.0316
 1609TIP3    H126242   1.121   0.056   1.225  0.2932 -1.2079  1.1491
 1609TIP3    H226243   1.038   0.061   1.351  0.0291  0.2434  0.9308
 1610TIP3   OH226244   1.049   6.502  16.360  0.5145 -0.5584  0.5261
 1610TIP3    H126245   0.996   6.513  16.282 -0.1789  0.4448  1.1159
 1610TIP3    H226246   0.986   6.482  16.430  0.8460  0.7987  1.2649
 1611TIP3   OH226247   6.080   0.309   5.226 -0.2346  0.4360  0.0750
 1611TIP3    H126248   6.004   0.320   5.169  0.3701  1.4579 -0.5625
 1611TIP3    H226249   6.098   0.215   5.225 -1.6755  0.1241  0.5075
 1612TIP3   OH226250   4.526   1.575   0.286  0.3824 -0.0288  0.2441
 1612TIP3    H126251   4.494   1.582   0.196 -1.8810  3.1323  1.1121
 1612TIP3    H226252   4.613   1.615   0.283 -0.1714  1.1845 -0.3708
 1613TIP3   OH226253   6.558   5.738   1.814  1.1337 -0.0821 -0.8062
 1613TIP3    H126254   6.541   5.715   1.722  1.9923  0.0591 -1.0023
 1613TIP3    H226255   6.556   5.654   1.860 -0.5932 -0.0309 -0.7256
 1614TIP3   OH226256   0.091   6.399   3.887  0.1958 -0.4266 -0.4917
 1614TIP3    H126257  -0.001   6.389   3.865  0.2081 -0.3404 -0.5828
 1614TIP3    H226258   0.093   6.469   3.952 -0.0925 -2.1974  1.5604
 1615TIP3   OH226259   1.719   5.935  14.385 -0.8343  0.3678 -0.0384
 1615TIP3    H126260   1.809   5.964  14.375 -0.7128 -0.4404 -1.4540
 1615TIP3    H226261   1.666   6.011  14.363 -0.5093  0.4417 -0.5622
 1616TIP3   OH226262   0.975   5.869  16.434  0.2922 -0.2410  0.0953
 1616TIP3    H126263   1.019   5.905  16.511 -1.7975  0.7266  0.9016
 1616TIP3    H226264   0.912   5.806  16.469 -1.0459  0.5821 -0.7297
 1617TIP3   OH226265   4.390   2.189   4.629  0.3919 -0.6121 -1.0425
 1617TIP3    H126266   4.414   2.123   4.564  2.1430 -1.5417  0.4415
 1617TIP3    H226267   4.469   2.243   4.637 -0.1825  0.1462 -0.4800
 1618TIP3   OH226268   0.789   2.050  16.711  0.4558  0.1545  0.2435
 1618TIP3    H126269   0.831   2.086  16.789  0.5502  2.1211 -0.6748
 1618TIP3    H226270   0.739   2.123  16.674 -1.9984 -1.4988  0.0384
 1619TIP3   OH226271   3.183   3.782  15.858  0.1660  0.1372  0.2335
 1619TIP3    H126272   3.234   3.862  15.844  0.0886  0.1604  0.0903
 1619TIP3    H226273   3.107   3.791  15.802  0.2584 -0.1313  0.0614
 1620TIP3   OH226274   4.311   6.021  15.041 -0.7299  0.1813 -0.1566
 1620TIP3    H126275   4.232   6.024  14.986 -2.0135 -0.3325  1.5598
 1620TIP3    H226276   4.321   5.928  15.062 -0.4405  0.3931  0.6843
 1621TIP3   OH226277   1.044   4.282   2.537  0.3594  0.7548 -0.2241
 1621TIP3    H126278   0.984   4.212   2.562  0.0732  1.3533  0.8658
 1621TIP3    H226279   1.103   4.242   2.474 -0.1361 -0.3124 -0.0398
 1622TIP3   OH226280   5.247   3.747  15.502 -0.6102  0.2343  0.3257
 1622TIP3    H126281   5.178   3.737  15.437 -0.2828  1.1094 -0.1710
 1622TIP3    H226282   5.255   3.660  15.542 -1.4277 -0.0818 -0.1751
 1623TIP3   OH226283   5.077   6.613   1.099 -1.1788 -0.4086  0.0874
 1623TIP3    H126284   5.114   6.653   1.178  0.0384  0.2864 -0.7831
 1623TIP3    H226285   5.077   6.684   1.035  0.0428 -1.5235 -1.2031
 1624TIP3   OH226286   0.472   5.132   0.993  0.2772 -0.1053  0.1895
 1624TIP3    H126287   0.454   5.043   1.023 -0.0434  0.4037  1.5902
 1624TIP3    H226288   0.457   5.129   0.898  1.6033 -1.8572 -0.0266
 1625TIP3   OH226289   5.441   3.940   3.780 -0.2284  0.1538 -0.2995
 1625TIP3    H126290   5.403   4.022   3.748  2.0773  0.7208 -1.8675
 1625TIP3    H226291   5.436   3.880   3.705 -0.3171 -0.5587  0.2703
 1626TIP3   OH226292   3.433   3.647   3.558 -0.4216 -0.0350 -0.2986
 1626TIP3    H126293   3.379   3.726   3.547 -0.4836  0.2172  1.5301
 1626TIP3    H226294   3.521   3.674   3.532 -0.4869  0.5755  0.1028
 1627TIP3   OH226295   4.181   5.261   4.771  0.3469 -0.3433 -0.0429
 1627TIP3    H126296   4.268   5.301   4.779 -0.0510  0.5069  0.1119
 1627TIP3    H226297   4.191   5.174   4.811  1.3895 -0.6850 -0.9728
 1628TIP3   OH226298   4.345   5.656   5.949  0.6079 -0.9256 -0.1526
 1628TIP3    H126299   4.327   5.682   6.040 -1.1801  0.0447 -0.7432
 1628TIP3    H226300   4.423   5.600   5.955  1.1669 -0.0129  1.8493
 1629TIP3   OH226301   6.769   1.799  13.960  0.2611  0.3372  0.3439
 1629TIP3    H126302   6.717   1.868  14.001  2.8363  0.6478  3.4897
 1629TIP3    H226303   6.850   1.843  13.932  0.9665 -0.9566  0.2579
 1630TIP3   OH226304   4.224   6.681  15.955  0.1888 -0.2190  0.1672
 1630TIP3    H126305   4.265   6.688  16.041 -0.4909 -1.1759  0.5988
 1630TIP3    H226306   4.222   6.587  15.937  1.4748  0.0279 -1.4889
 1631TIP3   OH226307   3.526   1.777   0.721  0.5040  0.2228  0.1843
 1631TIP3    H126308   3.433   1.770   0.741  0.1499 -0.1706 -1.5285
 1631TIP3    H226309   3.569   1.730   0.793 -0.6172  0.1440  0.8300
 1632TIP3   OH226310   0.842   5.859   0.704  0.7392 -0.4671 -0.3778
 1632TIP3    H126311   0.865   5.857   0.797  0.7797 -2.3299 -0.3858
 1632TIP3    H226312   0.750   5.832   0.701  0.8958 -0.9579 -0.9170
 1633TIP3   OH226313   3.249   3.545   3.128 -0.3287 -0.6076  0.2349
 1633TIP3    H126314   3.279   3.457   3.105 -0.3448 -0.0445 -2.1862
 1633TIP3    H226315   3.329   3.596   3.140 -0.3229 -0.7894  1.0035
 1634TIP3   OH226316   1.499   2.218   3.886 -0.7602  0.1008  0.1065
 1634TIP3    H126317   1.408   2.236   3.863 -0.7991 -1.3034 -0.9599
 1634TIP3    H226318   1.532   2.301   3.921 -2.6101  0.4616  1.0906
 1635TIP3   OH226319   0.014   2.234  14.313 -0.0986 -0.1927 -0.0318
 1635TIP3    H126320  -0.039   2.155  14.326 -0.6261  0.2112  0.3451
 1635TIP3    H226321   0.098   2.202  14.281 -0.4114 -0.8834 -0.1724
 1636TIP3   OH226322   4.976   0.509  14.787 -0.6102 -0.3822  0.2947
 1636TIP3    H126323   4.979   0.413  14.787 -1.9958 -0.4475  0.3235
 1636TIP3    H226324   4.965   0.533  14.695 -1.0775 -0.3048  0.3656
 1637TIP3   OH226325   2.575   1.883   5.902  0.0517 -0.1092  0.7294
 1637TIP3    H126326   2.567   1.905   5.995  0.1020  1.5239  0.3645
 1637TIP3    H226327   2.484   1.883   5.870 -0.0896 -1.9379  1.0215
 1638TIP3   OH226328   1.429   3.716   3.820  0.6185  0.6371 -0.4288
 1638TIP3    H126329   1.421   3.782   3.751 -0.2111 -0.5250 -1.4628
 1638TIP3    H226330   1.355   3.733   3.878  1.5249  1.8526  0.4261
 1639TIP3   OH226331   4.235   4.111   2.857 -1.0091  0.2414 -0.2961
 1639TIP3    H126332   4.233   4.146   2.946  1.3841 -0.2855  0.0505
 1639TIP3    H226333   4.222   4.017   2.868  0.1008  0.0599 -0.3642
 1640TIP3   OH226334   1.246   3.192  13.712  0.4570 -0.6808  0.3532
 1640TIP3    H126335   1.153   3.179  13.726  0.1706  1.8207  1.2190
 1640TIP3    H226336   1.272   3.255  13.779  2.7006 -1.0123 -0.1175
 1641TIP3   OH226337   0.105   3.979  12.267  0.1801 -0.0700 -0.0641
 1641TIP3    H126338   0.095   4.006  12.176  0.0647 -1.7561 -0.5820
 1641TIP3    H226339   0.019   3.992  12.306 -0.5071 -1.7738 -0.9186
 1642TIP3   OH226340   2.695   2.382   0.241 -0.1175  0.0534  0.0802
 1642TIP3    H126341   2.750   2.370   0.164 -0.4162 -1.2506  0.0425
 1642TIP3    H226342   2.753   2.367   0.316 -0.4962 -1.9657  0.0338
 1643TIP3   OH226343   0.338   0.203  11.414  0.6565 -0.0963  0.1896
 1643TIP3    H126344   0.393   0.240  11.484  1.2609  1.5307 -1.0761
 1643TIP3    H226345   0.398   0.192  11.340 -0.8661  3.0121 -1.6990
 1644TIP3   OH226346   0.411   3.965  16.322 -0.3656  0.2245 -0.3933
 1644TIP3    H126347   0.380   3.884  16.363 -0.8527  0.6558  0.1061
 1644TIP3    H226348   0.428   3.941  16.231 -0.3837 -0.4699 -0.2153
 1645TIP3   OH226349   5.328   6.474  15.588  0.2264  0.2786 -0.1253
 1645TIP3    H126350   5.257   6.495  15.528  0.4900  1.9964  0.0984
 1645TIP3    H226351   5.395   6.540  15.570  0.6332  0.3662  1.5012
 1646TIP3   OH226352   4.336   2.588   5.375 -0.2253  0.2879  0.1225
 1646TIP3    H126353   4.319   2.678   5.402 -1.0723  0.1874 -0.0494
 1646TIP3    H226354   4.344   2.540   5.458  1.6634  0.7456  0.2544
 1647TIP3   OH226355   1.599   0.004  14.235 -0.1884 -0.2290 -1.0032
 1647TIP3    H126356   1.635   0.093  14.239 -0.8266 -0.0097  0.4628
 1647TIP3    H226357   1.649  -0.039  14.165  1.3522  0.7506 -0.5554
 1648TIP3   OH226358   6.097   5.512   4.621  0.2519  0.1084  0.5251
 1648TIP3    H126359   6.147   5.529   4.541  0.0724  1.8340  0.7284
 1648TIP3    H226360   6.040   5.438   4.599 -0.2831  0.9711 -1.1866
 1649TIP3   OH226361   1.921   6.125  15.243 -0.1021  0.1249  0.3343
 1649TIP3    H126362   1.860   6.080  15.185 -0.8811  0.1374  1.1222
 1649TIP3    H226363   1.865   6.171  15.306  0.7022  1.2524  0.2389
 1650TIP3   OH226364   5.352   6.060   1.760  0.2580 -0.1531 -0.6187
 1650TIP3    H126365   5.431   6.006   1.753 -0.4315 -1.2493 -0.2104
 1650TIP3    H226366   5.323   6.048   1.851  0.1441  1.0000 -0.4894
 1651TIP3   OH226367   6.544   4.134  16.500 -0.5630 -0.3492  0.3499
 1651TIP3    H126368   6.449   4.136  16.489 -0.4797 -0.8062 -0.6160
 1651TIP3    H226369   6.567   4.222  16.528 -1.3705 -0.5065  1.5732
 1652TIP3   OH226370   6.238   5.816  16.254  0.4899  0.3179 -0.7668
 1652TIP3    H126371   6.201   5.787  16.337 -0.8613 -0.4659 -1.6023
 1652TIP3    H226372   6.168   5.867  16.213 -0.3005 -2.2825 -2.9635
 1653TIP3   OH226373   6.493   6.711   4.938 -0.3357  0.3632 -0.1771
 1653TIP3    H126374   6.467   6.768   4.866  0.6562  1.8954  0.6043
 1653TIP3    H226375   6.582   6.685   4.916 -0.4382 -0.0828 -0.0586
 1654TIP3   OH226376   0.071   4.107  14.045 -0.2490  0.1336  0.3551
 1654TIP3    H126377   0.052   4.057  13.966 -1.2374  1.9448 -0.6287
 1654TIP3    H226378   0.137   4.170  14.017 -0.5646  0.7509  0.9728
 1655TIP3   OH226379   0.855   3.508  13.960 -0.1932  0.5177 -0.0378
 1655TIP3    H126380   0.762   3.531  13.956 -0.3254 -0.0104 -0.0128
 1655TIP3    H226381   0.860   3.419  13.924  0.3956  0.8053 -0.7054
 1656TIP3   OH226382   6.148   1.409  11.871  0.5144 -0.0114 -0.9236
 1656TIP3    H126383   6.138   1.503  11.883  1.5576  0.0357 -0.2750
 1656TIP3    H226384   6.059   1.375  11.867  0.1334  0.9790 -0.9683
 1657TIP3   OH226385   1.145   3.493   2.961  0.1515  0.2419 -0.3997
 1657TIP3    H126386   1.161   3.421   2.901  0.4802 -1.0766  1.2040
 1657TIP3    H226387   1.095   3.454   3.033  0.8820  1.4545  0.8146
 1658TIP3   OH226388   3.536   2.409   0.812  0.0809 -0.2577 -0.0257
 1658TIP3    H126389   3.611   2.381   0.865  1.6654 -0.9723 -2.4549
 1658TIP3    H226390   3.540   2.504   0.813 -0.5911 -0.2182  1.9523
 1659TIP3   OH226391   5.734   0.420   5.932  0.2787 -0.0419  0.7036
 1659TIP3    H126392   5.725   0.512   5.958  1.0048  0.5369 -0.9388
 1659TIP3    H226393   5.788   0.381   6.000  2.0506  1.3853  0.2060
 1660TIP3   OH226394   1.497   0.195   4.381 -0.3063 -0.4386 -0.6409
 1660TIP3    H126395   1.485   0.273   4.434  1.1488 -0.7279  0.1738
 1660TIP3    H226396   1.447   0.127   4.425  1.2869 -0.7983  0.6936
 1661TIP3   OH226397   6.593   5.230   5.284 -0.1928 -0.8178 -0.0160
 1661TIP3    H126398   6.549   5.215   5.367 -4.0258  0.8215 -1.4856
 1661TIP3    H226399   6.551   5.169   5.223  1.3106 -0.8146 -1.1160
 1662TIP3   OH226400   2.933   1.808  16.571  0.3201  0.0277 -0.5227
 1662TIP3    H126401   2.905   1.762  16.650  0.3243  1.0407  0.0859
 1662TIP3    H226402   3.018   1.769  16.550  0.1936 -0.4376 -0.1856
 1663TIP3   OH226403   6.561   4.337   5.410  0.2562  0.0277 -0.1954
 1663TIP3    H126404   6.491   4.401   5.423  0.6314  0.2038  1.0880
 1663TIP3    H226405   6.518   4.264   5.366 -0.8542 -0.0420  0.9454
 1664TIP3   OH226406   4.808   2.560   2.159  0.3724  0.2118 -0.0598
 1664TIP3    H126407   4.893   2.578   2.118  0.2075  1.6861  0.2016
 1664TIP3    H226408   4.757   2.518   2.090  0.3544  1.9610 -1.1620
 1665TIP3   OH226409   0.016   3.280   2.457 -0.1033  0.1107 -0.1924
 1665TIP3    H126410   0.082   3.333   2.501  0.1461 -0.0722 -0.3426
 1665TIP3    H226411   0.051   3.268   2.368 -1.4557  2.0712 -1.0754
 1666TIP3   OH226412   5.574   0.837  13.267  0.0448 -0.4122  0.3057
 1666TIP3    H126413   5.496   0.892  13.278 -0.5456 -1.3916  1.2530
 1666TIP3    H226414   5.611   0.831  13.355  0.2601 -1.2819  0.1623
 1667TIP3   OH226415   2.005   3.120  14.765 -0.2872  0.1356 -0.0547
 1667TIP3    H126416   1.935   3.064  14.732 -0.7888  0.7327 -0.0071
 1667TIP3    H226417   1.985   3.207  14.731  1.3571  0.0228 -1.5044
 1668TIP3   OH226418   0.696   0.836   6.004 -0.5849  0.1621  0.4662
 1668TIP3    H126419   0.696   0.758   5.948  1.4048  0.9865 -0.8471
 1668TIP3    H226420   0.630   0.893   5.965 -0.4290  0.0278 -0.0099
 1669TIP3   OH226421   6.268   1.642  11.492  0.6844  0.3438  0.1263
 1669TIP3    H126422   6.209   1.568  11.478  0.6029  0.4088  0.1290
 1669TIP3    H226423   6.211   1.715  11.515  0.8644  0.0712  1.5127
 1670TIP3   OH226424   2.460   2.183  13.814 -0.1360 -0.1776 -0.2215
 1670TIP3    H126425   2.472   2.209  13.905 -1.4611  2.4408 -0.7009
 1670TIP3    H226426   2.545   2.201  13.773 -0.2081  0.8800  0.0531
 1671TIP3   OH226427   3.914   2.403  15.895  0.4148  0.6913  0.0011
 1671TIP3    H126428   3.844   2.338  15.892  1.0587  0.0106 -1.6925
 1671TIP3    H226429   3.870   2.487  15.883 -0.2340  0.4078  0.3399
 1672TIP3   OH226430   5.108   3.481  11.152  0.0318 -0.3649  0.0149
 1672TIP3    H126431   5.044   3.520  11.212  1.3178  1.8965  0.0413
 1672TIP3    H226432   5.093   3.525  11.069  1.8906  0.7203  0.1823
 1673TIP3   OH226433   6.318   2.851  17.007 -0.2512  0.2077 -0.4895
 1673TIP3    H126434   6.236   2.890  16.978 -0.2385  2.6895  2.2837
 1673TIP3    H226435   6.379   2.924  17.010  1.1335 -0.9339  0.6287
 1674TIP3   OH226436   0.477   2.865  17.088 -0.1951 -0.0823 -0.0750
 1674TIP3    H126437   0.410   2.808  17.051  0.8029 -0.2322 -1.7954
 1674TIP3    H226438   0.442   2.954  17.077  0.2319 -0.0850 -1.8865
 1675TIP3   OH226439   3.357   2.559   3.329  0.1767  0.1462 -0.4044
 1675TIP3    H126440   3.397   2.599   3.252 -0.8225  0.0929 -0.9759
 1675TIP3    H226441   3.364   2.465   3.314  1.5971  0.0896  0.4485
 1676TIP3   OH226442   5.224   5.777   1.098 -0.4376 -0.2864  0.6092
 1676TIP3    H126443   5.319   5.771   1.103 -0.5313 -1.2513  1.6606
 1676TIP3    H226444   5.207   5.857   1.048  0.9116  0.7081  1.6584
 1677TIP3   OH226445   0.705   4.477  13.604 -0.4430 -0.1920  0.5629
 1677TIP3    H126446   0.658   4.549  13.563 -1.6917 -0.4790  1.4102
 1677TIP3    H226447   0.703   4.497  13.698  0.7896 -0.4310  0.6621
 1678TIP3   OH226448   2.821   6.531   2.717  0.7586 -0.5883  0.4370
 1678TIP3    H126449   2.880   6.598   2.681  0.4940  0.0010  1.0631
 1678TIP3    H226450   2.827   6.458   2.655  1.7992 -0.3695  0.2530
 1679TIP3   OH226451   4.270   1.155  12.220  0.4165  0.6507 -0.5649
 1679TIP3    H126452   4.266   1.226  12.157 -0.4864  0.7728 -0.3801
 1679TIP3    H226453   4.205   1.178  12.287  0.3300 -0.1851 -0.3468
 1680TIP3   OH226454   4.353   2.193  11.670  0.2883 -0.1275  0.1844
 1680TIP3    H126455   4.426   2.142  11.706  0.1445  0.3897  1.2770
 1680TIP3    H226456   4.281   2.130  11.662  0.6427 -0.4840 -0.2050
 1681TIP3   OH226457   0.109   0.708   0.952 -0.2561  0.3967  0.1531
 1681TIP3    H126458   0.148   0.787   0.915  0.0490  0.2001  0.0542
 1681TIP3    H226459   0.129   0.639   0.889 -0.9874  0.3397 -0.0274
 1682TIP3   OH226460   3.376   1.350  10.980  0.8850  0.4438 -0.2042
 1682TIP3    H126461   3.392   1.257  10.967  5.1034  1.0960 -1.0961
 1682TIP3    H226462   3.380   1.363  11.075  4.0610  0.0840 -0.1902
 1683TIP3   OH226463   6.384   0.845   2.889  0.1759  0.5568 -0.6712
 1683TIP3    H126464   6.333   0.764   2.890  0.0438  0.6392 -0.6368
 1683TIP3    H226465   6.395   0.866   2.797  1.5242 -0.3153 -0.7323
 1684TIP3   OH226466   1.033   3.564  12.349  0.4817 -0.1060 -0.3666
 1684TIP3    H126467   1.018   3.655  12.376 -1.4648  0.1003 -1.9359
 1684TIP3    H226468   1.080   3.526  12.423  0.6155  1.9429  0.7032
 1685TIP3   OH226469   2.702   4.486  16.615  0.5542  0.2608  0.0135
 1685TIP3    H126470   2.633   4.447  16.668  0.1019  1.3681  0.2645
 1685TIP3    H226471   2.716   4.573  16.653  1.2198  0.5270 -0.7973
 1686TIP3   OH226472   6.567   5.479   5.525  0.4035  0.2142  0.2879
 1686TIP3    H126473   6.586   5.565   5.564 -0.6035  0.8009 -0.4466
 1686TIP3    H226474   6.589   5.416   5.594 -0.9416  1.1825  1.6696
 1687TIP3   OH226475   0.617   1.923  13.524 -0.2134  0.5903  0.4658
 1687TIP3    H126476   0.586   1.887  13.607 -1.5818  0.6183 -0.0090
 1687TIP3    H226477   0.588   1.860  13.458  0.5495  0.7479 -0.0411
 1688TIP3   OH226478   3.026   4.165   2.272 -0.1828  0.0588 -0.1157
 1688TIP3    H126479   2.986   4.078   2.266 -1.9744  0.8809 -0.9677
 1688TIP3    H226480   3.088   4.168   2.200 -0.5016 -0.3299 -0.4115
 1689TIP3   OH226481   3.194   5.091   6.460 -0.3123  0.0325 -0.0108
 1689TIP3    H126482   3.225   5.158   6.521  0.3711 -1.6992  1.6520
 1689TIP3    H226483   3.099   5.105   6.456 -0.4158  0.0781  1.6598
 1690TIP3   OH226484   2.269   0.943   0.703  0.6805  0.1124  0.2099
 1690TIP3    H126485   2.289   1.002   0.630  0.0895 -0.1875 -0.2038
 1690TIP3    H226486   2.340   0.879   0.702  0.2438 -0.3807 -0.6408
 1691TIP3   OH226487   0.056   0.730   0.644  0.3493  0.5511  0.1718
 1691TIP3    H126488   0.028   0.693   0.561 -0.7773 -1.6226  1.4349
 1691TIP3    H226489   0.105   0.659   0.686  1.5166  1.8491  1.0863
 1692TIP3   OH226490   4.586   1.033   5.752 -0.0744  0.4871 -0.4296
 1692TIP3    H126491   4.537   1.075   5.822  0.6323 -0.1564  0.4831
 1692TIP3    H226492   4.527   0.966   5.718 -0.0200  0.0323  0.3402
 1693TIP3   OH226493   5.772   2.772  11.244 -0.0604  0.2296  0.2039
 1693TIP3    H126494   5.692   2.787  11.294 -2.1736 -0.1401 -2.7652
 1693TIP3    H226495   5.832   2.843  11.271 -1.0751  0.1226  2.9878
 1694TIP3   OH226496   5.241   6.672  13.905  0.5827  0.0471 -0.1209
 1694TIP3    H126497   5.156   6.642  13.875  0.9501  0.1276 -1.3173
 1694TIP3    H226498   5.289   6.592  13.927  1.7904 -0.5019 -3.9194
 1695TIP3   OH226499   0.349   0.814  11.208  0.1217 -0.6841 -0.3670
 1695TIP3    H126500   0.278   0.873  11.235 -1.4776 -1.8355 -1.8346
 1695TIP3    H226501   0.350   0.745  11.275  1.5913  0.6082  1.0195
 1696TIP3   OH226502   2.460   2.448  13.195  0.5324 -0.3718  0.7649
 1696TIP3    H126503   2.531   2.432  13.257  1.3036  1.4005  0.3886
 1696TIP3    H226504   2.489   2.407  13.113  0.6983 -0.4237  0.8510
 1697TIP3   OH226505   1.628   1.172  12.547 -0.7120 -0.6027  0.1603
 1697TIP3    H126506   1.689   1.233  12.507 -1.5627 -0.5256 -1.1052
 1697TIP3    H226507   1.621   1.200  12.638  0.4951 -0.1184  0.1171
 1698TIP3   OH226508   0.754   2.643  16.361 -0.1296  0.0330 -0.4007
 1698TIP3    H126509   0.778   2.735  16.368 -0.7473  0.3423 -1.9192
 1698TIP3    H226510   0.765   2.608  16.450  1.2390  1.2744 -0.0374
 1699TIP3   OH226511   4.162   4.753  16.471 -0.5116  0.3719 -0.9474
 1699TIP3    H126512   4.089   4.708  16.513  0.2383  0.0090  0.0070
 1699TIP3    H226513   4.159   4.723  16.380 -1.7037  0.5785 -0.9862
 1700TIP3   OH226514   0.611   1.060  12.823 -0.2170  0.0883 -0.7392
 1700TIP3    H126515   0.521   1.062  12.790 -0.0226 -0.4871 -1.3320
 1700TIP3    H226516   0.653   1.134  12.781  0.3348 -1.2828 -2.7767
 1701TIP3   OH226517   4.609   1.383  13.691 -0.0134  0.3752  0.4017
 1701TIP3    H126518   4.689   1.375  13.639  0.2192  1.3983  0.5778
 1701TIP3    H226519   4.590   1.294  13.720  0.4849 -0.0346 -0.4952
 1702TIP3   OH226520   6.229   4.381   6.167 -0.4075 -0.4145 -0.0861
 1702TIP3    H126521   6.265   4.460   6.126  3.1713 -0.8725  1.8184
 1702TIP3    H226522   6.252   4.310   6.107  1.4135 -0.6195  0.8040
 1703TIP3   OH226523   6.273   4.125   0.999  0.3574  0.1395 -0.1761
 1703TIP3    H126524   6.240   4.059   1.060 -0.2633  1.2223  0.7006
 1703TIP3    H226525   6.243   4.096   0.913  0.4018 -0.8963  0.1460
 1704TIP3   OH226526   5.993   1.002   3.669 -0.0226  0.1427 -0.0923
 1704TIP3    H126527   6.037   0.995   3.753  2.2387  2.0474 -0.9881
 1704TIP3    H226528   6.030   0.932   3.615 -0.9671 -0.6474  0.2596
 1705TIP3   OH226529   0.132   0.340  11.270  0.5914  0.1190  0.0245
 1705TIP3    H126530   0.201   0.401  11.241 -0.1454  1.1606  0.4096
 1705TIP3    H226531   0.179   0.273  11.319  1.4231  0.3959 -0.3668
 1706TIP3   OH226532   6.312   4.602   0.388  0.4310  0.1732  0.0246
 1706TIP3    H126533   6.393   4.642   0.356  0.1967  0.9140  0.3434
 1706TIP3    H226534   6.242   4.654   0.348  0.0743 -1.2038 -1.2157
 1707TIP3   OH226535   5.088   3.756   6.105  0.1752  0.1388  0.5388
 1707TIP3    H126536   5.083   3.694   6.032 -0.0861  0.4455  0.2921
 1707TIP3    H226537   5.053   3.707   6.180  0.4323 -0.1715  0.4573
 1708TIP3   OH226538   2.070   0.542   1.273  0.0673 -0.5570 -0.0098
 1708TIP3    H126539   2.045   0.632   1.251 -3.0412 -1.5856 -1.1830
 1708TIP3    H226540   1.994   0.507   1.320  1.6762 -2.2705  1.4622
 1709TIP3   OH226541   4.845   6.287  15.765  0.1043  0.1508  0.4144
 1709TIP3    H126542   4.911   6.344  15.804 -0.1849 -0.5342  1.9970
 1709TIP3    H226543   4.895   6.216  15.725  0.3790  0.2124  0.6407
 1710TIP3   OH226544   3.753   0.954  13.957 -0.0538  0.0451  0.3325
 1710TIP3    H126545   3.727   0.879  14.009 -0.0481  0.1387  0.4703
 1710TIP3    H226546   3.683   1.018  13.968 -0.5351 -0.3015 -0.5545
 1711TIP3   OH226547   1.912   4.484   4.880 -0.0471  0.2655 -0.3344
 1711TIP3    H126548   1.889   4.478   4.972 -2.0328  1.3568 -0.6920
 1711TIP3    H226549   1.999   4.446   4.874  0.0076 -0.0911  1.9296
 1712TIP3   OH226550   2.809   5.110   3.596 -0.0034 -0.8988  0.2252
 1712TIP3    H126551   2.834   5.086   3.506 -0.4940  0.7380 -0.3855
 1712TIP3    H226552   2.725   5.066   3.610 -0.1160 -0.8503 -0.2733
 1713TIP3   OH226553   0.193   3.212  13.715 -0.9059  0.3249 -0.0972
 1713TIP3    H126554   0.155   3.228  13.629 -0.2557  0.3378 -0.3818
 1713TIP3    H226555   0.230   3.296  13.741  2.9058 -0.6274 -1.7828
 1714TIP3   OH226556   1.575   2.374   0.790  0.0749  0.4070  0.1476
 1714TIP3    H126557   1.593   2.400   0.700  0.8548 -0.2463  0.1056
 1714TIP3    H226558   1.577   2.457   0.839  0.5958  0.6634 -0.2875
 1715TIP3   OH226559   2.064   0.330  13.238 -0.3895  0.3549  0.7139
 1715TIP3    H126560   2.022   0.305  13.156  1.2642 -0.1061 -0.0346
 1715TIP3    H226561   2.033   0.419  13.255  0.9160  1.3388 -1.5990
 1716TIP3   OH226562   6.368   5.687   3.139 -0.7457 -0.0224  0.0973
 1716TIP3    H126563   6.350   5.664   3.048 -1.5325 -2.6426  0.8061
 1716TIP3    H226564   6.444   5.633   3.163 -1.3612 -0.3947  1.3194
 1717TIP3   OH226565   0.511   3.358   4.884 -0.1590 -0.2765  0.2731
 1717TIP3    H126566   0.546   3.272   4.905  1.5147  0.1555 -0.6410
 1717TIP3    H226567   0.438   3.341   4.825 -0.9699 -1.1355  1.4727
 1718TIP3   OH226568   5.215   5.626   5.920 -0.4065 -0.3269 -0.1063
 1718TIP3    H126569   5.136   5.591   5.878  0.6139 -1.4276 -1.1883
 1718TIP3    H226570   5.192   5.631   6.013 -1.8563 -0.3063 -0.4410
 1719TIP3   OH226571   4.705   1.332  11.390 -0.1621 -0.2119 -0.1693
 1719TIP3    H126572   4.788   1.297  11.420  0.1860  1.5234  1.0728
 1719TIP3    H226573   4.639   1.286  11.443  0.1981  0.1276  0.5906
 1720TIP3   OH226574   1.609   6.690  16.267  0.1092  0.2041 -0.3194
 1720TIP3    H126575   1.684   6.647  16.309 -0.1076  0.6342  0.5226
 1720TIP3    H226576   1.640   6.710  16.178  0.3750 -1.2505 -0.5842
 1721TIP3   OH226577   3.368   4.155   1.551 -0.1383  0.3629 -0.3932
 1721TIP3    H126578   3.286   4.157   1.601 -0.6969  0.8265 -1.2894
 1721TIP3    H226579   3.340   4.162   1.459  0.8786 -0.0323 -0.7527
 1722TIP3   OH226580   0.471   3.828   3.136  0.0840 -0.6289  0.3162
 1722TIP3    H126581   0.512   3.748   3.168  0.1770  0.0086  1.9154
 1722TIP3    H226582   0.538   3.896   3.148 -0.8418  0.1280  1.4244
 1723TIP3   OH226583   0.784   2.787  15.317 -0.3618  0.2191 -0.5220
 1723TIP3    H126584   0.731   2.723  15.269  1.9726 -0.8466 -1.8621
 1723TIP3    H226585   0.828   2.736  15.385 -0.2062  0.8495 -0.1380
 1724TIP3   OH226586   3.921   4.177   3.259  0.2370 -0.3106 -0.2426
 1724TIP3    H126587   4.000   4.205   3.214 -0.3307  0.2833 -0.8837
 1724TIP3    H226588   3.953   4.118   3.328  1.1097 -1.5377 -1.6132
 1725TIP3   OH226589   5.147   2.367  13.357  0.1325  0.6185 -0.0798
 1725TIP3    H126590   5.086   2.432  13.391 -0.7075 -1.2877  2.3634
 1725TIP3    H226591   5.189   2.330  13.435  2.3994 -0.0793 -1.5309
 1726TIP3   OH226592   2.727   6.619  15.695  0.6863 -0.3642  0.0286
 1726TIP3    H126593   2.804   6.668  15.666  0.4570 -1.3266 -2.3429
 1726TIP3    H226594   2.723   6.543  15.638 -2.2947 -0.1121 -0.2742
 1727TIP3   OH226595   0.819   4.711   5.447 -0.1789  0.3950 -0.2761
 1727TIP3    H126596   0.755   4.641   5.434  2.1757 -1.6515 -1.7154
 1727TIP3    H226597   0.766   4.788   5.466 -3.0624 -1.1486 -1.3747
 1728TIP3   OH226598   1.170   5.618  14.520  0.2290 -0.4121  0.4145
 1728TIP3    H126599   1.201   5.688  14.462  1.3128 -0.8751  0.4314
 1728TIP3    H226600   1.076   5.635  14.528  0.7682  2.4501  2.2885
 1729TIP3   OH226601   0.646   6.062   2.612  0.5355  0.0899 -0.0265
 1729TIP3    H126602   0.579   6.125   2.637 -0.3846 -0.5313 -0.8746
 1729TIP3    H226603   0.604   6.006   2.548  1.2358 -1.5768  0.9050
 1730TIP3   OH226604   2.730   5.890  14.387 -0.4228  0.1301 -0.3465
 1730TIP3    H126605   2.665   5.823  14.407  0.1515 -0.2086  0.4347
 1730TIP3    H226606   2.811   5.859  14.429 -0.5628  2.1202  1.6060
 1731TIP3   OH226607   6.440   4.160  11.351  0.9014 -0.5497 -0.1702
 1731TIP3    H126608   6.431   4.093  11.419  0.1725 -0.8970 -0.6018
 1731TIP3    H226609   6.352   4.198  11.343  1.4092  0.8232  0.4326
 1732TIP3   OH226610   2.236   5.489   0.040  0.6286 -0.3689  0.2838
 1732TIP3    H126611   2.271   5.441   0.115 -0.3775 -1.5841  0.0047
 1732TIP3    H226612   2.312   5.507  -0.015  1.0848 -1.3846  0.5540
 1733TIP3   OH226613   3.885   4.678  14.225  0.4095  0.1986 -0.1551
 1733TIP3    H126614   3.870   4.688  14.131  1.3177 -0.5824 -0.4050
 1733TIP3    H226615   3.832   4.746  14.266 -0.5813  0.0692 -1.1906
 1734TIP3   OH226616   2.741   6.094   0.587  0.4393 -0.1842 -0.2032
 1734TIP3    H126617   2.750   6.111   0.493  2.0019  2.3768  0.3282
 1734TIP3    H226618   2.687   6.166   0.620 -1.2438 -1.7831  0.7158
 1735TIP3   OH226619   6.377   6.136  16.845 -0.2034  0.1504  0.0192
 1735TIP3    H126620   6.336   6.071  16.787  1.4096  0.2861 -1.3432
 1735TIP3    H226621   6.401   6.087  16.923 -1.5877 -0.2372  0.2366
 1736TIP3   OH226622   5.232   1.310   2.864 -0.2435 -0.3019  0.6150
 1736TIP3    H126623   5.272   1.365   2.931 -0.4507 -0.8822  1.2313
 1736TIP3    H226624   5.152   1.277   2.904 -0.6807 -0.1925 -0.1376
 1737TIP3   OH226625   2.850   3.514   0.934  0.0653  0.0416 -0.1835
 1737TIP3    H126626   2.765   3.469   0.928  0.2817 -0.6769  1.6022
 1737TIP3    H226627   2.867   3.545   0.845 -2.1471  0.3584 -0.5551
 1738TIP3   OH226628   3.408   3.619   0.915  0.4261  0.2189 -0.5813
 1738TIP3    H126629   3.390   3.613   1.009  2.8600 -1.8661 -0.1404
 1738TIP3    H226630   3.459   3.540   0.896  3.1369  2.3600 -2.9073
 1739TIP3   OH226631   5.452   1.845   3.099  0.7807  0.1043  0.0956
 1739TIP3    H126632   5.456   1.895   3.181  1.5578  0.0386  0.1010
 1739TIP3    H226633   5.358   1.833   3.084  0.6304 -1.3842  1.8830
 1740TIP3   OH226634   6.561   0.813   0.793 -0.6245 -0.0223 -0.3357
 1740TIP3    H126635   6.579   0.816   0.699  2.0000  0.5989  0.0988
 1740TIP3    H226636   6.537   0.902   0.816 -0.2589  0.0561 -0.2553
 1741TIP3   OH226637   3.218   3.725  16.137 -0.4626 -0.0984  0.1934
 1741TIP3    H126638   3.200   3.754  16.047  0.2457  0.6470  0.2802
 1741TIP3    H226639   3.232   3.806  16.186 -1.5169 -0.4687  1.1390
 1742TIP3   OH226640   1.328   1.462  14.546 -0.3885 -0.5467 -0.2895
 1742TIP3    H126641   1.383   1.412  14.486  0.0462 -1.0448  0.5061
 1742TIP3    H226642   1.341   1.421  14.631 -0.0914  0.8591  0.3785
 1743TIP3   OH226643   6.501   3.447   5.808  0.1293 -0.0145  0.4853
 1743TIP3    H126644   6.498   3.536   5.844 -1.1733 -0.3999  1.3960
 1743TIP3    H226645   6.417   3.408   5.833 -0.2908 -0.7796 -1.8213
 1744TIP3   OH226646   5.249   2.923  16.389  0.2033  0.2248 -0.4329
 1744TIP3    H126647   5.285   2.989  16.329  0.3200  0.4406 -0.1264
 1744TIP3    H226648   5.247   2.843  16.337  0.2450  0.4235 -0.7472
 1745TIP3   OH226649   4.323   5.469  13.945  0.0062 -0.1676  0.0634
 1745TIP3    H126650   4.316   5.564  13.958  0.9543  0.1318 -1.3695
 1745TIP3    H226651   4.416   5.454  13.928 -0.3756 -1.0868 -1.4414
 1746TIP3   OH226652   5.934   2.434   3.490 -0.6079 -0.1751  0.0157
 1746TIP3    H126653   5.862   2.492   3.514 -0.8853 -0.4779 -0.0711
 1746TIP3    H226654   5.969   2.472   3.409 -0.4239  0.1867  0.2654
 1747TIP3   OH226655   2.067   3.504  11.693 -0.4595 -0.0636 -0.5635
 1747TIP3    H126656   2.077   3.435  11.757 -0.2960  0.0884 -0.4251
 1747TIP3    H226657   2.152   3.546  11.689  0.1250 -1.2930 -2.2968
 1748TIP3   OH226658   0.942   1.496   1.988 -0.4247 -0.3104  0.1340
 1748TIP3    H126659   0.963   1.558   2.058 -1.9051 -0.4697  0.7644
 1748TIP3    H226660   1.021   1.492   1.934  0.9453 -0.5693  2.0739
 1749TIP3   OH226661   4.591   5.188  14.355 -0.3128  0.7852  0.5799
 1749TIP3    H126662   4.579   5.107  14.305 -0.4283 -0.2369  2.1855
 1749TIP3    H226663   4.528   5.249  14.316 -0.0143  0.2256 -0.8619
 1750TIP3   OH226664   0.989   2.103   1.935  0.3885 -0.3529 -0.2181
 1750TIP3    H126665   1.080   2.107   1.906 -0.0506 -0.5322 -1.7437
 1750TIP3    H226666   0.939   2.134   1.859 -0.8625 -1.0189  0.3068
 1751TIP3   OH226667   4.731   1.467   2.818 -0.0068 -0.1393  0.1734
 1751TIP3    H126668   4.690   1.496   2.900  0.2682  0.9632 -0.0588
 1751TIP3    H226669   4.669   1.404   2.782 -0.2427 -0.4641  1.1181
 1752TIP3   OH226670   5.670   6.003   5.522  0.1757  0.1603  0.1187
 1752TIP3    H126671   5.658   6.041   5.435 -0.0810  1.4509  0.6852
 1752TIP3    H226672   5.732   5.931   5.509  1.5120  1.4364 -0.8638
 1753TIP3   OH226673   5.116   5.169  17.114  0.4367  0.1573 -0.0085
 1753TIP3    H126674   5.058   5.112  17.165  1.6207  0.0033  1.2270
 1753TIP3    H226675   5.166   5.217  17.180  0.9680  1.0676 -1.0405
 1754TIP3   OH226676   6.326   4.155  17.070 -0.3881 -0.4625  0.1401
 1754TIP3    H126677   6.262   4.183  17.136 -1.1865  0.3246 -0.9475
 1754TIP3    H226678   6.274   4.130  16.994  0.5408 -1.0346 -0.3354
 1755TIP3   OH226679   3.438   0.136  13.337  0.5168 -0.2333 -0.0767
 1755TIP3    H126680   3.532   0.148  13.346  1.0284 -2.2083 -1.8471
 1755TIP3    H226681   3.429   0.059  13.280 -2.1656  0.1089 -0.2600
 1756TIP3   OH226682   1.799   3.660   0.139 -0.3627  0.0030 -0.7047
 1756TIP3    H126683   1.726   3.710   0.174 -0.0905 -0.3428  0.3814
 1756TIP3    H226684   1.854   3.725   0.095 -0.5572  0.4965 -0.2280
 1757TIP3   OH226685   0.378   2.553  14.669 -0.2475 -0.0728 -0.3282
 1757TIP3    H126686   0.370   2.460  14.690  2.3094 -0.6595 -1.4991
 1757TIP3    H226687   0.460   2.580  14.712  0.1463  1.0670 -1.7124
 1758TIP3   OH226688   1.248   0.612   5.281 -0.6702  0.0800  0.0360
 1758TIP3    H126689   1.198   0.675   5.333 -1.3514 -0.3543 -0.0797
 1758TIP3    H226690   1.188   0.586   5.211  0.0351  0.2242 -0.6352
 1759TIP3   OH226691   4.932   5.044  11.071 -0.4452 -0.1897  0.5123
 1759TIP3    H126692   4.891   5.016  10.989  0.7453 -0.4843 -0.0035
 1759TIP3    H226693   4.861   5.085  11.121 -0.6833  2.2992 -1.6968
 1760TIP3   OH226694   5.271   3.701   0.814 -0.3460  0.4890 -0.0523
 1760TIP3    H126695   5.358   3.691   0.852 -0.1836  0.4171 -0.4317
 1760TIP3    H226696   5.231   3.773   0.862 -1.0361 -1.0574  1.8420
 1761TIP3   OH226697   4.575   3.244   3.931  0.2460 -0.4567  0.1763
 1761TIP3    H126698   4.558   3.301   3.856  1.2975 -1.9207 -1.2601
 1761TIP3    H226699   4.500   3.185   3.934 -1.5639  1.7524  2.5497
 1762TIP3   OH226700   1.305   5.983   2.516  0.1028  0.3159 -0.1605
 1762TIP3    H126701   1.373   5.975   2.449  0.2513 -2.6340  0.1788
 1762TIP3    H226702   1.230   5.935   2.479 -0.5294  0.4528  0.9108
 1763TIP3   OH226703   0.707   1.781  12.846 -0.8876 -0.3689  0.1371
 1763TIP3    H126704   0.621   1.749  12.875 -2.0334  0.4315 -2.1972
 1763TIP3    H226705   0.713   1.869  12.883 -1.7831  0.1705 -0.9649
 1764TIP3   OH226706   3.321   3.331   2.986  0.6587  0.3185 -0.3807
 1764TIP3    H126707   3.320   3.248   2.940  2.8077  0.2024 -0.3341
 1764TIP3    H226708   3.333   3.397   2.917 -1.9058  0.7574 -0.5209
 1765TIP3   OH226709   6.590   0.354  15.777  0.2358 -0.2295  0.6736
 1765TIP3    H126710   6.515   0.317  15.823  0.6360  0.2314  1.7225
 1765TIP3    H226711   6.575   0.449  15.780  0.2913 -0.1831 -0.1276
 1766TIP3   OH226712   3.465   5.048  16.438 -0.3234 -0.1502  0.1878
 1766TIP3    H126713   3.393   5.041  16.501  0.1801  0.2595  0.8249
 1766TIP3    H226714   3.448   4.979  16.374 -0.5949 -0.8816  1.0336
 1767TIP3   OH226715   5.289   3.942   3.546  0.1743  0.2498 -0.6582
 1767TIP3    H126716   5.279   4.025   3.591 -1.0204  0.3181 -1.0180
 1767TIP3    H226717   5.290   3.965   3.453  1.4367 -0.0038 -0.7310
 1768TIP3   OH226718   3.935   5.132  12.496 -0.1216  0.0716  0.5231
 1768TIP3    H126719   3.869   5.152  12.430  0.1008 -0.3841  0.1630
 1768TIP3    H226720   3.995   5.207  12.494 -0.8064  0.6506  1.0898
 1769TIP3   OH226721   2.846   3.720   3.552  0.7028 -0.4011  0.5520
 1769TIP3    H126722   2.884   3.709   3.640  2.2175 -2.5829 -0.3066
 1769TIP3    H226723   2.922   3.734   3.495 -0.3321  2.2401 -0.3222
 1770TIP3   OH226724   1.829   1.487  14.181  0.5721  0.2611 -0.0886
 1770TIP3    H126725   1.781   1.540  14.245 -0.1762  0.3107 -0.6813
 1770TIP3    H226726   1.919   1.483  14.216 -0.1370 -0.9816  1.7569
 1771TIP3   OH226727   2.174   4.541  12.380 -0.1542 -0.3357  0.1089
 1771TIP3    H126728   2.269   4.532  12.376  0.1677  2.6702 -2.0399
 1771TIP3    H226729   2.156   4.561  12.472  1.7290  2.0407  0.0576
 1772TIP3   OH226730   5.874   2.573  16.028  0.5010  0.0444  0.0042
 1772TIP3    H126731   5.912   2.553  15.943  0.7556 -1.2503  0.4029
 1772TIP3    H226732   5.918   2.514  16.089 -2.3502 -1.8171  0.4444
 1773TIP3   OH226733   6.176   6.178  12.283  0.5252 -0.1977  0.0255
 1773TIP3    H126734   6.122   6.101  12.267  0.5994  0.0380 -1.4702
 1773TIP3    H226735   6.263   6.143  12.304  0.2370 -0.5330  0.6988
 1774TIP3   OH226736   0.928   6.730   2.056  0.5172 -0.3783  0.5469
 1774TIP3    H126737   1.000   6.695   2.005 -0.4021  0.3236 -1.3391
 1774TIP3    H226738   0.865   6.659   2.061  0.5771 -0.4257  0.6138
 1775TIP3   OH226739   2.500   1.347   0.137  0.5254 -0.8254  0.3267
 1775TIP3    H126740   2.553   1.411   0.185  0.1045 -0.1141 -0.1410
 1775TIP3    H226741   2.421   1.395   0.112  0.3176 -1.4580 -0.2596
 1776TIP3   OH226742   6.121   3.063   1.691 -0.1709  0.0851 -0.6265
 1776TIP3    H126743   6.208   3.098   1.707 -0.8923  1.2429  1.0515
 1776TIP3    H226744   6.070   3.138   1.661 -0.5603 -0.6179 -1.7743
 1777TIP3   OH226745   1.807   3.801   1.516 -0.3908  0.5473 -0.2888
 1777TIP3    H126746   1.890   3.757   1.537 -0.1032  1.1481 -0.1512
 1777TIP3    H226747   1.814   3.886   1.559 -1.3978  0.3195  0.3512
 1778TIP3   OH226748   6.409   3.175   2.081 -0.1239  0.3441  0.1597
 1778TIP3    H126749   6.402   3.125   2.163 -0.0865  1.7909  1.0803
 1778TIP3    H226750   6.498   3.211   2.084 -0.5836  1.5170  0.1661
 1779TIP3   OH226751   2.058   4.860   0.407 -0.2323  0.7312 -0.0981
 1779TIP3    H126752   2.128   4.811   0.364  0.1501 -0.9079  2.1899
 1779TIP3    H226753   2.046   4.938   0.353  0.9945 -0.5970 -2.4212
 1780TIP3   OH226754   4.019   1.854   0.132  0.2987 -0.1959 -0.3069
 1780TIP3    H126755   4.060   1.815   0.209 -1.4128 -2.3576 -0.3710
 1780TIP3    H226756   4.079   1.835   0.060  0.0251 -1.8120 -0.1389
 1781TIP3   OH226757   4.265   2.073  15.269 -0.5451 -0.0632 -0.3454
 1781TIP3    H126758   4.290   2.059  15.178 -2.6903 -1.9135 -0.7438
 1781TIP3    H226759   4.269   1.986  15.308  1.6785  0.8718  1.7848
 1782TIP3   OH226760   6.788   0.156  15.012  0.1202 -0.0185 -0.6016
 1782TIP3    H126761   6.880   0.175  15.033 -0.3399 -0.0948  1.7959
 1782TIP3    H226762   6.763   0.225  14.950  1.1414  1.5112  0.5974
 1783TIP3   OH226763   5.685   1.716  13.536 -0.1444 -0.5523 -0.0873
 1783TIP3    H126764   5.647   1.644  13.585 -0.6847 -0.3407 -0.1883
 1783TIP3    H226765   5.706   1.782  13.603  1.6317 -1.3327  0.1787
 1784TIP3   OH226766   0.778   3.950  12.118  0.6228  0.2883 -0.3003
 1784TIP3    H126767   0.695   3.902  12.117 -0.2092  1.6643 -0.5238
 1784TIP3    H226768   0.810   3.942  12.207 -0.9773  1.6878  0.4586
 1785TIP3   OH226769   5.832   5.102   5.338 -0.4916  0.2443  0.1818
 1785TIP3    H126770   5.920   5.064   5.335 -0.7003 -0.7277  3.4895
 1785TIP3    H226771   5.834   5.161   5.413 -2.3823  1.0428 -0.3462
 1786TIP3   OH226772   0.792   2.015  15.802  0.1198  0.1813 -0.5959
 1786TIP3    H126773   0.855   1.953  15.837  0.0778  0.4178 -0.0941
 1786TIP3    H226774   0.846   2.086  15.765  0.1584  1.0538  1.0459
 1787TIP3   OH226775   6.245   4.396  10.740  0.2517 -0.1094  0.3165
 1787TIP3    H126776   6.279   4.478  10.705 -1.6939 -0.1461 -1.8984
 1787TIP3    H226777   6.323   4.346  10.764  1.4848  2.3439  1.8225
 1788TIP3   OH226778   5.978   5.897   3.997  0.5460 -0.5348  0.2331
 1788TIP3    H126779   6.001   5.820   4.049 -1.7308 -1.4632 -0.0116
 1788TIP3    H226780   5.896   5.873   3.953 -1.2387  2.5949  1.5067
 1789TIP3   OH226781   1.854   5.490  12.334  0.7787  0.1461 -0.3260
 1789TIP3    H126782   1.924   5.425  12.337 -0.0566 -0.7360  1.6885
 1789TIP3    H226783   1.875   5.552  12.403 -0.5088 -0.2793  0.4831
 1790TIP3   OH226784   2.366   2.439  12.823 -0.2534  0.0971 -0.5957
 1790TIP3    H126785   2.371   2.355  12.869  0.5536 -0.5012 -1.7213
 1790TIP3    H226786   2.329   2.418  12.737 -1.5349  1.1634 -0.3385
 1791TIP3   OH226787   1.068   2.850   0.572  0.0196  0.1588  0.0667
 1791TIP3    H126788   1.104   2.851   0.483 -0.3636 -0.1948 -0.0950
 1791TIP3    H226789   1.144   2.834   0.628  0.6918  2.7848  0.0320
 1792TIP3   OH226790   3.486   0.631   4.015  0.1001 -0.4499 -0.3021
 1792TIP3    H126791   3.582   0.636   4.020  0.2134  1.2665 -2.7595
 1792TIP3    H226792   3.458   0.624   4.106  2.4992  0.3446  0.5776
 1793TIP3   OH226793   2.547   3.006  16.779  0.2043 -0.1724 -0.1813
 1793TIP3    H126794   2.488   2.959  16.838 -1.4217  2.7113  0.7467
 1793TIP3    H226795   2.531   2.968  16.692 -1.8774 -0.5391  0.3206
 1794TIP3   OH226796   4.232   2.703   3.238 -0.0459 -0.0817 -0.5841
 1794TIP3    H126797   4.293   2.719   3.309 -1.4121  1.9012  0.2253
 1794TIP3    H226798   4.192   2.618   3.259 -0.4440  0.4822  1.0490
 1795TIP3   OH226799   2.166   5.108   3.673  0.3511 -0.2009  0.5628
 1795TIP3    H126800   2.198   5.076   3.757  0.5534  0.0428  0.5798
 1795TIP3    H226801   2.081   5.147   3.692  1.1383  1.3742  0.9570
 1796TIP3   OH226802   0.024   3.086  15.798  0.0371  0.1594 -0.1595
 1796TIP3    H126803   0.082   3.010  15.790 -2.2193 -1.6777 -0.4340
 1796TIP3    H226804  -0.056   3.059  15.752 -0.7313  2.8933 -0.5662
 1797TIP3   OH226805   5.032   4.618   2.816  0.9169  0.3204 -0.6450
 1797TIP3    H126806   4.973   4.563   2.867 -0.3420  0.4336 -1.9245
 1797TIP3    H226807   5.112   4.566   2.806  0.5553 -0.3669  0.0124
 1798TIP3   OH226808   2.934   0.263  16.120 -0.1744  0.2554  0.3470
 1798TIP3    H126809   2.961   0.275  16.211 -3.6412  2.1740  1.3303
 1798TIP3    H226810   2.861   0.200  16.125 -0.4707  0.4424 -1.0921
 1799TIP3   OH226811   4.764   2.148   3.960 -0.4584 -0.0773  0.5791
 1799TIP3    H126812   4.727   2.235   3.944  0.3747  0.2282  0.2694
 1799TIP3    H226813   4.857   2.158   3.941 -0.6442 -1.5399 -1.4157
 1800TIP3   OH226814   3.607   3.997  10.539  0.2262 -0.7971 -0.4754
 1800TIP3    H126815   3.532   3.964  10.588  0.0733 -0.1345 -0.2443
 1800TIP3    H226816   3.677   3.934  10.557 -0.0076 -0.9073  0.0833
 1801TIP3   OH226817   0.638   6.354   2.781  0.0167 -0.1869 -0.6242
 1801TIP3    H126818   0.544   6.375   2.779 -0.0823 -0.1870  1.3948
 1801TIP3    H226819   0.680   6.427   2.737 -0.8785  0.2584 -0.7641
 1802TIP3   OH226820   3.502   5.254  11.284 -0.2642 -0.1009  0.1685
 1802TIP3    H126821   3.545   5.339  11.274 -0.1303 -0.1204  0.5281
 1802TIP3    H226822   3.534   5.222  11.369 -0.4161 -0.4494  0.0948
 1803TIP3   OH226823   2.094   1.157   2.933  0.6702  0.0266 -0.2690
 1803TIP3    H126824   2.187   1.134   2.940  0.8256  0.9099  0.9280
 1803TIP3    H226825   2.073   1.196   3.018 -0.5421  0.7393 -0.8781
 1804TIP3   OH226826   5.962   1.194  10.399  0.2703 -0.2411 -0.3317
 1804TIP3    H126827   5.952   1.120  10.339 -0.4477 -0.4619  0.0519
 1804TIP3    H226828   6.025   1.164  10.465 -1.6739 -1.3589  1.1033
 1805TIP3   OH226829   5.356   0.978   5.416  0.2270 -0.7080 -0.3960
 1805TIP3    H126830   5.278   0.985   5.361 -0.1003 -1.1603 -0.0025
 1805TIP3    H226831   5.424   0.944   5.357  0.2454  0.0930 -0.8440
 1806TIP3   OH226832   0.210   4.444  11.336  0.4716  0.1528 -0.4211
 1806TIP3    H126833   0.147   4.448  11.264 -0.3930 -2.0032  0.1420
 1806TIP3    H226834   0.258   4.362  11.322  0.5176 -0.1442  1.2397
 1807TIP3   OH226835   1.382   1.147  11.649  0.7545 -0.4588  0.1936
 1807TIP3    H126836   1.300   1.157  11.698  0.9751  1.3950  0.2530
 1807TIP3    H226837   1.373   1.063  11.605 -0.8814 -0.6209  0.7664
 1808TIP3   OH226838   5.515   5.113   3.048  0.6398  0.4499 -0.3148
 1808TIP3    H126839   5.543   5.149   2.964  2.1566  1.9804  0.7772
 1808TIP3    H226840   5.582   5.141   3.110  0.2558 -1.7533  1.2024
 1809TIP3   OH226841   3.835   4.276   3.716  0.1742  0.4361  0.0222
 1809TIP3    H126842   3.839   4.340   3.787  0.2113  0.0535  0.3671
 1809TIP3    H226843   3.864   4.325   3.639  0.5420  0.7436  0.3490
 1810TIP3   OH226844   0.952   2.012  11.382 -0.0364  0.5432  0.6694
 1810TIP3    H126845   0.959   2.023  11.287  0.4758  1.3157  0.7908
 1810TIP3    H226846   1.009   2.080  11.418  2.7519 -2.0158  1.4692
 1811TIP3   OH226847   0.722   5.117  14.474 -0.8556 -0.0610  0.2895
 1811TIP3    H126848   0.790   5.074  14.524 -0.1094  0.0634 -0.5958
 1811TIP3    H226849   0.640   5.086  14.513 -0.3304 -1.5320  0.2798
 1812TIP3   OH226850   3.168   2.966   4.105  0.1528 -0.3983 -0.0665
 1812TIP3    H126851   3.251   2.978   4.151 -0.3094 -0.6671  0.8587
 1812TIP3    H226852   3.151   3.051   4.064  0.2817  0.0341  0.7582
 1813TIP3   OH226853   4.406   3.802   4.834  0.3677  0.3286  0.1241
 1813TIP3    H126854   4.490   3.829   4.796 -0.1505  0.2467 -1.1521
 1813TIP3    H226855   4.416   3.815   4.928  1.5296  1.0875 -0.0881
 1814TIP3   OH226856   5.637   2.408  11.431 -0.1986 -0.7676  0.2556
 1814TIP3    H126857   5.705   2.470  11.456 -0.0028 -0.1647 -1.5829
 1814TIP3    H226858   5.671   2.323  11.459  0.8627 -0.3567  0.2728
 1815TIP3   OH226859   6.073   3.789  14.308 -0.4620  0.4369 -0.0746
 1815TIP3    H126860   6.166   3.771  14.326 -0.5144  1.3218  1.1992
 1815TIP3    H226861   6.038   3.820  14.392 -1.4507  1.9760 -1.0222
 1816TIP3   OH226862   1.076   4.248  14.205 -0.1398 -0.5871  0.2416
 1816TIP3    H126863   1.013   4.201  14.151 -1.4629 -0.1183  1.3181
 1816TIP3    H226864   1.023   4.306  14.259  1.3856  1.6720 -0.5503
 1817TIP3   OH226865   0.861   2.758  13.840 -0.1043  0.2330  0.0880
 1817TIP3    H126866   0.899   2.796  13.761 -2.5676  0.2872 -1.1839
 1817TIP3    H226867   0.856   2.831  13.902 -0.6428  0.8982 -0.7133
 1818TIP3   OH226868   0.655   3.007  14.955 -0.1143  0.1867  0.1706
 1818TIP3    H126869   0.671   2.913  14.962  0.3629  0.1157 -1.3758
 1818TIP3    H226870   0.681   3.043  15.040  3.8736 -0.5400 -0.5568
 1819TIP3   OH226871   0.503   2.080   4.835  0.0910  0.5138 -0.4493
 1819TIP3    H126872   0.484   2.155   4.892  1.2496 -0.4675  1.3044
 1819TIP3    H226873   0.466   2.005   4.881  0.9367 -0.2966 -1.0483
 1820TIP3   OH226874   6.498   1.336  11.606  0.4227 -0.0590  0.0797
 1820TIP3    H126875   6.579   1.300  11.643  0.5698  0.3305  0.1488
 1820TIP3    H226876   6.486   1.288  11.524  1.3410  0.6508 -0.4962
 1821TIP3   OH226877   3.479   3.530   0.457  0.0978 -0.3424  0.2244
 1821TIP3    H126878   3.477   3.586   0.535 -0.0398 -0.8071  0.5589
 1821TIP3    H226879   3.387   3.526   0.430  0.1037 -0.4283  0.2182
 1822TIP3   OH226880   1.576   6.066  12.848 -0.2427  0.2555 -0.3400
 1822TIP3    H126881   1.605   6.136  12.789  1.0103  0.7601  0.8190
 1822TIP3    H226882   1.545   6.112  12.926 -1.0360 -0.4352 -0.2411
 1823TIP3   OH226883   5.565   3.210   0.454  0.1465  0.1405  0.5061
 1823TIP3    H126884   5.608   3.191   0.371  1.7870  0.2000  1.3173
 1823TIP3    H226885   5.617   3.164   0.520  0.5442  2.3135  1.8203
 1824TIP3   OH226886   2.183   1.343  14.280 -0.1540 -0.0899  0.1017
 1824TIP3    H126887   2.185   1.431  14.317 -1.4352  0.4803 -1.1233
 1824TIP3    H226888   2.116   1.297  14.331  1.0995 -0.6682  1.3094
 1825TIP3   OH226889   3.594   6.008  15.877  0.0031 -0.6373  0.0215
 1825TIP3    H126890   3.503   5.981  15.869  0.0424 -0.9646  0.5999
 1825TIP3    H226891   3.601   6.087  15.825 -0.8463 -0.0466  0.7834
 1826TIP3   OH226892   3.431   6.445  12.941 -0.2174 -0.7526  0.5023
 1826TIP3    H126893   3.341   6.475  12.926  0.2510  0.7106  0.4868
 1826TIP3    H226894   3.475   6.458  12.857  0.5849  0.7494  1.1146
 1827TIP3   OH226895   4.095   3.759  15.566 -0.7219  0.2387  0.3766
 1827TIP3    H126896   4.048   3.723  15.490 -2.8644  2.0896  0.7078
 1827TIP3    H226897   4.133   3.682  15.609 -1.7084 -1.1550 -1.1109
 1828TIP3   OH226898   0.881   1.446  11.490  0.6013 -0.0796 -0.2516
 1828TIP3    H126899   0.798   1.399  11.490  0.2168  0.4999  1.7409
 1828TIP3    H226900   0.886   1.486  11.403 -1.2249 -0.0793 -0.3999
 1829TIP3   OH226901   4.028   3.962  13.501 -0.1086  0.0329 -0.3474
 1829TIP3    H126902   4.090   3.892  13.482 -2.4495 -2.4444  0.5068
 1829TIP3    H226903   3.957   3.948  13.438 -1.0068  1.1488  0.3847
 1830TIP3   OH226904   3.108   1.758   3.587  0.1810  0.0053 -0.0084
 1830TIP3    H126905   3.107   1.671   3.627  0.8701 -0.0085 -0.0028
 1830TIP3    H226906   3.201   1.778   3.576  0.0281  0.7253 -0.0524
 1831TIP3   OH226907   3.658   3.597  16.660 -0.6055 -0.1264 -0.0622
 1831TIP3    H126908   3.620   3.550  16.733  1.3073 -0.9782  0.4549
 1831TIP3    H226909   3.745   3.624  16.691  0.3821 -0.7682 -2.0810
 1832TIP3   OH226910   5.798   0.610  14.483 -0.1117 -0.2442  0.2801
 1832TIP3    H126911   5.864   0.645  14.423 -0.1484  0.7132  0.7882
 1832TIP3    H226912   5.831   0.523  14.506 -0.7963 -1.2764 -2.2454
 1833TIP3   OH226913   3.867   4.820   1.673 -0.2974 -0.0780  0.9070
 1833TIP3    H126914   3.904   4.760   1.738 -1.6572 -0.2884  1.5072
 1833TIP3    H226915   3.780   4.842   1.707 -1.6990 -1.4255 -1.5920
 1834TIP3   OH226916   2.448   1.509  12.359  0.1201 -0.6513  0.4435
 1834TIP3    H126917   2.355   1.518  12.339  0.0112  1.1606  1.5559
 1834TIP3    H226918   2.453   1.436  12.420 -0.5496 -0.8503  0.2694
 1835TIP3   OH226919   1.258   5.616   3.826  0.2308  0.2854  0.3052
 1835TIP3    H126920   1.207   5.634   3.747  1.0300  1.8300  0.1135
 1835TIP3    H226921   1.317   5.545   3.801 -0.0886  0.2033 -0.2368
 1836TIP3   OH226922   4.832   0.651   0.954 -0.2661  0.1990  0.0781
 1836TIP3    H126923   4.776   0.600   1.012 -0.3286  1.4284  1.1550
 1836TIP3    H226924   4.779   0.665   0.876 -1.1553  0.6288  0.7429
 1837TIP3   OH226925   1.883   1.054  15.091  0.2401 -0.1475 -0.1710
 1837TIP3    H126926   1.962   1.049  15.037  0.6582  0.4535  0.3772
 1837TIP3    H226927   1.861   0.963  15.110  0.5580 -0.3341 -0.6656
 1838TIP3   OH226928   0.362   0.806   5.687 -0.3052  0.2081 -1.2183
 1838TIP3    H126929   0.380   0.714   5.667  0.0850  0.3219 -1.4004
 1838TIP3    H226930   0.280   0.825   5.640 -1.2127 -0.4544  0.0360
 1839TIP3   OH226931   1.184   4.471   2.035 -0.1003  0.1084  0.1737
 1839TIP3    H126932   1.206   4.426   1.953  1.6546  2.7269 -0.9476
 1839TIP3    H226933   1.129   4.544   2.007  0.5065  1.0311  1.3081
 1840TIP3   OH226934   4.230   1.643   1.880  0.0307 -0.3763 -0.3221
 1840TIP3    H126935   4.296   1.681   1.824 -0.4900  0.8842 -0.1056
 1840TIP3    H226936   4.219   1.705   1.952 -0.0433 -1.4615  0.6534
 1841TIP3   OH226937   4.941   2.317  13.897  0.0843 -0.1196 -0.4986
 1841TIP3    H126938   4.873   2.356  13.952 -0.7652 -0.7458 -1.0780
 1841TIP3    H226939   4.953   2.229  13.933  1.5773  0.4400  0.4423
 1842TIP3   OH226940   3.269   4.010   1.045 -0.0464  0.7787  0.2479
 1842TIP3    H126941   3.225   3.925   1.042 -0.1624  0.7870  1.3958
 1842TIP3    H226942   3.206   4.070   1.004  0.0208  0.3362 -0.5345
 1843TIP3   OH226943   5.586   1.296   0.730  0.1789 -0.5011 -0.1795
 1843TIP3    H126944   5.679   1.294   0.754 -0.0286 -0.4138  0.6671
 1843TIP3    H226945   5.546   1.228   0.783 -0.3185 -0.2213 -0.1915
 1844TIP3   OH226946   2.539   0.836  14.445  0.1525  0.1924  0.2666
 1844TIP3    H126947   2.612   0.774  14.442 -0.5475 -0.6452  0.3105
 1844TIP3    H226948   2.526   0.861  14.354 -0.3750 -0.7018  0.0864
 1845TIP3   OH226949   2.565   4.691   0.144 -0.2554 -0.7669 -0.5509
 1845TIP3    H126950   2.601   4.779   0.151 -0.0816 -0.9025  0.3610
 1845TIP3    H226951   2.488   4.691   0.200 -0.6173 -1.0205 -1.0345
 1846TIP3   OH226952   6.380   3.031  12.113 -0.0755  0.1018  0.6783
 1846TIP3    H126953   6.428   2.949  12.106 -1.4147 -0.6231 -0.6236
 1846TIP3    H226954   6.306   3.011  12.171  1.2894  1.2908  2.9316
 1847TIP3   OH226955   6.540   6.065  15.882 -0.3910 -0.2634  0.5071
 1847TIP3    H126956   6.527   6.160  15.888  0.9439 -0.0080 -0.2784
 1847TIP3    H226957   6.504   6.030  15.964  0.1885  1.0344  1.3361
 1848TIP3   OH226958   5.683   0.979  13.766  0.5984 -0.4771 -0.7494
 1848TIP3    H126959   5.774   0.967  13.793  0.6655 -0.9960 -1.1874
 1848TIP3    H226960   5.639   0.899  13.795 -0.0003  0.3097  0.5963
 1849TIP3   OH226961   3.339   2.065  15.861 -0.2165 -0.2230  0.2376
 1849TIP3    H126962   3.308   2.052  15.771  0.1214  1.1845 -0.1000
 1849TIP3    H226963   3.258   2.071  15.913 -0.6729  3.4536 -0.6383
 1850TIP3   OH226964   5.596   5.600   6.438 -0.3113  0.4510  0.1922
 1850TIP3    H126965   5.648   5.536   6.487  0.2988 -0.8304 -1.9839
 1850TIP3    H226966   5.527   5.548   6.398  1.5369  0.5557 -3.5375
 1851TIP3   OH226967   2.692   3.919   6.029 -0.3714 -0.1961 -0.8045
 1851TIP3    H126968   2.747   3.980   5.980  0.1247  0.8305  0.9439
 1851TIP3    H226969   2.742   3.900   6.108 -1.6084 -0.9636 -0.1755
 1852TIP3   OH226970   3.894   0.182   2.975 -0.0251  0.2937  0.3966
 1852TIP3    H126971   3.911   0.250   2.910 -3.0453  0.7959 -0.0111
 1852TIP3    H226972   3.805   0.200   3.006  0.0009 -2.0428  2.1013
 1853TIP3   OH226973   0.456   4.798   2.116 -0.0494 -0.1008  0.2055
 1853TIP3    H126974   0.381   4.738   2.121 -0.4118  0.3672  0.5052
 1853TIP3    H226975   0.459   4.825   2.024  1.1292 -1.8335 -0.2995
 1854TIP3   OH226976   5.796   4.408  13.693  1.2028 -0.3589 -0.4556
 1854TIP3    H126977   5.759   4.333  13.647  1.2530 -1.6171  1.4797
 1854TIP3    H226978   5.728   4.476  13.685  0.1506 -1.3612 -0.2722
 1855TIP3   OH226979   6.200   5.753   0.987  0.0845 -0.0485 -0.9967
 1855TIP3    H126980   6.179   5.844   1.006 -1.1938 -0.7294  1.0699
 1855TIP3    H226981   6.285   5.738   1.029 -0.4758 -0.2418  0.0775
 1856TIP3   OH226982   1.066   4.376  12.223  0.8779 -0.4727  0.3078
 1856TIP3    H126983   0.986   4.356  12.175  0.4023 -0.7996  1.2008
 1856TIP3    H226984   1.130   4.399  12.156 -0.2780  0.9324 -0.3527
 1857TIP3   OH226985   1.554   5.895   4.815 -0.6913 -0.0065  0.1046
 1857TIP3    H126986   1.574   5.825   4.753 -0.3106 -0.6237  0.9217
 1857TIP3    H226987   1.468   5.927   4.786  0.0389  0.6000 -1.5339
 1858TIP3   OH226988   5.029   4.173  15.352  0.1523 -0.7405  0.1797
 1858TIP3    H126989   5.000   4.262  15.370  0.1160 -0.7627  0.2309
 1858TIP3    H226990   5.072   4.178  15.267 -2.3656 -1.2256 -1.2270
 1859TIP3   OH226991   2.535   2.612   3.879 -0.6625 -0.3227  0.0935
 1859TIP3    H126992   2.533   2.692   3.932 -1.7795  0.3862 -0.9744
 1859TIP3    H226993   2.621   2.574   3.896  0.1933  1.5080  0.0465
 1860TIP3   OH226994   4.189   2.247   4.352  0.2532 -0.0145 -0.9056
 1860TIP3    H126995   4.203   2.166   4.402 -2.2074  1.2796  2.1891
 1860TIP3    H226996   4.273   2.292   4.356  0.3697 -0.3322  1.4746
 1861TIP3   OH226997   2.206   2.020  14.640 -0.3710  0.4192  0.5734
 1861TIP3    H126998   2.178   2.069  14.717 -0.3047 -0.9155  1.4760
 1861TIP3    H226999   2.301   2.017  14.646 -0.3803  0.0972  0.5801
 1862TIP3   OH227000   4.642   6.162   0.482  0.2898  0.5266  0.6700
 1862TIP3    H127001   4.605   6.161   0.393 -1.0087  1.4181  1.1767
 1862TIP3    H227002   4.664   6.070   0.499 -0.4831  0.1651 -0.1494
 1863TIP3   OH227003   2.482   4.309  12.644  0.2713  0.9378 -0.4842
 1863TIP3    H127004   2.545   4.379  12.661  1.9500 -0.1930 -1.6943
 1863TIP3    H227005   2.514   4.236  12.698  0.1299  0.2938 -1.2582
 1864TIP3   OH227006   1.497   3.774  15.362  0.3963 -0.1156  0.2356
 1864TIP3    H127007   1.588   3.743  15.363  0.0470 -1.2903 -0.9823
 1864TIP3    H227008   1.479   3.798  15.452  1.5216 -1.0939  0.7555
 1865TIP3   OH227009   5.586   1.076  15.140  0.2311 -0.0932  0.2680
 1865TIP3    H127010   5.510   1.058  15.085 -0.2261  0.5257  0.6899
 1865TIP3    H227011   5.559   1.049  15.228 -0.5580  2.6702  0.9829
 1866TIP3   OH227012   6.228   1.140   1.076  0.0502 -0.3577 -0.1292
 1866TIP3    H127013   6.266   1.191   1.003 -1.8533  0.7014 -0.4454
 1866TIP3    H227014   6.166   1.081   1.033 -1.6948  0.8444  0.6500
 1867TIP3   OH227015   6.518   5.806   3.461 -0.0935 -0.2698 -0.1105
 1867TIP3    H127016   6.521   5.891   3.505  0.4526 -1.3087  1.9919
 1867TIP3    H227017   6.433   5.805   3.416 -0.9134  0.6711  1.3404
 1868TIP3   OH227018   4.628   6.485  16.651 -0.3307  0.6930 -0.1374
 1868TIP3    H127019   4.540   6.480  16.690 -0.9171  0.2296 -1.4544
 1868TIP3    H227020   4.674   6.409  16.686 -0.7273  0.4839 -0.0588
 1869TIP3   OH227021   0.095   3.799   0.281  0.0906  0.0445  0.5115
 1869TIP3    H127022   0.026   3.737   0.256 -0.8082  0.8850  0.8253
 1869TIP3    H227023   0.078   3.876   0.227  0.2986  0.5531  1.1680
 1870TIP3   OH227024   2.372   2.795   2.953  0.2939 -0.0680  0.0545
 1870TIP3    H127025   2.418   2.767   3.032 -1.5694 -3.1982  0.1842
 1870TIP3    H227026   2.316   2.867   2.982 -0.0069 -0.8519  1.4857
 1871TIP3   OH227027   6.566   1.969  13.459  0.1265 -0.6237 -0.6882
 1871TIP3    H127028   6.636   1.969  13.523  0.3481 -1.5658 -0.9126
 1871TIP3    H227029   6.526   1.882  13.467 -1.5419  0.1649 -0.0097
 1872TIP3   OH227030   2.558   2.350  10.782  0.1259  0.2096 -0.1433
 1872TIP3    H127031   2.489   2.350  10.849 -0.9581 -2.5493 -1.1299
 1872TIP3    H227032   2.595   2.262  10.785  1.0711  0.4763 -2.1568
 1873TIP3   OH227033   4.109   3.886   2.604 -0.0309 -0.0040 -0.2073
 1873TIP3    H127034   4.110   3.848   2.692  1.2287 -1.1176 -0.6610
 1873TIP3    H227035   4.033   3.846   2.561 -0.8028  0.7424  0.4307
 1874TIP3   OH227036   0.845   5.814   1.770 -0.1761 -0.1218  0.3463
 1874TIP3    H127037   0.870   5.797   1.860  0.7700  1.4111  0.4071
 1874TIP3    H227038   0.888   5.745   1.719  2.2050  1.0134  0.7183
 1875TIP3   OH227039   1.451   0.308  13.722 -0.3484 -0.3589  0.6516
 1875TIP3    H127040   1.446   0.221  13.683 -2.0608 -0.1745  0.3698
 1875TIP3    H227041   1.433   0.294  13.815 -0.8041 -0.2956  0.5756
 1876TIP3   OH227042   3.487   0.550   5.450 -0.1947  0.1303  0.1988
 1876TIP3    H127043   3.455   0.578   5.536 -2.3780  0.6720 -0.7145
 1876TIP3    H227044   3.463   0.622   5.392  0.1363 -0.7636 -1.0732
 1877TIP3   OH227045   5.466   2.296   3.278  0.1175  0.3813 -0.5470
 1877TIP3    H127046   5.459   2.300   3.373  2.8327 -0.4013 -0.2185
 1877TIP3    H227047   5.511   2.214   3.261  1.4824  1.4339 -2.3532
 1878TIP3   OH227048   4.873   1.574   4.528  0.0804  0.0180  0.2518
 1878TIP3    H127049   4.803   1.590   4.592  0.9441  1.8473  0.7984
 1878TIP3    H227050   4.954   1.584   4.577  0.7556 -0.4299 -0.7335
 1879TIP3   OH227051   0.820   4.375   2.256  0.1830  0.2162 -0.3820
 1879TIP3    H127052   0.784   4.455   2.218 -0.7162 -0.3149 -0.6975
 1879TIP3    H227053   0.783   4.371   2.343  1.4151  0.8920  0.2016
 1880TIP3   OH227054   4.664   1.833  15.576  0.3030 -0.5943  0.3562
 1880TIP3    H127055   4.595   1.822  15.641 -0.9701  0.5187 -0.7508
 1880TIP3    H227056   4.673   1.928  15.565  0.2050 -0.7458 -1.3507
 1881TIP3   OH227057   1.632   1.337   0.862 -0.6879 -0.3075 -0.0259
 1881TIP3    H127058   1.726   1.331   0.846 -0.7153 -2.2598  0.2534
 1881TIP3    H227059   1.609   1.427   0.839  1.4583  0.6158  1.1061
 1882TIP3   OH227060   6.279   1.157   0.782 -0.1826 -0.2837 -0.1699
 1882TIP3    H127061   6.196   1.120   0.752 -0.5679  0.9027 -0.6163
 1882TIP3    H227062   6.265   1.252   0.784  0.7368 -0.1327  1.0479
 1883TIP3   OH227063   2.601   4.207   3.964 -0.0578  0.2135  0.4740
 1883TIP3    H127064   2.549   4.202   4.045  0.3628  0.1749  0.7470
 1883TIP3    H227065   2.656   4.285   3.977  1.7217 -1.1005  1.2687
 1884TIP3   OH227066   0.868   4.902   3.240 -0.2475  0.0409 -0.2239
 1884TIP3    H127067   0.835   4.885   3.329  0.4101 -0.5990 -0.0927
 1884TIP3    H227068   0.901   4.991   3.243  0.2878 -0.1710  0.3390
 1885TIP3   OH227069   5.291   5.662   4.088  0.3215  0.2704  0.5233
 1885TIP3    H127070   5.292   5.570   4.114 -1.9691  0.4441  1.4969
 1885TIP3    H227071   5.330   5.709   4.161  0.4048  0.1777  0.5385
 1886TIP3   OH227072   5.755   3.623  13.982  0.2664 -0.3842  0.2111
 1886TIP3    H127073   5.789   3.698  14.030 -1.1292  0.2280  0.3095
 1886TIP3    H227074   5.748   3.653  13.891 -0.9055 -0.1365  0.3607
 1887TIP3   OH227075   0.687   0.406   0.195  0.1583  0.5734 -0.0486
 1887TIP3    H127076   0.778   0.435   0.202  0.1995  0.2922  0.6709
 1887TIP3    H227077   0.658   0.439   0.110  1.3811 -0.5772 -0.9643
 1888TIP3   OH227078   5.044   0.925   3.568 -0.1194  0.0637 -0.2421
 1888TIP3    H127079   4.971   0.914   3.506 -0.1709  2.3215 -0.6710
 1888TIP3    H227080   5.054   1.020   3.576  1.8113 -0.1949  0.9855
 1889TIP3   OH227081   3.258   0.679   3.897 -0.0241 -0.1314  0.0416
 1889TIP3    H127082   3.207   0.725   3.964 -0.2989 -1.6542  0.9267
 1889TIP3    H227083   3.344   0.667   3.937 -0.5793 -2.2464  0.7520
 1890TIP3   OH227084   5.225   3.252  11.689 -0.3820  0.3155 -0.0723
 1890TIP3    H127085   5.302   3.307  11.704 -0.0084 -0.0076 -0.7552
 1890TIP3    H227086   5.152   3.313  11.682  0.0376  0.7343 -0.8790
 1891TIP3   OH227087   0.423   2.196   1.803 -0.0949 -0.5597 -0.3243
 1891TIP3    H127088   0.481   2.152   1.865 -0.4554 -0.1086  0.3372
 1891TIP3    H227089   0.422   2.138   1.727  2.4999  0.1714 -1.0233
 1892TIP3   OH227090   2.722   0.986  13.470 -0.1786  1.1592 -0.2583
 1892TIP3    H127091   2.813   1.011  13.456  0.1256  0.3874  0.2336
 1892TIP3    H227092   2.705   1.008  13.562 -0.1792  0.4324 -0.0750
 1893TIP3   OH227093   2.402   5.221   1.341  0.1551 -0.0949  0.5308
 1893TIP3    H127094   2.324   5.171   1.364 -0.8807 -0.3596 -2.9927
 1893TIP3    H227095   2.470   5.155   1.327  0.4757 -0.0054  1.5412
 1894TIP3   OH227096   6.206   0.431  14.701 -0.5185  0.1036 -0.0682
 1894TIP3    H127097   6.219   0.525  14.693  0.3666  0.0477  0.6076
 1894TIP3    H227098   6.263   0.404  14.773 -1.7145 -0.7569  0.6038
 1895TIP3   OH227099   2.604   2.722   6.592 -0.3413  0.5804  0.0301
 1895TIP3    H127100   2.651   2.647   6.628 -0.8972  1.5731  3.1125
 1895TIP3    H227101   2.516   2.689   6.574 -0.6118  0.4717  1.4551
 1896TIP3   OH227102   2.559   4.637  13.088  0.4003 -0.0344 -0.0744
 1896TIP3    H127103   2.529   4.553  13.054  1.6327  0.1868 -1.8236
 1896TIP3    H227104   2.648   4.646  13.055  0.7492  1.4102  1.1234
 1897TIP3   OH227105   0.196   2.594  16.850  0.2799 -0.4416 -0.6448
 1897TIP3    H127106   0.126   2.602  16.786  0.1800 -0.4560 -0.5379
 1897TIP3    H227107   0.269   2.645  16.815  0.3521 -0.7509 -0.9450
 1898TIP3   OH227108   2.983   3.553   2.943 -0.2441  0.0788 -0.2277
 1898TIP3    H127109   3.061   3.567   2.997  0.0055  2.2084 -1.0283
 1898TIP3    H227110   3.014   3.505   2.867  0.1539  0.3150 -0.2153
 1899TIP3   OH227111   6.086   4.887  13.809 -0.1175 -0.3844 -0.7938
 1899TIP3    H127112   6.041   4.803  13.800 -2.8498  1.0114 -1.0271
 1899TIP3    H227113   6.044   4.930  13.884  0.6528  1.1035 -1.1667
 1900TIP3   OH227114   0.282   4.913  16.797  0.1049 -0.3436  0.2472
 1900TIP3    H127115   0.244   4.827  16.776 -0.3007  0.2865 -1.8446
 1900TIP3    H227116   0.257   4.929  16.887  1.1898 -2.9309  1.1268
 1901TIP3   OH227117   6.683   1.999  14.339 -1.3078 -0.0986 -0.4790
 1901TIP3    H127118   6.635   2.031  14.415 -0.3147 -0.8456  0.5097
 1901TIP3    H227119   6.638   1.918  14.315 -0.3859 -0.9862  0.6670
 1902TIP3   OH227120   3.213   0.001   4.384 -0.6485  0.1045  0.4200
 1902TIP3    H127121   3.304  -0.015   4.410 -1.4882  0.9839  4.4805
 1902TIP3    H227122   3.179  -0.085   4.361  0.9719 -0.3386 -0.5050
 1903TIP3   OH227123   6.342   3.934   3.178  0.1364  0.1849 -0.7813
 1903TIP3    H127124   6.399   3.983   3.237  1.8926 -1.6809 -0.8146
 1903TIP3    H227125   6.348   3.981   3.095  0.6057  0.7354 -0.4427
 1904TIP3   OH227126   2.350   2.118  15.788 -0.4036  0.4700  0.3611
 1904TIP3    H127127   2.439   2.144  15.767 -0.6615  1.7341  0.7621
 1904TIP3    H227128   2.347   2.118  15.884 -0.1964 -1.8690  0.4147
 1905TIP3   OH227129   5.226   3.776   0.469 -0.3061 -0.0761 -0.3528
 1905TIP3    H127130   5.176   3.696   0.454 -2.3090  1.3251 -1.7489
 1905TIP3    H227131   5.289   3.780   0.396  1.1216 -1.2487  0.7541
 1906TIP3   OH227132   4.018   1.494  14.551  0.7139  0.3358  0.0298
 1906TIP3    H127133   3.970   1.574  14.575  0.3159 -0.1268  0.8273
 1906TIP3    H227134   4.105   1.506  14.588  1.0720  0.9725 -1.0073
 1907TIP3   OH227135   1.031   0.072  14.114 -0.5556 -0.2368 -0.0744
 1907TIP3    H127136   0.975   0.065  14.036 -0.2667 -0.6871 -0.2412
 1907TIP3    H227137   1.082   0.151  14.099 -0.7040 -0.1644 -0.2109
 1908TIP3   OH227138   4.668   1.454  15.685 -0.2084  0.0625  0.4526
 1908TIP3    H127139   4.705   1.391  15.746  0.0451  0.5670  0.8196
 1908TIP3    H227140   4.634   1.524  15.740 -1.5021 -0.2634  0.1174
 1909TIP3   OH227141   3.824   2.246  10.932  0.6845  0.3259  0.8716
 1909TIP3    H127142   3.883   2.282  10.865 -0.5366  0.6272 -0.0662
 1909TIP3    H227143   3.821   2.152  10.913  0.2178  0.4334  0.3905
 1910TIP3   OH227144   1.401   1.716  13.319  0.2655 -0.1591 -0.1132
 1910TIP3    H127145   1.390   1.622  13.301  0.7972 -0.2419 -0.0066
 1910TIP3    H227146   1.392   1.757  13.233  2.4751 -0.5287 -0.5703
 1911TIP3   OH227147   6.199   5.979  14.059 -0.1914 -0.3572 -0.2314
 1911TIP3    H127148   6.214   6.052  14.119 -1.4347  1.0754 -1.5800
 1911TIP3    H227149   6.285   5.962  14.021  0.8036 -1.8068  2.3979
 1912TIP3   OH227150   6.562   4.237  13.605  0.2263  0.3109 -0.6004
 1912TIP3    H127151   6.611   4.319  13.609 -1.3211  1.3400 -1.6770
 1912TIP3    H227152   6.576   4.204  13.516 -1.2520  0.7953 -1.0361
 1913TIP3   OH227153   2.452   6.440  12.170 -0.4774  1.2578 -0.5468
 1913TIP3    H127154   2.518   6.476  12.112  0.5121  0.0992 -0.1876
 1913TIP3    H227155   2.463   6.488  12.252  1.9154 -0.8095  0.4582
 1914TIP3   OH227156   5.575   4.628  14.767 -0.3635 -0.3488 -0.5967
 1914TIP3    H127157   5.520   4.667  14.835  0.2437  0.4821 -0.5659
 1914TIP3    H227158   5.601   4.543  14.803  1.6560  0.9279  1.1756
 1915TIP3   OH227159   3.542   2.631  13.423  0.3149  0.0136  0.0391
 1915TIP3    H127160   3.588   2.579  13.488 -0.6626 -0.2124  0.5616
 1915TIP3    H227161   3.451   2.600  13.426  0.0395  0.6915 -0.7211
 1916TIP3   OH227162   4.371   3.068   6.193  0.5921 -0.2592 -0.3294
 1916TIP3    H127163   4.295   3.011   6.185  1.2125 -1.1938  0.2529
 1916TIP3    H227164   4.380   3.084   6.287  0.6572  0.5052 -0.4517
 1917TIP3   OH227165   2.175   5.085   4.675 -0.5744 -0.1763  0.3381
 1917TIP3    H127166   2.175   5.177   4.651 -0.2783  0.1980  1.6970
 1917TIP3    H227167   2.093   5.072   4.723 -0.8055 -0.7230 -0.1895
 1918TIP3   OH227168   4.927   3.565   2.290  0.6234 -0.0368 -0.0567
 1918TIP3    H127169   4.878   3.520   2.359  0.7483 -0.0562  0.0183
 1918TIP3    H227170   4.968   3.639   2.334  1.0289 -0.2765 -0.0271
 1919TIP3   OH227171   5.454   1.980  16.582 -0.0878 -0.5264  0.0345
 1919TIP3    H127172   5.450   1.988  16.487 -0.3655 -1.0077  0.0020
 1919TIP3    H227173   5.492   1.893  16.598 -0.1026 -0.4761  0.3583
 1920TIP3   OH227174   4.403   2.524   5.684 -0.6131 -0.0306 -0.0127
 1920TIP3    H127175   4.496   2.520   5.659 -0.4380 -1.0418  0.7410
 1920TIP3    H227176   4.395   2.607   5.731 -0.4486  0.7994 -1.3814
 1921TIP3   OH227177   2.587   5.431  11.183 -0.0004 -0.4898  0.3939
 1921TIP3    H127178   2.568   5.337  11.193  0.0940 -0.6498 -0.7422
 1921TIP3    H227179   2.678   5.433  11.151 -0.5303 -0.1111 -1.1641
 1922TIP3   OH227180   5.969   6.618   5.282 -0.0738 -0.0939 -0.2177
 1922TIP3    H127181   5.913   6.680   5.328  1.8217  2.1716 -0.7493
 1922TIP3    H227182   6.019   6.574   5.351 -0.7068 -0.2849  0.1209
 1923TIP3   OH227183   4.137   4.273   3.115  0.0861  0.0696 -0.4469
 1923TIP3    H127184   4.232   4.264   3.127  0.4616  4.3228  1.9984
 1923TIP3    H227185   4.127   4.352   3.061 -1.9694  0.9051  1.0190
 1924TIP3   OH227186   3.296   6.687  13.260 -0.4697 -0.1065 -0.1235
 1924TIP3    H127187   3.212   6.646  13.243 -0.2709  0.1568 -1.9536
 1924TIP3    H227188   3.361   6.624  13.229 -0.1076  0.7690 -1.2310
 1925TIP3   OH227189   0.264   0.031  14.879 -0.1485  0.2644  0.0564
 1925TIP3    H127190   0.298  -0.051  14.844  0.3013 -0.0172  1.1037
 1925TIP3    H227191   0.328   0.097  14.855  1.3858 -0.3098  2.2733
 1926TIP3   OH227192   3.842   4.927  16.319 -0.0213 -0.2197  0.1531
 1926TIP3    H127193   3.808   4.874  16.391 -2.3819  0.8872 -0.0622
 1926TIP3    H227194   3.836   4.870  16.242 -1.6462 -0.0055  0.0886
 1927TIP3   OH227195   1.719   0.627   4.701  0.1168  0.5183 -0.1618
 1927TIP3    H127196   1.624   0.631   4.700  0.0456 -0.1033 -2.4300
 1927TIP3    H227197   1.747   0.710   4.661  0.3793 -0.3361 -1.8556
 1928TIP3   OH227198   6.454   5.511  16.032 -0.7027  0.2186  0.0670
 1928TIP3    H127199   6.532   5.501  15.977  0.8919  2.4687  1.7441
 1928TIP3    H227200   6.386   5.542  15.972  0.8207  2.0456 -0.7877
 1929TIP3   OH227201   5.780   2.398  15.537  0.4275 -0.2512  0.2701
 1929TIP3    H127202   5.780   2.461  15.610  0.8955 -0.4284  0.4305
 1929TIP3    H227203   5.709   2.427  15.480  2.0375  1.8114 -0.8260
 1930TIP3   OH227204   0.650   5.108   4.847 -0.0287  0.8330  0.0370
 1930TIP3    H127205   0.560   5.134   4.868 -0.3520  1.3020 -1.7902
 1930TIP3    H227206   0.674   5.162   4.772  0.8173 -1.1670 -1.2016
 1931TIP3   OH227207   2.120   2.519  14.230 -0.6037  0.3769  0.1916
 1931TIP3    H127208   2.175   2.597  14.218 -1.4541  1.2229  1.5871
 1931TIP3    H227209   2.151   2.481  14.312 -0.3782 -0.6298 -0.3459
 1932TIP3   OH227210   2.557   4.017  11.209 -0.4686 -0.0109  0.0907
 1932TIP3    H127211   2.615   4.004  11.133  1.7572  1.5555  1.3841
 1932TIP3    H227212   2.500   3.941  11.208  0.5967 -0.9035 -2.1840
 1933TIP3   OH227213   0.422   4.153   2.670  0.2156 -0.4744 -0.4347
 1933TIP3    H127214   0.438   4.247   2.678  1.1074 -0.6906  0.5487
 1933TIP3    H227215   0.463   4.129   2.587 -0.3232  0.0519 -0.8661
 1934TIP3   OH227216   1.270   1.978  15.487 -0.0605 -0.3997 -0.3597
 1934TIP3    H127217   1.178   1.982  15.463 -0.5708  0.7666  1.6278
 1934TIP3    H227218   1.316   1.973  15.403 -1.9232 -2.1032 -1.3853
 1935TIP3   OH227219   6.428   6.087  12.293  0.1171 -0.5603 -0.6671
 1935TIP3    H127220   6.430   6.009  12.349 -0.6826  0.1922  0.4618
 1935TIP3    H227221   6.480   6.152  12.340  1.1986 -0.5312 -1.8374
 1936TIP3   OH227222   0.373   3.781  14.288  0.3939  0.2800  0.1063
 1936TIP3    H127223   0.279   3.789  14.275  0.3565  0.3804  0.4529
 1936TIP3    H227224   0.386   3.691  14.319  0.5008 -0.0137 -0.7534
 1937TIP3   OH227225   0.402   3.087  14.999  0.0393  0.3809 -0.7280
 1937TIP3    H127226   0.342   3.079  14.924  0.5153 -1.3848 -0.9613
 1937TIP3    H227227   0.488   3.067  14.962  0.5990  1.5491 -0.1080
 1938TIP3   OH227228   6.415   6.418   1.305  0.0525  0.3365  0.8161
 1938TIP3    H127229   6.475   6.491   1.323 -0.3330  0.8228  0.2051
 1938TIP3    H227230   6.336   6.460   1.272 -0.2963 -0.3468  0.7666
 1939TIP3   OH227231   5.124   1.396  16.858  0.2954  0.5885  0.1791
 1939TIP3    H127232   5.036   1.434  16.858  0.1444  0.3253 -1.6216
 1939TIP3    H227233   5.113   1.308  16.824  1.3869  0.9748 -1.2959
 1940TIP3   OH227234   1.107   1.102   4.786 -0.2868  0.1326  0.2113
 1940TIP3    H127235   1.180   1.040   4.789 -0.3788  0.0359  0.5010
 1940TIP3    H227236   1.119   1.149   4.703 -0.8892 -1.0692 -0.5782
 1941TIP3   OH227237   3.122   1.028   0.242 -0.3711 -0.0236 -0.1649
 1941TIP3    H127238   3.171   0.958   0.286  0.4765 -0.2882 -1.4967
 1941TIP3    H227239   3.033   1.020   0.277 -0.0061 -0.9956  0.5891
 1942TIP3   OH227240   1.795   2.368  11.490  0.0613  0.2958 -0.0061
 1942TIP3    H127241   1.741   2.414  11.425  1.3363  0.4079 -1.0182
 1942TIP3    H227242   1.785   2.276  11.470  0.9083  0.3560 -0.7556
 1943TIP3   OH227243   4.414   6.000  16.438  0.0126 -0.3187  0.1805
 1943TIP3    H127244   4.411   6.000  16.534 -1.3948 -1.4750  0.1893
 1943TIP3    H227245   4.497   5.958  16.417  0.8119  0.8643  0.8636
 1944TIP3   OH227246   4.517   1.119  13.747  0.5253  0.0938  0.0801
 1944TIP3    H127247   4.587   1.061  13.777  1.9288  0.1017 -2.8481
 1944TIP3    H227248   4.505   1.096  13.655 -3.1625  0.3437  0.3643
 1945TIP3   OH227249   5.999   5.596   2.935 -0.2897  0.6092  1.2105
 1945TIP3    H127250   6.044   5.516   2.910 -1.3561 -0.2973  2.0940
 1945TIP3    H227251   6.064   5.665   2.923  0.9900 -0.5170  1.4551
 1946TIP3   OH227252   0.573   3.803  13.723  0.0327  0.9199  0.0244
 1946TIP3    H127253   0.631   3.745  13.674  0.6457  1.7007 -0.2004
 1946TIP3    H227254   0.620   3.823  13.804 -0.7486  0.0631  0.7085
 1947TIP3   OH227255   3.125   3.521  15.481  0.1762  0.0736 -0.0124
 1947TIP3    H127256   3.096   3.512  15.390 -0.0397  0.9722 -0.0382
 1947TIP3    H227257   3.169   3.606  15.484 -0.5011  0.3975  0.9038
 1948TIP3   OH227258   4.376   5.362  14.286 -0.3983  0.3644 -0.1394
 1948TIP3    H127259   4.334   5.447  14.277 -3.1482 -0.7842  0.4853
 1948TIP3    H227260   4.315   5.301  14.243  0.7071 -1.4656  0.7426
 1949TIP3   OH227261   5.639   2.505  14.878  0.4581 -0.2997 -0.0230
 1949TIP3    H127262   5.706   2.466  14.934  0.5392 -1.8843 -1.1504
 1949TIP3    H227263   5.556   2.478  14.918  0.4905  0.5934  0.6607
 1950TIP3   OH227264   5.960   1.368  15.213 -0.4480 -0.5264 -0.5835
 1950TIP3    H127265   5.942   1.413  15.295  0.2711 -2.1782  0.5278
 1950TIP3    H227266   5.874   1.361  15.170 -0.8601  0.1803  0.1033
 1951TIP3   OH227267   2.050   1.013   0.895  0.1599  0.1636 -0.2924
 1951TIP3    H127268   2.075   1.071   0.967  1.2272  0.1600 -0.6529
 1951TIP3    H227269   2.133   0.985   0.857 -0.4003  0.4885 -1.7898
 1952TIP3   OH227270   2.115   2.929   3.623  0.3787 -0.3387 -0.0233
 1952TIP3    H127271   2.155   2.878   3.694  0.4946  0.0079  0.1625
 1952TIP3    H227272   2.066   2.999   3.668  1.0929  0.3514 -0.3019
 1953TIP3   OH227273   4.921   0.247   0.855 -0.0483 -0.0065  0.8791
 1953TIP3    H127274   4.873   0.268   0.935 -0.1254  0.9432  0.5902
 1953TIP3    H227275   4.900   0.318   0.795 -1.2352 -1.4725 -0.5547
 1954TIP3   OH227276   0.525   2.131   3.829  0.1709  0.1935 -0.1509
 1954TIP3    H127277   0.498   2.118   3.920  0.3680  0.0795 -0.1080
 1954TIP3    H227278   0.531   2.043   3.793  1.6194  0.1239  0.1737
 1955TIP3   OH227279   5.566   6.581  13.166  0.1358  1.1503  0.5369
 1955TIP3    H127280   5.546   6.536  13.248 -0.9536 -3.3895 -1.8835
 1955TIP3    H227281   5.657   6.608  13.175  0.3781 -0.1593  2.8882
 1956TIP3   OH227282   0.459   1.370  16.495  0.2746 -0.2219  0.2438
 1956TIP3    H127283   0.427   1.445  16.444  1.2213 -0.3303 -0.5485
 1956TIP3    H227284   0.459   1.401  16.585  0.2591  0.5907 -0.0219
 1957TIP3   OH227285   2.513   3.603   5.242  0.6141 -0.1249 -0.2647
 1957TIP3    H127286   2.510   3.583   5.336 -0.5901  1.0594 -0.0245
 1957TIP3    H227287   2.606   3.596   5.220  0.6123 -3.6307  0.2473
 1958TIP3   OH227288   3.828   2.048   4.930  0.3217 -0.1151  0.4107
 1958TIP3    H127289   3.735   2.069   4.931  0.3856  0.3619 -1.3058
 1958TIP3    H227290   3.831   1.954   4.910  0.1978  0.4200 -2.5954
 1959TIP3   OH227291   6.205   6.059   3.506 -0.4233  0.4796  0.0340
 1959TIP3    H127292   6.244   5.981   3.466 -0.1107  0.1714  0.9268
 1959TIP3    H227293   6.114   6.033   3.523 -0.5325  0.5804 -0.3810
 1960TIP3   OH227294   2.931   1.186   1.922 -0.1050  0.7322 -0.4915
 1960TIP3    H127295   2.873   1.260   1.940 -1.0515 -0.3332  1.1435
 1960TIP3    H227296   3.018   1.216   1.947 -0.3950  1.4450 -0.3322
 1961TIP3   OH227297   2.072   5.966   5.811  0.3291  0.6719 -0.0225
 1961TIP3    H127298   2.106   6.010   5.889  1.5711  0.3242 -0.3457
 1961TIP3    H227299   2.102   6.021   5.738 -0.0463  0.4970 -0.3120
 1962TIP3   OH227300   4.119   5.357  16.068 -0.1957  0.2904 -0.2578
 1962TIP3    H127301   4.178   5.308  16.125 -1.9322 -1.6669 -0.0210
 1962TIP3    H227302   4.066   5.410  16.127 -0.4663 -0.0206 -0.2134
 1963TIP3   OH227303   3.968   6.111  16.083 -0.5812 -0.8305 -0.3599
 1963TIP3    H127304   3.892   6.157  16.118 -0.3547 -0.2509 -0.6081
 1963TIP3    H227305   4.029   6.181  16.060  0.6187 -1.3214  1.1618
 1964TIP3   OH227306   5.029   4.459   5.090  0.0656  0.4266 -0.1589
 1964TIP3    H127307   5.104   4.413   5.128 -0.8103 -0.2126  0.8284
 1964TIP3    H227308   4.969   4.389   5.063 -0.8029  0.9534  0.3676
 1965TIP3   OH227309   2.034   0.478   2.411 -0.0863  0.6426  0.0033
 1965TIP3    H127310   1.986   0.537   2.470  1.1144  0.4912  1.1568
 1965TIP3    H227311   2.035   0.525   2.327 -1.1904  1.1883  0.2726
 1966TIP3   OH227312   3.009   0.784  13.155 -0.2505 -0.0900 -0.1925
 1966TIP3    H127313   3.070   0.797  13.082 -2.4252 -1.1627 -2.3670
 1966TIP3    H227314   3.055   0.726  13.215  0.5805 -1.6339 -2.1942
 1967TIP3   OH227315   0.829   6.606   5.623  0.2720 -0.4138  0.3399
 1967TIP3    H127316   0.909   6.571   5.585  0.0883  0.0217 -0.4681
 1967TIP3    H227317   0.856   6.640   5.708  1.0308  0.0837 -0.0872
 1968TIP3   OH227318   0.637   0.931   1.695 -0.4492 -0.3478 -0.2391
 1968TIP3    H127319   0.701   0.998   1.669 -0.8169  0.1535  0.1171
 1968TIP3    H227320   0.594   0.907   1.613  1.0250 -1.5959 -0.6837
 1969TIP3   OH227321   3.200   1.590   4.974 -0.2538  0.0969  0.1677
 1969TIP3    H127322   3.265   1.652   5.005  0.8768 -1.9338  2.1731
 1969TIP3    H227323   3.183   1.533   5.050 -0.7754 -2.3651 -1.6584
 1970TIP3   OH227324   1.730   5.839   1.453  0.1831 -0.2996 -0.1473
 1970TIP3    H127325   1.778   5.918   1.478  2.4015 -1.5851 -0.1077
 1970TIP3    H227326   1.704   5.855   1.362  0.1332  0.6732  0.0265
 1971TIP3   OH227327   0.541   4.784   3.301 -0.0516  0.0674 -0.0487
 1971TIP3    H127328   0.520   4.785   3.394 -0.8365  1.1706 -0.2144
 1971TIP3    H227329   0.618   4.728   3.294  0.5700  0.6911  1.3803
 1972TIP3   OH227330   0.994   2.962  14.297 -0.0040  0.4092 -0.0297
 1972TIP3    H127331   0.931   2.993  14.361  0.0036 -2.3023  1.4499
 1972TIP3    H227332   1.072   3.015  14.313 -0.9207  1.7377  0.1821
 1973TIP3   OH227333   5.891   2.289  16.877 -0.2674 -0.7229 -0.0275
 1973TIP3    H127334   5.851   2.363  16.925  0.7061 -1.0437  1.3368
 1973TIP3    H227335   5.818   2.230  16.861 -1.1577  0.7065 -1.5399
 1974TIP3   OH227336   3.750   6.145  14.359 -0.0433  0.5314  0.4675
 1974TIP3    H127337   3.724   6.170  14.448 -1.6094  0.2409  0.1163
 1974TIP3    H227338   3.672   6.105  14.321  0.5883  0.6669 -1.0577
 1975TIP3   OH227339   1.098   3.995  14.364  0.0649  0.0982  0.1988
 1975TIP3    H127340   1.060   4.070  14.318  0.1734  0.1378  0.1751
 1975TIP3    H227341   1.185   4.025  14.391  0.1612 -0.0653  0.0688
 1976TIP3   OH227342   3.842   0.048  13.901 -0.2259 -0.0649 -0.4950
 1976TIP3    H127343   3.904   0.119  13.883 -1.2250  0.9700 -0.0186
 1976TIP3    H227344   3.805   0.025  13.816 -0.5578  0.6436 -0.5512
 1977TIP3   OH227345   5.179   2.218  17.133 -0.1956  0.7500 -0.6790
 1977TIP3    H127346   5.187   2.258  17.046  0.5328  0.0690 -0.9326
 1977TIP3    H227347   5.136   2.134  17.117 -2.3537  1.6494 -0.0658
 1978TIP3   OH227348   1.829   0.558  15.863  0.1628  0.9782  0.2037
 1978TIP3    H127349   1.823   0.638  15.810 -1.6655  0.3927 -0.5608
 1978TIP3    H227350   1.767   0.572  15.935  1.6342  1.2054  1.4895
 1979TIP3   OH227351   5.600   0.670  15.415  0.4390  0.2499  0.6994
 1979TIP3    H127352   5.508   0.646  15.424  0.8045 -1.7495 -0.1764
 1979TIP3    H227353   5.638   0.653  15.501  0.4241 -1.3423  0.4358
 1980TIP3   OH227354   6.105   6.567  13.098  0.2719  0.7294  0.4981
 1980TIP3    H127355   6.083   6.515  13.176 -0.6568  0.6116  0.1711
 1980TIP3    H227356   6.198   6.551  13.084 -0.0829 -1.2863  0.1070
 1981TIP3   OH227357   2.446   1.460   4.053  0.2556  0.3793  0.4566
 1981TIP3    H127358   2.393   1.487   4.128  1.2222  2.0067  0.6183
 1981TIP3    H227359   2.534   1.492   4.074  0.6920  0.2401 -1.0499
 1982TIP3   OH227360   3.346   5.218  12.654  0.3434 -0.3170  0.3473
 1982TIP3    H127361   3.325   5.242  12.564 -2.6088 -1.6243  0.5576
 1982TIP3    H227362   3.309   5.130  12.665  0.1775 -0.0197  2.9362
 1983TIP3   OH227363   2.856   5.535   0.205 -0.1136  0.4130 -0.0291
 1983TIP3    H127364   2.805   5.495   0.134 -2.0104 -0.4839  1.7518
 1983TIP3    H227365   2.862   5.628   0.180 -0.3474  0.0446 -1.5539
 1984TIP3   OH227366   2.998   6.532   5.964 -0.1621 -0.1494  0.2172
 1984TIP3    H127367   3.093   6.530   5.957 -0.0939 -1.2497  1.2112
 1984TIP3    H227368   2.967   6.491   5.883  0.2389 -0.6403  0.3077
 1985TIP3   OH227369   5.033   2.635  14.879 -0.2296 -0.3059 -0.1491
 1985TIP3    H127370   5.060   2.631  14.787  0.0035  0.6264 -0.1363
 1985TIP3    H227371   4.960   2.574  14.885  1.1671 -2.0929 -0.4239
 1986TIP3   OH227372   6.710   0.636   2.309  0.0355 -0.3570 -0.5044
 1986TIP3    H127373   6.711   0.546   2.275  1.5439 -0.2897 -0.6941
 1986TIP3    H227374   6.771   0.634   2.383 -1.1960  0.1393  0.5723
 1987TIP3   OH227375   2.553   5.143  11.270  0.1987 -0.1531 -0.1358
 1987TIP3    H127376   2.579   5.164  11.360  0.2364  0.9877 -0.4020
 1987TIP3    H227377   2.636   5.130  11.224  0.1788 -0.7600 -0.0075
 1988TIP3   OH227378   1.916   3.135   3.641  0.2275  0.6504  0.0884
 1988TIP3    H127379   1.839   3.112   3.693  0.8333 -0.1967  0.6357
 1988TIP3    H227380   1.908   3.230   3.627 -0.1620  0.8289  1.3884
 1989TIP3   OH227381   6.052   3.748   5.569  0.1942 -0.7094  0.4004
 1989TIP3    H127382   6.140   3.732   5.602  0.3916  1.3316  0.9486
 1989TIP3    H227383   6.060   3.737   5.474  0.9125 -1.0241  0.4889
 1990TIP3   OH227384   6.614   6.532   0.251 -0.0137  0.2808  0.0155
 1990TIP3    H127385   6.673   6.581   0.194 -0.0396  0.1990 -0.0820
 1990TIP3    H227386   6.671   6.478   0.305  0.0376  0.7174  0.4056
 1991TIP3   OH227387   1.119   4.851   1.075  0.7530 -0.1328  0.3878
 1991TIP3    H127388   1.140   4.923   1.135 -0.6792 -1.5145  2.6863
 1991TIP3    H227389   1.202   4.804   1.064  1.3374  0.9224  0.1728
 1992TIP3   OH227390   0.099   3.156  16.896  0.4173 -0.1813  0.0014
 1992TIP3    H127391   0.007   3.161  16.870  0.3838 -0.4903  0.0625
 1992TIP3    H227392   0.097   3.130  16.988  0.5904 -1.8933 -0.4406
 1993TIP3   OH227393   0.362   3.278  13.314 -0.0289 -0.4386 -0.9012
 1993TIP3    H127394   0.432   3.317  13.263  0.3328 -0.4059 -0.3925
 1993TIP3    H227395   0.404   3.253  13.397 -0.7942  0.4002 -0.2320
 1994TIP3   OH227396   4.647   1.486   1.944  0.5853 -0.7413  0.0414
 1994TIP3    H127397   4.670   1.433   2.020  3.3036 -1.3223 -1.0969
 1994TIP3    H227398   4.720   1.547   1.934 -1.3603  1.7266 -0.0901
 1995TIP3   OH227399   5.809   5.809  14.428 -0.0413  0.9866  0.3680
 1995TIP3    H127400   5.869   5.871  14.388  1.0658 -1.2188 -1.6675
 1995TIP3    H227401   5.865   5.739  14.461 -1.2931  0.3849  1.3226
 1996TIP3   OH227402   4.547   3.925  14.425 -0.0369  0.3203 -0.0155
 1996TIP3    H127403   4.518   3.875  14.348  1.0383 -0.4752  0.0687
 1996TIP3    H227404   4.543   3.862  14.497 -0.3477  0.8645  0.4573
 1997TIP3   OH227405   3.755   3.233   4.357  0.6442 -0.3476 -0.3781
 1997TIP3    H127406   3.664   3.241   4.328  0.5172  0.7442  0.2918
 1997TIP3    H227407   3.755   3.158   4.416 -0.1318  0.5380  0.7727
 1998TIP3   OH227408   4.935   4.970   5.623 -0.3891 -0.0914 -0.2279
 1998TIP3    H127409   4.914   4.889   5.576 -0.2993 -0.5791  0.5493
 1998TIP3    H227410   4.868   4.975   5.692 -0.8905  0.9296 -0.7626
 1999TIP3   OH227411   5.629   3.715   3.528 -0.3043  0.2149  0.1204
 1999TIP3    H127412   5.548   3.715   3.578 -0.2387 -3.2892  0.5279
 1999TIP3    H227413   5.681   3.786   3.565 -2.0906  0.7417  1.7795
 2000TIP3   OH227414   3.331   4.434  12.722  0.0441  0.2168  0.0843
 2000TIP3    H127415   3.297   4.440  12.811  0.0485 -1.3911  0.2329
 2000TIP3    H227416   3.345   4.525  12.694  0.0320  0.7374  1.7095
 2001TIP3   OH227417   3.093   0.484  14.927 -0.2819  0.0341  0.5875
 2001TIP3    H127418   3.037   0.515  14.997 -0.8582 -0.3855  0.3251
 2001TIP3    H227419   3.037   0.483  14.849  0.1185 -0.2798  0.2937
 2002TIP3   OH227420   6.556   1.490   2.650  0.6381  0.1847 -0.2978
 2002TIP3    H127421   6.622   1.531   2.594 -0.8811  0.8540 -1.6677
 2002TIP3    H227422   6.584   1.399   2.658  1.7527  0.4649 -0.7706
 2003TIP3   OH227423   4.458   3.992   6.645  0.4118 -0.0063 -0.0064
 2003TIP3    H127424   4.425   3.992   6.735  0.6961 -1.6289  0.1306
 2003TIP3    H227425   4.540   4.041   6.650  0.6825 -0.5143  0.7356
 2004TIP3   OH227426   3.204   4.609   3.696 -0.1197  0.2330  0.0414
 2004TIP3    H127427   3.165   4.696   3.694  0.7084  0.6061 -0.3306
 2004TIP3    H227428   3.243   4.597   3.609  0.7058 -0.0666  0.4376
 2005TIP3   OH227429   5.864   2.335   0.802  0.2475  0.7853 -0.0037
 2005TIP3    H127430   5.823   2.278   0.867 -1.4817  1.4900 -0.4186
 2005TIP3    H227431   5.864   2.421   0.843  0.4174  0.9792 -0.4109
 2006TIP3   OH227432   5.688   5.143   0.296 -0.1840  0.0085  0.0736
 2006TIP3    H127433   5.723   5.186   0.218  1.4135  1.2128  1.3968
 2006TIP3    H227434   5.706   5.203   0.368 -0.5502 -1.5692  1.5733
 2007TIP3   OH227435   5.457   3.435   5.127  0.1579  0.3355 -0.1977
 2007TIP3    H127436   5.428   3.481   5.206 -1.8219  0.9650 -1.1990
 2007TIP3    H227437   5.514   3.366   5.158  0.2935  1.2366  1.6779
 2008TIP3   OH227438   1.120   5.276   3.648 -0.5361 -0.3372  0.2525
 2008TIP3    H127439   1.053   5.333   3.610  0.8580  1.0309 -0.2752
 2008TIP3    H227440   1.078   5.241   3.727 -1.5431  1.2858  0.5112
 2009TIP3   OH227441   4.607   3.803   4.409  0.1375 -0.1315 -0.4126
 2009TIP3    H127442   4.634   3.714   4.431 -1.1482 -0.8987 -1.7030
 2009TIP3    H227443   4.679   3.836   4.355  1.2732  0.1757  1.2063
 2010TIP3   OH227444   5.057   2.289   0.647  0.0190  0.0590  0.7361
 2010TIP3    H127445   5.136   2.256   0.605 -0.1713  0.9173 -0.3425
 2010TIP3    H227446   4.985   2.255   0.593 -0.1959  1.8979 -0.2366
 2011TIP3   OH227447   0.967   3.796  16.678  0.4964  0.0458  0.6905
 2011TIP3    H127448   1.048   3.793  16.627  0.3077  0.0141  0.3862
 2011TIP3    H227449   0.945   3.889  16.682  0.8164  0.1043  1.2110
 2012TIP3   OH227450   1.054   3.893   1.762  0.4441 -0.6637 -0.0560
 2012TIP3    H127451   0.972   3.846   1.757 -0.6756  1.2241 -0.4535
 2012TIP3    H227452   1.041   3.957   1.833  0.3565  1.7456 -2.1130
 2013TIP3   OH227453   5.587   4.860   3.995  0.5683  0.0682 -0.4045
 2013TIP3    H127454   5.582   4.838   3.902  0.2551 -0.0101 -0.3684
 2013TIP3    H227455   5.611   4.778   4.038 -2.6385 -0.8094 -0.0238
 2014TIP3   OH227456   1.338   3.011  15.993 -0.1332 -0.0705  0.7030
 2014TIP3    H127457   1.301   2.992  15.906  0.9629  0.0675  0.1952
 2014TIP3    H227458   1.422   3.053  15.975  0.9745 -1.6923  1.8265
 2015TIP3   OH227459   5.364   0.925  12.705  0.2436 -0.7137  0.1386
 2015TIP3    H127460   5.300   0.910  12.636 -0.0509  3.3432 -0.7383
 2015TIP3    H227461   5.448   0.901  12.666 -0.0332  0.6274 -1.3946
 2016TIP3   OH227462   2.367   1.949  11.687  0.1608 -0.1114  0.6271
 2016TIP3    H127463   2.389   2.036  11.721  0.3426  0.9691 -2.0454
 2016TIP3    H227464   2.272   1.950  11.678  0.2303  0.0784 -0.0833
 2017TIP3   OH227465   2.016   5.817  14.191  0.3015 -0.3031  0.1166
 2017TIP3    H127466   2.050   5.854  14.273 -0.4315  0.6028  0.0318
 2017TIP3    H227467   1.961   5.886  14.155  0.8309 -0.5824 -1.2933
 2018TIP3   OH227468   5.884   3.281   3.477  0.0872 -0.0001  0.0103
 2018TIP3    H127469   5.859   3.348   3.541  1.0228  2.2959 -1.8859
 2018TIP3    H227470   5.977   3.266   3.494  1.0439  2.5560 -2.2911
 2019TIP3   OH227471   3.304   1.675  13.664  0.3117  0.4445 -0.2289
 2019TIP3    H127472   3.248   1.715  13.730 -0.1461 -0.5808  0.0195
 2019TIP3    H227473   3.388   1.663  13.707 -0.5394 -2.1085  0.9186
 2020TIP3   OH227474   6.515   3.228   4.810  0.4780  0.5233  0.0667
 2020TIP3    H127475   6.604   3.248   4.780  0.7790 -0.2205  0.4669
 2020TIP3    H227476   6.527   3.177   4.890 -0.3177  0.9295  0.4579
 2021TIP3   OH227477   4.833   3.612   5.898  0.4743  0.1014  0.4350
 2021TIP3    H127478   4.909   3.565   5.932  1.8105  1.6850 -0.2163
 2021TIP3    H227479   4.854   3.705   5.912 -0.5920  0.6483 -1.2484
 2022TIP3   OH227480   2.622   6.651  15.955  0.1938  0.6811 -0.4824
 2022TIP3    H127481   2.654   6.663  15.866  2.1072  0.3644  0.1068
 2022TIP3    H227482   2.568   6.728  15.972  1.7025  1.9442 -1.1589
 2023TIP3   OH227483   0.394   2.208   0.733 -0.6669 -0.1253  0.5646
 2023TIP3    H127484   0.438   2.128   0.704  0.9372  0.9377 -0.0714
 2023TIP3    H227485   0.341   2.235   0.658 -0.4509 -0.0781  0.4281
 2024TIP3   OH227486   0.568   3.266   2.131 -0.4304 -0.1263  0.4476
 2024TIP3    H127487   0.589   3.359   2.120 -2.2932  0.3182  0.2561
 2024TIP3    H227488   0.580   3.228   2.044 -0.7864  0.1981  0.2548
 2025TIP3   OH227489   1.709   4.997   0.036  0.0804  0.0115 -0.3705
 2025TIP3    H127490   1.662   4.916   0.015 -1.9578  1.1820 -0.6005
 2025TIP3    H227491   1.656   5.039   0.103  2.6278 -0.1362  1.9006
 2026TIP3   OH227492   2.755   4.443   4.664 -1.0025 -0.1503  0.0180
 2026TIP3    H127493   2.670   4.436   4.622  0.4178 -0.1070 -3.1761
 2026TIP3    H227494   2.751   4.524   4.714 -2.7113  0.0160 -0.3313
 2027TIP3   OH227495   6.325   4.730  16.251  0.0357 -0.2384  0.2754
 2027TIP3    H127496   6.420   4.729  16.238  0.1066 -4.6523 -0.2992
 2027TIP3    H227497   6.289   4.753  16.165  0.5429  0.7140  0.3057
 2028TIP3   OH227498   2.293   2.613  12.232  0.0468 -0.4594  0.3771
 2028TIP3    H127499   2.349   2.691  12.235  0.0072 -0.4472  0.8060
 2028TIP3    H227500   2.279   2.598  12.138  0.8899 -0.5492  0.2538
 2029TIP3   OH227501   2.074   6.259   0.740  0.0316 -0.2025 -0.0552
 2029TIP3    H127502   2.016   6.292   0.808 -0.0999 -0.0683 -0.2317
 2029TIP3    H227503   2.131   6.196   0.785  0.0067 -0.0456  0.1956
 2030TIP3   OH227504   4.251   4.793  10.638 -0.4291  0.3064  0.4416
 2030TIP3    H127505   4.262   4.701  10.662 -0.5994 -0.0096 -0.6411
 2030TIP3    H227506   4.160   4.813  10.661 -0.5601  0.0412  0.1529
 2031TIP3   OH227507   5.546   0.006  17.030  0.5811 -0.1666 -0.1517
 2031TIP3    H127508   5.457  -0.003  17.065  0.2498  0.2981 -0.8543
 2031TIP3    H227509   5.585  -0.080  17.040 -0.4837 -0.8041 -1.2701
 2032TIP3   OH227510   3.360   0.551   0.401 -0.1677 -0.3834  0.0377
 2032TIP3    H127511   3.347   0.627   0.458 -1.9305 -0.9439  0.4247
 2032TIP3    H227512   3.455   0.541   0.397  0.0425  0.6030  1.6266
 2033TIP3   OH227513   1.106   2.085  15.906 -0.1416  0.2811  0.3093
 2033TIP3    H127514   1.076   2.130  15.827 -2.5715  0.2551  1.1119
 2033TIP3    H227515   1.044   2.113  15.974  2.0203  0.5522  2.3172
 2034TIP3   OH227516   4.770   6.758  14.148  0.4988  0.5096  0.2457
 2034TIP3    H127517   4.779   6.683  14.206 -0.5277  0.4018  0.2886
 2034TIP3    H227518   4.692   6.739  14.096  0.9594  0.9606 -0.6367
 2035TIP3   OH227519   4.311   2.295  12.826  0.0148  0.3127  0.1462
 2035TIP3    H127520   4.400   2.265  12.808  0.1598  1.2285 -0.7394
 2035TIP3    H227521   4.286   2.249  12.906  1.3547  0.1880  0.5180
 2036TIP3   OH227522   6.239   6.600   0.818  0.2615 -0.3686 -0.5302
 2036TIP3    H127523   6.230   6.526   0.878 -3.7024 -0.9168 -1.4991
 2036TIP3    H227524   6.149   6.626   0.800  1.4486  3.0159 -2.3523
 2037TIP3   OH227525   2.447   5.510  15.962 -0.3276  0.4709 -0.6128
 2037TIP3    H127526   2.377   5.568  15.931  0.2389  0.7906 -1.3310
 2037TIP3    H227527   2.484   5.473  15.882 -1.0246 -1.3150 -0.1380
 2038TIP3   OH227528   1.329   1.449   6.075  1.0023  0.0287  0.0039
 2038TIP3    H127529   1.283   1.525   6.110  0.3600 -0.0673 -0.5973
 2038TIP3    H227530   1.299   1.444   5.984 -1.2233 -2.5884  0.7436
 2039TIP3   OH227531   5.419   6.430  14.653 -0.3366 -0.4755 -0.4922
 2039TIP3    H127532   5.348   6.366  14.650 -0.1053 -0.7241 -0.6484
 2039TIP3    H227533   5.375   6.515  14.645 -0.7505 -0.5415  0.8137
 2040TIP3   OH227534   4.660   5.439   4.877 -0.1101  0.2152  0.1157
 2040TIP3    H127535   4.571   5.474   4.873 -0.3200 -0.1249  1.3432
 2040TIP3    H227536   4.716   5.517   4.881 -0.4116  0.4248  0.3331
 2041TIP3   OH227537   6.211   3.776  13.929 -0.7533  0.1160  0.0322
 2041TIP3    H127538   6.184   3.849  13.986  0.0245  1.5618 -1.3539
 2041TIP3    H227539   6.227   3.704  13.989  1.5698  1.9918  1.8822
 2042TIP3   OH227540   1.111   0.708  16.647 -0.1540 -0.1027  0.6386
 2042TIP3    H127541   1.204   0.731  16.647  0.7652 -3.2558  0.2855
 2042TIP3    H227542   1.107   0.626  16.597 -3.2976  0.4032 -0.1562
 2043TIP3   OH227543   3.467   3.895   2.234 -0.1109  0.3332 -0.0660
 2043TIP3    H127544   3.442   3.866   2.146  1.1988  1.3928 -0.8221
 2043TIP3    H227545   3.545   3.949   2.220 -0.6553  1.6248  1.6040
 2044TIP3   OH227546   3.985   0.941   4.775 -0.1713  0.5314  0.0248
 2044TIP3    H127547   3.948   0.921   4.689  0.2803  0.9489 -0.2730
 2044TIP3    H227548   4.049   1.010   4.758 -1.4340  2.0011  0.9744
 2045TIP3   OH227549   6.446   4.950   6.126 -0.2750  0.2700  0.3172
 2045TIP3    H127550   6.412   4.876   6.177  3.2192 -0.2747  2.1078
 2045TIP3    H227551   6.467   5.017   6.191 -0.2569  1.5590 -0.9535
 2046TIP3   OH227552   4.929   3.068  12.888 -0.4604  0.3561 -0.0125
 2046TIP3    H127553   4.945   3.158  12.859 -2.5161  1.8609  2.9920
 2046TIP3    H227554   4.836   3.053  12.870 -0.3507 -0.8725  0.3423
 2047TIP3   OH227555   4.137   2.927   3.877  0.4632  0.4096 -0.0775
 2047TIP3    H127556   4.121   2.978   3.957 -1.3563  0.9543 -0.7369
 2047TIP3    H227557   4.062   2.868   3.871  0.2441  0.8173 -1.6878
 2048TIP3   OH227558   1.232   0.087  13.633  0.5610 -0.4090 -0.2770
 2048TIP3    H127559   1.198   0.176  13.627  1.8507  0.2460  1.3473
 2048TIP3    H227560   1.193   0.042  13.558 -2.7969  0.5535  0.7232
 2049TIP3   OH227561   4.515   5.116  10.590 -0.1231  0.0926  0.2074
 2049TIP3    H127562   4.575   5.108  10.664  0.2609  0.0977 -0.0979
 2049TIP3    H227563   4.452   5.182  10.617  0.5027  0.7007  0.2060
 2050TIP3   OH227564   5.026   3.027  16.544 -0.7643  0.5007  0.3091
 2050TIP3    H127565   5.067   2.947  16.509  2.0247  2.5747 -1.6435
 2050TIP3    H227566   5.056   3.030  16.635 -2.0745 -1.2858  0.8697
 2051TIP3   OH227567   1.943   4.812  17.192  0.1693 -0.1200 -0.6347
 2051TIP3    H127568   1.931   4.717  17.181  0.4952 -0.4254  1.3317
 2051TIP3    H227569   1.856   4.844  17.215 -0.0061  0.1389 -1.5967
 2052TIP3   OH227570   5.615   6.318  12.198  0.4486  0.0022  0.4787
 2052TIP3    H127571   5.641   6.233  12.234 -0.4351 -0.4569  0.0536
 2052TIP3    H227572   5.521   6.322  12.212  0.6444  1.4718  1.6406
 2053TIP3   OH227573   1.519   5.719   5.683 -0.3047 -0.1193  0.0427
 2053TIP3    H127574   1.585   5.710   5.752  0.4086 -0.6057 -0.6831
 2053TIP3    H227575   1.439   5.743   5.730  0.0228 -0.9910  1.1120
 2054TIP3   OH227576   2.307   6.426  11.930  0.1768  0.0566  0.4406
 2054TIP3    H127577   2.339   6.408  12.019 -1.7190 -0.2936  1.0982
 2054TIP3    H227578   2.278   6.518  11.933 -1.9608 -0.5742  0.9096
 2055TIP3   OH227579   4.481   4.417  12.122 -0.4239 -0.0911 -0.1551
 2055TIP3    H127580   4.558   4.469  12.097 -0.0042  0.3332  1.8809
 2055TIP3    H227581   4.515   4.328  12.131 -0.7564 -0.4276 -1.7654
 2056TIP3   OH227582   0.265   6.782  11.646 -0.6010 -0.6222 -0.1596
 2056TIP3    H127583   0.235   6.811  11.559  0.7605  2.0396  0.1354
 2056TIP3    H227584   0.348   6.738  11.628  0.2396  0.8880 -0.2049
 2057TIP3   OH227585   0.758   1.672   3.768  0.0949  0.0118  0.3069
 2057TIP3    H127586   0.777   1.661   3.862 -0.7062 -0.7665  0.3821
 2057TIP3    H227587   0.734   1.585   3.738 -2.4598  0.7507  0.0150
 2058TIP3   OH227588   4.685   2.138   5.637 -0.0291  0.2820  0.0407
 2058TIP3    H127589   4.638   2.206   5.685  1.2363  1.2038  0.0149
 2058TIP3    H227590   4.737   2.093   5.703 -2.4312 -2.1237  0.4397
 2059TIP3   OH227591   5.998   5.169  13.468  0.4893  0.3058 -0.2166
 2059TIP3    H127592   5.920   5.191  13.520  0.0880 -0.1175 -0.6321
 2059TIP3    H227593   6.052   5.248  13.471 -0.6842  1.1727 -1.2444
 2060TIP3   OH227594   1.901   1.056   4.723  0.6216 -0.4061 -0.1758
 2060TIP3    H127595   1.889   1.122   4.655  0.2097 -2.7017 -2.5104
 2060TIP3    H227596   1.990   1.070   4.755  0.1922  1.8668  0.1490
 2061TIP3   OH227597   0.571   1.629   3.215 -0.0905  0.1637  0.5699
 2061TIP3    H127598   0.596   1.650   3.305  2.6292  0.6458 -0.1970
 2061TIP3    H227599   0.655   1.621   3.168 -1.3438 -1.8796 -1.5353
 2062TIP3   OH227600   6.537   4.595  16.433 -0.4936 -0.0361  0.8503
 2062TIP3    H127601   6.496   4.521  16.478  1.5481 -0.3854  2.3145
 2062TIP3    H227602   6.490   4.672  16.465 -0.8460 -0.5066  1.4766
 2063TIP3   OH227603   5.335   2.637   1.714 -0.3993 -0.1400 -0.1267
 2063TIP3    H127604   5.250   2.683   1.715 -1.7559 -2.3203 -2.5841
 2063TIP3    H227605   5.373   2.660   1.630 -0.2356 -1.9264 -0.5711
 2064TIP3   OH227606   5.507   6.097  16.653  0.0348  0.1328 -0.5441
 2064TIP3    H127607   5.447   6.131  16.587 -1.2297  1.4308  1.1915
 2064TIP3    H227608   5.459   6.025  16.695  0.8894 -0.7932 -1.1127
 2065TIP3   OH227609   1.772   1.365   2.227 -0.1212 -0.2012 -0.7710
 2065TIP3    H127610   1.718   1.312   2.168  0.8898 -0.7486 -1.2245
 2065TIP3    H227611   1.715   1.382   2.302 -0.6969 -1.3454 -0.9219
 2066TIP3   OH227612   4.328   0.783  16.483 -0.7024  0.6486  0.4043
 2066TIP3    H127613   4.282   0.815  16.405  0.3911  0.2866 -0.4157
 2066TIP3    H227614   4.372   0.860  16.518 -1.2480  0.8255  0.7158
 2067TIP3   OH227615   0.753   1.079  14.095 -0.5578 -0.0367  0.5758
 2067TIP3    H127616   0.776   1.138  14.167 -0.9078 -0.2134  0.8369
 2067TIP3    H227617   0.660   1.061  14.108 -0.1984 -1.5981  1.2080
 2068TIP3   OH227618   5.082   1.679   4.186  0.7134  0.5358  0.1358
 2068TIP3    H127619   5.154   1.646   4.240 -0.4627 -0.0515  1.4131
 2068TIP3    H227620   5.005   1.632   4.218 -0.3645  1.6740 -0.6916
 2069TIP3   OH227621   6.595   2.347   0.506 -0.3214  0.0277 -0.1201
 2069TIP3    H127622   6.639   2.349   0.591 -0.0854  0.0854 -0.2426
 2069TIP3    H227623   6.643   2.410   0.453  0.0746 -0.6258 -0.5565
 2070TIP3   OH227624   0.723   5.039  15.685 -0.1344  0.0499 -0.7278
 2070TIP3    H127625   0.817   5.060  15.687 -0.2248  0.5870 -1.5507
 2070TIP3    H227626   0.702   5.015  15.775  0.4636  1.4163 -0.1865
 2071TIP3   OH227627   3.293   5.433  12.147 -0.0046  0.0986 -0.3779
 2071TIP3    H127628   3.256   5.483  12.220  1.1566 -1.9387  1.7288
 2071TIP3    H227629   3.383   5.465  12.140  0.2263 -0.4626 -0.1183
 2072TIP3   OH227630   3.993   4.441  14.354  0.3149  0.0136 -0.5739
 2072TIP3    H127631   3.991   4.537  14.345  1.8448  0.1596  0.3308
 2072TIP3    H227632   4.026   4.410  14.270  1.0537  0.3845 -0.4301
 2073TIP3   OH227633   1.040   6.679  15.158  0.1499 -0.0427  0.1473
 2073TIP3    H127634   1.016   6.653  15.070  0.9123  0.1468 -0.1308
 2073TIP3    H227635   1.013   6.606  15.214 -0.0945 -0.2767 -0.2752
 2074TIP3   OH227636   2.744   0.033  12.669 -0.6786 -0.3842  0.3408
 2074TIP3    H127637   2.684   0.031  12.744 -1.4943 -1.3603 -0.3078
 2074TIP3    H227638   2.775  -0.057  12.661  1.4397  0.2240  1.0751
 2075TIP3   OH227639   3.856   6.185  13.932 -0.2972  0.1414  0.2931
 2075TIP3    H127640   3.867   6.251  13.864  1.6804  0.4127  0.8145
 2075TIP3    H227641   3.903   6.108  13.898 -1.3228 -0.5145  0.3288
 2076TIP3   OH227642   4.450   2.194  16.624  0.3464  0.0347 -0.1564
 2076TIP3    H127643   4.534   2.155  16.648 -0.1159 -0.6317  0.4429
 2076TIP3    H227644   4.405   2.207  16.708  0.1097  0.9929 -0.4194
 2077TIP3   OH227645   6.704   4.058   5.738 -0.5364  0.2124  0.0774
 2077TIP3    H127646   6.738   3.975   5.772 -1.7848 -0.4684 -0.2930
 2077TIP3    H227647   6.769   4.086   5.674  0.6821  0.3378  1.3119
 2078TIP3   OH227648   0.444   3.660  15.484 -1.1912  0.1466 -0.4621
 2078TIP3    H127649   0.356   3.655  15.447 -1.7072 -1.0015  0.8141
 2078TIP3    H227650   0.482   3.573  15.467 -0.8955  0.1036  0.3717
 2079TIP3   OH227651   5.630   4.538   3.636  0.3796  0.3197  0.0694
 2079TIP3    H127652   5.598   4.456   3.673  1.2172  0.0188  0.1327
 2079TIP3    H227653   5.688   4.573   3.703  2.1862 -0.3995 -1.0663
 2080TIP3   OH227654   2.741   4.515  11.231 -0.0646  0.8208  0.5460
 2080TIP3    H127655   2.650   4.518  11.202  0.0579  1.9455  0.2187
 2080TIP3    H227656   2.747   4.585  11.296  1.3212  3.1061 -1.8398
 2081TIP3   OH227657   2.334   3.236  13.919  0.1679 -0.3103 -0.5317
 2081TIP3    H127658   2.345   3.274  14.006 -1.7355 -1.9151  0.4860
 2081TIP3    H227659   2.391   3.159  13.918 -0.3513 -0.7020 -0.4240
 2082TIP3   OH227660   2.218   2.519  11.773 -0.4132 -0.4446  0.0942
 2082TIP3    H127661   2.171   2.603  11.776 -0.6779 -0.5750 -0.3669
 2082TIP3    H227662   2.161   2.461  11.724  0.1199 -0.6770 -0.2556
 2083TIP3   OH227663   3.745   4.740   2.132 -0.0725  1.2125  0.2431
 2083TIP3    H127664   3.669   4.790   2.161 -0.1529  0.6574  1.0295
 2083TIP3    H227665   3.711   4.653   2.111  0.5667  0.3678  2.3753
 2084TIP3   OH227666   2.892   2.927  10.204  0.2579 -0.0273  0.5404
 2084TIP3    H127667   2.797   2.941  10.209  0.1567 -0.3810 -0.2361
 2084TIP3    H227668   2.903   2.832  10.202  0.6451  0.0079  0.8668
 2085TIP3   OH227669   0.607   3.575  16.788 -0.0275  0.4139 -0.8146
 2085TIP3    H127670   0.573   3.664  16.789  0.0790  0.4852 -2.2210
 2085TIP3    H227671   0.697   3.583  16.821  0.2319  0.9539 -1.6277
 2086TIP3   OH227672   0.558   5.145   6.022 -0.3165 -0.3705 -0.2604
 2086TIP3    H127673   0.479   5.184   6.059 -0.7051 -0.8556 -0.5756
 2086TIP3    H227674   0.587   5.082   6.088  1.0508  1.3161  0.8563
 2087TIP3   OH227675   3.094   2.749   4.240 -0.6723 -0.2776 -0.1999
 2087TIP3    H127676   3.149   2.758   4.318 -1.3022  0.0903  0.2127
 2087TIP3    H227677   3.092   2.837   4.202 -1.1436 -0.2388 -0.0914
 2088TIP3   OH227678   3.946   6.138  16.434  0.4210  0.1174 -0.0251
 2088TIP3    H127679   3.991   6.080  16.373  0.4540 -1.1418  1.1345
 2088TIP3    H227680   3.877   6.179  16.382  2.0148  1.0548 -1.5024
 2089TIP3   OH227681   4.578   5.260  11.874 -0.0077 -0.2558  0.2643
 2089TIP3    H127682   4.527   5.185  11.844 -1.6352  1.0300 -0.3021
 2089TIP3    H227683   4.618   5.296  11.795 -0.2875  0.2357  0.3451
 2090TIP3   OH227684   0.645   6.420   3.442  0.2430 -0.0589 -0.5540
 2090TIP3    H127685   0.684   6.373   3.368 -0.1785 -1.2624 -0.0353
 2090TIP3    H227686   0.719   6.446   3.496  0.4637 -0.5114 -0.6326
 2091TIP3   OH227687   0.866   6.667   0.853  0.2698 -0.7711 -0.6138
 2091TIP3    H127688   0.931   6.639   0.789 -0.2354  0.0457 -1.5145
 2091TIP3    H227689   0.799   6.711   0.801  1.2582  2.6276  0.6688
 2092TIP3   OH227690   0.903   6.068  11.444 -0.4952 -0.3906  0.4194
 2092TIP3    H127691   0.841   6.105  11.506  0.2825 -0.0028  0.9906
 2092TIP3    H227692   0.955   6.007  11.496  0.8736  0.7341  0.4280
 2093TIP3   OH227693   1.149   0.274  12.608  0.8012 -0.2928  0.1855
 2093TIP3    H127694   1.167   0.266  12.702  1.1683  0.5962  0.1963
 2093TIP3    H227695   1.222   0.327  12.574  1.1938 -1.4032 -0.7735
 2094TIP3   OH227696   4.261   6.672  11.175 -0.2749 -0.4781  0.2223
 2094TIP3    H127697   4.190   6.734  11.193 -1.6222 -2.1569  0.8906
 2094TIP3    H227698   4.219   6.600  11.128  1.1890 -1.0796 -0.2272
 2095TIP3   OH227699   5.712   1.254  11.201  0.2240  0.0248 -0.1159
 2095TIP3    H127700   5.692   1.175  11.151  1.8635  0.6720 -1.8927
 2095TIP3    H227701   5.646   1.254  11.271  0.6449 -3.2958  0.4568
 2096TIP3   OH227702   3.881   0.845  12.957 -0.2713  0.4873 -0.2962
 2096TIP3    H127703   3.935   0.790  13.013 -0.6301  2.6117  2.2803
 2096TIP3    H227704   3.852   0.785  12.887 -0.6896 -2.6333  2.3160
 2097TIP3   OH227705   0.389   1.121   4.114  0.2272 -0.4227  0.7397
 2097TIP3    H127706   0.402   1.209   4.147 -0.6011 -0.5640  1.4777
 2097TIP3    H227707   0.471   1.075   4.133 -0.0047 -0.3225  2.0502
 2098TIP3   OH227708   4.282   5.474  16.819 -0.8030 -0.4851  0.1110
 2098TIP3    H127709   4.230   5.533  16.764 -2.4100 -1.2352  0.7657
 2098TIP3    H227710   4.265   5.387  16.783 -0.0657 -0.7558  0.4066
 2099TIP3   OH227711   0.576   0.437   4.991 -0.1327  0.0519  0.1704
 2099TIP3    H127712   0.641   0.464   5.056  0.2303  0.1752 -0.2364
 2099TIP3    H227713   0.531   0.518   4.968 -1.1827 -0.2013  1.2479
 2100TIP3   OH227714   5.973   4.796  15.369  0.2828 -0.0682 -0.2355
 2100TIP3    H127715   5.934   4.864  15.314 -1.0556 -1.2163 -0.7863
 2100TIP3    H227716   6.041   4.841  15.419  0.7689  1.2604 -1.9864
 2101TIP3   OH227717   0.545   4.813   3.623 -0.3903  0.0495  0.2693
 2101TIP3    H127718   0.635   4.810   3.656 -0.8218  1.2035  1.6686
 2101TIP3    H227719   0.507   4.729   3.649  0.2515 -0.4180 -0.2744
 2102TIP3   OH227720   5.550   5.705   2.355 -0.0701  0.0731  0.6348
 2102TIP3    H127721   5.635   5.705   2.400  0.2530 -0.2865  0.0323
 2102TIP3    H227722   5.561   5.643   2.283 -0.1219  1.6604 -0.7991
 2103TIP3   OH227723   4.730   5.702   6.635 -0.1460 -0.1239 -0.2653
 2103TIP3    H127724   4.822   5.697   6.661 -0.2626 -0.8276  0.0211
 2103TIP3    H227725   4.694   5.774   6.687  0.2621  0.2292 -0.4617
 2104TIP3   OH227726   5.954   3.276   0.651  0.1043  0.1672  0.4635
 2104TIP3    H127727   6.022   3.254   0.715  1.0396 -2.5007 -1.3061
 2104TIP3    H227728   5.872   3.256   0.696  0.5950  0.8016  1.6848
 2105TIP3   OH227729   0.275   5.535   0.465  0.0115 -0.0144  0.2036
 2105TIP3    H127730   0.353   5.535   0.521  0.1718 -1.5846  0.0401
 2105TIP3    H227731   0.202   5.543   0.527  0.2640  0.8737  0.4055
 2106TIP3   OH227732   5.524   1.729   5.945  0.2915  0.1779  0.2069
 2106TIP3    H127733   5.455   1.664   5.943  0.2878  0.1438  1.2675
 2106TIP3    H227734   5.574   1.714   5.864 -0.8987  0.1842 -0.5429
 2107TIP3   OH227735   5.345   6.766  14.923  0.3878 -0.5397  0.1711
 2107TIP3    H127736   5.276   6.808  14.974  0.2294  0.6931 -1.0051
 2107TIP3    H227737   5.320   6.674  14.919 -1.5310 -0.0094 -0.7686
 2108TIP3   OH227738   3.141   1.356  11.612  0.3438  0.1601  0.2654
 2108TIP3    H127739   3.211   1.301  11.577  0.0416 -0.9650  1.3683
 2108TIP3    H227740   3.178   1.394  11.692  0.1445  0.6352  0.1375
 2109TIP3   OH227741   0.262   0.351   2.334 -0.1695  0.2396 -0.1148
 2109TIP3    H127742   0.201   0.327   2.405 -0.7285 -1.2128 -1.0318
 2109TIP3    H227743   0.345   0.366   2.379 -0.0135 -2.5685  0.7391
 2110TIP3   OH227744   2.964   1.970   4.132 -0.2334  0.3266 -0.2682
 2110TIP3    H127745   2.869   1.979   4.122 -0.2966 -0.7180 -0.7908
 2110TIP3    H227746   2.977   1.876   4.147  0.6763  0.5384  0.3122
 2111TIP3   OH227747   6.224   3.139   1.327 -0.2155 -0.2761  0.3143
 2111TIP3    H127748   6.195   3.094   1.248 -1.4414 -1.4160  1.3566
 2111TIP3    H227749   6.228   3.071   1.394  3.0101  0.2180  0.7784
 2112TIP3   OH227750   4.299   6.502  12.018  1.1623 -0.2527 -0.1244
 2112TIP3    H127751   4.275   6.586  11.979  2.5089 -0.3017 -1.0966
 2112TIP3    H227752   4.276   6.437  11.952  0.2297 -0.6656  0.5802
 2113TIP3   OH227753   5.441   1.887  16.016  0.1262  0.3012 -0.1178
 2113TIP3    H127754   5.414   1.973  15.984 -0.8164  1.0526  2.4615
 2113TIP3    H227755   5.530   1.876  15.984  0.3368  2.3054 -0.3398
 2114TIP3   OH227756   6.214   1.590   5.340 -0.5864  0.3806  0.2471
 2114TIP3    H127757   6.212   1.538   5.420  1.5288 -0.8450 -0.4072
 2114TIP3    H227758   6.276   1.661   5.359  1.0387 -0.7214 -0.6777
 2115TIP3   OH227759   1.599   6.465   1.584  0.0646  0.4133 -0.2510
 2115TIP3    H127760   1.598   6.379   1.542 -0.1371  0.4192 -0.2591
 2115TIP3    H227761   1.692   6.485   1.596  0.1422  0.6603 -1.2021
 2116TIP3   OH227762   4.160   0.264  13.045 -0.0039  0.6293  0.2094
 2116TIP3    H127763   4.082   0.265  12.990 -1.1553 -0.4058  1.7338
 2116TIP3    H227764   4.159   0.349  13.089 -0.5917  0.4320  0.6000
 2117TIP3   OH227765   3.808   4.169  11.248  0.2851  0.1482 -0.4260
 2117TIP3    H127766   3.724   4.194  11.211  0.2957  0.9970  0.0685
 2117TIP3    H227767   3.808   4.209  11.335  0.7937 -0.6771 -0.0339
 2118TIP3   OH227768   0.105   3.672  14.594 -0.3923  0.0221  0.3919
 2118TIP3    H127769   0.176   3.714  14.642 -0.3794  0.4157  0.0284
 2118TIP3    H227770   0.040   3.651  14.661 -0.2757  0.3624  0.6144
 2119TIP3   OH227771   3.753   1.160  12.164  0.0570 -0.2479 -0.3138
 2119TIP3    H127772   3.666   1.199  12.162  0.5002  0.8879  1.1884
 2119TIP3    H227773   3.745   1.082  12.109 -1.7927  0.0415 -0.5173
 2120TIP3   OH227774   5.021   1.483  11.981  0.5600  0.3902 -0.5081
 2120TIP3    H127775   5.049   1.573  11.999 -1.3606  0.9985 -0.4184
 2120TIP3    H227776   4.988   1.485  11.892 -0.8695  0.1510 -0.0096
 2121TIP3   OH227777   4.018   4.775  12.397 -0.0741 -0.1656  0.1989
 2121TIP3    H127778   4.087   4.841  12.389  0.2798 -0.3117  1.6804
 2121TIP3    H227779   3.951   4.801  12.334  0.8026  0.6599 -0.4097
 2122TIP3   OH227780   4.531   6.208   5.556  0.4288 -0.5564 -0.3914
 2122TIP3    H127781   4.495   6.184   5.641 -0.3308  0.4661 -0.3988
 2122TIP3    H227782   4.483   6.288   5.532  1.1840 -0.3951 -1.4158
 2123TIP3   OH227783   4.042   5.056   2.832  0.0366  0.3052  0.4004
 2123TIP3    H127784   4.005   5.123   2.890  0.8368 -0.0837  1.4062
 2123TIP3    H227785   4.098   5.104   2.772  0.9508  0.5365  1.3911
 2124TIP3   OH227786   5.407   3.012   4.416 -0.4722 -0.3490 -0.0015
 2124TIP3    H127787   5.429   2.973   4.332  1.6935 -1.4122  0.9838
 2124TIP3    H227788   5.312   3.001   4.424 -0.4375 -2.0361 -1.4291
 2125TIP3   OH227789   6.715   4.987  11.301 -0.7407  0.1894  0.1267
 2125TIP3    H127790   6.640   5.013  11.246  0.8646  2.2773 -1.2211
 2125TIP3    H227791   6.766   5.067  11.311  0.4479 -0.7745  2.5121
 2126TIP3   OH227792   1.649   0.614  13.981  0.1617 -0.4823  0.8343
 2126TIP3    H127793   1.592   0.539  13.998 -1.5753  0.0932 -1.8650
 2126TIP3    H227794   1.736   0.585  14.009 -0.1386 -4.0974 -1.3465
 2127TIP3   OH227795   1.166   5.610  14.786 -0.0317  0.4196  0.0134
 2127TIP3    H127796   1.169   5.515  14.780  1.4616  0.4697 -0.5994
 2127TIP3    H227797   1.171   5.640  14.695 -1.2029  1.0838  0.1561
 2128TIP3   OH227798   6.573   4.944   1.844  0.3940  0.1992  0.1407
 2128TIP3    H127799   6.552   5.034   1.819  0.4594  0.6737  1.6614
 2128TIP3    H227800   6.586   4.948   1.939 -2.3859 -1.9173  0.7667
 2129TIP3   OH227801   6.621   4.086   1.735  0.5345  0.6634 -0.2481
 2129TIP3    H127802   6.698   4.077   1.679 -0.0697 -1.2901 -0.8310
 2129TIP3    H227803   6.547   4.058   1.681 -0.3205  0.5716  0.9119
 2130TIP3   OH227804   6.303   4.305  13.719  0.3193  0.1310 -0.4474
 2130TIP3    H127805   6.386   4.279  13.679  1.0260  0.6946  0.6056
 2130TIP3    H227806   6.315   4.290  13.812 -1.3319 -1.2447 -0.4033
 2131TIP3   OH227807   1.410   0.639   2.470 -0.3920  0.4940  0.0752
 2131TIP3    H127808   1.420   0.734   2.465 -0.8579  0.5290 -0.2967
 2131TIP3    H227809   1.489   0.608   2.515  0.5176  0.9107 -1.1762
 2132TIP3   OH227810   0.649   1.273   2.234 -0.1927 -0.9859  0.3990
 2132TIP3    H127811   0.609   1.357   2.211 -1.9308 -2.0883 -0.8261
 2132TIP3    H227812   0.592   1.237   2.302 -1.0197 -2.3124 -0.9420
 2133TIP3   OH227813   2.770   3.236   5.716  0.3341 -0.8092  0.4801
 2133TIP3    H127814   2.807   3.196   5.637  0.4604  0.3866 -0.0808
 2133TIP3    H227815   2.846   3.271   5.762  0.1575 -0.6461  0.6465
 2134TIP3   OH227816   0.745   1.951  13.813  0.3486  0.1585  0.4125
 2134TIP3    H127817   0.770   1.941  13.905  0.4392 -0.4693  0.3245
 2134TIP3    H227818   0.658   1.913  13.808  0.5658 -0.3049  0.1309
 2135TIP3   OH227819   0.345   6.589   1.289  0.2608  0.2312  0.0732
 2135TIP3    H127820   0.257   6.577   1.327  0.7502  2.8478  2.3349
 2135TIP3    H227821   0.403   6.539   1.347  0.4197 -0.5319 -0.7274
 2136TIP3   OH227822   4.463   3.835   5.669 -0.7289  0.0699  0.4162
 2136TIP3    H127823   4.483   3.757   5.617  2.0003  0.3785  0.8800
 2136TIP3    H227824   4.468   3.806   5.760 -2.9986  0.1118  0.6252
 2137TIP3   OH227825   5.618   5.191  11.797 -0.2991  0.9342 -0.0394
 2137TIP3    H127826   5.645   5.103  11.769 -1.9222  0.1023  0.8449
 2137TIP3    H227827   5.676   5.250  11.750  1.4282 -0.6365 -0.0087
 2138TIP3   OH227828   6.323   0.280  11.527 -0.0663 -0.4503  0.2685
 2138TIP3    H127829   6.295   0.329  11.449 -2.4653  0.4017  1.5789
 2138TIP3    H227830   6.343   0.347  11.592 -1.5661 -1.1465  1.4959
 2139TIP3   OH227831   0.755   5.255  14.244  0.3864 -0.0526 -0.1742
 2139TIP3    H127832   0.781   5.342  14.275  1.4706 -0.2300 -0.5480
 2139TIP3    H227833   0.737   5.205  14.323  0.6012  0.2598  0.0719
 2140TIP3   OH227834   1.002   1.999  15.415  0.1130 -0.5423  0.1644
 2140TIP3    H127835   0.996   2.072  15.353  3.7738 -0.9440 -0.8764
 2140TIP3    H227836   0.961   1.925  15.370 -1.2385  0.1791  0.1478
 2141TIP3   OH227837   6.345   4.414  16.207  0.4597 -0.1281  0.4842
 2141TIP3    H127838   6.388   4.433  16.124 -1.7165  1.6568 -0.3496
 2141TIP3    H227839   6.351   4.497  16.255  0.1172 -0.6064  1.3594
 2142TIP3   OH227840   1.554   4.516   4.500 -0.1509 -0.5952 -0.0783
 2142TIP3    H127841   1.545   4.608   4.524  0.5446 -0.7375  0.7974
 2142TIP3    H227842   1.643   4.510   4.463 -0.7543 -0.6253 -1.5904
 2143TIP3   OH227843   3.833   5.518   5.918 -0.0745 -0.0136  0.0920
 2143TIP3    H127844   3.755   5.499   5.866  1.5740 -0.4119 -2.4213
 2143TIP3    H227845   3.856   5.608   5.895  0.4986 -0.0746  0.3986
 2144TIP3   OH227846   3.823   4.612  12.712 -0.2877  0.1028  0.3237
 2144TIP3    H127847   3.764   4.626  12.786 -1.2758  0.6302 -0.5291
 2144TIP3    H227848   3.883   4.687  12.715 -0.6703  0.4158  0.2903
 2145TIP3   OH227849   1.750   1.555  13.273 -0.0275 -0.6052  0.4036
 2145TIP3    H127850   1.667   1.514  13.250  0.4272 -1.0626 -0.4896
 2145TIP3    H227851   1.783   1.502  13.346  0.3388 -1.5786 -0.4432
 2146TIP3   OH227852   0.049   5.860   0.887  0.4487  0.5768 -0.2704
 2146TIP3    H127853   0.139   5.845   0.916  0.5928  1.4340 -0.2501
 2146TIP3    H227854   0.026   5.945   0.924 -0.4191  0.3082 -0.1644
 2147TIP3   OH227855   3.715   5.928  17.051  0.2977  0.3761 -0.2203
 2147TIP3    H127856   3.689   5.908  17.141 -1.1655  0.9320 -0.4907
 2147TIP3    H227857   3.716   5.843  17.007  1.9391 -0.0249  0.5085
 2148TIP3   OH227858   4.565   5.183   5.504 -0.9420 -0.0031 -0.1328
 2148TIP3    H127859   4.514   5.106   5.531 -1.8828  0.1800 -1.3172
 2148TIP3    H227860   4.500   5.251   5.489 -0.6124 -0.2799 -3.4532
 2149TIP3   OH227861   2.570   2.664  14.388 -0.3849 -0.2406 -0.0525
 2149TIP3    H127862   2.632   2.648  14.459 -0.1501  0.0245 -0.1943
 2149TIP3    H227863   2.513   2.734  14.421 -1.4122 -1.3285  0.5693
 2150TIP3   OH227864   1.674   3.001  11.393  0.2656 -0.4861  0.5987
 2150TIP3    H127865   1.629   3.056  11.456  2.2811 -0.5679  2.1819
 2150TIP3    H227866   1.710   2.929  11.445  1.0296 -1.1798 -0.8301
 2151TIP3   OH227867   1.264   6.283   3.220 -0.4108 -0.4907  0.7098
 2151TIP3    H127868   1.349   6.308   3.257 -0.0943  0.0130 -0.3176
 2151TIP3    H227869   1.245   6.350   3.154 -1.6730 -0.5257  1.0116
 2152TIP3   OH227870   6.449   0.258  12.615 -0.5444 -0.0878 -0.5055
 2152TIP3    H127871   6.465   0.203  12.692 -0.3937 -0.8061 -1.0419
 2152TIP3    H227872   6.514   0.229  12.551 -2.3248 -1.3286 -1.8444
 2153TIP3   OH227873   4.892   0.093  12.675  0.3731 -0.2898  0.0682
 2153TIP3    H127874   4.850   0.007  12.677  0.6815 -0.4537  2.0397
 2153TIP3    H227875   4.902   0.116  12.767  3.5754  0.2420 -0.2994
 2154TIP3   OH227876   1.531   2.588   4.968  0.1318  0.1733  0.0691
 2154TIP3    H127877   1.491   2.542   4.894 -1.5927  0.8112  0.5421
 2154TIP3    H227878   1.457   2.611   5.025  1.1522  1.6412  0.8941
 2155TIP3   OH227879   2.528   5.656   4.519  0.5121 -0.4710  0.1477
 2155TIP3    H127880   2.451   5.684   4.569  0.8953  0.1174  0.4239
 2155TIP3    H227881   2.601   5.700   4.562  0.6329  2.0189 -2.3611
 2156TIP3   OH227882   6.296   4.320  15.030 -0.4491 -0.2933  0.5882
 2156TIP3    H127883   6.294   4.251  15.097  0.8299 -1.6421 -0.6880
 2156TIP3    H227884   6.389   4.331  15.010 -0.8120 -0.0759 -1.0933
 2157TIP3   OH227885   4.000   6.074  14.486  0.0430  0.4386 -0.4092
 2157TIP3    H127886   3.916   6.076  14.440  0.6613 -1.1718 -1.6795
 2157TIP3    H227887   3.987   6.133  14.561 -2.1945  0.2736 -0.5987
 2158TIP3   OH227888   4.790   3.857  14.308  0.4524  0.6791 -0.8183
 2158TIP3    H127889   4.734   3.928  14.340  0.2078  0.0188  0.2778
 2158TIP3    H227890   4.742   3.777  14.330  0.2883  0.1533 -2.8522
 2159TIP3   OH227891   0.912   1.337  16.895 -0.7866  0.2516  0.2903
 2159TIP3    H127892   0.842   1.279  16.925 -0.3378 -0.2129  0.4662
 2159TIP3    H227893   0.958   1.362  16.976 -0.7121  0.5025  0.1713
 2160TIP3   OH227894   1.606   0.658  14.616  0.3695 -0.6857 -0.0246
 2160TIP3    H127895   1.529   0.712  14.600  0.1663 -0.7312  0.7459
 2160TIP3    H227896   1.672   0.692  14.556  0.8694  1.7287  1.7486
 2161TIP3   OH227897   1.860   2.470  16.167  0.5448 -0.1482  0.0541
 2161TIP3    H127898   1.797   2.501  16.101  0.3319  0.5066  0.5491
 2161TIP3    H227899   1.835   2.517  16.247  1.5152 -0.0655  0.3170
 2162TIP3   OH227900   3.030   0.084  15.447  0.9536 -0.2724  0.0095
 2162TIP3    H127901   3.050   0.036  15.367  0.0532 -1.9107  0.7116
 2162TIP3    H227902   3.068   0.031  15.517  0.2079  0.1886  0.7896
 2163TIP3   OH227903   3.676   5.464   4.157 -0.3418 -0.4198 -0.8869
 2163TIP3    H127904   3.633   5.387   4.194  0.6773 -1.0094 -0.9100
 2163TIP3    H227905   3.697   5.440   4.067  1.0606 -0.5648 -0.5357
 2164TIP3   OH227906   5.372   4.263  15.437 -0.2198 -1.0243 -0.4327
 2164TIP3    H127907   5.410   4.287  15.522  1.8461 -0.7520 -1.3773
 2164TIP3    H227908   5.438   4.206  15.397 -0.0108  0.7952 -2.8726
 2165TIP3   OH227909   1.356   0.376  11.996  0.2930 -0.1439  0.2887
 2165TIP3    H127910   1.323   0.392  11.907 -1.1875 -1.0511  0.6388
 2165TIP3    H227911   1.446   0.407  11.994  0.2281  0.0331 -1.4755
 2166TIP3   OH227912   3.049   2.667   2.820 -0.6118 -0.5320  0.1064
 2166TIP3    H127913   3.101   2.606   2.872 -0.7544  0.4930  1.5111
 2166TIP3    H227914   2.960   2.634   2.826 -0.9705  0.6406  2.2480
 2167TIP3   OH227915   3.170   1.315  13.653  0.0278 -0.4528 -0.0222
 2167TIP3    H127916   3.212   1.350  13.732 -1.3276  0.4655  0.3377
 2167TIP3    H227917   3.121   1.239  13.684  1.3820 -1.5148 -0.4374
 2168TIP3   OH227918   2.341   1.723  13.491  0.3148 -0.0577 -0.0206
 2168TIP3    H127919   2.423   1.718  13.443  0.1399 -1.1109 -0.2502
 2168TIP3    H227920   2.367   1.725  13.583  0.6070 -0.4044 -0.0928
 2169TIP3   OH227921   6.360   4.114  14.799  0.0419 -0.5095  0.1029
 2169TIP3    H127922   6.328   4.203  14.809 -0.4580 -0.7922  1.2811
 2169TIP3    H227923   6.367   4.081  14.889  3.1929 -0.6382 -0.0627
 2170TIP3   OH227924   4.493   5.507  14.499  0.0198 -0.2261  0.2250
 2170TIP3    H127925   4.463   5.431  14.450 -1.7037  0.6463 -0.1432
 2170TIP3    H227926   4.419   5.530  14.556  0.9705  0.4346  1.2497
 2171TIP3   OH227927   6.550   2.188   2.373 -0.3743 -0.1880  0.3584
 2171TIP3    H127928   6.499   2.116   2.411  0.5371 -1.3691 -0.5866
 2171TIP3    H227929   6.635   2.183   2.416  0.8940 -1.9256 -2.0539
 2172TIP3   OH227930   5.059   1.521   6.157  0.2341  0.0301 -0.5144
 2172TIP3    H127931   5.140   1.548   6.113  0.3564  0.9989  0.2708
 2172TIP3    H227932   5.087   1.452   6.218  0.2904 -0.3460 -0.9606
 2173TIP3   OH227933   5.586   0.157  16.666 -0.0977 -0.1787  0.4168
 2173TIP3    H127934   5.620   0.186  16.750 -1.1757 -1.2032  1.2267
 2173TIP3    H227935   5.663   0.151  16.609  0.8719 -1.0567  1.7859
 2174TIP3   OH227936   1.067   6.560  11.976  0.3896 -0.5051 -0.7739
 2174TIP3    H127937   1.128   6.583  12.046  2.5856 -1.7559 -2.1600
 2174TIP3    H227938   1.087   6.468  11.956 -1.5194 -0.7578 -1.7640
 2175TIP3   OH227939   3.081   0.989   1.561  0.4056  0.2041 -0.4099
 2175TIP3    H127940   3.036   1.068   1.532  1.6171  1.4040  0.8079
 2175TIP3    H227941   3.109   0.945   1.481  1.7574  2.2502 -1.1246
 2176TIP3   OH227942   5.291   6.446   6.041  0.2346  0.0962  0.4804
 2176TIP3    H127943   5.363   6.384   6.027 -0.3894 -0.4664 -0.3312
 2176TIP3    H227944   5.335   6.531   6.048  1.2413 -0.5605  3.1882
 2177TIP3   OH227945   1.462   2.888  13.890  0.5628 -0.3798  1.0556
 2177TIP3    H127946   1.443   2.876  13.982  1.3313 -2.3069  1.0049
 2177TIP3    H227947   1.549   2.929  13.889 -0.3006  1.5454  1.1760
 2178TIP3   OH227948   2.128   5.151   3.212 -0.0931 -0.0205 -0.3165
 2178TIP3    H127949   2.197   5.142   3.146  0.8544  1.3803  0.4490
 2178TIP3    H227950   2.173   5.180   3.291 -1.5018  0.4708  0.3381
 2179TIP3   OH227951   1.056   2.108  11.089  0.1558  0.1460  0.2811
 2179TIP3    H127952   1.077   2.038  11.027 -0.8947 -1.3424  1.5028
 2179TIP3    H227953   0.986   2.157  11.047  0.1924 -0.1840 -0.1746
 2180TIP3   OH227954   4.229   1.682   1.055  0.2438 -0.4878 -0.0234
 2180TIP3    H127955   4.224   1.761   1.001 -1.4378 -0.8876 -0.4896
 2180TIP3    H227956   4.313   1.643   1.030  0.1715  0.0916 -1.2895
 2181TIP3   OH227957   3.314   1.023   2.205 -0.1403 -0.4135 -0.0153
 2181TIP3    H127958   3.315   1.119   2.207 -0.9571 -0.2470 -2.7220
 2181TIP3    H227959   3.234   1.001   2.155  1.3639 -2.3570 -1.7508
 2182TIP3   OH227960   2.646   5.795  16.994 -0.4903  0.2700  0.1012
 2182TIP3    H127961   2.709   5.728  16.966 -2.2934 -1.6569  0.3493
 2182TIP3    H227962   2.598   5.817  16.915 -0.1439  1.0123  0.0941
 2183TIP3   OH227963   5.357   0.201   0.808 -0.3257 -0.1594  0.1726
 2183TIP3    H127964   5.365   0.284   0.761  0.5097  0.1679  0.8694
 2183TIP3    H227965   5.301   0.221   0.882 -0.4295 -0.3163  0.1376
 2184TIP3   OH227966   3.777   3.132   0.970 -0.1418 -0.1186  0.1266
 2184TIP3    H127967   3.824   3.207   1.006  0.1008 -0.5491  0.7364
 2184TIP3    H227968   3.825   3.109   0.891 -1.7749  2.0069 -1.5960
 2185TIP3   OH227969   1.991   0.353  14.889 -0.2362 -0.8736 -0.3237
 2185TIP3    H127970   1.964   0.322  14.975 -0.8192 -2.1942 -0.9603
 2185TIP3    H227971   1.915   0.337  14.833 -0.1157  0.6088 -0.9558
 2186TIP3   OH227972   4.960   1.778   5.190 -0.1652 -0.3058 -0.1406
 2186TIP3    H127973   4.886   1.778   5.251  0.3101 -0.3381  0.4560
 2186TIP3    H227974   4.943   1.705   5.131 -1.2549  0.4875 -0.8348
 2187TIP3   OH227975   1.482   3.538   2.882  0.6181  0.5843 -0.5462
 2187TIP3    H127976   1.437   3.609   2.928  1.8087  1.2748 -0.4043
 2187TIP3    H227977   1.567   3.576   2.858  1.1642 -0.7158 -0.7088
 2188TIP3   OH227978   2.438   5.885   0.579  0.1823 -0.0136 -0.6119
 2188TIP3    H127979   2.448   5.948   0.508  0.0982  0.5002 -0.1730
 2188TIP3    H227980   2.375   5.926   0.639  2.8462  1.2022  1.5430
 2189TIP3   OH227981   5.882   5.303   2.166  0.0859 -0.0265 -0.0808
 2189TIP3    H127982   5.857   5.212   2.155  0.3774 -0.1094 -0.0489
 2189TIP3    H227983   5.926   5.326   2.084 -1.1195  0.4600 -0.6206
 2190TIP3   OH227984   3.535   0.025   4.173 -0.5473  0.3616  0.1857
 2190TIP3    H127985   3.627   0.038   4.196 -0.0845  1.2947 -1.8819
 2190TIP3    H227986   3.504  -0.045   4.231  0.8677  1.4421  2.3160
 2191TIP3   OH227987   3.896   2.312  17.019 -0.1949 -0.1929  0.0515
 2191TIP3    H127988   3.800   2.314  17.029 -0.1598  0.1194  0.3356
 2191TIP3    H227989   3.921   2.404  17.016 -0.0543 -0.2494 -1.5135
 2192TIP3   OH227990   4.093   2.387  15.150  0.0529 -0.1072 -0.5844
 2192TIP3    H127991   4.005   2.423  15.139 -0.8798 -1.5610  1.4316
 2192TIP3    H227992   4.149   2.463  15.165 -0.5231  0.9706 -3.2722
 2193TIP3   OH227993   5.332   6.185   5.259  0.1524  0.4271 -0.3629
 2193TIP3    H127994   5.278   6.107   5.256 -0.6009  0.9487 -0.5179
 2193TIP3    H227995   5.419   6.153   5.282 -0.1376 -0.4574 -0.4744
 2194TIP3   OH227996   3.131   3.771  11.671  0.2196 -0.3414 -0.3281
 2194TIP3    H127997   3.116   3.850  11.618  0.5956  0.7650  1.1313
 2194TIP3    H227998   3.186   3.801  11.743 -2.2906 -1.1369  2.1135
 2195TIP3   OH227999   4.375   4.767   3.675 -0.4888 -0.0423 -0.2517
 2195TIP3    H128000   4.463   4.772   3.639 -1.1803 -1.3503 -2.2905
 2195TIP3    H228001   4.381   4.812   3.760  2.3761 -1.1201  0.2309
 2196TIP3   OH228002   1.429   0.878   3.463  0.0072  0.2802 -0.0717
 2196TIP3    H128003   1.397   0.913   3.546 -1.1778  0.3375 -0.5233
 2196TIP3    H228004   1.404   0.944   3.398  2.9363  1.3476 -0.2501
 2197TIP3   OH228005   0.183   1.223  11.329 -0.7633  0.3802  0.4526
 2197TIP3    H128006   0.267   1.255  11.295 -1.0316 -0.1833 -0.8090
 2197TIP3    H228007   0.205   1.181  11.412  0.0691  0.9910  0.5606
 2198TIP3   OH228008   3.289   5.354   5.320 -0.2257  0.0739  0.5997
 2198TIP3    H128009   3.285   5.449   5.307  0.1624  0.0724  0.4549
 2198TIP3    H228010   3.198   5.325   5.309 -0.0860  0.1938 -1.3173
 2199TIP3   OH228011   2.211   4.438  12.659  0.3475 -0.0467 -1.1312
 2199TIP3    H128012   2.272   4.395  12.598  0.6082 -0.1286 -0.8134
 2199TIP3    H228013   2.222   4.390  12.741  0.5950  0.5918 -0.7861
 2200TIP3   OH228014   5.584   5.448  16.002  0.0361 -0.3387  0.0890
 2200TIP3    H128015   5.591   5.513  16.072  0.4380  0.5339 -0.7292
 2200TIP3    H228016   5.641   5.376  16.029  0.1977 -0.0072  0.6448
 2201TIP3   OH228017   2.440   0.784   0.532  0.2628  0.4125 -0.9771
 2201TIP3    H128018   2.494   0.724   0.584 -0.3305  0.2664 -0.5174
 2201TIP3    H228019   2.428   0.740   0.448  0.7663  0.3979 -1.0440
 2202TIP3   OH228020   6.206   4.005   6.202 -0.0452  0.1168  0.8948
 2202TIP3    H128021   6.216   4.062   6.126  2.0453  0.0296  1.0440
 2202TIP3    H228022   6.143   4.050   6.258  0.4629  1.5606  0.3574
 2203TIP3   OH228023   3.057   4.525   5.579  0.2928  0.4109 -0.0953
 2203TIP3    H128024   3.029   4.470   5.504  0.4010 -2.3410  1.7322
 2203TIP3    H228025   3.126   4.474   5.621 -1.3452  0.6554  3.2069
 2204TIP3   OH228026   0.340   3.866  16.085  0.1471  0.1229  0.5172
 2204TIP3    H128027   0.363   3.780  16.050 -0.9785 -0.9302  2.1897
 2204TIP3    H228028   0.246   3.874  16.068 -0.0512  0.3562  1.6567
 2205TIP3   OH228029   1.929   6.533  10.471  0.3735 -0.2621  0.1156
 2205TIP3    H128030   1.929   6.609  10.413 -0.2537 -0.6762 -0.4508
 2205TIP3    H228031   2.021   6.505  10.474  0.6739  0.7631  0.6725
 2206TIP3   OH228032   6.363   0.603  12.369  0.1829  0.1828  0.4869
 2206TIP3    H128033   6.280   0.650  12.372 -0.4815 -0.8862 -0.3260
 2206TIP3    H228034   6.343   0.516  12.402  0.6688 -0.4811 -0.8701
 2207TIP3   OH228035   6.352   1.726   0.960 -0.0377 -0.1607 -0.3099
 2207TIP3    H128036   6.391   1.643   0.987 -2.4609 -1.1638  0.4301
 2207TIP3    H228037   6.414   1.793   0.989  0.5474 -1.5595  1.9393
 2208TIP3   OH228038   2.015   5.420  15.992  0.2474  0.2076  0.0351
 2208TIP3    H128039   2.011   5.448  15.900  1.3281 -3.0828 -1.1581
 2208TIP3    H228040   2.106   5.435  16.017  0.4697 -0.7403 -0.1510
 2209TIP3   OH228041   0.333   4.606  14.380  0.4528 -0.1113  0.3506
 2209TIP3    H128042   0.341   4.528  14.435  0.5155 -0.6907 -0.4668
 2209TIP3    H228043   0.387   4.672  14.424  0.8016 -0.6738  0.7838
 2210TIP3   OH228044   2.730   6.192  12.333  0.0109 -0.0329  0.0448
 2210TIP3    H128045   2.742   6.280  12.367  0.6913 -0.4563  0.9395
 2210TIP3    H228046   2.638   6.188  12.309 -0.0330  0.9097  0.0113
 2211TIP3   OH228047   1.760   3.423   1.024 -0.1105 -0.2741  0.2611
 2211TIP3    H128048   1.723   3.491   1.080 -0.2182  0.7396 -1.0052
 2211TIP3    H228049   1.807   3.366   1.085 -1.4160 -0.0257  1.5488
 2212TIP3   OH228050   2.121   2.998  12.747  0.7852  0.0492 -0.0438
 2212TIP3    H128051   2.029   2.983  12.724  0.7400 -0.3535  0.3833
 2212TIP3    H228052   2.168   2.989  12.664  0.1397  3.3183 -0.9277
 2213TIP3   OH228053   6.296   6.303  13.360  0.4471 -0.0366  0.2665
 2213TIP3    H128054   6.267   6.356  13.434  0.5791 -0.9978  1.0240
 2213TIP3    H228055   6.327   6.367  13.295 -0.9890  0.8965  0.4497
 2214TIP3   OH228056   2.305   2.104  16.089 -0.0384  0.3359 -0.5196
 2214TIP3    H128057   2.337   2.105  16.179 -1.3048  0.2668 -0.0559
 2214TIP3    H228058   2.229   2.162  16.090 -0.1844  0.1804 -1.5052
 2215TIP3   OH228059   2.906   0.708  13.909 -0.5545  0.0198 -0.1572
 2215TIP3    H128060   2.843   0.734  13.841 -2.0195  0.6282  1.3770
 2215TIP3    H228061   2.855   0.660  13.973  0.5751  0.3807  1.0696
 2216TIP3   OH228062   4.338   5.558   1.932  0.0418 -0.4677 -0.5081
 2216TIP3    H128063   4.306   5.581   2.020 -2.9363  0.0076 -1.5744
 2216TIP3    H228064   4.330   5.640   1.883 -0.0468 -1.1503 -1.6499
 2217TIP3   OH228065   4.185   0.823  16.261 -0.0176 -0.0699  1.3000
 2217TIP3    H128066   4.141   0.901  16.227  0.7294 -0.3523 -0.4196
 2217TIP3    H228067   4.131   0.750  16.229  0.7236 -0.3451  0.6498
 2218TIP3   OH228068   3.978   6.095  13.103  0.0071  0.1347 -0.2658
 2218TIP3    H128069   4.058   6.134  13.138 -0.4518  0.2107  0.7592
 2218TIP3    H228070   3.931   6.168  13.064  0.2094  0.1854 -0.4150
 2219TIP3   OH228071   4.064   0.553   3.699  0.2417  0.4079  0.2257
 2219TIP3    H128072   3.996   0.532   3.763  0.3753 -1.3561 -0.1673
 2219TIP3    H228073   4.106   0.470   3.680 -0.5659  0.5866 -3.0434
 2220TIP3   OH228074   4.689   6.635  15.097 -0.5646  0.1873  0.4147
 2220TIP3    H128075   4.680   6.730  15.106  0.2216  0.6405 -2.4265
 2220TIP3    H228076   4.608   6.599  15.134 -1.3823  2.0508  0.5308
 2221TIP3   OH228077   5.835   3.953   6.033 -0.0693 -0.0455 -0.6105
 2221TIP3    H128078   5.793   3.869   6.017 -1.7257  0.2642  1.5005
 2221TIP3    H228079   5.893   3.937   6.108  0.4768  0.4346 -0.9248
 2222TIP3   OH228080   5.353   6.303   2.551 -0.1437 -0.3641  0.1314
 2222TIP3    H128081   5.322   6.390   2.577 -1.2383 -0.8166  0.3987
 2222TIP3    H228082   5.274   6.251   2.540  0.4807 -1.2633 -0.2984
 2223TIP3   OH228083   1.665   2.388  15.301 -0.0069  0.1607  0.3896
 2223TIP3    H128084   1.708   2.468  15.332 -2.2239  2.1293 -1.2095
 2223TIP3    H228085   1.661   2.332  15.378  2.5774  1.1009  1.3150
 2224TIP3   OH228086   3.726   6.333   1.318 -0.2415  0.0970 -0.2383
 2224TIP3    H128087   3.706   6.242   1.340  1.2363 -0.0588  0.6063
 2224TIP3    H228088   3.641   6.375   1.307 -0.9500 -1.5132 -1.2139
 2225TIP3   OH228089   3.360   5.905  12.421 -0.1521  0.6997  0.7959
 2225TIP3    H128090   3.309   5.984  12.437 -1.5501 -0.3474  1.8127
 2225TIP3    H228091   3.308   5.835  12.460  1.2025 -0.6856  0.2245
 2226TIP3   OH228092   6.365   6.575  11.761 -0.1220 -0.0168 -0.0486
 2226TIP3    H128093   6.400   6.523  11.688  0.6227 -0.7198  0.7918
 2226TIP3    H228094   6.422   6.652  11.764  0.1815 -0.2460  0.1230
 2227TIP3   OH228095   2.778   2.550   3.976  0.6795 -0.6761  0.0683
 2227TIP3    H128096   2.798   2.598   4.056  0.3828  0.2880 -0.4244
 2227TIP3    H228097   2.862   2.516   3.946  1.2160  1.1580 -0.5964
 2228TIP3   OH228098   1.925   2.096  16.951  0.2076  0.3266 -0.0733
 2228TIP3    H128099   1.864   2.022  16.952 -0.7202  1.0664 -0.0130
 2228TIP3    H228100   1.930   2.123  17.042  0.6209  0.2766 -0.0831
 2229TIP3   OH228101   4.698   2.387  12.502 -0.1242  0.2215 -0.7569
 2229TIP3    H128102   4.747   2.450  12.450  0.5854 -0.3703 -0.8314
 2229TIP3    H228103   4.621   2.367  12.450 -0.1702  0.7455 -0.8956
 2230TIP3   OH228104   6.614   3.482  15.774  0.6513 -0.2962  0.6419
 2230TIP3    H128105   6.699   3.504  15.735 -1.1326  2.7106 -2.1803
 2230TIP3    H228106   6.589   3.399  15.734 -0.4526  1.9827 -4.2152
 2231TIP3   OH228107   3.524   4.801  11.610 -0.5251  0.3378 -0.0681
 2231TIP3    H128108   3.514   4.706  11.609 -0.5963  0.3110 -2.4772
 2231TIP3    H228109   3.599   4.818  11.554  0.5888  1.6662  1.7015
 2232TIP3   OH228110   6.088   0.492   0.727  0.0650  0.2208 -0.4857
 2232TIP3    H128111   6.165   0.546   0.742 -0.3431  0.0116  3.3802
 2232TIP3    H228112   6.103   0.413   0.778 -0.8680 -1.9039 -3.2402
 2233TIP3   OH228113   2.812   6.308  13.379 -0.1476  0.2415  0.1470
 2233TIP3    H128114   2.749   6.270  13.440 -0.2180 -0.3566 -0.2892
 2233TIP3    H228115   2.779   6.283  13.292 -0.7044  2.0724 -0.2033
 2234TIP3   OH228116   4.934   5.383  14.547  0.0647 -0.1536 -0.5553
 2234TIP3    H128117   4.896   5.470  14.543 -0.2378 -0.2087  0.6868
 2234TIP3    H228118   4.959   5.372  14.639  1.1120 -0.9519 -0.9162
 2235TIP3   OH228119   4.204   5.102   1.561 -0.5649 -0.2609  0.6179
 2235TIP3    H128120   4.254   5.112   1.642 -1.1239  0.6694  0.8789
 2235TIP3    H228121   4.256   5.147   1.495 -0.3385 -0.5982  0.5693
 2236TIP3   OH228122   0.292   5.575   6.301  0.1235 -0.5905 -0.1151
 2236TIP3    H128123   0.373   5.613   6.268 -0.6635  1.8724  0.5820
 2236TIP3    H228124   0.318   5.528   6.380  0.9507 -0.3788 -0.2545
 2237TIP3   OH228125   2.287   6.293   6.165 -0.3609  0.0527  0.2404
 2237TIP3    H128126   2.287   6.353   6.090  1.3776 -1.3909 -0.9899
 2237TIP3    H228127   2.238   6.340   6.233  0.3083  2.5491 -0.8821
 2238TIP3   OH228128   2.645   4.601  11.549 -0.1581 -0.1833  0.2989
 2238TIP3    H128129   2.637   4.601  11.645 -2.9027 -1.7136  0.1719
 2238TIP3    H228130   2.643   4.694  11.526  1.2937  0.2557  1.7177
 2239TIP3   OH228131   2.044   4.161  16.777  0.0128  0.8640  0.2064
 2239TIP3    H128132   1.987   4.214  16.832 -0.0657  1.2876 -0.2718
 2239TIP3    H228133   2.007   4.169  16.689  2.7697  4.1592 -0.8739
 2240TIP3   OH228134   4.222   2.803  12.083 -0.4514  0.2191 -0.5893
 2240TIP3    H128135   4.185   2.888  12.058 -2.3696 -0.0957  0.8962
 2240TIP3    H228136   4.168   2.775  12.157  1.3078 -1.4613  0.1372
 2241TIP3   OH228137   0.067   3.407  17.139  0.4674 -0.2706 -0.6232
 2241TIP3    H128138   0.111   3.479  17.185  0.7867 -1.0997  0.4138
 2241TIP3    H228139  -0.013   3.446  17.104 -0.1196  0.2769  1.2037
 2242TIP3   OH228140   6.162   0.467  12.946  0.5240 -0.5403 -0.2562
 2242TIP3    H128141   6.086   0.494  12.894  0.1230 -1.0938  0.0394
 2242TIP3    H228142   6.237   0.502  12.897  0.0052  3.1795  1.2746
 2243TIP3   OH228143   2.066   0.114  14.711  0.4595 -0.6902 -0.0569
 2243TIP3    H128144   2.082   0.169  14.634 -0.0330 -0.5312 -0.0459
 2243TIP3    H228145   1.979   0.077  14.696  0.5554 -1.0292  0.2053
 2244TIP3   OH228146   2.111   0.397   6.138  0.1638 -0.4927 -0.5372
 2244TIP3    H128147   2.198   0.374   6.169  0.1566 -0.9306 -0.8331
 2244TIP3    H228148   2.054   0.327   6.171 -0.8500  1.8103  3.2198
 2245TIP3   OH228149   1.163   1.303  11.859  0.3622  0.1361  0.1270
 2245TIP3    H128150   1.250   1.336  11.839  1.1140 -2.2061 -0.8283
 2245TIP3    H228151   1.114   1.312  11.776  0.5274 -0.9221 -0.0954
 2246TIP3   OH228152   4.339   4.625   5.562  0.1883  0.0773 -0.6916
 2246TIP3    H128153   4.360   4.548   5.510 -1.2706 -2.3543  2.0355
 2246TIP3    H228154   4.411   4.632   5.626 -1.2919 -1.1799  1.2143
 2247TIP3   OH228155   6.133   6.604   2.716  0.0778 -0.3107 -0.1700
 2247TIP3    H128156   6.202   6.547   2.752  0.6222  0.2244 -0.3477
 2247TIP3    H228157   6.165   6.693   2.730 -0.5484 -0.0547 -0.3298
 2248TIP3   OH228158   2.741   4.886  14.586  0.2178  0.4785 -0.0457
 2248TIP3    H128159   2.674   4.917  14.525  0.5600  1.2194 -0.0579
 2248TIP3    H228160   2.713   4.920  14.671 -0.3511 -0.6978  0.2614
 2249TIP3   OH228161   0.660   2.346  16.751 -0.3019 -0.5299  0.0282
 2249TIP3    H128162   0.679   2.423  16.697 -0.1414 -0.6550 -0.0945
 2249TIP3    H228163   0.584   2.306  16.709  0.3888 -1.1509 -0.6621
 2250TIP3   OH228164   0.808   4.891   1.176  0.6341  0.1538 -1.0502
 2250TIP3    H128165   0.878   4.948   1.207  1.3988 -1.5092  0.4060
 2250TIP3    H228166   0.851   4.831   1.115 -0.4458  1.9581 -3.8334
 2251TIP3   OH228167   1.522   0.360   4.019 -0.0639 -0.2295 -0.4204
 2251TIP3    H128168   1.590   0.321   4.074 -0.3169 -0.7686 -0.4772
 2251TIP3    H228169   1.466   0.409   4.080  0.2219 -0.0059 -0.3378
 2252TIP3   OH228170   5.248   0.856  11.614 -0.5131 -0.3885  0.0990
 2252TIP3    H128171   5.246   0.950  11.633  1.2258 -0.6669  1.9099
 2252TIP3    H228172   5.206   0.815  11.690  0.4502 -1.1768  0.2168
 2253TIP3   OH228173   1.595   4.282   0.121  0.1817  0.3822  0.1465
 2253TIP3    H128174   1.637   4.368   0.123 -0.5096  0.7785 -1.1361
 2253TIP3    H228175   1.574   4.267   0.029 -1.6186 -0.2061  0.5932
 2254TIP3   OH228176   3.504   0.686  11.945  0.1178 -0.3194 -0.1858
 2254TIP3    H128177   3.418   0.694  11.987  0.0053 -0.9382 -0.2911
 2254TIP3    H228178   3.552   0.763  11.975 -0.5243  0.1144 -0.2432
 2255TIP3   OH228179   5.543   0.769  11.197  0.3347 -0.7891 -0.2591
 2255TIP3    H128180   5.554   0.705  11.127 -1.1450 -1.0617 -0.2611
 2255TIP3    H228181   5.623   0.821  11.194  1.2062 -2.1070 -0.7919
 2256TIP3   OH228182   5.940   6.442  11.712 -0.5322  0.0538 -0.9028
 2256TIP3    H128183   6.013   6.504  11.706 -0.6204  0.2200 -0.3356
 2256TIP3    H228184   5.866   6.495  11.742  0.0482 -0.7747  2.3693
 2257TIP3   OH228185   3.256   1.471  16.311  0.8578 -0.2508  0.0061
 2257TIP3    H128186   3.242   1.535  16.241  1.9975  0.4191  0.3591
 2257TIP3    H228187   3.217   1.391  16.278 -0.6682  0.6251 -0.4271
 2258TIP3   OH228188   0.890   2.323  17.096 -1.0062  0.3896 -0.1556
 2258TIP3    H128189   0.984   2.325  17.077 -0.8005 -0.9022  0.6039
 2258TIP3    H228190   0.884   2.341  17.190 -1.3847 -0.9744  0.1029
 2259TIP3   OH228191   0.515   2.308   3.381  0.0242 -0.0069 -0.5974
 2259TIP3    H128192   0.572   2.232   3.374  0.9832  0.6048  0.2181
 2259TIP3    H228193   0.560   2.366   3.443 -2.2313 -0.1987  1.3736
 2260TIP3   OH228194   2.377   2.914   1.200  0.6143  0.8018 -0.0907
 2260TIP3    H128195   2.334   2.946   1.279 -2.3981  1.1781 -1.7529
 2260TIP3    H228196   2.468   2.942   1.209  0.5924  0.1903  3.5225
 2261TIP3   OH228197   0.286   2.892   2.415 -0.0511 -0.5837 -0.2031
 2261TIP3    H128198   0.337   2.925   2.340  0.5102  0.0408  0.4367
 2261TIP3    H228199   0.199   2.875   2.379  0.3239 -0.6744 -1.0897
 2262TIP3   OH228200   2.573   3.297   2.806 -0.2581  0.0080  0.5892
 2262TIP3    H128201   2.610   3.217   2.844  1.3462 -1.0552 -2.7365
 2262TIP3    H228202   2.637   3.365   2.826 -0.3765 -0.0951  1.3317
 2263TIP3   OH228203   3.494   1.239  15.995 -0.9570  0.3357  0.2736
 2263TIP3    H128204   3.448   1.247  15.912 -1.4904 -0.0808  0.5283
 2263TIP3    H228205   3.522   1.328  16.016  0.1623  0.2871 -0.9003
 2264TIP3   OH228206   3.644   1.113   5.442  0.0373  0.0097  0.4157
 2264TIP3    H128207   3.664   1.204   5.418  2.4399 -0.0382  1.9160
 2264TIP3    H228208   3.628   1.116   5.536 -0.2798 -1.0858  0.4100
 2265TIP3   OH228209   4.695   5.688   2.904  0.4672 -0.3482  0.1108
 2265TIP3    H128210   4.727   5.714   2.991  0.3192  0.1346  0.0231
 2265TIP3    H228211   4.773   5.658   2.858  0.3218 -2.0123  0.9020
 2266TIP3   OH228212   0.593   3.801  14.494  0.1051  0.3495 -0.1505
 2266TIP3    H128213   0.681   3.818  14.461 -0.0350 -1.6727 -1.7814
 2266TIP3    H228214   0.542   3.778  14.416 -1.8586  1.2685  0.7679
 2267TIP3   OH228215   6.527   3.311   1.181 -0.2915 -0.6510  0.3527
 2267TIP3    H128216   6.450   3.324   1.125  0.2438 -1.2398 -0.5519
 2267TIP3    H228217   6.493   3.317   1.270 -1.3153 -0.5017 -0.0271
 2268TIP3   OH228218   0.272   1.262  10.485 -0.2308 -0.2383 -0.5435
 2268TIP3    H128219   0.213   1.334  10.461  1.9474  1.5335 -0.9905
 2268TIP3    H228220   0.304   1.286  10.572 -1.4940 -2.1278  0.4944
 2269TIP3   OH228221   1.120   4.454  13.524  0.0194  0.7128  0.3895
 2269TIP3    H128222   1.181   4.507  13.576  1.9732 -0.6203 -0.4044
 2269TIP3    H228223   1.075   4.516  13.468  1.2788  1.6879  0.4228
 2270TIP3   OH228224   1.646   3.500  14.066 -0.1999  0.5584  0.3265
 2270TIP3    H128225   1.670   3.498  13.973 -1.4419  1.7039 -0.0451
 2270TIP3    H228226   1.597   3.419  14.080  0.8891 -0.1360  0.2699
 2271TIP3   OH228227   2.934   4.926   2.552 -0.4251  0.3637  0.5252
 2271TIP3    H128228   2.841   4.908   2.557 -0.4086 -0.1012 -0.6448
 2271TIP3    H228229   2.974   4.844   2.523  0.4184  0.3886  1.5552
 2272TIP3   OH228230   3.017   2.706  15.322 -0.0665 -0.7591  0.1040
 2272TIP3    H128231   2.996   2.615  15.298 -1.0599 -0.8140  1.0674
 2272TIP3    H228232   2.937   2.738  15.364  0.6280  0.2351  0.6939
 2273TIP3   OH228233   3.906   0.800  16.159 -0.1164 -0.5420  0.3144
 2273TIP3    H128234   3.934   0.882  16.119 -1.0559 -0.2488  0.2281
 2273TIP3    H228235   3.818   0.818  16.192 -0.2205 -1.4267  0.5542
 2274TIP3   OH228236   0.464   1.658   1.059  0.2293 -0.1934  0.3647
 2274TIP3    H128237   0.370   1.647   1.075 -0.3117  0.6510 -1.8464
 2274TIP3    H228238   0.491   1.725   1.122 -0.6049 -0.5568  1.1295
 2275TIP3   OH228239   4.416   6.600   1.037  0.3443  0.1727  0.6786
 2275TIP3    H128240   4.504   6.573   1.011  1.2053  1.0733  2.4641
 2275TIP3    H228241   4.424   6.693   1.057 -1.6942  0.9807 -1.7054
 2276TIP3   OH228242   1.099   2.787  11.983 -0.1985 -0.1578 -0.0440
 2276TIP3    H128243   1.113   2.790  12.078  3.1250 -0.6811 -0.3761
 2276TIP3    H228244   1.101   2.694  11.962 -4.1553 -0.3333 -0.4148
 2277TIP3   OH228245   4.470   2.585  13.282 -0.3860 -0.2128 -0.8189
 2277TIP3    H128246   4.458   2.629  13.198 -1.8886 -0.1851 -0.6050
 2277TIP3    H228247   4.438   2.496  13.268  0.0967 -0.4457 -0.4882
 2278TIP3   OH228248   3.411   2.065  11.249 -0.1545 -0.0104 -0.1935
 2278TIP3    H128249   3.438   2.143  11.200 -0.6096  0.3292  0.0786
 2278TIP3    H228250   3.336   2.031  11.199 -0.2191 -0.0285 -0.0855
 2279TIP3   OH228251   4.017   3.346   5.512  0.5880 -0.3855  0.2985
 2279TIP3    H128252   3.929   3.344   5.474 -0.6710 -0.2871  2.9349
 2279TIP3    H228253   4.073   3.377   5.442 -1.8015  1.5334 -0.9162
 2280TIP3   OH228254   2.707   4.025   3.582  0.1048  0.4078  0.7101
 2280TIP3    H128255   2.775   4.092   3.590 -0.9006  1.3339  1.9515
 2280TIP3    H228256   2.680   4.008   3.672 -3.8684  2.8023  0.1989
 2281TIP3   OH228257   0.408   3.926   3.547  0.5371  0.5673  0.3420
 2281TIP3    H128258   0.451   3.993   3.600  0.2628  1.3674 -0.4249
 2281TIP3    H228259   0.477   3.862   3.528  1.2824  1.5559 -0.4260
 2282TIP3   OH228260   5.666   4.085  14.612 -0.0753  0.0410 -0.0883
 2282TIP3    H128261   5.585   4.136  14.618  0.4705  0.9502 -0.1653
 2282TIP3    H228262   5.685   4.082  14.519  0.7490  1.1060  0.0304
 2283TIP3   OH228263   2.995   2.074  15.711  0.3272  0.4249  0.1480
 2283TIP3    H128264   3.014   2.163  15.738 -1.0754  1.0181 -0.6599
 2283TIP3    H228265   2.919   2.048  15.764  0.1040  0.0935 -0.3222
 2284TIP3   OH228266   2.570   6.056  11.629  0.0243 -0.1973 -0.5397
 2284TIP3    H128267   2.591   6.039  11.721  0.4943  1.1276 -0.3901
 2284TIP3    H228268   2.547   5.969  11.594  2.3042 -1.1513  0.1761
 2285TIP3   OH228269   4.682   6.723   0.275 -0.3250  0.2679 -0.0812
 2285TIP3    H128270   4.641   6.806   0.298 -0.8461  0.3185 -1.1366
 2285TIP3    H228271   4.761   6.747   0.227  1.6160  0.1970  2.8313
 2286TIP3   OH228272   2.774   4.773   1.772  0.1878  0.3011 -0.4226
 2286TIP3    H128273   2.809   4.817   1.850  0.3649  1.5542 -1.1852
 2286TIP3    H228274   2.783   4.680   1.792 -0.0254  0.5789  1.1679
 2287TIP3   OH228275   2.531   2.222   5.699  0.4074  0.7793 -0.5292
 2287TIP3    H128276   2.581   2.301   5.723 -0.4568  0.3291  3.4555
 2287TIP3    H228277   2.440   2.244   5.722 -0.4582 -0.2786 -2.6361
 2288TIP3   OH228278   1.095   6.339   2.130 -0.5267  0.3615  0.1155
 2288TIP3    H128279   1.047   6.406   2.082 -0.6793 -0.6994 -1.2939
 2288TIP3    H228280   1.041   6.260   2.121 -0.5038  0.0842  1.9692
 2289TIP3   OH228281   3.220   3.545   0.096 -0.1538 -0.4252  1.5041
 2289TIP3    H128282   3.249   3.598   0.171 -0.6616  0.7687  0.8829
 2289TIP3    H228283   3.144   3.497   0.130 -0.5846  0.3585  1.6900
 2290TIP3   OH228284   5.105   4.656  11.068  0.7753  0.0301 -0.2948
 2290TIP3    H128285   5.053   4.612  11.136  0.6963  0.5647 -0.0097
 2290TIP3    H228286   5.109   4.747  11.095  0.0186  0.4274 -1.4540
 2291TIP3   OH228287   2.089   0.614  16.562 -0.0379 -0.2153 -0.5897
 2291TIP3    H128288   2.160   0.615  16.626  0.6872 -1.1099 -1.3670
 2291TIP3    H228289   2.090   0.526  16.526 -0.9741  0.0314 -1.2551
 2292TIP3   OH228290   0.830   1.900  11.094  0.2575 -0.4280  0.0849
 2292TIP3    H128291   0.784   1.826  11.056  0.6795  0.2564 -1.9089
 2292TIP3    H228292   0.914   1.902  11.048  0.5399  0.8391  0.6061
 2293TIP3   OH228293   1.822   1.529   2.657  0.2463 -0.1758 -0.3822
 2293TIP3    H128294   1.895   1.469   2.674 -0.0571 -0.8581 -1.3616
 2293TIP3    H228295   1.847   1.610   2.701  1.0724 -0.7481  0.2429
 2294TIP3   OH228296   3.004   3.195   4.333 -0.1654  0.4372  0.3847
 2294TIP3    H128297   2.995   3.197   4.238 -0.5435  0.0286  0.4093
 2294TIP3    H228298   3.036   3.107   4.353 -2.3268 -0.3260  0.8032
 2295TIP3   OH228299   5.269   4.261   3.139 -0.2015 -0.5203 -0.3323
 2295TIP3    H128300   5.230   4.329   3.084 -0.2722 -1.1148 -1.0334
 2295TIP3    H228301   5.350   4.300   3.173 -0.8175  0.3154  0.2112
 2296TIP3   OH228302   3.717   6.414   4.904  0.3014 -0.8896 -0.0998
 2296TIP3    H128303   3.675   6.357   4.969 -0.2295 -1.0330 -0.5595
 2296TIP3    H228304   3.756   6.485   4.955 -1.3964 -0.1793  0.2627
 2297TIP3   OH228305   5.372   2.959  14.793 -0.0686 -0.7664 -0.4530
 2297TIP3    H128306   5.439   2.970  14.861 -0.7253 -0.2152  0.1170
 2297TIP3    H228307   5.295   3.003  14.828 -0.8822 -1.8011 -0.9017
 2298TIP3   OH228308   3.534   0.268   0.238  0.0462 -0.0710  0.1255
 2298TIP3    H128309   3.539   0.355   0.279 -0.7199  1.0093 -1.9212
 2298TIP3    H228310   3.624   0.249   0.213  0.3597 -0.2976  1.3394
 2299TIP3   OH228311   3.715   5.691  16.900 -0.4393  0.2700 -0.7967
 2299TIP3    H128312   3.758   5.662  16.819 -2.7784  0.2822 -2.1407
 2299TIP3    H228313   3.662   5.616  16.927 -0.1233  0.4718  0.4133
 2300TIP3   OH228314   6.606   1.760  13.190  0.3793  0.0428 -0.3666
 2300TIP3    H128315   6.576   1.728  13.275  3.5793 -3.0667 -0.1778
 2300TIP3    H228316   6.569   1.699  13.127 -0.0906  0.9528 -0.9918
 2301TIP3   OH228317   5.262   3.559   1.289 -0.0363 -0.0665  0.2130
 2301TIP3    H128318   5.187   3.562   1.230 -0.8841  0.8311  1.2824
 2301TIP3    H228319   5.241   3.486   1.349 -0.6778  0.9335  1.2546
 2302TIP3   OH228320   2.256   4.945   2.268  0.4337  0.1027  0.1303
 2302TIP3    H128321   2.199   5.022   2.269  1.8708  1.1868  0.2307
 2302TIP3    H228322   2.318   4.960   2.338  1.5764 -0.5026 -0.7265
 2303TIP3   OH228323   1.332   2.687   5.814 -0.2895  0.2031 -0.0557
 2303TIP3    H128324   1.273   2.616   5.788  0.7761 -0.8525  0.2910
 2303TIP3    H228325   1.365   2.660   5.900  2.3635 -0.3697 -1.1598
 2304TIP3   OH228326   2.711   0.539  12.281 -0.7954 -0.6916  0.3531
 2304TIP3    H128327   2.663   0.619  12.261  0.2463 -0.4936 -1.6957
 2304TIP3    H228328   2.800   0.555  12.248 -0.5245 -2.6369 -0.0195
 2305TIP3   OH228329   1.710   2.788  11.548  0.0678  0.1698 -0.0605
 2305TIP3    H128330   1.642   2.760  11.609  2.4545  1.7580  3.6787
 2305TIP3    H228331   1.785   2.733  11.568  1.6629  2.2989  0.1700
 2306TIP3   OH228332   4.429   2.585   5.000  0.4533  0.2267 -0.0551
 2306TIP3    H128333   4.386   2.500   5.001  1.2479 -0.1808  0.0357
 2306TIP3    H228334   4.357   2.648   5.005 -0.0855 -0.4551  1.3250
 2307TIP3   OH228335   5.362   0.090  14.570 -0.3547  0.1592 -0.0580
 2307TIP3    H128336   5.402   0.101  14.656  0.5896  1.3096 -0.6132
 2307TIP3    H228337   5.297   0.021  14.582 -0.0338  0.0980  1.4994
 2308TIP3   OH228338   2.123   5.477   1.949  0.9175  0.4476 -0.2305
 2308TIP3    H128339   2.186   5.467   1.879  0.1961 -0.1672 -0.8130
 2308TIP3    H228340   2.132   5.568   1.978  1.5842  0.5519 -0.7590
 2309TIP3   OH228341   5.041   1.589   3.054 -0.4575 -0.0078  0.0933
 2309TIP3    H128342   5.053   1.544   2.970 -1.9181 -1.0406  0.3922
 2309TIP3    H228343   4.947   1.608   3.057 -0.0178  2.5224  0.2908
 2310TIP3   OH228344   0.421   0.707  15.364 -0.1841  0.1753  0.0781
 2310TIP3    H128345   0.336   0.667  15.382 -0.4662  0.0054 -1.5267
 2310TIP3    H228346   0.479   0.670  15.431 -1.2916  0.0428  0.9874
 2311TIP3   OH228347   5.250   4.555  11.906  0.2351  0.0105  0.2067
 2311TIP3    H128348   5.205   4.639  11.907  1.2994  0.5946  0.8275
 2311TIP3    H228349   5.269   4.537  11.814  1.8152  1.4747  0.1969
 2312TIP3   OH228350   5.948   6.604  15.553  0.2229 -0.3508  0.8346
 2312TIP3    H128351   6.014   6.539  15.578 -1.9043 -2.1956  1.9210
 2312TIP3    H228352   5.873   6.586  15.610 -1.6524  0.9714 -1.0618
 2313TIP3   OH228353   6.606   3.127   2.552  0.0271 -0.0877  0.0316
 2313TIP3    H128354   6.697   3.126   2.521 -0.4681 -1.5427 -1.5622
 2313TIP3    H228355   6.612   3.129   2.647  1.7385 -0.4956 -0.0412
 2314TIP3   OH228356   1.330   3.063   2.327 -0.5187  0.3509 -0.3679
 2314TIP3    H128357   1.352   3.043   2.236 -0.5090  1.7434 -0.6845
 2314TIP3    H228358   1.246   3.110   2.321 -0.1105  1.1760  0.2674
 2315TIP3   OH228359   5.968   5.038  13.020 -0.4998  0.1208 -0.0251
 2315TIP3    H128360   5.884   5.077  12.999 -1.3423 -2.5614 -2.2128
 2315TIP3    H228361   5.947   4.972  13.086 -0.1947 -0.7244 -0.7553
 2316TIP3   OH228362   6.011   2.886  16.886 -0.4194 -0.2305 -0.2078
 2316TIP3    H128363   5.990   2.873  16.978  2.2335  1.5063  0.7500
 2316TIP3    H228364   5.953   2.956  16.858 -1.2460 -0.7719  0.0979
 2317TIP3   OH228365   2.135   1.131  17.041 -0.0454  0.3512  0.7437
 2317TIP3    H128366   2.226   1.114  17.064  0.8342  0.0832 -2.4741
 2317TIP3    H228367   2.086   1.062  17.086  1.2865  0.4375  2.4485
 2318TIP3   OH228368   6.552   3.536   2.730  0.1865  0.5855  0.1329
 2318TIP3    H128369   6.557   3.481   2.652  0.6743  1.1446 -0.2317
 2318TIP3    H228370   6.638   3.527   2.771  0.2378  1.0078  0.1193
 2319TIP3   OH228371   3.555   2.023  14.571 -0.0907 -0.4949  0.7045
 2319TIP3    H128372   3.556   2.059  14.482 -1.0607 -1.3886  0.3123
 2319TIP3    H228373   3.642   1.985  14.582 -0.3775 -1.5442 -0.3792
 2320TIP3   OH228374   6.461   6.175  13.729 -0.2375  0.1432  0.0435
 2320TIP3    H128375   6.375   6.171  13.770  0.1106  0.2215  0.7934
 2320TIP3    H228376   6.448   6.138  13.642 -0.9743 -0.0735  0.2413
 2321TIP3   OH228377   3.383   3.958  13.071  0.2161  0.0066 -0.7569
 2321TIP3    H128378   3.356   3.867  13.055 -0.1978 -0.1599  0.7715
 2321TIP3    H228379   3.442   3.978  12.998  0.0620 -1.3709 -1.2990
 2322TIP3   OH228380   5.246   0.455  15.265 -0.3939  0.3259 -0.2077
 2322TIP3    H128381   5.164   0.441  15.217  0.5554 -0.1572 -1.7913
 2322TIP3    H228382   5.313   0.422  15.206  0.9002  0.0875  1.3355
 2323TIP3   OH228383   5.202   6.407   3.239 -0.4400 -0.0320 -0.1134
 2323TIP3    H128384   5.266   6.451   3.295 -0.3911  1.0213 -0.9747
 2323TIP3    H228385   5.222   6.314   3.249  1.1070  0.2650 -0.1993
 2324TIP3   OH228386   5.561   4.554  11.993  0.1905  0.0480  0.0369
 2324TIP3    H128387   5.506   4.590  12.063 -0.6537  1.0649 -1.1085
 2324TIP3    H228388   5.504   4.490  11.949  0.6135 -0.3723  0.0902
 2325TIP3   OH228389   5.145   3.099   4.089  0.0534 -0.2020  0.5416
 2325TIP3    H128390   5.115   3.080   4.178 -0.1648 -2.2349  0.0813
 2325TIP3    H228391   5.156   3.194   4.087 -0.4834 -0.0567  2.5594
 2326TIP3   OH228392   1.344   1.876  12.528 -0.1536  0.3127  0.7233
 2326TIP3    H128393   1.262   1.842  12.493  0.0342  0.6204 -0.0353
 2326TIP3    H228394   1.380   1.931  12.458  1.4931 -1.0990  0.3698
 2327TIP3   OH228395   4.072   0.991   3.367 -0.7635  0.1033 -0.3806
 2327TIP3    H128396   4.107   0.975   3.454 -1.5357  0.4532  0.0075
 2327TIP3    H228397   4.148   1.008   3.312 -0.3585  1.4980  0.5674
 2328TIP3   OH228398   0.368   6.024  15.636 -0.3786  0.4345 -0.1006
 2328TIP3    H128399   0.459   5.999  15.653 -0.2999  0.0888 -0.9564
 2328TIP3    H228400   0.368   6.119  15.640  0.5527  0.6071 -2.3985
 2329TIP3   OH228401   3.901   0.290   1.084 -0.0726  0.1005  0.4004
 2329TIP3    H128402   3.946   0.371   1.106 -0.4354  0.2532  0.5920
 2329TIP3    H228403   3.809   0.315   1.075 -0.9972 -0.9463  4.6280
 2330TIP3   OH228404   2.387   1.684  14.753  0.7968  0.4867 -0.2961
 2330TIP3    H128405   2.373   1.604  14.702  0.7105  0.2683  0.0682
 2330TIP3    H228406   2.389   1.754  14.687  0.2338  0.2619 -0.5559
 2331TIP3   OH228407   3.494   2.237   6.018  0.3898  0.2664  0.0292
 2331TIP3    H128408   3.540   2.161   5.981  2.6810  1.1880  0.8608
 2331TIP3    H228409   3.501   2.226   6.113 -0.2457  0.9745  0.1733
 2332TIP3   OH228410   0.944   6.261  15.879  0.6355  0.0618  0.1211
 2332TIP3    H128411   0.996   6.342  15.885 -0.7594  0.9039  1.8300
 2332TIP3    H228412   0.994   6.197  15.929  0.7485  0.4547  0.5226
 2333TIP3   OH228413   6.767   0.752  14.182  0.3660 -0.3343  0.1659
 2333TIP3    H128414   6.807   0.829  14.222  1.0023 -0.4398 -0.2421
 2333TIP3    H228415   6.786   0.681  14.242 -0.9042 -0.0498  0.9357
 2334TIP3   OH228416   0.208   1.163  14.803 -0.1116 -0.1028  0.0122
 2334TIP3    H128417   0.164   1.126  14.879  1.1089 -1.4420  0.1296
 2334TIP3    H228418   0.176   1.253  14.797 -0.7338 -0.1807  1.6991
 2335TIP3   OH228419   3.142   0.149   5.047  0.1857 -0.1666 -0.0901
 2335TIP3    H128420   3.133   0.195   4.964  0.1297 -2.6288 -1.5605
 2335TIP3    H228421   3.052   0.140   5.079 -0.0625 -1.3716 -1.0702
 2336TIP3   OH228422   2.781   2.400   1.340 -0.7059 -0.3782  0.0081
 2336TIP3    H128423   2.867   2.442   1.336 -1.2953  0.8630 -0.4420
 2336TIP3    H228424   2.768   2.363   1.252 -1.3411  0.9877 -0.5045
 2337TIP3   OH228425   5.058   2.604  16.080 -0.6659  0.0383  0.2916
 2337TIP3    H128426   4.991   2.624  16.014 -1.3064 -0.6829  0.6969
 2337TIP3    H228427   5.008   2.571  16.155  0.1367 -0.3158  0.6848
 2338TIP3   OH228428   5.351   0.864  11.044 -0.4071  0.5086 -0.1656
 2338TIP3    H128429   5.287   0.794  11.047 -3.5893  3.2259  0.9697
 2338TIP3    H228430   5.415   0.841  11.112 -0.8221 -1.6291 -0.4271
 2339TIP3   OH228431   2.102   2.677  13.440 -0.4541 -0.1780 -0.4530
 2339TIP3    H128432   2.136   2.623  13.512  0.0213  0.5805 -0.0979
 2339TIP3    H228433   2.057   2.749  13.484  1.8395  1.6082 -0.8176
 2340TIP3   OH228434   2.172   0.227   4.059 -0.6395 -0.2202  0.3920
 2340TIP3    H128435   2.123   0.280   3.997 -1.3467 -0.0488  1.0706
 2340TIP3    H228436   2.173   0.279   4.140  1.4386  0.1691  0.1683
 2341TIP3   OH228437   4.787   6.656  13.874 -0.2405 -0.0292  0.1889
 2341TIP3    H128438   4.793   6.584  13.936 -0.1612  1.0728  1.4970
 2341TIP3    H228439   4.695   6.655  13.846  0.2782 -2.1176 -1.6987
 2342TIP3   OH228440   2.497   2.840  11.867  0.0652 -0.1839  0.4270
 2342TIP3    H128441   2.481   2.746  11.853  0.2393 -0.6393  2.8243
 2342TIP3    H228442   2.592   2.847  11.876  0.2624  0.5941 -1.6489
 2343TIP3   OH228443   6.318   3.270  14.911  0.8914  0.5163  0.3298
 2343TIP3    H128444   6.272   3.349  14.937 -2.3513 -1.4338  0.9945
 2343TIP3    H228445   6.326   3.277  14.815 -0.6231  1.0181  0.2229
 2344TIP3   OH228446   6.436   3.044  15.827  0.0082 -0.4337  0.2364
 2344TIP3    H128447   6.471   2.957  15.851  0.2613 -0.0935  1.1563
 2344TIP3    H228448   6.357   3.025  15.777 -1.1103 -1.2141  2.1881
 2345TIP3   OH228449   3.582   1.311  10.745 -0.7784  0.0106  0.2348
 2345TIP3    H128450   3.502   1.351  10.712 -0.6649  0.7906  0.8526
 2345TIP3    H228451   3.552   1.246  10.808 -0.9358  0.1428  0.2974
 2346TIP3   OH228452   2.271   2.656   0.661 -0.4234  0.1990  0.1036
 2346TIP3    H128453   2.195   2.612   0.700  0.0914 -0.9901 -0.2032
 2346TIP3    H228454   2.240   2.745   0.643 -1.6364 -0.1608  0.3022
 2347TIP3   OH228455   0.574   0.672  12.508 -0.1057 -0.0439 -0.5906
 2347TIP3    H128456   0.544   0.603  12.567  1.7009 -0.6790 -0.3434
 2347TIP3    H228457   0.506   0.739  12.513 -0.9267 -0.9263  0.7281
 2348TIP3   OH228458   0.182   4.045   2.760 -0.0093  0.0999 -0.8279
 2348TIP3    H128459   0.191   4.035   2.854 -1.2525  0.6832 -0.6239
 2348TIP3    H228460   0.271   4.059   2.728  0.5739 -1.3037  0.0889
 2349TIP3   OH228461   0.451   0.605  12.972 -0.3253 -0.2059 -0.0595
 2349TIP3    H128462   0.432   0.516  13.002 -1.2719  0.7355  2.3942
 2349TIP3    H228463   0.544   0.617  12.994 -0.4690 -0.2425  0.5871
 2350TIP3   OH228464   0.265   3.275   0.368 -0.0538 -0.3317 -0.0414
 2350TIP3    H128465   0.354   3.303   0.345  0.1911 -0.1766  1.0518
 2350TIP3    H228466   0.209   3.348   0.343  0.0329 -0.6825 -1.3279
 2351TIP3   OH228467   0.878   0.542   4.184 -0.0559 -0.0039 -0.7686
 2351TIP3    H128468   0.905   0.624   4.142 -0.0419  0.2771 -0.2201
 2351TIP3    H228469   0.784   0.551   4.196 -0.5053 -1.1075 -2.9502
 2352TIP3   OH228470   4.617   2.015  16.386  0.3011  0.9837  0.0103
 2352TIP3    H128471   4.537   1.969  16.410  0.5859  0.2842 -0.3588
 2352TIP3    H228472   4.621   2.090  16.445 -0.9819  1.4093 -0.4137
 2353TIP3   OH228473   2.764   5.592  15.666 -0.4745  0.4449  0.3558
 2353TIP3    H128474   2.756   5.655  15.737  2.7461  0.1462  1.1231
 2353TIP3    H228475   2.778   5.508  15.710  0.5938  0.0955 -0.6064
 2354TIP3   OH228476   6.776   3.771   5.654  0.1727  0.2105 -0.1978
 2354TIP3    H128477   6.702   3.715   5.631 -0.7527  1.3620 -0.1035
 2354TIP3    H228478   6.852   3.727   5.615 -0.5590 -0.9436 -0.3766
 2355TIP3   OH228479   1.229   5.035   2.482 -0.1322  0.7923  0.1006
 2355TIP3    H128480   1.148   5.073   2.517 -1.8869 -2.5942  0.1940
 2355TIP3    H228481   1.217   5.038   2.387  0.4862  1.8665  0.0435
 2356TIP3   OH228482   2.694   2.336   0.824  0.1033  0.0190  0.5584
 2356TIP3    H128483   2.720   2.427   0.807  1.6859 -0.6721 -1.1368
 2356TIP3    H228484   2.645   2.311   0.746  0.2018 -0.7540  0.7430
 2357TIP3   OH228485   4.037   0.810   2.362  0.0660 -0.1791  0.4832
 2357TIP3    H128486   3.949   0.845   2.349  0.1445 -0.1722 -0.0809
 2357TIP3    H228487   4.061   0.836   2.451  0.7999  2.7187 -0.4549
 2358TIP3   OH228488   3.819   4.867   1.088  0.1560  0.6748  0.1023
 2358TIP3    H128489   3.891   4.805   1.076 -1.1164 -0.5609 -1.7550
 2358TIP3    H228490   3.801   4.867   1.182 -0.5651 -2.7309  0.0625
 2359TIP3   OH228491   2.275   6.124   2.316  0.1348  0.1721  0.4485
 2359TIP3    H128492   2.221   6.183   2.368 -0.3224  0.8331 -0.7303
 2359TIP3    H228493   2.339   6.089   2.378  0.3945  1.8768  1.2002
 2360TIP3   OH228494   5.173   6.656   6.222  0.2380 -0.0620 -0.3183
 2360TIP3    H128495   5.245   6.595   6.236  1.7909  2.0683  1.8677
 2360TIP3    H228496   5.214   6.730   6.176 -1.0328  0.3515 -0.8381
 2361TIP3   OH228497   4.752   5.758  14.071  0.7163  0.3681 -0.0855
 2361TIP3    H128498   4.716   5.715  14.148 -1.3021  1.6442 -0.2359
 2361TIP3    H228499   4.833   5.800  14.102  1.7525 -1.8928  0.4733
 2362TIP3   OH228500   1.520   3.046  11.893 -0.1165 -0.4367 -0.6472
 2362TIP3    H128501   1.440   3.010  11.854  0.3062  1.2797 -3.4595
 2362TIP3    H228502   1.586   2.978  11.880 -0.5512 -0.8578 -0.6938
 2363TIP3   OH228503   5.231   4.948   1.961 -0.4438  0.1919 -0.5283
 2363TIP3    H128504   5.214   4.858   1.988  0.2966  0.1719 -0.1174
 2363TIP3    H228505   5.325   4.950   1.941 -0.4318  0.9069 -0.4060
 2364TIP3   OH228506   4.812   0.850   3.432  0.5750 -0.0651  0.3210
 2364TIP3    H128507   4.812   0.928   3.377  0.0108 -0.0598  0.3235
 2364TIP3    H228508   4.735   0.800   3.403  0.0713  0.1035  1.3342
 2365TIP3   OH228509   3.351   2.231  10.844 -0.4098  0.3579 -0.1242
 2365TIP3    H128510   3.419   2.178  10.802  1.9140  1.6549  1.7233
 2365TIP3    H228511   3.330   2.298  10.779  0.0133 -0.1032 -0.7570
 2366TIP3   OH228512   0.793   3.538  16.489  0.3800 -0.0072 -0.3461
 2366TIP3    H128513   0.812   3.497  16.573  0.7908  0.2312 -0.3198
 2366TIP3    H228514   0.702   3.568  16.497 -0.1108 -1.3659 -0.5549
 2367TIP3   OH228515   1.789   5.824  12.608  0.0028 -0.1739 -0.3697
 2367TIP3    H128516   1.784   5.906  12.657 -2.1195 -0.0826 -0.6407
 2367TIP3    H228517   1.837   5.845  12.529  2.5115 -0.0570  1.0876
 2368TIP3   OH228518   0.328   2.247  13.466  0.2542 -0.1445  0.1109
 2368TIP3    H128519   0.422   2.263  13.457  0.4356 -0.1996  1.6130
 2368TIP3    H228520   0.288   2.333  13.457  0.7015  0.3134  2.0312
 2369TIP3   OH228521   0.116   4.649   2.480 -0.3242  0.0585 -0.2661
 2369TIP3    H128522   0.024   4.671   2.467  0.1147  4.0783  1.6836
 2369TIP3    H228523   0.117   4.594   2.559 -1.0773 -0.8724 -0.8938
 2370TIP3   OH228524   4.982   5.520   5.822 -0.3147 -0.5595  0.3399
 2370TIP3    H128525   4.971   5.431   5.855 -0.5547 -1.5152 -2.0928
 2370TIP3    H228526   4.892   5.552   5.808 -0.2423  0.2592  1.6123
 2371TIP3   OH228527   5.783   5.443   2.856  0.0335 -0.5180  0.0843
 2371TIP3    H128528   5.845   5.514   2.872  1.1156 -0.9529 -1.8962
 2371TIP3    H228529   5.708   5.485   2.815 -0.9126 -0.0476  2.1497
 2372TIP3   OH228530   1.106   1.000  16.676  0.2878  0.7124  0.1978
 2372TIP3    H128531   1.151   0.957  16.603  2.2681  2.4801  0.2903
 2372TIP3    H228532   1.172   1.008  16.744 -1.1843  0.2136  1.7628
 2373TIP3   OH228533   3.606   3.530  14.651  0.4455  0.3551 -0.3114
 2373TIP3    H128534   3.610   3.440  14.617 -0.4215 -0.7260  2.1956
 2373TIP3    H228535   3.695   3.564  14.637  0.9852 -1.1179 -0.7056
 2374TIP3   OH228536   2.257   0.187  12.440 -0.1661 -0.2676  0.0943
 2374TIP3    H128537   2.221   0.271  12.467  0.1535 -0.0386 -0.1857
 2374TIP3    H228538   2.215   0.168  12.356  0.8620  0.3279 -0.5672
 2375TIP3   OH228539   3.934   6.093   2.717 -0.4022  0.1059 -0.4322
 2375TIP3    H128540   3.928   6.134   2.803  0.7311 -2.0053  0.7637
 2375TIP3    H228541   3.929   6.165   2.655 -1.4234  1.6911  1.3869
 2376TIP3   OH228542   0.341   0.713  16.853  0.1589  0.1220  0.2355
 2376TIP3    H128543   0.397   0.698  16.777 -2.1644  0.3085 -1.6099
 2376TIP3    H228544   0.364   0.801  16.883  1.4985 -0.1760  0.1469
 2377TIP3   OH228545   6.710   1.436   5.357 -0.0270  0.6180 -0.2447
 2377TIP3    H128546   6.641   1.373   5.378 -0.0596  1.2967  1.9090
 2377TIP3    H228547   6.684   1.471   5.272 -1.7060 -0.0050 -0.0314
 2378TIP3   OH228548   0.383   1.026   2.075  0.3020 -0.1785  0.5155
 2378TIP3    H128549   0.423   0.955   2.024 -1.3405  1.3868 -3.4378
 2378TIP3    H228550   0.424   1.106   2.041  0.8720  0.9626  3.5779
 2379TIP3   OH228551   1.656   5.917   1.211  0.2246  0.1236  0.1308
 2379TIP3    H128552   1.651   5.903   1.116 -0.3894  0.9095  0.0353
 2379TIP3    H228553   1.585   5.978   1.229  0.3256 -0.0414  1.1096
 2380TIP3   OH228554   3.299   1.539   3.025 -0.7962  0.0050 -0.1584
 2380TIP3    H128555   3.232   1.490   2.977 -1.2009 -0.3964  0.7759
 2380TIP3    H228556   3.307   1.622   2.978 -3.0183  0.6745  0.5074
 2381TIP3   OH228557   4.751   5.652   1.656  0.3772  0.1754  0.2835
 2381TIP3    H128558   4.663   5.627   1.628  0.1728 -0.2996  1.3346
 2381TIP3    H228559   4.780   5.714   1.589 -1.1260  1.0877  0.4396
 2382TIP3   OH228560   5.755   3.767   4.035  0.1273 -0.1413  1.0265
 2382TIP3    H128561   5.767   3.817   3.954  0.1603  1.3759  1.9345
 2382TIP3    H228562   5.762   3.832   4.105  2.2067 -1.7235  2.3947
 2383TIP3   OH228563   6.750   1.681   2.987  0.2521  0.2003 -0.0352
 2383TIP3    H128564   6.722   1.660   2.898  1.4024  0.0037 -0.3635
 2383TIP3    H228565   6.787   1.600   3.021 -2.5831 -0.5374  1.6489
 2384TIP3   OH228566   2.944   1.771   3.315 -0.2508 -0.6971 -0.3434
 2384TIP3    H128567   2.997   1.820   3.378 -0.4313  0.4269 -1.0482
 2384TIP3    H228568   2.857   1.766   3.355 -1.0985  2.2753 -1.5507
 2385TIP3   OH228569   0.676   3.104   4.863 -0.2448 -0.0625 -0.2336
 2385TIP3    H128570   0.606   3.071   4.807  0.5552  1.3246 -2.1639
 2385TIP3    H228571   0.737   3.146   4.803  1.8053 -0.4119  1.4741
 2386TIP3   OH228572   0.521   4.435  14.266 -0.2410 -0.1385  0.6110
 2386TIP3    H128573   0.543   4.507  14.207  1.4430 -0.4958  0.7530
 2386TIP3    H228574   0.479   4.477  14.341  0.0524  0.6182  0.3538
 2387TIP3   OH228575   3.261   5.296   2.443  0.5069 -0.4345  0.5048
 2387TIP3    H128576   3.297   5.376   2.406  1.2513 -1.4965 -1.2012
 2387TIP3    H228577   3.245   5.316   2.535  0.1109  1.8308 -0.0152
 2388TIP3   OH228578   0.346   5.126  15.539 -0.0433  0.1993 -0.3489
 2388TIP3    H128579   0.409   5.190  15.506 -0.0297 -0.0569 -0.8374
 2388TIP3    H228580   0.389   5.042  15.527  0.1868  0.1344  0.8664
 2389TIP3   OH228581   5.102   3.529  16.052 -0.1167 -0.1783  0.4041
 2389TIP3    H128582   5.034   3.587  16.086  0.7876  2.3563 -1.7663
 2389TIP3    H228583   5.184   3.567  16.084  0.4516 -1.3729  0.4216
 2390TIP3   OH228584   4.527   6.603  13.763  0.0932  0.3871  0.1893
 2390TIP3    H128585   4.519   6.591  13.668 -1.9873  0.4741  0.3026
 2390TIP3    H228586   4.503   6.517  13.799 -0.9357  0.8608  0.6595
 2391TIP3   OH228587   6.475   6.343  12.838  0.1227  0.3613  0.0012
 2391TIP3    H128588   6.539   6.296  12.786 -1.0239 -0.3178 -0.8380
 2391TIP3    H228589   6.527   6.403  12.892  1.4284 -0.0055 -0.8112
 2392TIP3   OH228590   2.608   1.625   4.690  0.2427 -0.3923 -0.4446
 2392TIP3    H128591   2.648   1.673   4.763 -0.7358  2.3952 -1.6165
 2392TIP3    H228592   2.531   1.583   4.728 -0.2400  0.9958  0.1828
 2393TIP3   OH228593   1.454   5.875   6.020 -0.2640 -0.2140 -0.8583
 2393TIP3    H128594   1.370   5.914   6.043  0.0592 -0.3134  0.5856
 2393TIP3    H228595   1.469   5.810   6.088  1.0217 -0.1386 -1.0537
 2394TIP3   OH228596   4.020   0.785   1.341  0.0236 -0.1000  0.7234
 2394TIP3    H128597   3.937   0.814   1.304  0.1095 -1.0765 -0.3054
 2394TIP3    H228598   4.085   0.844   1.302 -0.0312 -0.2796  0.3591
 2395TIP3   OH228599   0.405   2.286  17.172 -0.0402  0.6052 -0.3025
 2395TIP3    H128600   0.427   2.194  17.162  1.2290  0.9989 -1.5996
 2395TIP3    H228601   0.337   2.302  17.107 -0.4443  0.5234  0.1017
 2396TIP3   OH228602   2.605   6.529   0.047  0.3840 -0.4701  0.2574
 2396TIP3    H128603   2.540   6.586   0.086  0.4736 -0.2080  0.0269
 2396TIP3    H228604   2.597   6.543  -0.047  0.3342 -0.9165  0.1934
 2397TIP3   OH228605   6.409   5.022  14.481  0.9917  0.2773 -0.3778
 2397TIP3    H128606   6.381   5.052  14.394 -1.6156 -0.6931  0.0130
 2397TIP3    H228607   6.465   5.093  14.513 -1.7012  2.9751 -1.0513
 2398TIP3   OH228608   5.264   5.308  14.498 -0.4993 -0.0171 -0.3698
 2398TIP3    H128609   5.272   5.360  14.578  2.0319 -1.2695  0.2919
 2398TIP3    H228610   5.179   5.265  14.506 -0.1900 -0.3309  1.8111
 2399TIP3   OH228611   2.369   6.092   0.781  0.1382  0.1765  0.0663
 2399TIP3    H128612   2.408   6.177   0.761  3.5784 -0.9972  1.0480
 2399TIP3    H228613   2.327   6.105   0.866  0.3106  0.9930  0.0384
 2400TIP3   OH228614   3.264   5.618  11.381  0.6072  0.0794  0.3903
 2400TIP3    H128615   3.286   5.579  11.296  0.3741 -0.1099  0.4130
 2400TIP3    H228616   3.318   5.571  11.444  0.8735  0.3077  0.3314
 2401TIP3   OH228617   4.249   4.955  16.260 -0.4400 -0.3849  0.0047
 2401TIP3    H128618   4.249   4.866  16.224 -3.3712 -0.0203 -1.1679
 2401TIP3    H228619   4.197   5.006  16.199  1.8108  2.4069  0.2265
 2402TIP3   OH228620   3.990   1.298   5.924  0.7467 -0.4170  0.0912
 2402TIP3    H128621   4.006   1.290   6.018 -0.3021 -1.7645  0.1814
 2402TIP3    H228622   3.900   1.270   5.912  0.2136  1.5604 -1.0984
 2403TIP3   OH228623   6.790   3.693   5.176 -0.2927 -0.2257 -0.0258
 2403TIP3    H128624   6.791   3.772   5.121  1.3260  0.6078  1.1065
 2403TIP3    H228625   6.756   3.625   5.118 -0.2553  0.9642 -1.5371
 2404TIP3   OH228626   1.967   0.758   3.264  0.4057 -0.1326 -0.4751
 2404TIP3    H128627   2.006   0.739   3.179 -0.5279 -0.9401 -0.7352
 2404TIP3    H228628   1.873   0.749   3.251  0.2188  0.1996  0.5288
 2405TIP3   OH228629   3.847   2.846  14.734 -0.4738  0.7520 -0.5109
 2405TIP3    H128630   3.797   2.915  14.690  0.2417  0.5342 -1.7254
 2405TIP3    H228631   3.909   2.894  14.789 -1.1236  1.0356 -0.0077
 2406TIP3   OH228632   0.575   1.363  14.015 -0.2321  0.0480 -0.6162
 2406TIP3    H128633   0.626   1.357  14.096 -0.3379 -0.9511 -0.6179
 2406TIP3    H228634   0.585   1.455  13.988 -0.6776  0.5631  0.8322
 2407TIP3   OH228635   1.615   2.994   4.925 -0.1692  0.5230 -0.0091
 2407TIP3    H128636   1.704   2.988   4.958  0.2151 -0.3014 -1.1039
 2407TIP3    H228637   1.563   2.939   4.984  0.4937 -0.8932 -0.6902
 2408TIP3   OH228638   6.444   5.187   4.336 -1.1345  0.0268 -0.6665
 2408TIP3    H128639   6.415   5.263   4.285  0.4931  0.5395 -0.8704
 2408TIP3    H228640   6.532   5.210   4.366 -1.7142 -0.5947  1.7346
 2409TIP3   OH228641   1.539   0.268  12.968  0.6064  0.0978 -0.5960
 2409TIP3    H128642   1.548   0.237  13.058 -0.0715  0.5580 -0.3595
 2409TIP3    H228643   1.510   0.359  12.978  0.8191  0.2442 -1.2816
 2410TIP3   OH228644   4.655   1.178   0.599  0.1352 -0.0958 -0.5298
 2410TIP3    H128645   4.594   1.251   0.611  1.5925  1.1225 -0.2988
 2410TIP3    H228646   4.657   1.133   0.683  1.3386  1.3124  0.2361
 2411TIP3   OH228647   4.913   0.361  14.035 -0.5941 -0.1530  0.2920
 2411TIP3    H128648   4.905   0.344  13.941  2.8343  1.2477 -0.4169
 2411TIP3    H228649   4.937   0.276  14.073  0.8780 -0.2009 -0.6491
 2412TIP3   OH228650   6.316   2.795   2.335 -0.0631  0.1933 -0.1121
 2412TIP3    H128651   6.358   2.709   2.341  0.4444  0.3730 -0.8459
 2412TIP3    H228652   6.287   2.801   2.244 -0.0285  0.8253 -0.0866
 2413TIP3   OH228653   4.029   5.323  14.731  0.1486 -1.0426  0.2526
 2413TIP3    H128654   4.053   5.268  14.806 -1.5581 -0.9758  0.8887
 2413TIP3    H228655   3.936   5.343  14.745  0.7284  2.2215  0.2003
 2414TIP3   OH228656   2.563   0.978  13.088  0.0818  0.5289  0.2988
 2414TIP3    H128657   2.636   0.917  13.076  0.8791  1.1539  1.6669
 2414TIP3    H228658   2.603   1.054  13.131 -0.9018  1.9853 -1.2361
 2415TIP3   OH228659   5.133   0.362   3.219  0.2248  0.0408 -0.0158
 2415TIP3    H128660   5.125   0.415   3.299 -2.8963  0.1974 -0.3124
 2415TIP3    H228661   5.221   0.323   3.225  0.8368  1.5525  2.5018
 2416TIP3   OH228662   4.164   6.406   5.510 -0.1223 -0.7884  0.7168
 2416TIP3    H128663   4.147   6.334   5.449 -1.8868 -0.2960  0.5547
 2416TIP3    H228664   4.076   6.433   5.538  0.4677  1.6306  0.3808
 2417TIP3   OH228665   5.410   5.108   0.212  0.3026 -0.2896 -0.4414
 2417TIP3    H128666   5.479   5.101   0.278 -0.0405  1.1757  0.1096
 2417TIP3    H228667   5.348   5.040   0.235  0.1180  0.2942  0.8574
 2418TIP3   OH228668   5.313   2.051   3.509 -0.0818 -0.1880 -0.1411
 2418TIP3    H128669   5.314   2.031   3.602 -0.5810  0.9302  0.1215
 2418TIP3    H228670   5.269   1.977   3.468 -3.3592  1.0005  0.9616
 2419TIP3   OH228671   3.805   4.242  11.510 -0.5685  0.0320 -0.1340
 2419TIP3    H128672   3.728   4.255  11.567 -0.7475  0.0212 -0.3708
 2419TIP3    H228673   3.880   4.246  11.570 -0.8492 -1.7610  0.3997
 2420TIP3   OH228674   1.415   5.324   2.051  0.1459 -0.2566 -0.2597
 2420TIP3    H128675   1.394   5.348   2.141  0.4731 -0.5803 -0.0963
 2420TIP3    H228676   1.421   5.408   2.005 -0.8865 -0.1279 -0.1802
 2421TIP3   OH228677   2.426   4.413   4.296  0.1295 -0.0006  0.2884
 2421TIP3    H128678   2.434   4.325   4.259  1.5233 -0.1945  0.9763
 2421TIP3    H228679   2.411   4.469   4.220  0.2394 -0.7094 -0.2743
 2422TIP3   OH228680   0.854   6.050   3.868  1.0380  0.0899 -0.0253
 2422TIP3    H128681   0.885   6.024   3.781  0.3562 -0.7123 -0.0414
 2422TIP3    H228682   0.872   6.144   3.873 -0.2431  0.4613 -1.5954
 2423TIP3   OH228683   0.884   6.791  16.657 -0.1610 -0.0177  0.0209
 2423TIP3    H128684   0.880   6.776  16.752 -2.5008  0.7875  0.1100
 2423TIP3    H228685   0.955   6.735  16.627  0.9910  0.1065  2.3214
 2424TIP3   OH228686   6.019   2.301  15.439 -0.3651 -0.4106 -0.7955
 2424TIP3    H128687   6.028   2.206  15.430 -0.7492 -0.4171 -1.1597
 2424TIP3    H228688   5.934   2.314  15.480 -0.0408 -0.2415 -0.1630
 2425TIP3   OH228689   5.975   6.470   0.606 -0.0290 -0.1478 -0.4631
 2425TIP3    H128690   5.937   6.527   0.539  0.4748 -1.7904 -2.2413
 2425TIP3    H228691   6.066   6.458   0.578  0.3052 -0.5692  0.7480
 2426TIP3   OH228692   1.893   4.056  16.024  0.1403  0.1651  0.1162
 2426TIP3    H128693   1.963   4.095  15.971  0.0257  0.9187  0.5113
 2426TIP3    H228694   1.937   4.025  16.103  0.3595 -1.2162 -0.5130
 2427TIP3   OH228695   4.105   2.090  14.068 -0.1751  0.0351  0.4119
 2427TIP3    H128696   4.164   2.036  14.015 -0.5180  0.9406 -0.9289
 2427TIP3    H228697   4.124   2.063  14.158  2.9651  0.9198  0.1525
 2428TIP3   OH228698   5.026   6.785  12.279  0.3568  0.0983 -0.2473
 2428TIP3    H128699   5.044   6.691  12.284 -0.0118 -0.0459 -1.4567
 2428TIP3    H228700   5.094   6.825  12.334 -0.0743 -0.9235  1.0991
 2429TIP3   OH228701   6.263   4.853   4.649 -0.4295  0.0960  0.1713
 2429TIP3    H128702   6.203   4.814   4.713  1.5052 -0.1776  1.9220
 2429TIP3    H228703   6.310   4.921   4.699  2.5722 -1.4682 -0.3157
 2430TIP3   OH228704   0.993   1.857   0.657  0.3222 -0.0472 -0.0898
 2430TIP3    H128705   1.051   1.920   0.614  1.7395 -1.3420 -0.1904
 2430TIP3    H228706   0.912   1.861   0.607  0.7550  0.9417 -0.7465
 2431TIP3   OH228707   2.292   1.159   0.864  0.5198  0.4262 -0.0493
 2431TIP3    H128708   2.302   1.072   0.825 -0.2401  0.2318  0.1645
 2431TIP3    H228709   2.311   1.220   0.794 -0.0209  0.0830 -0.4981
 2432TIP3   OH228710   5.434   2.761   2.431 -0.6886  0.4015  0.4254
 2432TIP3    H128711   5.421   2.852   2.405  0.3722  0.1300 -1.2206
 2432TIP3    H228712   5.367   2.712   2.385 -1.0439  0.3020  1.0396
 2433TIP3   OH228713   0.036   2.586  15.502 -0.1256  0.0032  0.1659
 2433TIP3    H128714   0.106   2.649  15.521 -0.0558 -0.1793  0.5134
 2433TIP3    H228715   0.069   2.535  15.428  0.3790 -0.4974  0.7294
 2434TIP3   OH228716   1.995   3.815   0.022  0.0176 -0.4686 -0.1424
 2434TIP3    H128717   2.075   3.775  -0.011  0.7687 -0.2222  1.3035
 2434TIP3    H228718   1.985   3.895  -0.030  0.5879 -0.6109 -0.4840
 2435TIP3   OH228719   0.169   4.864  14.563 -0.1989  0.2364  0.2071
 2435TIP3    H128720   0.131   4.932  14.619 -4.9230 -1.2551 -0.7154
 2435TIP3    H228721   0.210   4.803  14.625 -0.2658  1.4286  1.4840
 2436TIP3   OH228722   3.353   5.428   5.935  0.1949  0.0506  0.3248
 2436TIP3    H128723   3.434   5.423   5.884 -0.0450  0.3052 -0.0893
 2436TIP3    H228724   3.352   5.517   5.970  0.6687 -0.3142  1.3083
 2437TIP3   OH228725   3.043   6.560   5.343  0.4970  0.1146 -0.4220
 2437TIP3    H128726   2.992   6.635   5.311  0.9321  0.2667 -0.7703
 2437TIP3    H228727   3.043   6.571   5.438 -0.9563 -0.4368 -0.3268
 2438TIP3   OH228728   3.040   2.209  14.503 -0.3411 -0.1319 -0.3149
 2438TIP3    H128729   3.043   2.295  14.459 -0.7432 -0.6778 -1.4549
 2438TIP3    H228730   2.962   2.215  14.559 -0.3707  0.2535 -0.3878
 2439TIP3   OH228731   1.356   5.202   2.904  0.5402 -0.4735  0.1288
 2439TIP3    H128732   1.340   5.197   2.810 -0.7906  0.6319  0.2519
 2439TIP3    H228733   1.274   5.236   2.940  1.8356  1.5164  1.3944
 2440TIP3   OH228734   5.418   2.375  10.276 -0.5293 -0.0456  0.1458
 2440TIP3    H128735   5.325   2.391  10.261 -0.8692 -0.0221  2.0073
 2440TIP3    H228736   5.432   2.285  10.246 -1.2099 -0.1417  0.1050
 2441TIP3   OH228737   4.647   3.341   5.016  0.4215  0.0472 -0.2504
 2441TIP3    H128738   4.557   3.351   4.983  0.3907 -0.2574 -0.2618
 2441TIP3    H228739   4.664   3.423   5.063 -0.2376 -0.3122  0.6446
 2442TIP3   OH228740   6.701   5.488  15.606 -0.2253  0.2943  0.0329
 2442TIP3    H128741   6.774   5.542  15.576 -0.5690 -0.2434 -1.9471
 2442TIP3    H228742   6.686   5.426  15.534 -0.9789 -1.2798  1.4758
 2443TIP3   OH228743   3.318   3.698  12.936  0.5014  0.7081 -0.0082
 2443TIP3    H128744   3.223   3.705  12.928  0.4558  0.6829  0.4411
 2443TIP3    H228745   3.351   3.703  12.847  0.0131 -0.2379 -0.2591
 2444TIP3   OH228746   4.857   1.328   9.984 -0.6320 -0.7132 -0.5683
 2444TIP3    H128747   4.881   1.256  10.042 -0.4929 -0.2582 -0.0604
 2444TIP3    H228748   4.903   1.308   9.902 -0.0702 -0.8634 -0.2241
 2445TIP3   OH228749   3.976   3.981  11.703  0.0385 -0.2335 -0.0987
 2445TIP3    H128750   3.924   3.964  11.781 -2.8842 -1.2382 -2.0614
 2445TIP3    H228751   3.980   4.076  11.696  2.7787 -0.0074  2.6055
 2446TIP3   OH228752   3.953   1.014  11.379  0.9622  0.0524  0.1980
 2446TIP3    H128753   3.895   1.086  11.354  1.9652  1.2141  1.0990
 2446TIP3    H228754   3.968   0.966  11.297 -0.7731  0.0616 -0.1587
 2447TIP3   OH228755   3.633   3.121  10.883  0.0606  0.2460 -0.1495
 2447TIP3    H128756   3.675   3.201  10.852 -2.5113  1.9971  0.6517
 2447TIP3    H228757   3.540   3.142  10.888 -0.4488 -2.0605  2.3029
 2448TIP3   OH228758   3.761   5.790   1.527  0.1139  0.0244  0.0366
 2448TIP3    H128759   3.788   5.716   1.581 -1.3351 -0.7956 -0.3219
 2448TIP3    H228760   3.807   5.865   1.566 -0.0585 -0.7068  1.7516
 2449TIP3   OH228761   3.874   2.663  11.937 -0.7167 -0.1880  0.1260
 2449TIP3    H128762   3.858   2.599  12.006  0.9829 -1.3446 -0.4885
 2449TIP3    H228763   3.963   2.644  11.907 -0.6578  1.6223 -0.9830
 2450TIP3   OH228764   0.138   6.696  12.072  0.3982  0.6347 -0.2573
 2450TIP3    H128765   0.194   6.620  12.086 -1.9002 -1.2239 -0.3616
 2450TIP3    H228766   0.069   6.664  12.014 -0.8327  2.7095 -0.0336
 2451TIP3   OH228767   0.666   6.368   0.244  0.0995  0.2674  0.2801
 2451TIP3    H128768   0.609   6.441   0.271  0.3681  0.7007 -0.3149
 2451TIP3    H228769   0.676   6.379   0.150  2.2751  0.9972  0.5504
 2452TIP3   OH228770   0.367   2.693   1.930  0.4927  0.6346  0.2488
 2452TIP3    H128771   0.409   2.671   2.014 -0.1676  0.7107  0.6082
 2452TIP3    H228772   0.279   2.657   1.937  1.3100 -1.9895 -1.5922
 2453TIP3   OH228773   0.843   4.362   0.884  0.1986 -0.3399 -0.3082
 2453TIP3    H128774   0.893   4.308   0.822 -0.2887  0.6677 -1.6225
 2453TIP3    H228775   0.818   4.439   0.834 -1.0388  0.0735  0.8828
 2454TIP3   OH228776   2.340   2.455   5.143  0.4846  0.5412  0.7738
 2454TIP3    H128777   2.287   2.484   5.069 -0.7650 -0.3948  1.2606
 2454TIP3    H228778   2.338   2.359   5.137  1.2793  0.4798  1.3891
 2455TIP3   OH228779   2.071   6.206  13.505  0.6290 -0.0033 -0.5510
 2455TIP3    H128780   2.148   6.192  13.449  0.4728 -1.9674 -0.3278
 2455TIP3    H228781   2.006   6.144  13.473 -0.4565  0.7681  0.0698
 2456TIP3   OH228782   3.810   4.666   6.229  0.7963  0.3994 -0.2619
 2456TIP3    H128783   3.797   4.756   6.199 -0.6049 -0.4680 -2.5108
 2456TIP3    H228784   3.904   4.651   6.219  1.0869  1.6758  0.4159
 2457TIP3   OH228785   5.620   3.856   4.839  0.0179  0.0350 -0.3283
 2457TIP3    H128786   5.629   3.764   4.864  1.2099  0.3496  0.5012
 2457TIP3    H228787   5.617   3.903   4.923  0.3958  0.8267 -0.7492
 2458TIP3   OH228788   3.341   4.031  15.567  1.2048  0.0594 -0.7138
 2458TIP3    H128789   3.315   4.055  15.656 -1.2425  1.2848 -1.6729
 2458TIP3    H228790   3.435   4.013  15.574  0.7869 -1.5349  2.4062
 2459TIP3   OH228791   0.972   4.680   4.774  0.0112  0.0098 -0.5051
 2459TIP3    H128792   0.906   4.622   4.735 -0.5506  0.3768 -0.1213
 2459TIP3    H228793   0.992   4.640   4.859  0.4291 -0.2062 -0.7054
 2460TIP3   OH228794   6.515   3.331  16.578  0.3992 -0.8290  0.1105
 2460TIP3    H128795   6.568   3.260  16.543 -0.0422 -0.8274 -0.5808
 2460TIP3    H228796   6.551   3.410  16.537 -0.1894 -0.8371 -0.4297
 2461TIP3   OH228797   6.249   5.493   3.345 -0.1543  0.1958 -0.1049
 2461TIP3    H128798   6.160   5.460   3.344 -0.2839  0.4523  1.1407
 2461TIP3    H228799   6.246   5.572   3.291 -0.8443  0.5609  0.4496
 2462TIP3   OH228800   0.476   4.854   1.855  0.3524 -0.1356 -0.2053
 2462TIP3    H128801   0.503   4.800   1.781  1.0724 -0.9492  0.6342
 2462TIP3    H228802   0.380   4.859   1.848  0.4851  0.9313 -1.9408
 2463TIP3   OH228803   6.073   5.995   1.056 -0.3414  0.0056  0.1551
 2463TIP3    H128804   6.079   5.991   0.960  1.9444 -1.2267  0.2882
 2463TIP3    H228805   6.036   6.082   1.073 -1.4101  0.0172 -1.8296
 2464TIP3   OH228806   4.994   6.708  14.754  0.4349  0.3804  0.0580
 2464TIP3    H128807   5.029   6.796  14.769  0.8835  0.1051  0.7086
 2464TIP3    H228808   4.933   6.718  14.682  0.0739  1.3304  0.4801
 2465TIP3   OH228809   4.045   0.384   6.652 -0.0242  0.0428  0.0632
 2465TIP3    H128810   4.105   0.330   6.601  1.0941  0.0963  1.2853
 2465TIP3    H228811   4.096   0.414   6.727 -0.9095  1.9542 -0.0209
 2466TIP3   OH228812   1.432   0.496   1.106  0.3341 -0.0112 -0.4828
 2466TIP3    H128813   1.336   0.487   1.108  0.2535  0.3875 -1.8660
 2466TIP3    H228814   1.452   0.550   1.183 -0.2903 -1.9891  1.1777
 2467TIP3   OH228815   3.070   3.306  15.741 -0.3355  0.5995  0.0440
 2467TIP3    H128816   3.010   3.246  15.697  0.2416  1.0813 -1.4593
 2467TIP3    H228817   3.082   3.268  15.828 -1.7916 -0.1936 -0.0732
 2468TIP3   OH228818   4.035   0.022   5.924 -0.1576 -0.0269 -0.3052
 2468TIP3    H128819   4.060   0.093   5.864 -0.8259 -1.1790 -2.0330
 2468TIP3    H228820   3.943   0.004   5.904 -0.0433 -1.2781  0.1600
 2469TIP3   OH228821   3.699   1.507   4.097  0.1966 -0.2422  0.3989
 2469TIP3    H128822   3.610   1.523   4.128 -0.3683 -0.1776 -1.1401
 2469TIP3    H228823   3.731   1.434   4.150 -0.4414  0.2858  1.5508
 2470TIP3   OH228824   4.971   1.180   1.174  0.6457  0.6188 -0.1676
 2470TIP3    H128825   4.899   1.127   1.207  2.0812 -0.6558  1.0534
 2470TIP3    H228826   4.930   1.239   1.109 -1.1247 -1.4981 -1.0908
 2471TIP3   OH228827   6.428   4.035   3.590  0.0818 -0.2754 -0.3735
 2471TIP3    H128828   6.492   3.964   3.580 -0.3617 -0.6703 -0.4346
 2471TIP3    H228829   6.433   4.059   3.683  1.6975  1.0199 -0.7344
 2472TIP3   OH228830   2.483   1.685  17.109 -0.4114 -0.0861  0.3325
 2472TIP3    H128831   2.472   1.737  17.030  0.1542 -0.8333 -0.2501
 2472TIP3    H228832   2.571   1.649  17.103  0.6977  1.9548  2.6033
 2473TIP3   OH228833   2.803   5.455   5.133  0.2418 -0.0425  0.0068
 2473TIP3    H128834   2.801   5.500   5.049 -0.8056  2.4747  1.2727
 2473TIP3    H228835   2.747   5.508   5.190 -1.1252 -2.9912  1.6743
 2474TIP3   OH228836   5.449   5.477   1.141  0.1101 -0.1442 -0.4353
 2474TIP3    H128837   5.366   5.511   1.177  0.0744 -1.0542  0.3971
 2474TIP3    H228838   5.491   5.553   1.101 -0.2841  0.7385  0.7642
 2475TIP3   OH228839   5.058   5.623  16.017  0.8279 -0.4753 -0.7824
 2475TIP3    H128840   5.118   5.649  16.086  1.3270 -0.8603 -1.0684
 2475TIP3    H228841   5.007   5.551  16.054 -1.1446  1.3602  0.3155
 2476TIP3   OH228842   0.722   3.765   4.206 -0.4853  0.0502  0.1152
 2476TIP3    H128843   0.684   3.789   4.290 -1.5070  0.8239 -0.5405
 2476TIP3    H228844   0.686   3.829   4.144 -1.2196 -1.5819 -1.2374
 2477TIP3   OH228845   0.662   1.995  14.907 -0.0099  0.0615  0.4028
 2477TIP3    H128846   0.641   2.005  14.999 -1.7340  0.0150  0.0418
 2477TIP3    H228847   0.750   2.034  14.898 -0.6276  1.8809  1.6826
 2478TIP3   OH228848   5.059   5.685  12.020 -0.4509 -0.0981 -0.2030
 2478TIP3    H128849   4.992   5.640  12.071  0.1658  0.7107  1.3868
 2478TIP3    H228850   5.060   5.774  12.055  0.3878  0.3381 -1.2701
 2479TIP3   OH228851   6.787   0.136   1.658 -0.2676  0.4166  0.7461
 2479TIP3    H128852   6.860   0.115   1.600 -0.8199  1.2221 -0.2785
 2479TIP3    H228853   6.827   0.181   1.733  0.3958 -0.1922  0.7693
 2480TIP3   OH228854   3.546   5.154  12.410 -0.2615 -0.5765 -0.0925
 2480TIP3    H128855   3.458   5.119  12.404 -0.1725 -0.6896 -0.7986
 2480TIP3    H228856   3.581   5.119  12.492 -0.5389 -1.2899 -0.2751
 2481TIP3   OH228857   1.098   3.748   0.620 -0.0597 -0.2408 -0.3716
 2481TIP3    H128858   1.043   3.819   0.588  2.5762  1.3851 -1.5999
 2481TIP3    H228859   1.173   3.792   0.660  0.7782 -2.3579  0.5297
 2482TIP3   OH228860   6.373   2.441  12.656  0.8316 -0.1917 -0.5309
 2482TIP3    H128861   6.428   2.400  12.723 -0.8982 -2.8321 -0.6108
 2482TIP3    H228862   6.293   2.465  12.701  0.3680 -0.3098 -1.2673
 2483TIP3   OH228863   0.786   1.448  15.533 -0.7547 -0.3057 -0.1902
 2483TIP3    H128864   0.838   1.490  15.465 -0.3897  0.8755  0.7700
 2483TIP3    H228865   0.809   1.356  15.528 -1.9303 -0.5344 -2.6805
 2484TIP3   OH228866   4.555   5.433  12.619  0.3186  0.7260 -0.7252
 2484TIP3    H128867   4.525   5.417  12.709  1.0241 -0.4343 -0.6662
 2484TIP3    H228868   4.642   5.472  12.630  2.7004 -3.8265 -0.7260
 2485TIP3   OH228869   5.131   5.644   5.377  0.2395 -0.3386  0.6291
 2485TIP3    H128870   5.080   5.684   5.446  0.1116  0.8597 -0.1317
 2485TIP3    H228871   5.081   5.566   5.351 -1.6113  1.1696 -0.5711
 2486TIP3   OH228872   3.637   5.057   0.960  0.4700  0.3957 -0.1604
 2486TIP3    H128873   3.594   4.983   0.917 -1.5410  1.7459 -0.5898
 2486TIP3    H228874   3.689   5.017   1.030 -1.3805 -1.3367  0.3081
 2487TIP3   OH228875   3.960   1.395   0.961  0.1138 -0.3527 -0.1600
 2487TIP3    H128876   3.933   1.430   0.876  0.7381 -2.0118 -1.0896
 2487TIP3    H228877   3.896   1.431   1.023 -2.4680 -1.7722 -1.8236
 2488TIP3   OH228878   3.962   4.141  13.845 -0.2607  0.5218 -0.0986
 2488TIP3    H128879   3.958   4.046  13.830  2.2765  0.5070 -1.1622
 2488TIP3    H228880   4.005   4.176  13.767 -1.7166  2.6725 -0.0150
 2489TIP3   OH228881   1.551   5.302   2.452 -0.0748 -0.7820  0.2361
 2489TIP3    H128882   1.602   5.314   2.372  0.9251 -1.2778  0.7883
 2489TIP3    H228883   1.512   5.389   2.469  1.3774 -0.1316  0.3478
 2490TIP3   OH228884   4.390   4.626   4.174  0.1802  0.2005  0.8666
 2490TIP3    H128885   4.469   4.600   4.221 -0.5023 -0.9378  1.4536
 2490TIP3    H228886   4.404   4.594   4.085  1.4895  2.3877  0.2237
 2491TIP3   OH228887   5.393   2.163   0.895 -0.2736 -0.5705  0.2022
 2491TIP3    H128888   5.366   2.247   0.858 -1.0857 -1.2576 -0.8179
 2491TIP3    H228889   5.311   2.123   0.925 -0.0132 -1.3889 -0.1525
 2492TIP3   OH228890   0.958   1.931  12.344 -0.5051  0.6029 -0.0102
 2492TIP3    H128891   0.932   1.887  12.263  1.0635  2.2133 -1.4789
 2492TIP3    H228892   0.899   2.007  12.350  0.0853  1.0899 -0.2548
 2493TIP3   OH228893   1.976   5.849   5.436  0.4592 -0.6749  0.6924
 2493TIP3    H128894   1.988   5.931   5.388 -2.4114 -1.4916 -1.7468
 2493TIP3    H228895   1.909   5.869   5.502  0.8006 -0.7359  1.0610
 2494TIP3   OH228896   0.934   1.118   0.271  0.2692 -0.2726  0.4870
 2494TIP3    H128897   0.920   1.192   0.212 -1.0388  0.5222  1.7480
 2494TIP3    H228898   1.002   1.149   0.332  2.3679 -1.4534 -1.1241
 2495TIP3   OH228899   0.237   5.579  15.994  0.6385 -0.2824 -0.0418
 2495TIP3    H128900   0.202   5.666  16.013 -0.3013 -0.6730  0.0984
 2495TIP3    H228901   0.234   5.572  15.899  1.8003  0.2596 -0.1331
 2496TIP3   OH228902   4.830   5.300  12.360 -0.5781 -0.1188  0.2452
 2496TIP3    H128903   4.785   5.217  12.349 -1.2411  0.2543  0.0628
 2496TIP3    H228904   4.782   5.361  12.304  1.1177 -0.0321 -1.2127
 2497TIP3   OH228905   5.127   0.310  15.048  0.3847  0.1980  0.3111
 2497TIP3    H128906   5.161   0.235  15.098 -0.7991  0.5975  1.7937
 2497TIP3    H228907   5.182   0.313  14.969 -0.5712 -3.2723 -0.6786
 2498TIP3   OH228908   4.589   6.145  14.567 -0.0265 -0.0467  0.1379
 2498TIP3    H128909   4.497   6.125  14.584  0.0467 -0.0349  0.5726
 2498TIP3    H228910   4.632   6.133  14.652  0.2374  0.7335  0.1226
 2499TIP3   OH228911   3.075   2.942   4.751  0.5279 -0.5465 -0.4951
 2499TIP3    H128912   3.052   3.031   4.778 -1.3952 -0.7527 -1.2886
 2499TIP3    H228913   3.100   2.898   4.832 -0.5759  0.1452  0.2580
 2500TIP3   OH228914   6.340   3.048  13.437  0.1996  0.4668 -0.6667
 2500TIP3    H128915   6.295   3.043  13.521  0.6015  0.9789 -0.4132
 2500TIP3    H228916   6.319   2.966  13.393  0.4499 -0.0576  0.1719
 2501TIP3   OH228917   3.577   6.343  13.534 -0.2004  0.1820 -0.2274
 2501TIP3    H128918   3.569   6.270  13.596  1.3250 -0.1510 -0.3850
 2501TIP3    H228919   3.489   6.380  13.530 -0.6819 -0.7406  0.9727
 2502TIP3   OH228920   3.187   4.799  12.263 -0.1461  0.2619  0.6249
 2502TIP3    H128921   3.101   4.758  12.256 -0.0088  0.0069  0.4094
 2502TIP3    H228922   3.235   4.744  12.325 -0.4620  0.9679  1.5113
 2503TIP3   OH228923   2.572   0.390  12.494 -0.4823  0.0099 -0.5370
 2503TIP3    H128924   2.667   0.392  12.486 -0.4396 -1.7075 -0.9290
 2503TIP3    H228925   2.544   0.480  12.475  1.0529  0.5760 -0.2688
 2504TIP3   OH228926   5.117   4.250  17.135  0.2317  0.4794 -0.5223
 2504TIP3    H128927   5.115   4.306  17.058 -0.5586 -0.4765 -1.2224
 2504TIP3    H228928   5.025   4.235  17.156  0.4244  1.0281  0.8554
 2505TIP3   OH228929   5.478   4.235   6.420 -0.6421 -0.4477 -0.0974
 2505TIP3    H128930   5.572   4.247   6.411 -0.8684  1.7951  0.0264
 2505TIP3    H228931   5.443   4.245   6.331 -0.9210  0.7324  0.1273
 2506TIP3   OH228932   5.682   1.447  12.063  0.3442 -0.0536 -0.0953
 2506TIP3    H128933   5.698   1.541  12.054  1.7947 -0.2351  0.4059
 2506TIP3    H228934   5.594   1.442  12.101  0.6586  1.1405  0.8738
 2507TIP3   OH228935   6.503   0.928   1.431 -0.6770  0.2258 -0.4385
 2507TIP3    H128936   6.577   0.985   1.411  0.2093 -0.7329  0.0204
 2507TIP3    H228937   6.442   0.942   1.358  0.3773  0.3135 -1.3263
 2508TIP3   OH228938   1.086   3.390  13.388  0.0386  0.7901  0.5388
 2508TIP3    H128939   1.054   3.359  13.473  0.0060  0.0019  0.2442
 2508TIP3    H228940   1.007   3.413  13.340 -0.0123  0.1672  0.3180
 2509TIP3   OH228941   5.444   1.814   4.879  0.9436  0.1007 -0.1437
 2509TIP3    H128942   5.362   1.812   4.829  1.4099  0.7331 -0.9503
 2509TIP3    H228943   5.431   1.885   4.942  0.4462 -0.5426  0.4945
 2510TIP3   OH228944   2.515   4.446   1.249 -0.2487  0.2929  0.1405
 2510TIP3    H128945   2.513   4.541   1.238 -1.6170  0.2295 -0.3213
 2510TIP3    H228946   2.489   4.411   1.164  1.7097 -0.5724 -0.1748
 2511TIP3   OH228947   0.707   4.540   4.775  0.5497 -0.0540 -0.6003
 2511TIP3    H128948   0.700   4.630   4.742  0.3419 -0.3731 -1.4520
 2511TIP3    H228949   0.652   4.489   4.715 -3.1651 -0.1361  2.4438
 2512TIP3   OH228950   0.105   0.791   2.147 -0.6091 -0.2336 -0.0134
 2512TIP3    H128951   0.069   0.848   2.079 -1.7156 -0.9234 -0.0206
 2512TIP3    H228952   0.033   0.734   2.172  0.4316 -1.5655  0.0749
 2513TIP3   OH228953   5.183   3.156   0.745 -0.0068 -0.2371 -0.3024
 2513TIP3    H128954   5.236   3.113   0.678  1.4639 -0.1026  0.7326
 2513TIP3    H228955   5.223   3.243   0.754 -1.6528  0.6215 -0.8840
 2514TIP3   OH228956   4.946   5.718   3.353 -0.2867 -0.0516  0.0505
 2514TIP3    H128957   4.973   5.786   3.292 -0.5723 -0.5776 -0.6884
 2514TIP3    H228958   5.028   5.683   3.388  0.1461 -2.0038 -2.5771
 2515TIP3   OH228959   4.834   6.139  14.233  0.1583  0.2734  0.4291
 2515TIP3    H128960   4.881   6.163  14.312  0.4968  0.7762  0.0827
 2515TIP3    H228961   4.759   6.087  14.263 -0.9692  2.2616  1.2774
 2516TIP3   OH228962   5.926   4.926   0.999 -0.2789  0.3297 -0.5761
 2516TIP3    H128963   5.842   4.957   0.964 -0.1144  1.5569  0.0417
 2516TIP3    H228964   5.904   4.893   1.086 -0.5044 -1.6754 -1.3499
 2517TIP3   OH228965   4.114   6.666   5.611  0.1197 -0.7379 -0.1948
 2517TIP3    H128966   4.184   6.717   5.651  0.2114 -0.5670 -0.5707
 2517TIP3    H228967   4.155   6.583   5.585 -0.1189 -1.1711  0.7765
 2518TIP3   OH228968   5.420   0.187   0.090 -0.5852  0.0394 -0.8962
 2518TIP3    H128969   5.377   0.231   0.016 -0.9232 -1.0256 -1.3593
 2518TIP3    H228970   5.513   0.192   0.070 -0.3495  2.9297  0.4268
 2519TIP3   OH228971   6.214   4.363  14.747 -0.2928  0.6373 -0.4704
 2519TIP3    H128972   6.149   4.431  14.729  0.7635  1.2446 -2.2969
 2519TIP3    H228973   6.240   4.378  14.838 -1.7754  1.1781 -0.1151
 2520TIP3   OH228974   1.997   1.421  16.349  0.1883 -0.1612  0.3113
 2520TIP3    H128975   1.967   1.456  16.433  0.3402  1.2345 -0.1870
 2520TIP3    H228976   2.063   1.356  16.372 -0.5461 -0.5975  1.2896
 2521TIP3   OH228977   0.143   2.644   2.804  0.5033 -0.5422 -0.0592
 2521TIP3    H128978   0.141   2.683   2.716 -0.0389  0.5503  0.4212
 2521TIP3    H228979   0.054   2.654   2.836  0.4192 -1.9542  0.2002
 2522TIP3   OH228980   4.425   2.956   4.459 -0.3196  0.1870 -0.1681
 2522TIP3    H128981   4.350   2.903   4.486 -1.7967  1.1915 -2.0390
 2522TIP3    H228982   4.396   3.046   4.473  1.2703  0.5842  0.7879
 2523TIP3   OH228983   3.379   4.861   0.929  0.4428 -0.2387 -0.1276
 2523TIP3    H128984   3.316   4.789   0.927  0.1837  0.0001 -2.0771
 2523TIP3    H228985   3.382   4.887   1.021 -2.1646 -0.3653  0.0561
 2524TIP3   OH228986   4.604   3.634   6.081 -0.2528  0.2433 -0.3129
 2524TIP3    H128987   4.619   3.565   6.145  0.5373  1.8252  1.3014
 2524TIP3    H228988   4.676   3.626   6.019 -0.7303 -0.9786 -0.7384
 2525TIP3   OH228989   4.444   3.728  10.463  0.1805  0.0711  0.6790
 2525TIP3    H128990   4.517   3.678  10.427  0.2783  0.9815 -0.4351
 2525TIP3    H228991   4.485   3.804  10.505 -0.1389  2.0506 -2.2573
 2526TIP3   OH228992   1.179   3.362   6.212  0.3991  0.3463  0.2238
 2526TIP3    H128993   1.095   3.346   6.254  1.3121  0.3841  2.1710
 2526TIP3    H228994   1.185   3.458   6.204 -0.4626  0.3016 -1.5924
 2527TIP3   OH228995   3.770   3.852   4.687 -0.1394  0.3955 -0.0710
 2527TIP3    H128996   3.747   3.796   4.613  0.1903 -1.1044  0.9190
 2527TIP3    H228997   3.701   3.836   4.751  0.5461  0.2836  0.6534
 2528TIP3   OH228998   0.926   3.952   0.588  0.9291 -0.5596  0.2485
 2528TIP3    H128999   0.841   3.916   0.562  0.6658 -0.0048  0.3231
 2528TIP3    H229000   0.935   4.031   0.536  1.0707 -0.2280  0.7732
 2529TIP3   OH229001   5.128   1.591  16.524 -0.3931  0.5316  0.8421
 2529TIP3    H129002   5.175   1.567  16.603 -0.3155 -0.5801  0.4731
 2529TIP3    H229003   5.188   1.648  16.477 -0.9437  2.3002  2.1651
 2530TIP3   OH229004   3.457   3.122   0.764 -0.0264  0.0478 -0.4112
 2530TIP3    H129005   3.491   3.195   0.712 -1.4520  0.1853 -1.1911
 2530TIP3    H229006   3.362   3.136   0.767 -0.4350 -2.1802 -1.2383
 2531TIP3   OH229007   0.153   4.715   1.299  0.0189  0.2625 -0.2398
 2531TIP3    H129008   0.173   4.621   1.305  0.0859  0.0430 -2.8499
 2531TIP3    H229009   0.216   4.756   1.359  0.8333 -1.2748  0.0214
 2532TIP3   OH229010   2.724   2.775   3.426  0.0136  0.4695  0.4390
 2532TIP3    H129011   2.634   2.769   3.459 -0.1527 -0.1293 -0.1100
 2532TIP3    H229012   2.728   2.861   3.383 -1.1701 -0.6106 -2.0195
 2533TIP3   OH229013   0.504   0.873   1.478 -0.0818  0.1302 -0.0621
 2533TIP3    H129014   0.515   0.781   1.457  2.0576  0.5586 -1.0347
 2533TIP3    H229015   0.467   0.911   1.398 -1.1086  0.1142  0.3907
 2534TIP3   OH229016   3.894   2.140   1.752  0.2619 -0.3205 -1.1223
 2534TIP3    H129017   3.917   2.225   1.791 -0.3856 -0.8666  0.5144
 2534TIP3    H229018   3.925   2.075   1.815 -0.5971 -1.2496 -1.6356
 2535TIP3   OH229019   6.315   6.686   2.306  0.4270 -0.3674 -0.2542
 2535TIP3    H129020   6.272   6.621   2.363 -0.8536  1.0331  0.4646
 2535TIP3    H229021   6.332   6.760   2.364  1.4305  0.1283 -1.1570
 2536TIP3   OH229022   1.599   3.736  14.901 -0.4528 -0.0454 -0.0782
 2536TIP3    H129023   1.675   3.731  14.960 -0.8173  1.8994  0.6307
 2536TIP3    H229024   1.550   3.655  14.918  1.7797 -1.7137 -1.0834
 2537TIP3   OH229025   1.893   2.036   5.820  0.5850  0.8808 -0.0980
 2537TIP3    H129026   1.802   2.045   5.790  0.9712  2.2094 -0.9265
 2537TIP3    H229027   1.886   2.024   5.915 -0.4366  1.2980 -0.1106
 2538TIP3   OH229028   0.406   4.438   2.601  0.8250  0.5847  0.3621
 2538TIP3    H129029   0.432   4.448   2.510  1.2048 -0.3789  0.3552
 2538TIP3    H229030   0.488   4.446   2.650  0.8218 -0.2562  0.5103
 2539TIP3   OH229031   6.270   1.608   3.871 -0.5348 -0.2343 -0.4229
 2539TIP3    H129032   6.208   1.543   3.837 -0.6007  0.0391 -0.8364
 2539TIP3    H229033   6.217   1.684   3.893 -0.3107  0.1565 -1.1730
 2540TIP3   OH229034   0.837   3.141   5.896 -0.0231  0.2022  0.5320
 2540TIP3    H129035   0.866   3.155   5.805  5.0648 -0.1024  1.7955
 2540TIP3    H229036   0.842   3.227   5.936 -1.7389  0.2352  0.7536
 2541TIP3   OH229037   3.713   3.824   0.641  0.2784  0.7185 -0.2117
 2541TIP3    H129038   3.694   3.914   0.669 -1.5985  0.0892  0.7192
 2541TIP3    H229039   3.727   3.776   0.722  2.9561  0.4322 -0.7499
 2542TIP3   OH229040   3.379   5.162  16.745  0.0177 -0.2300 -0.6546
 2542TIP3    H129041   3.459   5.211  16.763  0.4833 -1.1730 -0.0949
 2542TIP3    H229042   3.385   5.084  16.800 -1.3154 -0.2922 -0.5576
 2543TIP3   OH229043   4.893   6.777  16.335  0.5159 -0.1743 -0.2447
 2543TIP3    H129044   4.824   6.774  16.269  0.0474  0.4455  0.2127
 2543TIP3    H229045   4.857   6.831  16.406  1.2999 -0.2031  0.1865
 2544TIP3   OH229046   5.474   4.816  12.617  0.2341  0.6775 -0.1421
 2544TIP3    H129047   5.461   4.838  12.525  0.6835  1.4037 -0.0467
 2544TIP3    H229048   5.388   4.829  12.657 -0.5482 -1.8317 -0.8411
 2545TIP3   OH229049   2.386   5.762  11.944  0.1279 -0.1339  0.3305
 2545TIP3    H129050   2.455   5.696  11.934 -0.6392 -1.0501  0.9247
 2545TIP3    H229051   2.313   5.727  11.894  0.0331  0.7576 -0.1671
 2546TIP3   OH229052   4.877   3.354   1.395  0.0609  0.4148  0.4473
 2546TIP3    H129053   4.848   3.443   1.417 -0.2933 -0.0345  1.9141
 2546TIP3    H229054   4.812   3.297   1.435  1.7280 -0.5724  1.9234
 2547TIP3   OH229055   1.782   3.402  15.968 -0.6079 -0.4519 -0.1942
 2547TIP3    H129056   1.706   3.346  15.953 -0.8651 -0.0959 -0.2192
 2547TIP3    H229057   1.777   3.426  16.060 -0.2847 -0.7811 -0.0887
 2548TIP3   OH229058   3.356   3.422  16.307 -0.2451  0.0970  0.0613
 2548TIP3    H129059   3.331   3.459  16.392 -0.0575 -0.6521  0.4535
 2548TIP3    H229060   3.426   3.360  16.327 -0.1511 -0.0373 -0.6512
 2549TIP3   OH229061   3.694   1.174   4.716 -0.0809 -0.4906 -0.5635
 2549TIP3    H129062   3.771   1.226   4.691  0.0230 -1.1326 -1.6216
 2549TIP3    H229063   3.658   1.221   4.790  0.8954  0.2536 -0.5296
 2550TIP3   OH229064   6.293   3.846  14.682  0.0434  0.2276 -0.4604
 2550TIP3    H129065   6.328   3.932  14.704 -1.0464  0.6468 -0.3218
 2550TIP3    H229066   6.322   3.831  14.592  0.5159  0.5973 -0.3730
 2551TIP3   OH229067   1.985   1.983  16.214 -0.0555 -0.2488  0.0797
 2551TIP3    H129068   2.044   1.912  16.238 -1.0468 -1.0981  0.0690
 2551TIP3    H229069   2.038   2.062  16.222  0.8800 -0.9241  0.7447
 2552TIP3   OH229070   1.045   5.979   3.665  0.1420 -0.1159 -0.0654
 2552TIP3    H129071   1.055   6.030   3.584 -0.7151  0.1710 -0.0047
 2552TIP3    H229072   1.119   6.006   3.719  0.5070 -0.0206 -0.6003
 2553TIP3   OH229073   2.773   6.018  11.116  0.2299  0.0221 -0.7290
 2553TIP3    H129074   2.727   6.071  11.182  2.7149 -0.2612  1.3854
 2553TIP3    H229075   2.791   5.935  11.160 -0.2895 -1.2189 -2.7221
 2554TIP3   OH229076   4.002   6.566   1.082  0.5600  0.3815 -0.4550
 2554TIP3    H129077   4.072   6.518   1.038 -0.7661 -1.1670 -0.9714
 2554TIP3    H229078   3.938   6.583   1.013  0.3419  1.6686  0.0331
 2555TIP3   OH229079   5.016   5.922  12.129 -0.4594  0.0481  0.1780
 2555TIP3    H129080   5.081   5.964  12.185  0.8001 -1.0572 -0.4084
 2555TIP3    H229081   4.971   5.995  12.086  1.3203  0.8464 -0.4302
 2556TIP3   OH229082   0.399   2.770   3.715 -0.1484  0.6432 -0.4770
 2556TIP3    H129083   0.389   2.759   3.620 -1.1506 -0.9200 -0.2252
 2556TIP3    H229084   0.310   2.779   3.747  0.0512 -0.5648  0.4821
 2557TIP3   OH229085   5.136   3.066  16.823  0.1142 -0.4188 -0.3083
 2557TIP3    H129086   5.231   3.074  16.814  0.5767 -3.0629  1.2960
 2557TIP3    H229087   5.111   3.137  16.882  0.6518  1.6585 -2.3814
 2558TIP3   OH229088   2.109   1.727  16.861 -0.3885  0.6461 -0.2405
 2558TIP3    H129089   2.033   1.681  16.827 -1.1701  2.4573 -1.0516
 2558TIP3    H229090   2.080   1.766  16.944  0.7510 -1.5681  1.3198
 2559TIP3   OH229091   0.913   6.080  11.163 -0.8546 -0.8521  0.3559
 2559TIP3    H129092   0.909   6.087  11.259 -1.5158 -1.7318  0.4078
 2559TIP3    H229093   0.987   6.023  11.146 -0.7286 -0.6846  0.3427
 2560TIP3   OH229094   0.497   1.054  14.165  0.0378  0.3441  0.0690
 2560TIP3    H129095   0.404   1.070  14.180 -0.3001  1.5281 -2.7010
 2560TIP3    H229096   0.540   1.089  14.243 -1.7516  0.8415  0.8845
 2561TIP3   OH229097   5.065   1.073  11.358  0.1237  0.1459  0.2514
 2561TIP3    H129098   5.059   0.979  11.376 -0.3242  0.3338  1.1553
 2561TIP3    H229099   5.155   1.086  11.329  0.7484 -0.2901  1.8709
 2562TIP3   OH229100   2.448   1.607   6.321 -0.2265  0.2441 -0.5605
 2562TIP3    H129101   2.526   1.555   6.304  0.0788  0.9164 -1.2898
 2562TIP3    H229102   2.396   1.555   6.382  0.1466 -0.8269 -1.1377
 2563TIP3   OH229103   2.809   2.141   1.506 -0.5564 -0.1250 -0.5355
 2563TIP3    H129104   2.893   2.101   1.528 -0.6420 -0.5263 -0.9208
 2563TIP3    H229105   2.820   2.233   1.528  0.6083  0.1905 -2.2603
 2564TIP3   OH229106   1.423   3.906  14.498  0.1302 -0.1622  0.4774
 2564TIP3    H129107   1.436   3.913  14.593 -0.7193 -1.2679  0.6920
 2564TIP3    H229108   1.384   3.820  14.485 -0.1967  0.1577 -0.8363
 2565TIP3   OH229109   2.224   0.530   4.770 -0.5409  0.1708  0.4992
 2565TIP3    H129110   2.142   0.572   4.795 -0.5482  0.9424 -0.7380
 2565TIP3    H229111   2.292   0.589   4.801 -0.4229 -0.5393  1.6511
 2566TIP3   OH229112   4.953   3.101   4.309 -0.1251  0.2758  0.1211
 2566TIP3    H129113   4.908   3.166   4.255 -1.8153 -0.2001  0.9174
 2566TIP3    H229114   4.967   3.144   4.393  1.1326  0.4809 -0.1611
 2567TIP3   OH229115   6.549   3.363   6.699 -0.4650  0.0457 -0.4285
 2567TIP3    H129116   6.568   3.287   6.644 -0.9412  0.2537 -0.8862
 2567TIP3    H229117   6.454   3.362   6.710 -0.4517  0.4498 -0.2455
 2568TIP3   OH229118   4.645   1.383   0.895 -0.2944 -0.3325  0.0775
 2568TIP3    H129119   4.679   1.349   0.977  0.1229  1.9972  0.9550
 2568TIP3    H229120   4.592   1.459   0.921  1.4601  1.7021 -1.8707
 2569TIP3   OH229121   3.970   3.872  14.069  0.8445  0.0333  0.2814
 2569TIP3    H129122   4.002   3.783  14.084  1.2586 -0.0247 -0.8416
 2569TIP3    H229123   4.047   3.922  14.044  0.6527  0.7786  1.1330
 2570TIP3   OH229124   1.853   2.113  11.352  0.9653 -0.0912  0.1343
 2570TIP3    H129125   1.839   2.100  11.258  1.9588 -0.0091 -0.0378
 2570TIP3    H229126   1.945   2.089  11.365  1.5528  2.2564  0.6525
 2571TIP3   OH229127   3.707   5.669   4.340  0.0112 -0.2857 -0.2413
 2571TIP3    H129128   3.700   5.655   4.434 -0.2212 -0.0115 -0.2144
 2571TIP3    H229129   3.688   5.584   4.301 -0.9541 -0.1620 -0.0705
 2572TIP3   OH229130   3.272   3.469  10.768  0.6147 -0.0910  0.2798
 2572TIP3    H129131   3.295   3.552  10.809  0.4815 -0.7286  1.6848
 2572TIP3    H229132   3.296   3.403  10.832  0.8012 -1.1596 -0.8564
 2573TIP3   OH229133   0.554   4.686  15.881  0.0538 -0.0218  0.0278
 2573TIP3    H129134   0.567   4.780  15.898  0.9909  0.0885 -1.2063
 2573TIP3    H229135   0.544   4.648  15.969  0.9727  1.0514  0.6319
 2574TIP3   OH229136   1.374   6.286   5.018  0.2778 -0.5890  0.6299
 2574TIP3    H129137   1.428   6.209   5.003  0.2090 -0.7866  1.3297
 2574TIP3    H229138   1.412   6.327   5.096 -1.3846 -1.4951  1.9959
 2575TIP3   OH229139   0.747   1.597  13.286 -0.3577  0.5694  0.2335
 2575TIP3    H129140   0.773   1.560  13.370  1.1600 -0.3471 -0.5967
 2575TIP3    H229141   0.799   1.678  13.278  0.5814 -0.0825 -0.4262
 2576TIP3   OH229142   6.379   5.356  13.781  0.4293  0.0867  0.2221
 2576TIP3    H129143   6.328   5.392  13.854  0.9133  0.1896  0.5184
 2576TIP3    H229144   6.314   5.325  13.719 -0.0327 -1.7002  1.5090
 2577TIP3   OH229145   3.333   2.627   1.099  0.2289 -0.1625  0.0458
 2577TIP3    H129146   3.425   2.601   1.091 -0.3673 -2.1437 -1.3595
 2577TIP3    H229147   3.297   2.567   1.166  0.2758  1.7288  1.8607
 2578TIP3   OH229148   1.670   1.236  16.472 -0.0466  0.0189  0.6349
 2578TIP3    H129149   1.640   1.312  16.521  0.6294  1.6848 -1.3940
 2578TIP3    H229150   1.589   1.191  16.446 -0.6893  2.0107 -1.0464
 2579TIP3   OH229151   6.436   2.828  10.771 -0.1945  0.5808  0.1063
 2579TIP3    H129152   6.512   2.791  10.815  0.6194  3.4690  1.3849
 2579TIP3    H229153   6.364   2.815  10.832 -0.4168 -0.7355 -0.4083
 2580TIP3   OH229154   3.228   4.349   4.644  0.6195 -0.3522 -0.3092
 2580TIP3    H129155   3.207   4.372   4.553 -1.1404 -2.4876 -0.5306
 2580TIP3    H229156   3.150   4.373   4.694 -0.3184 -3.2663 -0.1791
 2581TIP3   OH229157   2.713   1.586  12.248  0.1271 -0.6610 -0.4781
 2581TIP3    H129158   2.618   1.582  12.248  0.0166  1.1494 -0.5279
 2581TIP3    H229159   2.739   1.544  12.166 -0.6716 -0.4858 -0.8282
 2582TIP3   OH229160   4.763   1.185   1.770 -0.0814 -0.2504  0.4451
 2582TIP3    H129161   4.839   1.214   1.719 -0.6683 -0.6310 -0.6799
 2582TIP3    H229162   4.726   1.265   1.806  2.1033 -0.1946  2.9180
 2583TIP3   OH229163   3.655   2.357  14.778 -0.0028  0.8516 -0.0017
 2583TIP3    H129164   3.623   2.435  14.733 -1.3001  1.1141  1.2934
 2583TIP3    H229165   3.593   2.288  14.753 -0.2471  0.8103  0.6838
 2584TIP3   OH229166   2.328   0.358  14.240  0.2575 -0.1915 -0.7769
 2584TIP3    H129167   2.325   0.307  14.321 -0.2106  1.7798  0.5187
 2584TIP3    H229168   2.421   0.366  14.219  0.3685 -0.9033 -0.5778
 2585TIP3   OH229169   0.335   2.245  14.583 -0.1948 -0.3899 -0.6834
 2585TIP3    H129170   0.277   2.267  14.509 -2.5762  0.2029  1.2248
 2585TIP3    H229171   0.297   2.165  14.619 -1.3346  1.1987  1.9565
 2586TIP3   OH229172   0.147   3.238  16.628 -0.1805 -0.5391  0.2857
 2586TIP3    H129173   0.143   3.204  16.717  0.1386 -4.1499 -0.8985
 2586TIP3    H229174   0.122   3.163  16.573 -0.9266  1.6796 -2.6602
 2587TIP3   OH229175   1.160   0.848   0.005 -0.3435 -0.4940 -0.2882
 2587TIP3    H129176   1.250   0.872  -0.017  0.2768 -1.3815  1.0865
 2587TIP3    H229177   1.110   0.929  -0.006  0.5721 -0.0428 -1.2991
 2588TIP3   OH229178   3.857   4.186   2.272 -0.2080 -0.1719  0.5021
 2588TIP3    H129179   3.945   4.206   2.306  0.0402 -0.4316  0.0133
 2588TIP3    H229180   3.817   4.131   2.339 -0.4522  0.9470  1.3036
 2589TIP3   OH229181   2.804   0.733  17.081  0.0880  0.1346  0.2908
 2589TIP3    H129182   2.828   0.682  17.004  1.2600 -2.5459  2.2530
 2589TIP3    H229183   2.800   0.823  17.050 -0.7218 -0.9080 -3.1290
 2590TIP3   OH229184   2.158   2.309   5.379  0.2093  0.0931  0.5611
 2590TIP3    H129185   2.179   2.231   5.328 -3.0927  1.0831 -2.7366
 2590TIP3    H229186   2.083   2.284   5.432 -1.1377  1.0374 -0.8303
 2591TIP3   OH229187   0.031   2.010  16.548  0.3219  0.5739  0.0945
 2591TIP3    H129188   0.001   2.080  16.490  1.6557 -0.3010 -1.7249
 2591TIP3    H229189  -0.018   1.933  16.520  0.8924  0.1685  0.2020
 2592TIP3   OH229190   0.511   3.306  13.726  0.2010 -0.2882 -0.3202
 2592TIP3    H129191   0.515   3.277  13.635  1.8443 -0.5085 -0.2133
 2592TIP3    H229192   0.478   3.396  13.721  0.7183 -0.1335 -1.1778
 2593TIP3   OH229193   6.183   4.752  16.879 -0.5992 -0.2015 -0.5273
 2593TIP3    H129194   6.157   4.720  16.792  0.6206  0.2158 -1.0687
 2593TIP3    H229195   6.146   4.840  16.884 -1.7949 -0.7090 -0.0693
 2594TIP3   OH229196   6.320   6.656  15.818 -0.5736  0.1459 -0.1593
 2594TIP3    H129197   6.283   6.612  15.742 -1.8138  0.1040  0.4487
 2594TIP3    H229198   6.353   6.585  15.873  0.5402  0.1886 -0.7462
 2595TIP3   OH229199   0.720   2.138  14.548 -0.4796 -0.0359 -0.1964
 2595TIP3    H129200   0.655   2.208  14.552 -1.3956 -0.8258 -0.7768
 2595TIP3    H229201   0.774   2.160  14.472 -0.6047  0.1822 -0.2223
 2596TIP3   OH229202   2.422   4.210  12.373 -0.3258  0.1646 -0.0369
 2596TIP3    H129203   2.409   4.161  12.454  0.7035  1.4262  0.9150
 2596TIP3    H229204   2.424   4.302  12.400 -0.6411  0.6531 -1.5845
 2597TIP3   OH229205   3.719   5.387   1.177 -0.4996  0.2822 -0.1489
 2597TIP3    H129206   3.805   5.428   1.180 -0.7970  0.8697  0.6302
 2597TIP3    H229207   3.674   5.419   1.255 -2.5147  2.4169 -2.0120
 2598TIP3   OH229208   4.947   5.976   3.822  0.4112  0.0970 -0.2225
 2598TIP3    H129209   4.970   5.954   3.732 -0.9789 -1.8557 -0.1682
 2598TIP3    H229210   4.981   5.903   3.874 -2.1776 -0.8791  0.2898
 2599TIP3   OH229211   2.016   4.837   2.883 -0.5837  0.1313 -0.4516
 2599TIP3    H129212   2.020   4.785   2.803 -0.8030  1.3233 -1.2573
 2599TIP3    H229213   2.019   4.928   2.853  3.0925  0.6995  1.0191
 2600TIP3   OH229214   1.073   4.852   0.795  0.4603 -0.1849  0.1668
 2600TIP3    H129215   1.118   4.786   0.743  1.4343 -0.3353  1.1577
 2600TIP3    H229216   1.086   4.824   0.886 -0.6889  0.3829  0.5331
 2601TIP3   OH229217   5.963   4.633  15.611  0.5402  0.0333  0.1789
 2601TIP3    H129218   5.917   4.668  15.536 -0.0315 -0.8582  0.1024
 2601TIP3    H229219   5.938   4.541  15.615 -0.8747  0.4312  2.5030
 2602TIP3   OH229220   2.898   5.676   6.752  0.1780 -0.1212  0.2487
 2602TIP3    H129221   2.910   5.747   6.815 -1.4561 -0.0626  0.5390
 2602TIP3    H229222   2.805   5.680   6.728  0.8608  0.3831 -2.8146
 2603TIP3   OH229223   1.050   5.087  10.664 -1.0466 -0.4833 -0.8711
 2603TIP3    H129224   1.064   5.074  10.570 -3.5294 -1.0840 -1.2440
 2603TIP3    H229225   0.974   5.146  10.668 -0.3524  0.3609  0.7832
 2604TIP3   OH229226   1.700   5.308   2.783 -0.2211  0.3961 -0.1066
 2604TIP3    H129227   1.708   5.214   2.766 -0.6181  0.3617 -0.1076
 2604TIP3    H229228   1.784   5.345   2.753 -0.6173  0.2355 -1.5048
 2605TIP3   OH229229   6.192   2.862  12.278  0.4436  0.0362 -0.2263
 2605TIP3    H129230   6.177   2.915  12.357  1.7941 -0.4925  0.4190
 2605TIP3    H229231   6.227   2.779  12.312  0.1611 -0.5444 -1.3371
 2606TIP3   OH229232   4.740   1.472  13.358  0.2048 -0.2559  0.5234
 2606TIP3    H129233   4.668   1.410  13.348  0.3807 -0.5559  1.0534
 2606TIP3    H229234   4.698   1.558  13.364 -0.0393 -0.3179 -0.2250
 2607TIP3   OH229235   6.087   5.162  16.201  0.3722  0.5224 -0.0991
 2607TIP3    H129236   6.017   5.221  16.229  0.0458  0.1546 -0.1363
 2607TIP3    H229237   6.051   5.074  16.214  1.8105  0.2184  2.5910
 2608TIP3   OH229238   2.418   5.276  14.970 -0.1875 -0.0590 -0.2774
 2608TIP3    H129239   2.490   5.309  14.917 -0.1213  0.7151  0.2762
 2608TIP3    H229240   2.429   5.181  14.969  0.8520  0.0525 -0.1794
 2609TIP3   OH229241   5.841   3.838  13.501  0.1480 -0.0111 -0.5581
 2609TIP3    H129242   5.853   3.919  13.451  0.1966  0.7500  0.6358
 2609TIP3    H229243   5.771   3.791  13.456  0.6073  0.3489 -1.6824
 2610TIP3   OH229244   5.911   0.442   1.409  0.2547 -0.1519 -0.0502
 2610TIP3    H129245   5.817   0.455   1.420  0.5787  2.0993  0.5737
 2610TIP3    H229246   5.932   0.369   1.468 -1.3850 -2.1968 -1.8584
 2611TIP3   OH229247   1.948   4.490   3.839  0.3922  0.3666 -0.1066
 2611TIP3    H129248   1.858   4.520   3.841  0.2331 -0.1469  1.1054
 2611TIP3    H229249   1.962   4.460   3.749 -0.7385  0.1806 -0.2290
 2612TIP3   OH229250   0.765   3.665   1.226  0.5284 -0.1897 -0.1152
 2612TIP3    H129251   0.843   3.703   1.266  1.9122 -0.3896 -2.4771
 2612TIP3    H229252   0.751   3.715   1.146 -0.8998 -1.1060 -0.4876
 2613TIP3   OH229253   1.171   2.407   1.536 -0.0244  0.8995 -0.3112
 2613TIP3    H129254   1.216   2.345   1.478 -0.0845  0.5148  0.0480
 2613TIP3    H229255   1.234   2.424   1.606  0.4528  2.1727 -1.0192
 2614TIP3   OH229256   5.170   6.328  14.704 -0.2294 -0.3905  0.4570
 2614TIP3    H129257   5.191   6.298  14.793  2.5374 -0.0581 -0.0002
 2614TIP3    H229258   5.208   6.262  14.646  2.4068  1.7564 -0.4821
 2615TIP3   OH229259   5.495   3.582  14.118 -0.2796  0.0040 -0.5786
 2615TIP3    H129260   5.580   3.607  14.082 -0.1977 -0.6379 -0.8421
 2615TIP3    H229261   5.479   3.645  14.188  1.2574 -0.9361  0.6750
 2616TIP3   OH229262   6.007   5.611   1.116  0.3242 -0.0064  0.8536
 2616TIP3    H129263   5.990   5.681   1.178 -1.2429  1.1108 -0.7299
 2616TIP3    H229264   6.076   5.645   1.059  0.2475 -0.1549  0.6711
 2617TIP3   OH229265   5.489   6.594   0.904 -0.2196  0.5131  0.1087
 2617TIP3    H129266   5.400   6.567   0.879 -0.8984  0.8034  2.0025
 2617TIP3    H229267   5.546   6.524   0.872 -1.4866 -1.2281  1.4373
 2618TIP3   OH229268   6.110   4.409   2.729 -0.2716  0.4511  0.4621
 2618TIP3    H129269   6.131   4.327   2.684  3.5324  1.9035 -0.7836
 2618TIP3    H229270   6.086   4.469   2.659 -3.1145  0.5620  1.3749
 2619TIP3   OH229271   5.503   4.309  11.847  0.1250  0.3618  0.3993
 2619TIP3    H129272   5.546   4.261  11.776  0.4497  0.1720  0.7212
 2619TIP3    H229273   5.563   4.300  11.921 -0.1270  0.7133  0.6448
 2620TIP3   OH229274   2.659   5.380   3.640  0.1519  0.4974 -0.1864
 2620TIP3    H129275   2.670   5.454   3.581  3.2245  0.8514  0.6549
 2620TIP3    H229276   2.706   5.308   3.597 -0.3125 -0.1481  0.3597
 2621TIP3   OH229277   2.032   1.959   1.906 -0.2782  0.5157 -0.1287
 2621TIP3    H129278   2.033   1.935   1.814  0.2372 -0.5576  0.1410
 2621TIP3    H229279   1.999   2.049   1.907  0.4020  0.8069 -1.4205
 2622TIP3   OH229280   2.751   1.994  15.820  0.4010  0.1446 -0.3366
 2622TIP3    H129281   2.706   1.985  15.736  0.7292  2.3043 -0.7932
 2622TIP3    H229282   2.697   1.944  15.881 -1.0954  0.3746 -1.4068
 2623TIP3   OH229283   2.226   4.798  11.150  0.4671  0.0961  0.3923
 2623TIP3    H129284   2.290   4.809  11.220  1.1098  1.8431 -0.4294
 2623TIP3    H229285   2.275   4.754  11.080  0.4932  0.5005  0.1540
 2624TIP3   OH229286   1.823   6.611  13.290  0.8233  0.4952  0.2417
 2624TIP3    H129287   1.766   6.549  13.336  0.1689  1.2152  0.4250
 2624TIP3    H229288   1.883   6.643  13.357  0.7268  0.5593  0.2970
 2625TIP3   OH229289   2.382   1.504   4.335  0.0296  0.1963 -0.2607
 2625TIP3    H129290   2.381   1.599   4.338 -2.5205  0.2215  0.2767
 2625TIP3    H229291   2.291   1.478   4.351  0.3853 -2.2866 -1.6707
 2626TIP3   OH229292   2.399   2.129   2.285  0.3800  0.4929  0.1728
 2626TIP3    H129293   2.331   2.099   2.226 -0.2742  0.5580  0.8800
 2626TIP3    H229294   2.473   2.151   2.228  1.3906 -3.5310 -0.3973
 2627TIP3   OH229295   6.553   1.668   2.011  0.6946  0.1128  0.1369
 2627TIP3    H129296   6.488   1.635   1.949  0.7626 -1.5876  0.9165
 2627TIP3    H229297   6.502   1.694   2.087  0.5592  2.6374 -0.7022
 2628TIP3   OH229298   6.589   4.446  12.391 -0.0009  0.3022  0.0754
 2628TIP3    H129299   6.573   4.430  12.484 -1.0751  0.3368 -0.0854
 2628TIP3    H229300   6.653   4.517  12.390  0.2106  0.1353  0.7904
 2629TIP3   OH229301   2.102   6.653  10.806  0.4696 -0.3326  0.0923
 2629TIP3    H129302   2.181   6.705  10.813  0.4574 -0.1113 -1.1965
 2629TIP3    H229303   2.128   6.565  10.833  1.3192 -0.4065 -0.9227
 2630TIP3   OH229304   5.166   5.301   4.559 -0.4924  0.2838  0.3091
 2630TIP3    H129305   5.166   5.299   4.655  0.3793  0.5119  0.3245
 2630TIP3    H229306   5.104   5.232   4.534 -1.2181  0.6560  1.0328
 2631TIP3   OH229307   4.017   3.475   1.293  0.0495 -0.1431  0.0152
 2631TIP3    H129308   3.965   3.555   1.288 -0.5520 -0.4541  1.0117
 2631TIP3    H229309   4.104   3.501   1.261 -0.2889  0.7637 -0.1968
 2632TIP3   OH229310   5.060   0.553   0.281  0.0560 -0.9301 -0.2908
 2632TIP3    H129311   4.990   0.491   0.263 -1.2901  0.4887 -0.1638
 2632TIP3    H229312   5.139   0.512   0.247 -0.9554 -2.2574 -1.1014
 2633TIP3   OH229313   0.914   6.350   6.214 -0.3825 -0.3335 -0.1472
 2633TIP3    H129314   0.962   6.268   6.198 -2.2682 -1.5100 -0.0472
 2633TIP3    H229315   0.884   6.342   6.304 -1.7363 -0.1874 -0.5627
 2634TIP3   OH229316   4.435   5.074  13.723 -0.1242  0.4107 -0.6762
 2634TIP3    H129317   4.436   5.168  13.704 -1.2305  0.7470  0.7801
 2634TIP3    H229318   4.454   5.068  13.816  3.8080 -1.0916 -1.4019
 2635TIP3   OH229319   3.498   1.289  12.411 -0.0552 -0.5712  0.2396
 2635TIP3    H129320   3.525   1.343  12.484 -0.4579  0.7124 -0.5341
 2635TIP3    H229321   3.411   1.322  12.386 -0.3273 -1.5874 -0.2301
 2636TIP3   OH229322   6.767   4.658  13.415 -0.5838  0.2147  0.6498
 2636TIP3    H129323   6.832   4.654  13.344 -0.9647  1.0148  0.2422
 2636TIP3    H229324   6.726   4.571  13.414  0.9972 -0.5659  1.4303
 2637TIP3   OH229325   4.579   2.370   1.067 -0.0694  0.5096 -0.5076
 2637TIP3    H129326   4.551   2.455   1.034 -0.1269  0.7574  0.1574
 2637TIP3    H229327   4.650   2.390   1.128 -1.8479  0.3578  1.7598
 2638TIP3   OH229328   3.475   5.252   0.359 -0.4826 -0.0356  0.4468
 2638TIP3    H129329   3.569   5.254   0.381 -0.0324 -0.6572 -1.2720
 2638TIP3    H229330   3.471   5.278   0.267 -1.8190 -1.6792 -0.0090
 2639TIP3   OH229331   2.916   3.731  12.574 -0.1125  0.4545  0.6743
 2639TIP3    H129332   2.881   3.762  12.658 -1.1047 -0.3966  0.5894
 2639TIP3    H229333   2.845   3.680  12.535  0.4061  0.6840 -0.6092
 2640TIP3   OH229334   2.572   2.809  13.056 -0.3722 -0.0862  0.7804
 2640TIP3    H129335   2.637   2.788  13.123  0.9361 -1.2143 -0.7433
 2640TIP3    H229336   2.563   2.728  13.006 -3.3420 -0.1005  1.1848
 2641TIP3   OH229337   4.651   1.612   1.541  0.2019 -0.5052  0.3047
 2641TIP3    H129338   4.695   1.547   1.487 -0.4600 -0.0377 -0.8361
 2641TIP3    H229339   4.571   1.634   1.493  0.8038  1.7537  0.1989
 2642TIP3   OH229340   5.127   1.276  14.189  0.4800 -0.0516  0.3351
 2642TIP3    H129341   5.071   1.229  14.126  1.0395  2.1490 -1.9580
 2642TIP3    H229342   5.071   1.347  14.221  0.7402 -0.1768  1.0769
 2643TIP3   OH229343   2.383   3.425   2.234  0.4662 -0.2075  0.4268
 2643TIP3    H129344   2.390   3.336   2.270 -2.9602 -0.7739  0.0155
 2643TIP3    H229345   2.336   3.474   2.302 -0.6844  0.3433 -0.7350
 2644TIP3   OH229346   0.335   0.700   3.228 -0.5536 -0.7700 -0.2851
 2644TIP3    H129347   0.415   0.745   3.205 -1.5070  0.1819 -1.9284
 2644TIP3    H229348   0.361   0.608   3.239  0.6240 -0.6263 -1.6124
 2645TIP3   OH229349   5.701   4.016   3.877  0.0543 -0.7475 -0.1737
 2645TIP3    H129350   5.611   3.989   3.893 -0.6466  0.6167 -1.6314
 2645TIP3    H229351   5.707   4.027   3.782  1.4720  0.1489 -0.0118
 2646TIP3   OH229352   2.687   3.049   3.309 -0.6590 -0.1612 -0.0733
 2646TIP3    H129353   2.668   3.103   3.385  1.0956 -1.4841  1.3926
 2646TIP3    H229354   2.603   3.039   3.265 -1.5825  1.2180  1.3005
 2647TIP3   OH229355   5.106   1.850  14.757  0.5026 -0.2023  0.1907
 2647TIP3    H129356   5.037   1.913  14.740 -0.0344 -0.5235  1.1202
 2647TIP3    H229357   5.182   1.904  14.782  1.3955  0.3092 -3.1066
 2648TIP3   OH229358   0.156   3.512  10.451  0.0235 -0.1386 -0.3069
 2648TIP3    H129359   0.128   3.422  10.463 -0.2319  0.1800  1.7667
 2648TIP3    H229360   0.120   3.559  10.526  1.2670  1.4293 -0.6435
 2649TIP3   OH229361   6.801   2.506  16.641  0.2230  0.2244  0.4469
 2649TIP3    H129362   6.754   2.439  16.690 -1.4659 -0.1126 -1.5324
 2649TIP3    H229363   6.867   2.458  16.591 -0.7465  0.0684 -0.6945
 2650TIP3   OH229364   1.394   1.259   1.251  0.3094 -0.0389  0.1521
 2650TIP3    H129365   1.469   1.290   1.200 -0.8229  0.4651 -1.2858
 2650TIP3    H229366   1.410   1.166   1.264  0.3808 -0.3101 -1.6426
 2651TIP3   OH229367   0.826   1.880   2.019 -0.4747 -0.3055 -0.1893
 2651TIP3    H129368   0.880   1.825   2.076 -0.3977  0.3411  0.3831
 2651TIP3    H229369   0.888   1.942   1.980 -0.6968 -0.0077 -0.0722
 2652TIP3   OH229370   4.802   0.224  10.417 -0.2564 -0.0765 -0.0608
 2652TIP3    H129371   4.725   0.242  10.470  0.3183 -0.2884  0.8596
 2652TIP3    H229372   4.788   0.135  10.384 -0.8072  0.2099 -0.6113
 2653TIP3   OH229373   2.950   4.794  15.889  0.7635 -0.0054  0.1036
 2653TIP3    H129374   2.866   4.838  15.886  1.5036  1.4103 -0.7042
 2653TIP3    H229375   2.977   4.799  15.980  0.1883 -0.0633  0.2787
 2654TIP3   OH229376   3.105   4.196  11.747 -0.3863  0.2959 -0.1199
 2654TIP3    H129377   3.024   4.193  11.696 -1.8588 -0.8172  2.1308
 2654TIP3    H229378   3.085   4.252  11.822  0.3410 -1.2760  1.3273
 2655TIP3   OH229379   3.603   6.258   0.441  0.2482  0.7313  0.1884
 2655TIP3    H129380   3.534   6.273   0.505 -0.9598 -1.6733 -0.4235
 2655TIP3    H229381   3.656   6.187   0.478  0.6649  0.6109 -0.6091
 2656TIP3   OH229382   3.062   6.573  14.744  0.0956  0.0061  0.2240
 2656TIP3    H129383   3.077   6.659  14.783  0.4577 -0.2864  0.7394
 2656TIP3    H229384   3.036   6.517  14.817 -1.2045 -0.0821 -0.2714
 2657TIP3   OH229385   6.514   2.816  15.385  0.0032  0.2556 -0.0515
 2657TIP3    H129386   6.515   2.909  15.406 -1.6032  0.8370 -2.2008
 2657TIP3    H229387   6.496   2.773  15.469 -0.0689  1.9210  0.8420
 2658TIP3   OH229388   5.053   1.950   1.864  0.1794  0.5575  0.1070
 2658TIP3    H129389   5.111   1.875   1.879 -1.5099 -0.5170  1.7045
 2658TIP3    H229390   4.984   1.940   1.929 -0.1166  3.5469  0.3870
 2659TIP3   OH229391   5.580   1.804   1.248  0.3028 -0.2817  0.2331
 2659TIP3    H129392   5.621   1.719   1.266 -0.6417 -0.6913  0.5083
 2659TIP3    H229393   5.575   1.808   1.153  2.2984  0.4325  0.1121
 2660TIP3   OH229394   3.649   0.880  16.248 -0.1972 -0.5896 -0.4038
 2660TIP3    H129395   3.645   0.824  16.325  0.1360 -0.0511  0.0137
 2660TIP3    H229396   3.578   0.943  16.259  1.5957  1.3311  0.9603
 2661TIP3   OH229397   4.510   0.427   5.033  0.2535 -0.0836 -0.0192
 2661TIP3    H129398   4.525   0.522   5.030 -1.6408  0.3016  0.8871
 2661TIP3    H229399   4.588   0.392   5.075  1.3779  0.9566 -1.1764
 2662TIP3   OH229400   4.517   6.085   5.284  0.2966 -0.4193  0.0179
 2662TIP3    H129401   4.497   6.127   5.368 -0.9262  0.9923 -0.9433
 2662TIP3    H229402   4.506   6.153   5.219 -0.2674 -1.8596 -1.4667
 2663TIP3   OH229403   2.306   1.934  16.426 -0.5876 -0.5197  0.0987
 2663TIP3    H129404   2.318   2.027  16.406 -1.6888 -0.5207 -0.6870
 2663TIP3    H229405   2.261   1.933  16.510 -2.2532 -0.2393 -0.7398
 2664TIP3   OH229406   5.396   5.169   2.697  0.0282 -0.0292 -0.1144
 2664TIP3    H129407   5.419   5.249   2.650  0.5097  1.6487  2.7378
 2664TIP3    H229408   5.473   5.150   2.751 -1.0225 -0.9311  1.1392
 2665TIP3   OH229409   4.682   1.298   3.991 -0.1253  0.2951  0.3781
 2665TIP3    H129410   4.660   1.364   3.926  0.9756  0.3762  0.0637
 2665TIP3    H229411   4.599   1.279   4.035 -0.6906  0.9743 -0.3599
 2666TIP3   OH229412   5.353   3.764  11.581  0.6885 -0.0967 -0.0946
 2666TIP3    H129413   5.342   3.842  11.635 -1.4041 -2.0534  2.6161
 2666TIP3    H229414   5.439   3.730  11.604 -0.7499 -1.7907  3.6702
 2667TIP3   OH229415   5.099   6.203   0.508 -0.1854  0.5821  0.5170
 2667TIP3    H129416   5.119   6.140   0.577  2.3011  1.6187  0.8430
 2667TIP3    H229417   5.164   6.186   0.440 -1.7837  0.4461 -1.0484
 2668TIP3   OH229418   6.658   0.316   1.192 -0.3120 -0.3469  0.2877
 2668TIP3    H129419   6.735   0.289   1.243 -0.4444 -1.6898 -0.2013
 2668TIP3    H229420   6.611   0.235   1.174 -1.5379  0.3891  0.0491
 2669TIP3   OH229421   2.794   0.193  12.053 -0.3712  0.5142 -0.7869
 2669TIP3    H129422   2.727   0.259  12.037 -0.8668  0.1587 -0.2127
 2669TIP3    H229423   2.747   0.119  12.092  0.6747  1.1518  1.8998
 2670TIP3   OH229424   6.292   6.190   0.049 -0.0190  0.1321 -0.1726
 2670TIP3    H129425   6.238   6.224   0.120 -0.3951 -0.0954 -0.3389
 2670TIP3    H229426   6.282   6.254  -0.022  0.1606  0.2354 -0.1050
 2671TIP3   OH229427   0.218   1.786   0.715 -0.4080  0.7927 -0.2325
 2671TIP3    H129428   0.144   1.799   0.656 -1.2875 -1.6689  0.2229
 2671TIP3    H229429   0.241   1.694   0.705  1.9353  1.2375  0.4339
 2672TIP3   OH229430   2.858   6.395  14.905  0.5042 -0.6183  0.1422
 2672TIP3    H129431   2.771   6.373  14.872  0.1807  0.1474  0.4459
 2672TIP3    H229432   2.911   6.318  14.887  0.0179 -0.7095 -0.9734
 2673TIP3   OH229433   4.727   5.260   4.681  0.0012  0.1680  0.9721
 2673TIP3    H129434   4.675   5.327   4.726 -1.2052  1.6748 -2.3511
 2673TIP3    H229435   4.805   5.306   4.650 -1.2151  0.4177 -2.0413
 2674TIP3   OH229436   1.471   6.317   5.486 -0.0506  0.3501 -0.1264
 2674TIP3    H129437   1.534   6.375   5.529  1.4645 -1.9850  1.0310
 2674TIP3    H229438   1.512   6.297   5.401 -0.5247  0.8620 -0.4830
 2675TIP3   OH229439   1.374   5.344   3.757  0.2825  0.0144 -0.4054
 2675TIP3    H129440   1.416   5.263   3.787 -0.2732  0.0213  0.4162
 2675TIP3    H229441   1.296   5.314   3.709  0.8978  0.0216 -1.4379
 2676TIP3   OH229442   3.562   2.253  13.519 -0.5106 -0.0521 -0.0839
 2676TIP3    H129443   3.623   2.207  13.578  0.8518 -0.2978 -1.6235
 2676TIP3    H229444   3.489   2.278  13.576  1.2546  0.7628  1.9881
 2677TIP3   OH229445   5.303   6.012   4.118  0.2162  0.2445  0.3609
 2677TIP3    H129446   5.238   5.943   4.101  0.1196  0.0136  1.5806
 2677TIP3    H229447   5.287   6.077   4.050 -0.4466 -0.4055 -0.1283
 2678TIP3   OH229448   5.069   0.982   0.537 -0.3565  0.0198  0.2611
 2678TIP3    H129449   4.975   0.999   0.531 -0.1967  0.6429 -1.2511
 2678TIP3    H229450   5.109   1.066   0.513  0.5495 -0.6124 -0.5425
 2679TIP3   OH229451   6.267   1.193  14.556 -0.2689  0.2423 -0.0768
 2679TIP3    H129452   6.235   1.144  14.480  0.7510  0.6073 -0.7683
 2679TIP3    H229453   6.189   1.213  14.607 -0.9782  0.0418 -1.0627
 2680TIP3   OH229454   2.751   0.484   1.956  0.4325 -0.1183 -0.1045
 2680TIP3    H129455   2.662   0.517   1.968 -0.0560 -1.2089 -0.5482
 2680TIP3    H229456   2.797   0.505   2.037 -0.7940 -1.2652  0.9192
 2681TIP3   OH229457   4.993   0.894  13.724 -1.0157 -0.1620 -0.2913
 2681TIP3    H129458   4.932   0.820  13.725 -1.3857  0.0855 -1.6884
 2681TIP3    H229459   5.072   0.859  13.683 -0.5418 -0.2404  0.6744
 2682TIP3   OH229460   2.948   5.493  12.486  0.0522 -0.1878 -0.3519
 2682TIP3    H129461   3.007   5.518  12.558  0.2256 -0.1440 -0.5069
 2682TIP3    H229462   2.861   5.517  12.517  0.0750 -0.5712  0.0248
 2683TIP3   OH229463   2.392   1.843  15.701  0.7915  0.4427  0.7287
 2683TIP3    H129464   2.307   1.824  15.740  1.5327  0.6565  2.5602
 2683TIP3    H229465   2.408   1.935  15.721  1.1795  0.5699 -0.1455
 2684TIP3   OH229466   0.343   6.425   2.904  0.7488 -0.1830  0.2285
 2684TIP3    H129467   0.278   6.367   2.862 -0.1478  0.1975  1.0543
 2684TIP3    H229468   0.299   6.457   2.982  2.4795 -1.1096  1.6588
 2685TIP3   OH229469   3.619   3.283  14.929 -0.5309  0.6394 -0.6880
 2685TIP3    H129470   3.531   3.315  14.950 -1.8521 -1.8975 -1.8459
 2685TIP3    H229471   3.616   3.190  14.954  1.9457  0.5680 -0.4811
 2686TIP3   OH229472   6.514   0.513   2.089  0.7880  0.0983 -0.2028
 2686TIP3    H129473   6.475   0.558   2.164 -2.3879  0.6058 -1.9836
 2686TIP3    H229474   6.534   0.425   2.121 -2.3349 -0.3514  0.8200
 2687TIP3   OH229475   1.850   3.446   1.708  0.1326 -0.1697 -0.2196
 2687TIP3    H129476   1.901   3.525   1.687 -0.5779  1.3593  3.0941
 2687TIP3    H229477   1.766   3.460   1.665 -0.1630  1.1861  0.7425
 2688TIP3   OH229478   1.554   4.040  16.843  0.3928  0.0291  0.1112
 2688TIP3    H129479   1.521   3.952  16.826 -1.8137  0.9177 -0.6072
 2688TIP3    H229480   1.590   4.069  16.759 -4.9133  2.1271 -1.8366
 2689TIP3   OH229481   3.771   4.185   4.493  0.2042  0.5069 -0.3010
 2689TIP3    H129482   3.721   4.215   4.417  0.3679 -1.5264 -1.2838
 2689TIP3    H229483   3.720   4.112   4.528  1.4815 -0.3517 -0.1366
 2690TIP3   OH229484   3.305   4.040  14.866 -0.3461  0.0859 -0.1592
 2690TIP3    H129485   3.369   4.029  14.937 -0.1975 -1.1054 -0.4578
 2690TIP3    H229486   3.287   4.134  14.865  0.6854  0.3139  0.5511
 2691TIP3   OH229487   5.726   0.919   6.172  0.5103 -0.2526  0.0093
 2691TIP3    H129488   5.639   0.885   6.191 -0.1540  1.3536  0.0006
 2691TIP3    H229489   5.779   0.892   6.248 -0.7996  1.4409  1.6196
 2692TIP3   OH229490   1.595   1.096  14.360  0.2544 -1.0006  0.5919
 2692TIP3    H129491   1.652   1.026  14.394 -0.9270 -1.3940  1.8676
 2692TIP3    H229492   1.516   1.090  14.414  0.2882  1.6159  1.0635
 2693TIP3   OH229493   5.433   2.595  13.764  0.3634 -0.4745 -0.4156
 2693TIP3    H129494   5.437   2.500  13.775 -0.4319 -0.5839 -0.9906
 2693TIP3    H229495   5.382   2.625  13.839 -0.3223 -0.6255 -0.8138
 2694TIP3   OH229496   0.812   5.979  14.818 -0.0035  0.3754  0.3186
 2694TIP3    H129497   0.770   5.925  14.885 -0.3810  0.7691  0.4090
 2694TIP3    H229498   0.782   6.068  14.837 -1.6302  0.2698 -1.4772
 2695TIP3   OH229499   4.578   1.264   1.363 -0.5367 -0.5631  0.1610
 2695TIP3    H129500   4.629   1.216   1.428 -1.8223 -1.6159  0.4556
 2695TIP3    H229501   4.632   1.339   1.339  1.1889 -1.7270  0.3117
 2696TIP3   OH229502   4.350   4.815   1.779  0.3299 -0.6978 -0.1230
 2696TIP3    H129503   4.301   4.743   1.819 -0.8568  0.6682  0.9993
 2696TIP3    H229504   4.389   4.861   1.853 -1.1476  1.3647 -0.5502
 2697TIP3   OH229505   1.267   4.043  14.040 -0.1863  0.0738 -0.2877
 2697TIP3    H129506   1.325   3.996  14.100 -0.6162  1.8660  1.6795
 2697TIP3    H229507   1.318   4.120  14.013 -0.4099 -0.1415 -1.3660
 2698TIP3   OH229508   2.322   5.332  16.185  0.0080  0.3346 -0.2901
 2698TIP3    H129509   2.275   5.313  16.266 -1.0004 -0.0252 -0.9384
 2698TIP3    H229510   2.344   5.425  16.191 -0.9616  0.5589 -0.0492
 2699TIP3   OH229511   3.320   5.408  14.304 -0.5047 -0.0734  0.0776
 2699TIP3    H129512   3.247   5.346  14.306 -0.4487 -0.1348  0.2205
 2699TIP3    H229513   3.280   5.491  14.280 -0.9812  0.3718  2.2373
 2700TIP3   OH229514   1.340   0.253  17.125  0.8155 -0.1753 -0.4291
 2700TIP3    H129515   1.339   0.167  17.167  2.1820  0.1456  0.2928
 2700TIP3    H229516   1.298   0.311  17.189  3.3995  0.4253  0.8456
 2701TIP3   OH229517   4.024   4.263  17.015 -0.3426 -0.2634 -0.3290
 2701TIP3    H129518   4.048   4.354  17.034  0.2907 -0.4520 -0.2162
 2701TIP3    H229519   4.003   4.263  16.921 -0.5519  0.0388 -0.2843
 2702TIP3   OH229520   1.896   5.945   4.459 -0.3158  0.4039 -0.2811
 2702TIP3    H129521   1.865   5.855   4.451  0.6356  0.0696 -0.3071
 2702TIP3    H229522   1.820   5.993   4.491 -1.0198 -0.2836 -0.8609
 2703TIP3   OH229523   5.395   1.419   2.670 -0.1088  0.3498 -0.0070
 2703TIP3    H129524   5.342   1.383   2.741 -0.7930  2.2367  0.5000
 2703TIP3    H229525   5.472   1.455   2.714 -0.7895  2.0067 -0.0995
 2704TIP3   OH229526   1.929   1.317  17.002  0.2260 -0.1697  0.6948
 2704TIP3    H129527   1.998   1.259  17.033  2.0221  0.7853 -1.2537
 2704TIP3    H229528   1.873   1.261  16.948  0.8234 -0.4882  0.3972
 2705TIP3   OH229529   3.465   4.556  14.423 -0.1858 -0.4334  0.4738
 2705TIP3    H129530   3.460   4.508  14.341 -2.8841 -0.5966  0.6207
 2705TIP3    H229531   3.516   4.500  14.482  1.5287 -0.4422 -0.9747
 2706TIP3   OH229532   4.613   3.907   4.069  0.8714  0.2010  0.6675
 2706TIP3    H129533   4.670   3.946   4.003 -0.4267 -0.1855 -0.7594
 2706TIP3    H229534   4.649   3.936   4.153  1.9973  1.5294 -0.2333
 2707TIP3   OH229535   5.394   0.727   2.236 -0.0105 -0.4496 -0.5138
 2707TIP3    H129536   5.358   0.802   2.284 -2.7098 -1.4713 -0.7508
 2707TIP3    H229537   5.360   0.651   2.283 -0.7333 -1.4884 -2.5819
 2708TIP3   OH229538   1.021   6.405   3.423 -0.0747  0.1651 -0.1745
 2708TIP3    H129539   1.060   6.463   3.358 -1.9899  0.6691 -0.9232
 2708TIP3    H229540   1.077   6.326   3.421  0.4353  0.5403 -1.7469
 2709TIP3   OH229541   0.835   2.627   4.284 -0.3045  0.1173  0.0789
 2709TIP3    H129542   0.877   2.542   4.296  1.1725  0.7613 -0.2512
 2709TIP3    H229543   0.861   2.678   4.361  0.7292  0.9677 -0.7908
 2710TIP3   OH229544   0.697   4.158   1.030 -0.3052 -0.1979  0.2230
 2710TIP3    H129545   0.775   4.199   0.993 -0.6491 -0.5491 -0.9256
 2710TIP3    H229546   0.690   4.074   0.985  0.2429 -1.4758  2.3502
 2711TIP3   OH229547   4.917   1.054  12.596  0.0510 -0.1408 -0.0906
 2711TIP3    H129548   4.954   1.091  12.677  0.7965  2.1620 -1.3673
 2711TIP3    H229549   4.900   1.131  12.541 -2.5791 -1.4559 -1.2902
 2712TIP3   OH229550   4.635   3.140   4.464  0.2091  0.1451  0.3255
 2712TIP3    H129551   4.620   3.047   4.452 -0.8542  0.3159  0.1823
 2712TIP3    H229552   4.573   3.182   4.405  1.3707  0.9472 -0.3654
 2713TIP3   OH229553   2.779   1.366  15.967  0.4025 -0.7091  0.1685
 2713TIP3    H129554   2.766   1.385  16.060  0.3369 -1.0930  0.2383
 2713TIP3    H229555   2.774   1.271  15.961 -1.1916 -0.6188 -0.4557
 2714TIP3   OH229556   3.671   5.978  12.014  0.2851 -0.1056 -0.3592
 2714TIP3    H129557   3.759   5.946  11.996  1.1316  1.6716  0.3523
 2714TIP3    H229558   3.618   5.944  11.942  2.2410  1.5331 -2.7226
 2715TIP3   OH229559   6.309   3.332  14.647 -0.3408 -0.7045  0.1202
 2715TIP3    H129560   6.316   3.238  14.631 -1.1836 -0.5517 -1.3434
 2715TIP3    H229561   6.308   3.372  14.560 -1.0272  0.5735  0.6758
 2716TIP3   OH229562   5.321   2.402  11.648  0.6682  0.1205  0.3807
 2716TIP3    H129563   5.302   2.338  11.717  1.3218  0.5629  0.9899
 2716TIP3    H229564   5.385   2.461  11.688  3.3962 -1.3255 -1.5497
 2717TIP3   OH229565   6.630   4.236  13.986 -0.0357 -0.5470 -0.0629
 2717TIP3    H129566   6.683   4.307  13.950 -0.4107 -1.0604 -1.7198
 2717TIP3    H229567   6.694   4.174  14.022  0.2883  0.6992  1.6591
 2718TIP3   OH229568   2.658   6.238  13.962 -0.0532  0.5908 -0.2903
 2718TIP3    H129569   2.624   6.148  13.964  0.9448  0.2144  0.2755
 2718TIP3    H229570   2.748   6.231  13.994 -0.1937  1.9087  0.4647
 2719TIP3   OH229571   6.645   4.937  15.450 -0.5658  0.3184 -0.5580
 2719TIP3    H129572   6.702   4.960  15.376  0.4097 -0.9219 -0.2152
 2719TIP3    H229573   6.579   4.879  15.412  0.6821 -1.3543 -0.2512
 2720TIP3   OH229574   1.081   4.531   5.637 -0.1501 -0.1876  0.2510
 2720TIP3    H129575   1.100   4.461   5.699 -1.7777 -0.7307  0.1956
 2720TIP3    H229576   1.005   4.499   5.587 -0.8538  1.5397  0.1221
 2721TIP3   OH229577   2.632   2.969   1.182  0.0040 -0.0046  0.5035
 2721TIP3    H129578   2.665   3.059   1.183  1.5933 -0.5534  0.7917
 2721TIP3    H229579   2.642   2.941   1.091  1.2164 -0.4527  0.7542
 2722TIP3   OH229580   2.987   2.159  12.253  0.5374  0.1916  0.1601
 2722TIP3    H129581   3.035   2.111  12.321  0.5793 -0.7080 -0.4796
 2722TIP3    H229582   2.984   2.098  12.179  0.4882  1.1559 -0.6439
 2723TIP3   OH229583   2.432   2.655  16.756 -0.3817 -0.0968 -0.2129
 2723TIP3    H129584   2.341   2.635  16.779 -0.6137  2.1305  0.9891
 2723TIP3    H229585   2.483   2.612  16.825 -0.5945 -0.2254 -0.1317
 2724TIP3   OH229586   1.694   1.692  16.820  0.3542  0.3526  0.1895
 2724TIP3    H129587   1.651   1.723  16.740 -0.8788  0.1489  0.7523
 2724TIP3    H229588   1.757   1.627  16.790 -0.3312  0.0373 -0.5936
 2725TIP3   OH229589   2.310   1.154  11.396  0.6675  0.3327 -0.6000
 2725TIP3    H129590   2.390   1.186  11.353  0.4315 -0.3399 -1.5618
 2725TIP3    H229591   2.284   1.077  11.345  0.3593 -0.4851  0.7469
 2726TIP3   OH229592   5.252   6.140  13.384 -0.0780 -0.3042 -0.6347
 2726TIP3    H129593   5.310   6.170  13.314  0.8389 -0.7001 -0.0630
 2726TIP3    H229594   5.310   6.129  13.460 -0.6555 -2.0106 -0.3998
 2727TIP3   OH229595   0.228   1.466  16.983  0.1927  0.1250  0.0117
 2727TIP3    H129596   0.251   1.466  17.076 -0.1011 -0.6863  0.0892
 2727TIP3    H229597   0.140   1.429  16.980  0.7051 -1.0769 -0.7066
 2728TIP3   OH229598   4.929   3.046   0.789 -0.0676 -0.5495 -0.3120
 2728TIP3    H129599   4.998   3.110   0.774 -1.1124  0.7620  0.3270
 2728TIP3    H229600   4.874   3.051   0.710 -1.9732  1.7612  1.0330
 2729TIP3   OH229601   2.574   0.338  13.938  0.1335 -0.0157  0.8021
 2729TIP3    H129602   2.520   0.417  13.938  0.5052  0.2459  1.7861
 2729TIP3    H229603   2.571   0.307  14.028  2.9326  0.9470  1.3256
 2730TIP3   OH229604   6.520   0.168   5.168  0.0385  0.3485 -0.0546
 2730TIP3    H129605   6.510   0.089   5.221 -0.2075  0.3547 -0.0878
 2730TIP3    H229606   6.433   0.209   5.170  0.0507  0.3930 -0.3897
 2731TIP3   OH229607   6.383   1.503  15.458 -0.3801  0.5225 -0.0344
 2731TIP3    H129608   6.338   1.434  15.506  2.5329 -0.1825  1.9644
 2731TIP3    H229609   6.313   1.561  15.428 -2.6045 -0.6978  2.3934
 2732TIP3   OH229610   6.717   1.980  12.253  0.9068 -0.2941  0.3546
 2732TIP3    H129611   6.800   1.949  12.217  0.5942  0.4806 -1.1261
 2732TIP3    H229612   6.701   1.925  12.329  2.4858 -0.8380  0.3248
 2733TIP3   OH229613   5.694   2.382   5.541  0.2548  0.3096 -0.0522
 2733TIP3    H129614   5.604   2.362   5.568  0.2599  1.2030  0.6761
 2733TIP3    H229615   5.723   2.304   5.494 -0.4378 -0.5311  0.8874
 2734TIP3   OH229616   2.763   5.190   1.291 -1.0895  0.5873  0.1995
 2734TIP3    H129617   2.695   5.141   1.336  0.1140 -0.5574  0.8329
 2734TIP3    H229618   2.828   5.124   1.265  0.0228  1.6871  0.0650
 2735TIP3   OH229619   4.014   6.728  14.161 -0.0338  0.1181 -0.0925
 2735TIP3    H129620   3.923   6.738  14.190  0.1835  0.5000  0.4816
 2735TIP3    H229621   4.007   6.703  14.069 -0.7272 -0.1618  0.0271
 2736TIP3   OH229622   0.372   5.514   1.726 -0.0418  0.1959  0.4120
 2736TIP3    H129623   0.411   5.436   1.687 -1.0136 -0.1940  0.1940
 2736TIP3    H229624   0.443   5.578   1.728  0.6771 -0.5853  0.2947
 2737TIP3   OH229625   5.413   4.125  10.993 -0.3902 -0.3647  0.2919
 2737TIP3    H129626   5.492   4.180  10.992 -1.4848  1.3263  0.8652
 2737TIP3    H229627   5.405   4.092  10.904  0.0237  0.8750 -0.2301
 2738TIP3   OH229628   1.551   2.737   3.837  0.4034  0.5072  0.3441
 2738TIP3    H129629   1.607   2.813   3.852  0.7405  0.3440 -0.0459
 2738TIP3    H229630   1.581   2.673   3.901  1.3159  0.0852 -0.4738
 2739TIP3   OH229631   5.468   2.246   1.888  0.7041 -0.0136 -0.1559
 2739TIP3    H129632   5.536   2.265   1.824  1.5247 -0.4821  0.5648
 2739TIP3    H229633   5.514   2.238   1.972 -0.2503 -0.1724  0.3754
 2740TIP3   OH229634   1.845   5.422  14.048 -0.1232  0.6168  0.0173
 2740TIP3    H129635   1.830   5.444  13.956 -0.8803  2.8333  0.5932
 2740TIP3    H229636   1.758   5.422  14.087  0.0554 -1.6538  0.5101
 2741TIP3   OH229637   0.535   4.272  10.721  0.2356 -0.2148 -0.1300
 2741TIP3    H129638   0.567   4.362  10.711  0.0056 -0.1928 -0.7156
 2741TIP3    H229639   0.511   4.265  10.813  0.9854  0.0792  0.1009
 2742TIP3   OH229640   4.007   1.604   4.381 -0.2980  0.0140 -0.4876
 2742TIP3    H129641   4.043   1.627   4.467  0.7785 -0.8956 -0.6750
 2742TIP3    H229642   4.076   1.625   4.319 -1.6422  2.1974 -1.3697
 2743TIP3   OH229643   2.364   0.804  13.123 -0.0544  0.3751  0.2059
 2743TIP3    H129644   2.440   0.861  13.110  0.4724 -0.4719 -0.4925
 2743TIP3    H229645   2.399   0.715  13.116 -1.0366 -0.0339  0.3275
 2744TIP3   OH229646   5.305   5.759  11.875  0.6726  0.5131  0.0535
 2744TIP3    H129647   5.217   5.792  11.856  0.9379  0.5711 -1.1545
 2744TIP3    H229648   5.291   5.689  11.938 -0.2652  0.4000 -0.2599
 2745TIP3   OH229649   6.680   5.729  13.046 -0.0394  0.3167 -0.2895
 2745TIP3    H129650   6.735   5.655  13.073 -0.2967 -0.4473 -1.7483
 2745TIP3    H229651   6.592   5.693  13.042 -0.6624  1.4587  1.7215
 2746TIP3   OH229652   5.745   3.867   2.092  0.8766 -0.3343 -0.0412
 2746TIP3    H129653   5.661   3.821   2.093  0.0304  1.1269  0.5069
 2746TIP3    H229654   5.758   3.895   2.183  1.3555  0.4586 -0.3368
 2747TIP3   OH229655   6.492   6.648   4.443 -0.2197 -0.1274 -0.5992
 2747TIP3    H129656   6.478   6.571   4.498  2.0727 -1.0825 -1.2621
 2747TIP3    H229657   6.453   6.720   4.492  0.2595 -1.2196  1.4798
 2748TIP3   OH229658   2.377   5.170  13.479  0.4617  0.3815  0.0417
 2748TIP3    H129659   2.329   5.102  13.432  0.3541 -0.5009  1.3526
 2748TIP3    H229660   2.309   5.217  13.529  0.7538  0.1898  0.6335
 2749TIP3   OH229661   3.894   4.411   6.485 -0.4965  0.2913  0.0804
 2749TIP3    H129662   3.943   4.443   6.560 -0.2807 -2.1690  1.0767
 2749TIP3    H229663   3.961   4.383   6.422 -0.6754  1.3112 -0.5891
 2750TIP3   OH229664   0.212   3.100   6.366 -0.1616  0.1702 -0.3149
 2750TIP3    H129665   0.225   3.106   6.461  1.2014 -0.0768 -0.4572
 2750TIP3    H229666   0.182   3.187   6.341 -0.0162  0.3976  0.2777
 2751TIP3   OH229667   2.337   3.082   1.469 -0.3483 -0.3404  0.3361
 2751TIP3    H129668   2.368   3.119   1.386 -0.3636 -0.7274  0.1520
 2751TIP3    H229669   2.415   3.040   1.506 -0.4797 -0.6818  0.2279
 2752TIP3   OH229670   1.126   1.291  12.866  0.2324  0.6383 -0.0004
 2752TIP3    H129671   1.052   1.320  12.813  0.8718 -0.1065 -1.3549
 2752TIP3    H229672   1.201   1.295  12.806  1.0331  0.0091  0.9277
 2753TIP3   OH229673   4.218   3.508  15.681 -0.7650  0.5283 -0.2948
 2753TIP3    H129674   4.310   3.484  15.669 -0.8018  0.8536 -1.3834
 2753TIP3    H229675   4.193   3.470  15.765  0.1363 -0.2583 -0.3697
 2754TIP3   OH229676   1.636   3.398  12.904  0.2364  0.4967  0.1583
 2754TIP3    H129677   1.718   3.350  12.890 -0.1112  0.8182 -5.1191
 2754TIP3    H229678   1.567   3.336  12.880 -0.8070  1.3220  0.9272
 2755TIP3   OH229679   2.694   1.985   5.693  0.0404  0.7534  0.5524
 2755TIP3    H129680   2.664   1.941   5.773 -0.7460  2.8787  1.5098
 2755TIP3    H229681   2.629   2.054   5.678  2.8575  3.7466  1.0707
 2756TIP3   OH229682   0.176   6.724  16.641 -0.1616  0.2827  0.9218
 2756TIP3    H129683   0.213   6.764  16.719  0.5337 -1.8547  1.7627
 2756TIP3    H229684   0.241   6.658  16.614 -1.1180 -0.1405 -0.4985
 2757TIP3   OH229685   0.564   1.185  14.851 -0.0057 -0.1829  0.6250
 2757TIP3    H129686   0.520   1.100  14.848  0.0205 -0.1648 -1.1750
 2757TIP3    H229687   0.521   1.237  14.783 -0.4145  1.4700  2.0668
 2758TIP3   OH229688   0.598   6.119   6.458  0.1751 -0.6232  0.3441
 2758TIP3    H129689   0.502   6.118   6.455  0.0880 -2.0327  1.9519
 2758TIP3    H229690   0.625   6.048   6.400  0.3697  0.9012 -1.5207
 2759TIP3   OH229691   4.601   1.626   5.913 -0.3307  0.2300 -0.7036
 2759TIP3    H129692   4.569   1.588   5.994 -0.7191 -0.4682 -1.1773
 2759TIP3    H229693   4.676   1.572   5.888  0.2925  0.9310 -0.3994
 2760TIP3   OH229694   3.927   1.393   5.317 -0.4282 -0.5540  0.3145
 2760TIP3    H129695   3.910   1.325   5.252  4.2701 -1.5761 -0.2255
 2760TIP3    H229696   3.944   1.344   5.398  0.4099  0.1155  0.5617
 2761TIP3   OH229697   5.624   2.290   5.986 -0.1560 -0.3328 -0.2329
 2761TIP3    H129698   5.626   2.238   5.906 -1.0110  0.0267 -0.4938
 2761TIP3    H229699   5.618   2.225   6.056 -0.6196 -0.6082 -0.5253
 2762TIP3   OH229700   5.550   0.327  12.857  0.3274 -0.1424 -0.7747
 2762TIP3    H129701   5.642   0.352  12.860  0.4013 -0.4388 -0.5468
 2762TIP3    H229702   5.528   0.306  12.948 -0.4149  1.5408 -0.5326
 2763TIP3   OH229703   3.201   4.482  15.356 -0.7547  0.0419 -0.0543
 2763TIP3    H129704   3.161   4.411  15.406  0.3758 -0.3014  0.3973
 2763TIP3    H229705   3.271   4.440  15.306  0.4040  0.9163  0.7612
 2764TIP3   OH229706   6.501   5.003  11.118  0.4187 -0.2858  0.3548
 2764TIP3    H129707   6.428   4.973  11.063  1.8688 -0.4560 -1.5985
 2764TIP3    H229708   6.471   5.087  11.154 -0.9248 -0.5947  0.0247
 2765TIP3   OH229709   3.642   3.011  14.974 -0.2062  0.5525 -0.3763
 2765TIP3    H129710   3.642   2.934  15.030 -2.5837  0.5173 -0.3310
 2765TIP3    H229711   3.582   2.989  14.903  0.6300  1.6296 -1.4533
 2766TIP3   OH229712   0.444   4.620  16.938  0.6108 -0.1313  0.3002
 2766TIP3    H129713   0.414   4.700  16.982 -1.1700 -0.8031  0.4173
 2766TIP3    H229714   0.460   4.647  16.848 -0.0368  0.3662  0.3209
 2767TIP3   OH229715   6.709   0.236   2.978 -0.2156  0.2509  0.3285
 2767TIP3    H129716   6.790   0.194   3.008  0.0435  0.6409  0.1807
 2767TIP3    H229717   6.737   0.322   2.945 -0.3870 -0.3936 -1.6234
 2768TIP3   OH229718   6.012   6.474   1.268  0.0745 -0.3164 -0.2905
 2768TIP3    H129719   5.956   6.455   1.344  1.1626  1.2701  0.9763
 2768TIP3    H229720   6.063   6.551   1.294  1.1523 -0.2775 -2.3020
 2769TIP3   OH229721   2.624   5.397  13.254  0.0123  0.6165  0.4905
 2769TIP3    H129722   2.621   5.332  13.325  0.7790 -0.1295 -0.1409
 2769TIP3    H229723   2.536   5.435  13.253 -0.6828 -0.9124  0.4253
 2770TIP3   OH229724   4.668   6.733  16.201 -0.3221 -0.2643 -0.6190
 2770TIP3    H129725   4.614   6.679  16.258  0.0701  0.7854  0.8231
 2770TIP3    H229726   4.664   6.690  16.115 -1.8968 -1.2381 -0.1012
 2771TIP3   OH229727   6.416   4.344   3.547 -0.3329  0.6056  0.4351
 2771TIP3    H129728   6.425   4.250   3.563 -0.6538  0.2518 -1.2939
 2771TIP3    H229729   6.345   4.351   3.483 -2.0968  2.2378  2.3928
 2772TIP3   OH229730   5.067   4.483  13.175 -0.6574 -0.6540 -0.2557
 2772TIP3    H129731   4.975   4.506  13.189 -0.4455  0.8898 -1.2268
 2772TIP3    H229732   5.063   4.395  13.136 -1.6286 -1.1893  0.9847
 2773TIP3   OH229733   6.772   6.422   1.664  0.1132  0.2483 -0.9115
 2773TIP3    H129734   6.760   6.429   1.759 -1.1917 -1.8001 -0.8817
 2773TIP3    H229735   6.842   6.485   1.645  0.7502  0.3703  1.4609
 2774TIP3   OH229736   1.335   6.346  15.866 -0.1711  0.5937 -0.1306
 2774TIP3    H129737   1.321   6.428  15.914  1.9019  1.2448 -0.5381
 2774TIP3    H229738   1.414   6.309  15.905  0.0931 -0.1544 -1.3326
 2775TIP3   OH229739   0.899   3.345  17.010  0.3543  0.0196  0.0438
 2775TIP3    H129740   0.895   3.379  17.099 -1.9229  0.9347 -0.3475
 2775TIP3    H229741   0.818   3.295  16.999  0.2859  0.4465 -1.6942
 2776TIP3   OH229742   3.653   3.643   0.275  0.3704  0.2659 -0.4186
 2776TIP3    H129743   3.575   3.621   0.325  1.1911  0.4302  0.9752
 2776TIP3    H229744   3.692   3.717   0.322  1.7889 -0.3151 -0.6413
 2777TIP3   OH229745   4.381   4.329   0.166 -0.4082  0.3845  0.0845
 2777TIP3    H129746   4.403   4.269   0.238 -2.4303 -0.5005  0.0417
 2777TIP3    H229747   4.303   4.290   0.126  0.1111  1.3516 -2.0232
 2778TIP3   OH229748   6.145   3.405  16.831 -0.7149  0.0178  0.0745
 2778TIP3    H129749   6.140   3.395  16.736  0.1694 -0.5164  0.0783
 2778TIP3    H229750   6.150   3.316  16.865 -1.0394  0.2014  0.6299
 2779TIP3   OH229751   2.219   1.260   1.841 -0.6732 -0.6846 -0.1231
 2779TIP3    H129752   2.230   1.213   1.924 -1.0014 -0.5624 -0.0079
 2779TIP3    H229753   2.292   1.323   1.839 -1.7152  0.6225  0.9726
 2780TIP3   OH229754   1.780   4.888  14.551 -0.4068  0.2026  0.3560
 2780TIP3    H129755   1.788   4.803  14.508  0.7579  1.1218 -1.3682
 2780TIP3    H229756   1.796   4.870  14.643  4.3639 -0.9525 -0.4226
 2781TIP3   OH229757   3.592   2.026  11.579 -0.0059  0.2032  0.9872
 2781TIP3    H129758   3.581   2.104  11.525  0.5854  0.8590  1.7917
 2781TIP3    H229759   3.539   2.042  11.657  0.2599 -0.1222  1.2417
 2782TIP3   OH229760   2.466   6.333   1.003 -0.7315  0.0427  0.2122
 2782TIP3    H129761   2.420   6.359   0.923 -1.2880 -1.5564 -0.0282
 2782TIP3    H229762   2.553   6.373   0.995 -0.8420  0.0650 -1.0955
 2783TIP3   OH229763   0.272   1.427  13.581  0.2630 -0.2883  0.6725
 2783TIP3    H129764   0.241   1.445  13.492 -1.9905 -1.3885  1.1666
 2783TIP3    H229765   0.350   1.372  13.570 -0.2647 -0.7968 -0.6147
 2784TIP3   OH229766   3.696   1.265   1.840 -0.2849 -0.2368 -0.1952
 2784TIP3    H129767   3.647   1.204   1.785  0.9807 -1.8213  0.3564
 2784TIP3    H229768   3.779   1.221   1.856  0.7030  1.6898  0.1823
 2785TIP3   OH229769   5.430   2.319   4.444 -0.2852 -0.6174 -0.5858
 2785TIP3    H129770   5.403   2.249   4.504 -1.7558  0.1726 -0.2806
 2785TIP3    H229771   5.512   2.288   4.406 -0.7632 -2.3687 -0.2461
 2786TIP3   OH229772   3.899   0.505  12.221 -0.2981  0.0864 -0.3403
 2786TIP3    H129773   3.876   0.573  12.158 -2.1240  0.4975  0.7097
 2786TIP3    H229774   3.851   0.427  12.192 -2.1680  0.6061  1.1488
 2787TIP3   OH229775   5.342   1.929   4.205 -0.4609  0.2866 -0.1172
 2787TIP3    H129776   5.346   1.870   4.280 -1.9677  0.3384  0.0449
 2787TIP3    H229777   5.328   1.871   4.130 -2.7109  0.4198  0.1336
 2788TIP3   OH229778   1.137   0.741   0.423 -0.5204  0.1045 -0.6424
 2788TIP3    H129779   1.046   0.721   0.446  0.3945 -2.2059  1.3694
 2788TIP3    H229780   1.131   0.782   0.336 -3.4895  0.6212 -0.3182
 2789TIP3   OH229781   6.157   0.592  15.027 -0.0860 -0.0197  0.1426
 2789TIP3    H129782   6.109   0.638  15.096  1.1802  0.0757  0.9949
 2789TIP3    H229783   6.107   0.609  14.947 -0.1701  2.0885  0.5876
 2790TIP3   OH229784   6.371   3.706  13.038 -0.1203 -0.7246  0.4236
 2790TIP3    H129785   6.361   3.622  12.994  1.0755  0.4035 -2.1835
 2790TIP3    H229786   6.459   3.704  13.075  0.6940  0.0785 -1.3805
 2791TIP3   OH229787   3.997   6.161   1.530 -0.3357  0.5237  0.2741
 2791TIP3    H129788   4.085   6.124   1.533 -0.6302 -0.1250  2.0927
 2791TIP3    H229789   3.951   6.119   1.602 -2.0620  1.0732 -0.4672
 2792TIP3   OH229790   5.010   2.987   5.606 -0.6134  0.2863  0.0101
 2792TIP3    H129791   4.920   2.976   5.637 -0.3203  0.1167  0.8232
 2792TIP3    H229792   5.040   3.067   5.648  0.3484 -0.8294  1.5315
 2793TIP3   OH229793   0.499   4.790   4.185  0.1132  0.2603  0.7217
 2793TIP3    H129794   0.582   4.794   4.137 -1.3888  0.4667 -2.0892
 2793TIP3    H229795   0.468   4.880   4.186  0.3019  0.3485  2.6352
 2794TIP3   OH229796   2.688   2.607   4.628 -0.3246 -0.0420  0.0058
 2794TIP3    H129797   2.771   2.649   4.607 -1.1259  2.4973  1.5010
 2794TIP3    H229798   2.695   2.520   4.589  1.8802  1.0590 -2.3481
 2795TIP3   OH229799   2.988   6.397   3.014 -0.0281  0.2077  0.3972
 2795TIP3    H129800   3.070   6.441   3.037  0.4660 -0.9452  0.8741
 2795TIP3    H229801   2.926   6.424   3.081  0.1103  0.6099  0.3682
 2796TIP3   OH229802   6.039   1.701   0.464  0.0754  0.2643  0.1136
 2796TIP3    H129803   5.977   1.696   0.536  1.4088 -0.7178  1.2478
 2796TIP3    H229804   6.010   1.634   0.402 -1.3945  1.4788 -0.6005
 2797TIP3   OH229805   2.966   5.521   5.446  0.3033 -0.7712 -0.3191
 2797TIP3    H129806   3.025   5.587   5.409  2.0675 -1.2646  1.4521
 2797TIP3    H229807   2.881   5.565   5.451  1.6067  1.7961  1.6951
 2798TIP3   OH229808   6.527   6.645  13.279 -0.5656 -0.3512  0.2611
 2798TIP3    H129809   6.505   6.737  13.262 -3.1214 -1.0041 -0.4451
 2798TIP3    H229810   6.490   6.626  13.365  0.0317 -0.7152  0.4471
 2799TIP3   OH229811   0.073   0.049  10.798  0.1041 -0.3887  0.0373
 2799TIP3    H129812   0.115   0.019  10.718  0.3817  0.0732  0.0115
 2799TIP3    H229813   0.133   0.024  10.868  1.2822  1.7791 -0.1220
 2800TIP3   OH229814   5.823   1.690   5.505  0.7342 -0.4563 -0.4104
 2800TIP3    H129815   5.766   1.661   5.433  0.7251 -1.3386 -0.0596
 2800TIP3    H229816   5.911   1.662   5.479  0.9990  0.7577 -0.8737
 2801TIP3   OH229817   4.205   6.430   0.964 -0.1582  0.5316 -0.2322
 2801TIP3    H129818   4.272   6.497   0.977  0.5214 -0.3746  1.2888
 2801TIP3    H229819   4.245   6.350   0.998 -1.6747 -0.2283 -0.1495
 2802TIP3   OH229820   6.772   6.415   3.054 -0.1515 -0.4340 -0.1801
 2802TIP3    H129821   6.816   6.361   2.988  0.6965  0.5139 -0.4166
 2802TIP3    H229822   6.750   6.496   3.009  0.9592  0.4619  0.8174
 2803TIP3   OH229823   6.321   0.031  16.968 -0.1489 -0.3509  0.3150
 2803TIP3    H129824   6.304   0.121  16.941 -1.3447  0.0302  2.1695
 2803TIP3    H229825   6.393   0.002  16.912  0.3870  1.8144 -0.1886
 2804TIP3   OH229826   3.382   1.268  15.751  0.0074 -0.3121  0.4251
 2804TIP3    H129827   3.287   1.280  15.740  0.3086  0.3816 -2.1062
 2804TIP3    H229828   3.407   1.210  15.680  1.5269 -0.2774  0.9045
 2805TIP3   OH229829   2.379   5.053   2.796 -0.6775 -0.0384  0.2132
 2805TIP3    H129830   2.328   4.983   2.756 -0.0771 -0.1856 -0.3178
 2805TIP3    H229831   2.419   5.099   2.723 -1.5359  1.2506  0.5186
 2806TIP3   OH229832   3.231   0.930   5.883 -0.2271  0.1301  0.2061
 2806TIP3    H129833   3.194   1.019   5.884  1.0939  0.7073  1.1754
 2806TIP3    H229834   3.290   0.930   5.808  0.9823  0.6281  1.1258
 2807TIP3   OH229835   2.397   0.781   2.159 -0.0676  0.1813  0.4880
 2807TIP3    H129836   2.416   0.858   2.105  1.3245 -0.6061 -0.2058
 2807TIP3    H229837   2.460   0.785   2.230  0.0535 -0.3352  0.4146
 2808TIP3   OH229838   6.770   2.465   3.205  0.5808  0.4710 -0.5663
 2808TIP3    H129839   6.687   2.504   3.175  0.6815  1.6647  0.6253
 2808TIP3    H229840   6.756   2.449   3.298  1.8443  1.1211 -0.2457
 2809TIP3   OH229841   2.917   5.104  16.570  0.3346  0.8058  0.2630
 2809TIP3    H129842   2.931   5.188  16.615  3.2570 -0.0864  1.2528
 2809TIP3    H229843   2.935   5.123  16.478 -0.3944  1.5352  0.2613
 2810TIP3   OH229844   2.104   0.687   0.217 -0.2217  0.4353  0.5017
 2810TIP3    H129845   2.193   0.718   0.229 -0.4538  1.9440 -1.1838
 2810TIP3    H229846   2.086   0.700   0.123 -1.7835 -1.0276  0.5342
 2811TIP3   OH229847   5.622   3.421  13.570  0.1882 -0.0038  0.5551
 2811TIP3    H129848   5.715   3.405  13.584 -0.0181 -1.3044  0.6008
 2811TIP3    H229849   5.617   3.513  13.543  1.6741 -0.3913 -1.2663
 2812TIP3   OH229850   5.004   2.029   0.774  0.1441 -0.0387  0.0941
 2812TIP3    H129851   4.944   2.102   0.763 -0.4716 -0.1965  2.0204
 2812TIP3    H229852   5.052   2.024   0.691  0.1722  2.4913 -0.1120
 2813TIP3   OH229853   0.311   5.671   4.814  0.5127 -0.2630 -0.7607
 2813TIP3    H129854   0.318   5.610   4.740 -1.1222 -0.7839 -0.5084
 2813TIP3    H229855   0.218   5.688   4.823  0.9630  3.8671 -2.0657
 2814TIP3   OH229856   5.513   2.004   3.838  0.2406  0.3683 -0.5057
 2814TIP3    H129857   5.532   2.054   3.918  0.4608 -2.1304  1.1200
 2814TIP3    H229858   5.424   1.970   3.852  1.2452 -2.2771  0.0021
 2815TIP3   OH229859   2.672   3.685  14.766 -0.1606  0.0591  0.2143
 2815TIP3    H129860   2.616   3.762  14.749  0.1238  0.0587 -0.8300
 2815TIP3    H229861   2.761   3.716  14.749  0.3903  0.4974  3.4125
 2816TIP3   OH229862   6.145   5.283  16.567 -0.3261 -0.0242 -0.0458
 2816TIP3    H129863   6.144   5.187  16.572 -1.4491 -0.0112  0.2545
 2816TIP3    H229864   6.217   5.303  16.506  1.0430 -0.9718  1.1998
 2817TIP3   OH229865   0.152   0.664   3.411  0.1460  0.5025  0.0280
 2817TIP3    H129866   0.138   0.750   3.451  1.2633  0.3772  0.7165
 2817TIP3    H229867   0.206   0.681   3.334 -1.2941  0.6338 -1.0161
 2818TIP3   OH229868   1.184   1.107   2.604  0.2002  0.2955  0.3948
 2818TIP3    H129869   1.157   1.197   2.587  1.0093  0.5629  0.4765
 2818TIP3    H229870   1.271   1.115   2.644  0.3255 -0.5261  0.3078
 2819TIP3   OH229871   6.221   4.620   3.477  0.3035  0.5627  0.2324
 2819TIP3    H129872   6.224   4.600   3.383  1.6186  0.5002  0.2652
 2819TIP3    H229873   6.212   4.535   3.519  0.2353  0.5405  0.1725
 2820TIP3   OH229874   6.241   2.069  14.080 -0.0254 -0.8175 -0.2112
 2820TIP3    H129875   6.180   2.128  14.035  0.3101 -0.6415 -0.4377
 2820TIP3    H229876   6.241   2.100  14.170  2.8865  1.9160 -0.9816
 2821TIP3   OH229877   2.322   0.530  12.689 -0.6119 -0.1978  0.1347
 2821TIP3    H129878   2.251   0.471  12.713 -0.9260  0.3034  0.4500
 2821TIP3    H229879   2.402   0.479  12.708 -0.8432 -1.5684 -2.2197
 2822TIP3   OH229880   6.728   1.962   5.786 -0.6118 -0.1504 -0.3514
 2822TIP3    H129881   6.776   1.881   5.800  0.8850  0.7943  0.3379
 2822TIP3    H229882   6.726   2.003   5.873  0.8214  1.6347 -1.0779
 2823TIP3   OH229883   0.284   4.229  12.850 -0.0865  0.0980  0.3946
 2823TIP3    H129884   0.328   4.169  12.789 -1.4888 -1.0152  0.4291
 2823TIP3    H229885   0.252   4.172  12.920 -0.7684  1.0048  0.8326
 2824TIP3   OH229886   1.161   6.273   0.868  0.0507 -0.4234 -0.1187
 2824TIP3    H129887   1.120   6.211   0.928 -3.0487  0.7661 -0.8147
 2824TIP3    H229888   1.137   6.241   0.781  0.0734  0.6891 -0.5479
 2825TIP3   OH229889   5.152   3.950   2.208 -0.5209  0.4135  0.2392
 2825TIP3    H129890   5.171   4.044   2.211  2.0551 -0.0268  0.1407
 2825TIP3    H229891   5.222   3.914   2.153 -2.3280 -1.3967 -0.9889
 2826TIP3   OH229892   2.319   3.853   1.710 -0.0255 -0.1528  0.3398
 2826TIP3    H129893   2.280   3.775   1.750  0.2596 -0.3490  0.2381
 2826TIP3    H229894   2.412   3.833   1.705 -0.0687 -0.1590 -0.4985
 2827TIP3   OH229895   2.034   3.203  16.794  0.5040 -0.7846 -0.0851
 2827TIP3    H129896   2.091   3.190  16.870  0.4018 -1.3739 -0.1021
 2827TIP3    H229897   2.085   3.260  16.736  1.0675 -1.2632 -0.0794
 2828TIP3   OH229898   5.799   3.973   5.293 -0.4625  0.5939  0.3209
 2828TIP3    H129899   5.822   4.065   5.276 -0.7880  0.5159 -0.5639
 2828TIP3    H229900   5.883   3.932   5.316 -0.1886  0.9423 -0.0364
 2829TIP3   OH229901   5.815   4.577   2.345  0.0602  0.0232 -0.2446
 2829TIP3    H129902   5.837   4.509   2.281 -2.2320 -0.0326 -1.0805
 2829TIP3    H229903   5.770   4.644   2.294  0.6113  1.3043  0.8865
 2830TIP3   OH229904   2.492   0.271  15.300  0.0393  0.2379  0.2276
 2830TIP3    H129905   2.527   0.360  15.299  1.4054 -0.2588 -1.3639
 2830TIP3    H229906   2.461   0.256  15.211  0.5129 -1.1089  0.2564
 2831TIP3   OH229907   0.624   6.453  12.296 -0.7044  0.6117 -0.0312
 2831TIP3    H129908   0.694   6.508  12.261 -0.2998 -0.2633 -0.6345
 2831TIP3    H229909   0.622   6.473  12.390 -2.3797  3.6571 -0.5779
 2832TIP3   OH229910   0.808   6.414   3.684 -0.5381  0.5265  0.2000
 2832TIP3    H129911   0.897   6.403   3.650 -0.3711  0.8088  0.5385
 2832TIP3    H229912   0.818   6.474   3.758 -0.7590 -0.7774  1.3262
 2833TIP3   OH229913   6.165   6.127  16.422 -0.5183  0.1727  0.0968
 2833TIP3    H129914   6.124   6.073  16.354  0.0800 -0.3827  0.1676
 2833TIP3    H229915   6.203   6.064  16.483 -0.0693  0.6776  0.3457
 2834TIP3   OH229916   6.421   1.748   2.255  0.6094  0.7343 -0.5186
 2834TIP3    H129917   6.333   1.778   2.232  0.7026  0.4377 -1.3056
 2834TIP3    H229918   6.410   1.657   2.282  0.4809  1.1221  0.8007
 2835TIP3   OH229919   5.134   1.911  10.768 -0.0974 -0.4659  0.1499
 2835TIP3    H129920   5.214   1.861  10.750  1.2486  1.6250  0.0515
 2835TIP3    H229921   5.082   1.903  10.688  1.0658  0.0245 -0.6767
 2836TIP3   OH229922   0.517   3.223  15.720 -0.4331  0.3353  0.8351
 2836TIP3    H129923   0.515   3.261  15.632  0.4438  1.2681  1.2033
 2836TIP3    H229924   0.599   3.255  15.758 -0.1518 -1.1195  1.5315
 2837TIP3   OH229925   3.274   2.264   5.827 -0.5629 -0.3954 -0.1697
 2837TIP3    H129926   3.314   2.343   5.791 -1.4151  0.2108  0.1711
 2837TIP3    H229927   3.340   2.230   5.888 -0.4287  0.4158  0.1592
 2838TIP3   OH229928   5.679   2.981  16.563 -0.0996  0.2673  0.2451
 2838TIP3    H129929   5.719   3.013  16.644  0.4199  1.7603 -0.5545
 2838TIP3    H229930   5.606   2.927  16.591  0.9592 -0.4688  1.7200
 2839TIP3   OH229931   0.015   4.072   4.483  0.0059  0.0442  0.2317
 2839TIP3    H129932   0.021   4.166   4.499  1.8088 -0.4100  2.8496
 2839TIP3    H229933  -0.064   4.045   4.529 -2.7013  0.6473 -3.5716
 2840TIP3   OH229934   2.838   4.817  12.650 -0.8706  0.2831 -0.1161
 2840TIP3    H129935   2.829   4.731  12.609  2.2107 -0.0644 -0.3193
 2840TIP3    H229936   2.825   4.879  12.578  1.5071 -0.2304 -1.0731
 2841TIP3   OH229937   4.238   1.461  13.995 -0.0810 -0.5184  0.1861
 2841TIP3    H129938   4.163   1.446  14.051 -0.4614 -0.2477 -0.2444
 2841TIP3    H229939   4.256   1.376  13.954 -0.6770 -0.3963 -0.3463
 2842TIP3   OH229940   5.286   4.393  13.833  0.1644  0.0196  1.0592
 2842TIP3    H129941   5.215   4.426  13.778  0.3461  0.3155  0.9999
 2842TIP3    H229942   5.354   4.368  13.770  1.1589  2.1547  1.1942
 2843TIP3   OH229943   2.995   2.687   4.575 -0.0199 -0.2676 -0.0836
 2843TIP3    H129944   3.012   2.756   4.512 -0.9983 -0.3332 -0.4369
 2843TIP3    H229945   3.012   2.727   4.660  2.6771 -0.5758 -0.4049
 2844TIP3   OH229946   2.238   5.255  14.521  0.2344  0.5891 -0.4396
 2844TIP3    H129947   2.238   5.160  14.511  1.4258  0.5942 -0.5667
 2844TIP3    H229948   2.157   5.283  14.478 -0.1241 -0.3593 -0.4109
 2845TIP3   OH229949   0.286   1.912  11.290 -0.4555 -0.3024  0.1679
 2845TIP3    H129950   0.307   1.926  11.382  0.1360  4.2823 -0.4608
 2845TIP3    H229951   0.191   1.902  11.288 -0.6946  1.4901  1.1556
 2846TIP3   OH229952   3.391   4.611   5.323 -0.3026 -0.5005  0.6431
 2846TIP3    H129953   3.311   4.652   5.356 -0.3746 -1.4507  1.7062
 2846TIP3    H229954   3.445   4.684   5.294 -1.2661  0.2015  0.5745
 2847TIP3   OH229955   2.869   5.283  12.779  0.2710 -0.8231  0.3944
 2847TIP3    H129956   2.946   5.339  12.789  0.4448 -1.2872  2.0866
 2847TIP3    H229957   2.795   5.343  12.784  0.4502 -0.6992  2.3159
 2848TIP3   OH229958   1.508   3.164  11.628  0.6783  0.2148  0.5819
 2848TIP3    H129959   1.412   3.159  11.633  0.6909 -0.1345  0.5045
 2848TIP3    H229960   1.538   3.133  11.713  0.7000  1.3594  1.0085
 2849TIP3   OH229961   4.860   0.955   5.038  0.3309 -0.0711  0.1750
 2849TIP3    H129962   4.852   0.969   4.944  0.2268 -2.2693 -0.1946
 2849TIP3    H229963   4.774   0.977   5.074  1.1873  3.8043  0.3039
 2850TIP3   OH229964   0.663   2.654   0.304  0.0859 -0.1123  0.0342
 2850TIP3    H129965   0.590   2.650   0.242 -0.2877  0.2641  0.4429
 2850TIP3    H229966   0.625   2.694   0.383  0.5300 -0.6611  0.5347
 2851TIP3   OH229967   4.437   2.806   0.359  0.2646 -0.2645  0.0285
 2851TIP3    H129968   4.525   2.778   0.385  0.4842 -0.4865 -0.8943
 2851TIP3    H229969   4.395   2.833   0.440  0.9111 -0.9238  0.5978
 2852TIP3   OH229970   6.083   1.781  15.193  0.1516 -0.7020 -0.1336
 2852TIP3    H129971   6.152   1.715  15.197  1.7347  0.8227 -1.1129
 2852TIP3    H229972   6.105   1.844  15.260 -1.1130 -0.8991  0.5043
 2853TIP3   OH229973   6.322   5.887  10.928 -0.2199 -0.4060 -0.5796
 2853TIP3    H129974   6.356   5.924  10.847  0.0490  0.6532  0.0065
 2853TIP3    H229975   6.228   5.878  10.913 -0.0983 -0.7158 -1.1920
 2854TIP3   OH229976   1.474   1.295  16.866  0.1780  0.1494  0.2142
 2854TIP3    H129977   1.499   1.351  16.939 -0.0255  1.1868 -0.4992
 2854TIP3    H229978   1.556   1.253  16.840  0.4300  0.4966  0.4380
 2855TIP3   OH229979   6.202   0.925  15.861 -0.0719 -0.5190  0.1355
 2855TIP3    H129980   6.117   0.964  15.883  0.0287  0.0030 -0.3575
 2855TIP3    H229981   6.264   0.999  15.866 -0.0875 -0.2805 -2.1150
 2856TIP3   OH229982   3.047   1.930   0.242  0.0402 -0.1990  0.4732
 2856TIP3    H129983   2.956   1.900   0.246 -0.2945  0.8233  0.8288
 2856TIP3    H229984   3.052   2.000   0.306  1.1998 -0.5148  0.7589
 2857TIP3   OH229985   3.634   3.771  17.028 -0.4132 -0.3723  0.6243
 2857TIP3    H129986   3.586   3.817  17.097  0.0283  1.6552 -0.3331
 2857TIP3    H229987   3.647   3.683  17.063 -2.3274 -0.1521  2.0762
 2858TIP3   OH229988   5.033   3.586  13.394 -0.1747 -0.3938  0.1398
 2858TIP3    H129989   5.053   3.623  13.480 -1.5554 -3.0640  1.7526
 2858TIP3    H229990   5.063   3.495  13.399 -0.7079 -0.7652 -2.0575
 2859TIP3   OH229991   0.863   3.546  12.134 -0.3726  0.2345  0.4572
 2859TIP3    H129992   0.887   3.605  12.063 -2.4667  1.7796  0.9380
 2859TIP3    H229993   0.934   3.555  12.197  0.7056  0.0926 -0.7042
 2860TIP3   OH229994   1.845   4.644  15.740  0.3549 -0.2666  0.2993
 2860TIP3    H129995   1.849   4.557  15.702  0.0759  0.1847 -0.8111
 2860TIP3    H229996   1.936   4.667  15.758  0.5127 -0.3824 -0.3547
 2861TIP3   OH229997   2.434   2.792  13.646 -0.5893  0.2753 -0.1542
 2861TIP3    H129998   2.479   2.874  13.663 -0.0973 -0.0102 -0.0583
 2861TIP3    H229999   2.440   2.780  13.551  1.8284 -1.0325  0.0943
 2862TIP3   OH230000   5.981   1.365   2.670  0.2127  0.3151  0.2580
 2862TIP3    H130001   6.019   1.388   2.585 -2.5493  2.4366 -0.5477
 2862TIP3    H230002   5.958   1.449   2.709 -0.7386 -0.7182  2.0540
 2863TIP3   OH230003   0.767   6.303   3.230  0.1339 -0.7869 -0.0314
 2863TIP3    H130004   0.786   6.244   3.302 -0.9255  0.7728  1.6270
 2863TIP3    H230005   0.767   6.248   3.152  1.8429 -2.4429  1.0588
 2864TIP3   OH230006   0.709   5.640   4.707 -0.2432  0.9519  0.6593
 2864TIP3    H130007   0.691   5.546   4.707 -0.4188  0.9842  0.4677
 2864TIP3    H230008   0.749   5.657   4.622 -1.3869  1.2649  0.1659
 2865TIP3   OH230009   5.734   0.533  12.018  0.3109 -0.2798 -0.2230
 2865TIP3    H130010   5.667   0.472  11.986  0.6751 -1.6407  1.4726
 2865TIP3    H230011   5.781   0.560  11.939  0.9165 -3.1910 -0.9953
 2866TIP3   OH230012   4.615   4.873   3.358  0.3642  0.6227 -0.0542
 2866TIP3    H130013   4.536   4.825   3.335  0.3581 -0.2533  1.6531
 2866TIP3    H230014   4.646   4.909   3.275 -1.5899  0.6619 -0.8213
 2867TIP3   OH230015   5.028   4.754  11.897  0.7798 -0.4459  0.0115
 2867TIP3    H130016   5.000   4.843  11.876  2.6720  0.2823  0.4108
 2867TIP3    H230017   4.946   4.705  11.905 -0.3049  1.2345 -0.2628
 2868TIP3   OH230018   5.253   3.915  16.502  0.2288 -0.4221  0.3200
 2868TIP3    H130019   5.344   3.914  16.472  0.0226  0.5367 -0.3701
 2868TIP3    H230020   5.219   3.999  16.473 -0.5744 -0.3057  1.5283
 2869TIP3   OH230021   0.542   2.063  11.413 -0.3750  0.3613  0.3309
 2869TIP3    H130022   0.623   2.077  11.461 -1.0583  0.6956  1.4281
 2869TIP3    H230023   0.558   2.103  11.327  0.4784  0.7637  0.6667
 2870TIP3   OH230024   6.231   6.154  11.030 -0.6863  0.4720 -0.3314
 2870TIP3    H130025   6.298   6.120  10.971 -1.1088  0.8798 -1.0695
 2870TIP3    H230026   6.280   6.208  11.093 -0.2442  0.1478 -0.3926
 2871TIP3   OH230027   5.524   6.535   3.101  0.0110  0.0494 -0.2657
 2871TIP3    H130028   5.434   6.505   3.095  0.0840 -1.0108  2.4383
 2871TIP3    H230029   5.527   6.585   3.182  1.8081  0.1837 -0.3793
 2872TIP3   OH230030   2.705   4.853  13.750  0.6242 -0.1546 -0.3027
 2872TIP3    H130031   2.743   4.859  13.662  0.4201 -1.6260 -0.5140
 2872TIP3    H230032   2.707   4.943  13.783  0.5832  0.4596 -1.8671
 2873TIP3   OH230033   1.998   0.381   4.571  0.4313 -1.0025  0.0287
 2873TIP3    H130034   1.907   0.376   4.540  1.1202 -0.0408 -2.3897
 2873TIP3    H230035   1.994   0.437   4.648 -0.7933  0.8637 -1.3075
 2874TIP3   OH230036   1.735   4.490   3.290  0.4033  0.0844 -0.1475
 2874TIP3    H130037   1.749   4.481   3.196 -1.0988 -0.7996 -0.3234
 2874TIP3    H230038   1.699   4.579   3.301 -1.9975 -0.7168 -0.8133
 2875TIP3   OH230039   1.277   5.657  12.967  0.1253 -0.1344  0.4381
 2875TIP3    H130040   1.352   5.598  12.970  0.5742  0.4410  0.7658
 2875TIP3    H230041   1.308   5.734  12.919 -0.4732 -0.1875 -0.0473
 2876TIP3   OH230042   3.793   0.726  14.282 -0.5480  0.3397  0.2295
 2876TIP3    H130043   3.837   0.809  14.267  0.5755 -0.4275 -0.9370
 2876TIP3    H230044   3.731   0.718  14.210  0.0620 -0.2605 -0.2509
 2877TIP3   OH230045   6.447   3.939  15.031  0.4977  0.3278 -0.1145
 2877TIP3    H130046   6.527   3.968  14.986 -0.1108 -1.0925 -2.2278
 2877TIP3    H230047   6.479   3.880  15.100  1.3086  0.5776 -0.2628
 2878TIP3   OH230048   4.817   5.527   2.311  0.1339  0.8312 -0.2954
 2878TIP3    H130049   4.770   5.611   2.311  0.7691  1.1957  0.4835
 2878TIP3    H230050   4.867   5.529   2.229 -0.2602  0.9766 -0.5374
 2879TIP3   OH230051   4.575   5.742  13.163 -0.4745 -0.1941  0.5287
 2879TIP3    H130052   4.601   5.710  13.077 -1.4186 -0.8333  0.4707
 2879TIP3    H230053   4.577   5.838  13.154  0.0936 -0.2480  0.0113
 2880TIP3   OH230054   5.930   3.269   1.773 -0.3007 -0.4417  0.2978
 2880TIP3    H130055   5.902   3.360   1.767  2.3296  0.3407 -1.9934
 2880TIP3    H230056   5.873   3.222   1.711 -0.5304 -0.0231  0.1893
 2881TIP3   OH230057   0.632   2.306   0.175 -0.0266 -0.0164 -0.3857
 2881TIP3    H130058   0.584   2.270   0.100  1.8393  0.1008 -1.6997
 2881TIP3    H230059   0.563   2.330   0.238 -1.6148 -0.7242 -1.7717
 2882TIP3   OH230060   3.771   5.825  14.400 -0.4779 -0.3929 -0.2424
 2882TIP3    H130061   3.694   5.861  14.444 -1.2607  0.6773 -2.3850
 2882TIP3    H230062   3.743   5.741  14.366 -0.0181 -0.9878  0.7823
 2883TIP3   OH230063   6.001   4.476  16.218 -0.2475 -0.0744 -0.3113
 2883TIP3    H130064   5.965   4.510  16.300 -2.8930 -2.0699 -0.4879
 2883TIP3    H230065   6.024   4.554  16.168  0.4995  1.2081  1.8873
 2884TIP3   OH230066   2.899   2.683  13.143 -0.1301 -0.1297 -0.1798
 2884TIP3    H130067   2.977   2.638  13.110 -0.0217  0.0740 -0.1996
 2884TIP3    H230068   2.895   2.765  13.094 -0.6291 -0.3552 -0.5321
 2885TIP3   OH230069   3.282   5.075   6.189 -0.0305 -0.0183 -0.1082
 2885TIP3    H130070   3.277   5.084   6.284  1.3530 -1.1773  0.1021
 2885TIP3    H230071   3.191   5.071   6.160 -0.4565 -0.1330  1.2139
 2886TIP3   OH230072   0.757   3.308   4.413 -0.1715 -0.2734 -0.5638
 2886TIP3    H130073   0.791   3.247   4.347  3.1365 -1.8573  2.2435
 2886TIP3    H230074   0.808   3.388   4.401 -1.3818  0.3960 -1.4490
 2887TIP3   OH230075   0.308   4.931  16.057  0.2437  0.2772  0.6459
 2887TIP3    H130076   0.368   4.977  16.116  0.7381  0.4262  0.0452
 2887TIP3    H230077   0.358   4.921  15.976 -0.5324  0.3637  0.1467
 2888TIP3   OH230078   5.584   5.169  13.335  1.0173 -0.2051  0.4235
 2888TIP3    H130079   5.600   5.095  13.277  0.5504  0.6986 -0.9002
 2888TIP3    H230080   5.490   5.167  13.352  0.5282  1.4668 -1.6556
 2889TIP3   OH230081   6.281   2.105   1.998  0.1076  0.0136 -0.4630
 2889TIP3    H130082   6.336   2.027   1.991 -0.5207 -0.5085  0.2235
 2889TIP3    H230083   6.230   2.106   1.916  0.7905  0.2438 -0.8927
 2890TIP3   OH230084   3.233   2.931   0.156  0.9602  0.1513 -0.4751
 2890TIP3    H130085   3.303   2.917   0.091  0.7936 -0.6402 -0.4902
 2890TIP3    H230086   3.172   2.858   0.142  1.1303 -0.2774  0.8350
 2891TIP3   OH230087   5.682   6.671   5.137  0.1096  0.1037 -0.2848
 2891TIP3    H130088   5.707   6.581   5.117  1.5452 -1.0432  5.1840
 2891TIP3    H230089   5.752   6.724   5.099  0.5758 -1.2548 -1.4489
 2892TIP3   OH230090   5.631   0.190   4.407 -0.5598  0.4128 -0.3434
 2892TIP3    H130091   5.681   0.166   4.485  2.6803  4.4911 -0.7818
 2892TIP3    H230092   5.658   0.126   4.341  1.4511  0.4047  0.4028
 2893TIP3   OH230093   4.240   3.546  10.515  0.1206  0.3910 -0.0628
 2893TIP3    H130094   4.266   3.625  10.468  0.5778 -0.4576 -1.2849
 2893TIP3    H230095   4.321   3.510  10.549 -0.0578  0.3318  0.3017
 2894TIP3   OH230096   3.980   4.537  13.896  0.0914  0.5963  0.1150
 2894TIP3    H130097   4.068   4.531  13.858 -0.9698  0.9380 -2.5658
 2894TIP3    H230098   3.986   4.485  13.976  2.9157  1.2313  0.4271
 2895TIP3   OH230099   6.046   3.901  11.990  0.4014  0.3562 -0.1552
 2895TIP3    H130100   6.087   3.933  12.070 -2.9064  1.5664  1.2659
 2895TIP3    H230101   6.020   3.811  12.011  1.0516  0.0721 -0.5401
 2896TIP3   OH230102   0.751   4.400  12.769 -0.3267 -0.1063  0.1919
 2896TIP3    H130103   0.796   4.396  12.854  2.1762 -0.7851 -1.0773
 2896TIP3    H230104   0.816   4.369  12.706 -1.4373  2.1834 -2.2574
 2897TIP3   OH230105   0.476   5.962  13.963 -0.4614 -0.4472 -0.5914
 2897TIP3    H130106   0.417   6.037  13.953  0.7189  0.5479 -0.3271
 2897TIP3    H230107   0.432   5.905  14.026 -2.1563 -0.8075 -2.0230
 2898TIP3   OH230108   0.561   4.653  11.345 -0.1372 -0.5537 -0.0549
 2898TIP3    H130109   0.549   4.617  11.257 -0.1101 -0.1617 -0.2216
 2898TIP3    H230110   0.638   4.710  11.337  0.3470 -1.1246  0.4127
 2899TIP3   OH230111   4.970   5.174   1.679 -0.1565  0.2250  0.8297
 2899TIP3    H130112   4.891   5.135   1.642  0.6011  0.2304 -0.8780
 2899TIP3    H230113   4.940   5.255   1.720 -0.9848  0.4526 -0.1938
 2900TIP3   OH230114   5.619   1.182  16.435 -0.5279  0.3342  0.2895
 2900TIP3    H130115   5.636   1.225  16.518  1.4167 -1.0998  0.7106
 2900TIP3    H230116   5.627   1.088  16.454 -0.7791 -0.0676 -1.3687
 2901TIP3   OH230117   6.067   4.471   3.990  0.1683 -0.0088 -0.7161
 2901TIP3    H130118   6.036   4.396   3.940  0.5545  0.0320 -1.0236
 2901TIP3    H230119   6.101   4.434   4.071 -0.0974 -0.1151 -0.6527
 2902TIP3   OH230120   1.578   2.678   0.756 -0.2871 -0.3139  0.6070
 2902TIP3    H130121   1.617   2.765   0.759  0.3386 -0.5908  0.7650
 2902TIP3    H230122   1.528   2.672   0.838  0.8756 -0.6370  1.3208
 2903TIP3   OH230123   5.976   5.411   3.329  0.2648  0.4839 -0.0879
 2903TIP3    H130124   5.937   5.475   3.269  1.4258  0.6455 -0.6866
 2903TIP3    H230125   5.958   5.327   3.288 -0.6460  0.4544  0.3440
 2904TIP3   OH230126   1.057   3.159   4.054 -0.1755 -0.3000 -0.4341
 2904TIP3    H130127   1.132   3.102   4.036  0.8747  0.9800 -0.3329
 2904TIP3    H230128   1.041   3.204   3.972 -0.8696 -0.5833 -0.4600
 2905TIP3   OH230129   3.463   6.145   4.874 -0.4114  0.0656 -0.0389
 2905TIP3    H130130   3.522   6.125   4.946 -2.7702 -0.5642  1.8523
 2905TIP3    H230131   3.442   6.238   4.885  0.9447  0.5598 -1.3302
 2906TIP3   OH230132   5.354   6.401  11.511 -0.4422  0.2811  0.1636
 2906TIP3    H130133   5.335   6.494  11.496 -1.3629  0.1525  0.4630
 2906TIP3    H230134   5.308   6.356  11.440 -0.2239  0.0338  0.1797
 2907TIP3   OH230135   3.630   1.371  14.689  0.8528 -0.4919  0.1244
 2907TIP3    H130136   3.540   1.352  14.662  0.4265 -2.3499  2.4875
 2907TIP3    H230137   3.626   1.457  14.730 -0.2174 -1.2030  1.5781
 2908TIP3   OH230138   5.012   6.032   4.137  0.1260 -0.5317  0.7775
 2908TIP3    H130139   5.022   5.954   4.083 -0.8186 -0.9313  1.1486
 2908TIP3    H230140   5.010   5.998   4.227 -1.4832 -0.2187  0.8826
 2909TIP3   OH230141   1.048   0.135  16.863 -0.2410  0.0668 -0.3241
 2909TIP3    H130142   1.066   0.196  16.791 -1.0578  0.1936 -0.4207
 2909TIP3    H230143   0.953   0.123  16.862 -0.2226 -0.1934  0.5304
 2910TIP3   OH230144   5.605   4.565  15.793 -0.3929  0.3345  0.4244
 2910TIP3    H130145   5.691   4.536  15.763 -0.5371  1.5427 -1.2966
 2910TIP3    H230146   5.624   4.643  15.846 -0.3909  0.1709  0.6680
 2911TIP3   OH230147   2.187   1.644   5.842  0.1448  0.2279 -0.1204
 2911TIP3    H130148   2.196   1.619   5.934 -1.4480  2.0510  0.6182
 2911TIP3    H230149   2.239   1.725   5.835  0.2273  0.1161 -0.8329
 2912TIP3   OH230150   5.418   5.857  15.965  0.3000 -0.0637 -0.2044
 2912TIP3    H130151   5.512   5.841  15.951 -0.1983 -5.4400  0.6818
 2912TIP3    H230152   5.409   5.865  16.060 -0.2181 -0.7023 -0.1948
 2913TIP3   OH230153   0.900   2.770  15.652  0.0146  0.2157 -0.1052
 2913TIP3    H130154   0.899   2.705  15.722  1.3239  0.2343 -0.0572
 2913TIP3    H230155   0.979   2.750  15.601  0.4608  1.7818 -0.0747
 2914TIP3   OH230156   6.669   4.883  15.737 -0.0988 -0.5920 -0.1125
 2914TIP3    H130157   6.589   4.904  15.785  1.0564  1.8675  0.8680
 2914TIP3    H230158   6.640   4.871  15.646 -1.8707 -2.2963  0.6084
 2915TIP3   OH230159   4.769   2.199   0.551  0.0138  0.0137  0.5327
 2915TIP3    H130160   4.770   2.194   0.646  0.4660 -1.6912  0.4694
 2915TIP3    H230161   4.722   2.280   0.532 -1.9088 -0.6311  2.1810
 2916TIP3   OH230162   2.695   1.379  12.913 -0.4112 -0.6253  0.1789
 2916TIP3    H130163   2.676   1.473  12.920  1.9225 -0.1277  0.4353
 2916TIP3    H230164   2.660   1.342  12.995 -2.9398 -0.3374 -0.6944
 2917TIP3   OH230165   2.109   4.581   5.417  0.3644  0.2301  0.3768
 2917TIP3    H130166   2.156   4.501   5.391  0.2014 -0.8706  3.1734
 2917TIP3    H230167   2.176   4.637   5.456 -0.0979 -0.0787  1.6540
 2918TIP3   OH230168   3.316   0.882  16.639  0.5030  0.3039  0.8956
 2918TIP3    H130169   3.228   0.879  16.601  0.8951 -0.5359  0.0338
 2918TIP3    H230170   3.351   0.967  16.613  0.7647 -0.2486 -0.6654
 2919TIP3   OH230171   3.067   5.812   5.374 -0.4229 -0.6563 -0.1125
 2919TIP3    H130172   3.160   5.794   5.388 -0.0079  1.2867  0.0288
 2919TIP3    H230173   3.060   5.827   5.280 -0.5979 -0.8283 -0.1264
 2920TIP3   OH230174   6.303   0.612  16.688  0.6475 -0.7306 -0.2642
 2920TIP3    H130175   6.391   0.594  16.722  0.2874  0.0176  1.1430
 2920TIP3    H230176   6.262   0.667  16.754  0.3804  2.1196 -2.6145
 2921TIP3   OH230177   2.977   1.507  14.669  0.0821 -0.2544 -0.3908
 2921TIP3    H130178   3.004   1.416  14.687 -0.9937 -0.4166  0.5042
 2921TIP3    H230179   2.985   1.551  14.753  0.5504  0.4822 -0.8174
 2922TIP3   OH230180   4.585   4.568   4.338  0.2826 -0.2099  0.3623
 2922TIP3    H130181   4.636   4.632   4.387  0.4077 -0.1617  0.1703
 2922TIP3    H230182   4.587   4.489   4.393  0.8715 -0.3231  0.1908
 2923TIP3   OH230183   6.020   0.756  11.283  0.0964 -0.3475  0.1722
 2923TIP3    H130184   6.081   0.715  11.345  1.0420 -0.4878 -0.8321
 2923TIP3    H230185   6.075   0.787  11.211 -0.8590  0.7744 -0.1150
 2924TIP3   OH230186   4.209   4.154   2.176 -0.0581 -0.3366 -0.1417
 2924TIP3    H130187   4.259   4.090   2.226  0.9112 -0.1218 -0.7962
 2924TIP3    H230188   4.270   4.227   2.163 -0.9243  0.4370  0.0281
 2925TIP3   OH230189   5.524   6.438  11.136 -0.4226 -0.4536  0.1513
 2925TIP3    H130190   5.555   6.418  11.225 -1.6278 -0.7793  0.5167
 2925TIP3    H230191   5.597   6.483  11.095  0.4045 -0.9073  1.0882
 2926TIP3   OH230192   4.721   2.159   2.482  0.3662  0.2645 -0.5142
 2926TIP3    H130193   4.760   2.191   2.400  0.3451  3.0864  0.4738
 2926TIP3    H230194   4.795   2.120   2.530  0.8433  0.6225 -0.9443
 2927TIP3   OH230195   1.649   3.176   5.705 -0.0504  0.3669 -0.9086
 2927TIP3    H130196   1.576   3.199   5.648  0.5199  1.9706 -1.0505
 2927TIP3    H230197   1.652   3.081   5.703 -3.1502  0.1156  0.3974
 2928TIP3   OH230198   0.656   0.079   1.686  0.3650  0.0591 -0.1094
 2928TIP3    H130199   0.683   0.107   1.773  2.8746 -1.2396 -0.3467
 2928TIP3    H230200   0.679   0.152   1.628  2.6661 -0.6096 -0.1508
 2929TIP3   OH230201   2.506   6.504   5.592  0.0461  0.0081 -0.1997
 2929TIP3    H130202   2.490   6.575   5.655  0.1755  1.3686 -1.6328
 2929TIP3    H230203   2.601   6.490   5.595  0.1400  0.5471 -0.5742
 2930TIP3   OH230204   1.671   4.973   0.369  0.6018  0.0596  0.1788
 2930TIP3    H130205   1.625   5.042   0.321 -0.4820 -0.1212  0.9355
 2930TIP3    H230206   1.612   4.949   0.440  1.2557 -1.1934  0.3251
 2931TIP3   OH230207   1.076   5.289  16.068 -0.3952  0.1006  0.1796
 2931TIP3    H130208   1.003   5.341  16.102 -1.7209 -1.5971  0.0364
 2931TIP3    H230209   1.142   5.293  16.138 -1.4874 -0.0812  1.2597
 2932TIP3   OH230210   1.759   6.308   3.917 -0.6018 -0.6303 -0.0806
 2932TIP3    H130211   1.793   6.396   3.936 -0.4439 -0.4012 -1.3352
 2932TIP3    H230212   1.837   6.256   3.898 -0.7901 -0.6470 -0.8467
 2933TIP3   OH230213   4.965   6.634  15.054  0.1536  0.3181 -0.1689
 2933TIP3    H130214   4.871   6.639  15.070  0.0055 -2.0414 -0.0510
 2933TIP3    H230215   4.972   6.621  14.959  0.3960  0.8789 -0.2319
 2934TIP3   OH230216   1.870   1.783   2.784 -0.0841 -0.1381  0.4554
 2934TIP3    H130217   1.889   1.845   2.713  0.3528 -0.5226  0.2333
 2934TIP3    H230218   1.907   1.824   2.862  0.6526 -0.3506  0.2223
 2935TIP3   OH230219   4.561   6.220  11.884 -0.0136 -1.0016 -0.4330
 2935TIP3    H130220   4.480   6.269  11.866 -0.4881 -1.9087 -0.8210
 2935TIP3    H230221   4.575   6.232  11.978 -0.3490 -0.4752 -0.4409
 2936TIP3   OH230222   3.772   1.033   0.459  0.2002 -0.5287  0.6862
 2936TIP3    H130223   3.843   1.071   0.407 -0.2720  0.6466  0.8768
 2936TIP3    H230224   3.815   0.969   0.516  0.8562 -1.1569 -0.4595
 2937TIP3   OH230225   6.466   4.312   2.102  0.3044 -0.1367 -0.1904
 2937TIP3    H130226   6.371   4.316   2.096  0.2473  0.5683  0.8208
 2937TIP3    H230227   6.488   4.220   2.088 -0.4422 -0.1546 -1.2972
 2938TIP3   OH230228   2.357   4.872   2.028 -0.2387 -0.2655 -0.1265
 2938TIP3    H130229   2.310   4.922   2.094  0.7936  1.1666 -0.4343
 2938TIP3    H230230   2.401   4.802   2.077 -0.5262 -0.0020  0.5115
 2939TIP3   OH230231   6.351   1.944  16.745 -0.6122 -0.4925 -0.2179
 2939TIP3    H130232   6.393   2.005  16.685  3.4251 -1.4180  1.3695
 2939TIP3    H230233   6.340   1.994  16.826 -2.3353 -0.4029 -0.4739
 2940TIP3   OH230234   1.078   1.353  12.393  0.6176  0.3475  0.5328
 2940TIP3    H130235   1.169   1.376  12.413  1.5730 -1.9508 -0.8060
 2940TIP3    H230236   1.076   1.343  12.298 -1.1652  0.7300  0.4958
 2941TIP3   OH230237   0.877   0.623   4.444  0.0351 -0.8541 -0.3587
 2941TIP3    H130238   0.827   0.573   4.508 -1.2179  0.1278 -0.5098
 2941TIP3    H230239   0.885   0.565   4.368 -1.3192 -0.8845 -0.5044
 2942TIP3   OH230240   6.232   2.181   5.197  0.0370  0.1202 -0.1174
 2942TIP3    H130241   6.255   2.252   5.136 -0.5743  0.0908 -0.3812
 2942TIP3    H230242   6.164   2.131   5.153 -1.7207  1.1402  1.2801
 2943TIP3   OH230243   2.694   2.748  12.195  0.4498  0.5131  0.2145
 2943TIP3    H130244   2.672   2.659  12.169  1.1854  0.4300 -0.1527
 2943TIP3    H230245   2.611   2.796  12.189 -0.5431 -0.6835  2.9185
 2944TIP3   OH230246   2.569   2.361   5.960 -0.0629  0.3607 -0.2616
 2944TIP3    H130247   2.499   2.418   5.928 -1.2356 -1.2742 -0.7560
 2944TIP3    H230248   2.643   2.419   5.975 -0.8010  1.8148 -1.9707
 2945TIP3   OH230249   1.384   5.599   0.146 -0.6337  0.7430 -0.2230
 2945TIP3    H130250   1.328   5.610   0.222 -0.7121  0.2490 -0.2062
 2945TIP3    H230251   1.461   5.552   0.179 -0.7825  0.3014 -0.4945
 2946TIP3   OH230252   2.901   2.646  10.209  0.1585 -0.1449 -0.2689
 2946TIP3    H130253   2.822   2.650  10.262 -0.4617  0.9682 -1.2277
 2946TIP3    H230254   2.924   2.553  10.206  0.4046 -0.2428  2.1620
 2947TIP3   OH230255   4.672   1.763  13.118 -0.3978  0.0381 -0.3987
 2947TIP3    H130256   4.701   1.675  13.095  1.4677 -0.4917  3.2782
 2947TIP3    H230257   4.750   1.806  13.151 -1.7037  2.4307 -0.2357
 2948TIP3   OH230258   2.385   1.228  13.113  0.5685  0.3371  0.0145
 2948TIP3    H130259   2.429   1.147  13.090  0.7681  0.2418  0.7117
 2948TIP3    H230260   2.315   1.201  13.173 -0.0810  0.5536 -0.6262
 2949TIP3   OH230261   1.378   1.128   1.585 -0.1922 -0.3767 -0.2539
 2949TIP3    H130262   1.418   1.042   1.572  0.8801  0.2397 -1.1787
 2949TIP3    H230263   1.452   1.189   1.588 -0.7659  0.3374  2.3723
 2950TIP3   OH230264   3.466   1.743  12.925  0.4045  0.4767  0.2190
 2950TIP3    H130265   3.476   1.729  13.019 -0.1113  2.3263  0.6033
 2950TIP3    H230266   3.413   1.669  12.895  0.5473 -0.1251  1.3851
 2951TIP3   OH230267   1.596   0.638  17.133 -0.1636  0.0304  0.0158
 2951TIP3    H130268   1.616   0.545  17.118 -1.6120  0.0020 -2.1266
 2951TIP3    H230269   1.567   0.641  17.224  0.4542 -1.5149  0.3000
 2952TIP3   OH230270   1.706   4.836  11.557  0.7145 -0.1770 -1.2593
 2952TIP3    H130271   1.770   4.832  11.628  0.2915 -0.8228 -0.9170
 2952TIP3    H230272   1.712   4.751  11.514 -0.8177 -0.7210 -0.4442
 2953TIP3   OH230273   2.296   4.309  13.912  0.5133  0.9877 -0.0904
 2953TIP3    H130274   2.204   4.328  13.897  0.2621  0.2571  0.4484
 2953TIP3    H230275   2.300   4.213  13.920  1.5344  0.8820 -1.5465
 2954TIP3   OH230276   3.832   4.768   3.837 -0.2458 -0.8554 -0.3429
 2954TIP3    H130277   3.785   4.724   3.766  0.6399 -0.1224 -1.4421
 2954TIP3    H230278   3.774   4.838   3.865 -0.4385 -0.8892 -0.6524
 2955TIP3   OH230279   3.954   0.956   6.069 -0.1213  0.4810 -0.0213
 2955TIP3    H130280   3.959   1.051   6.074  2.5176  0.5070 -1.1555
 2955TIP3    H230281   4.037   0.930   6.029 -0.6745 -2.3260  0.4283
 2956TIP3   OH230282   0.125   4.410  17.110  0.6514 -0.0745 -0.5442
 2956TIP3    H130283   0.178   4.412  17.030  1.5349 -0.8854  0.0019
 2956TIP3    H230284   0.046   4.459  17.088  1.1689  0.2585 -1.7121
 2957TIP3   OH230285   2.573   0.299  12.809 -0.4096 -0.1539 -0.7683
 2957TIP3    H130286   2.483   0.270  12.827 -0.4812  0.2422 -0.4888
 2957TIP3    H230287   2.587   0.276  12.717 -0.3701 -1.3200 -0.4949
 2958TIP3   OH230288   1.074   4.063   6.555 -0.0874 -0.2176  0.4554
 2958TIP3    H130289   0.986   4.049   6.588  0.1437 -3.5394  0.0626
 2958TIP3    H230290   1.067   4.050   6.460  0.7398  0.0465  0.3472
 2959TIP3   OH230291   4.542   0.512   5.490  0.4674 -0.2808  0.2189
 2959TIP3    H130292   4.583   0.428   5.508  2.8987  0.6001 -0.7269
 2959TIP3    H230293   4.479   0.494   5.420  2.6010 -1.0071 -1.6390
 2960TIP3   OH230294   0.077   2.979   5.306 -0.4340 -0.2097  0.1213
 2960TIP3    H130295   0.027   3.061   5.309 -0.3211 -0.1286 -0.1977
 2960TIP3    H230296   0.022   2.917   5.259 -0.7107 -0.4523  0.7576
 2961TIP3   OH230297   0.800   5.823  12.821 -0.3189  0.2604 -0.1084
 2961TIP3    H130298   0.747   5.867  12.888  2.0817 -0.2128  2.2595
 2961TIP3    H230299   0.877   5.879  12.811  0.8924 -1.3471 -0.0519
 2962TIP3   OH230300   5.133   3.185  14.365  0.2657  0.4690  0.0657
 2962TIP3    H130301   5.108   3.195  14.456 -0.4137  0.7006 -0.1442
 2962TIP3    H230302   5.149   3.274  14.334 -0.4250  0.4695 -0.2985
 2963TIP3   OH230303   4.519   2.357   2.154  0.7057  0.3310  0.1178
 2963TIP3    H130304   4.606   2.351   2.114  1.1256 -0.2344  1.0697
 2963TIP3    H230305   4.507   2.450   2.172  2.3261  0.1865  2.4655
 2964TIP3   OH230306   4.734   5.517  16.363  0.2475  0.0349  0.0715
 2964TIP3    H130307   4.794   5.445  16.382 -0.7577 -0.8501  0.0266
 2964TIP3    H230308   4.775   5.565  16.291  1.7872  0.5835  1.2648
 2965TIP3   OH230309   4.113   3.049   0.401 -0.3610  0.1590  0.5422
 2965TIP3    H130310   4.147   3.138   0.411 -1.9617  0.9624 -0.7637
 2965TIP3    H230311   4.044   3.041   0.467 -0.9369  0.2819 -0.0336
 2966TIP3   OH230312   1.430   3.659   4.694 -0.0800 -0.0123 -0.0450
 2966TIP3    H130313   1.494   3.666   4.623 -0.0790 -1.2881 -0.1892
 2966TIP3    H230314   1.481   3.631   4.769 -0.0187  1.6901  0.5862
 2967TIP3   OH230315   3.548   3.240  16.352  0.8480 -0.3433  0.1431
 2967TIP3    H130316   3.610   3.210  16.286  1.5312 -2.0812  1.4742
 2967TIP3    H230317   3.603   3.268  16.426  0.1345 -2.5139  1.5900
 2968TIP3   OH230318   6.041   5.982  16.194  0.8107 -0.5687 -0.1286
 2968TIP3    H130319   5.995   6.065  16.180  0.5016 -0.0931  2.9871
 2968TIP3    H230320   5.998   5.921  16.135  0.5956  1.2875 -2.0304
 2969TIP3   OH230321   5.587   0.169  14.821  0.2831 -1.1392 -0.2711
 2969TIP3    H130322   5.613   0.154  14.911  0.5804 -1.0283 -0.3356
 2969TIP3    H230323   5.646   0.237  14.790  0.3083 -1.3113 -0.6087
 2970TIP3   OH230324   4.576   1.956   0.383 -0.9923  0.2301  0.5322
 2970TIP3    H130325   4.647   1.898   0.410  0.1908  0.9538 -0.8603
 2970TIP3    H230326   4.581   2.030   0.443  1.0554  1.4194 -0.9535
 2971TIP3   OH230327   4.968   1.833  16.503  0.0623 -0.1241  0.3348
 2971TIP3    H130328   5.021   1.755  16.521  0.4181  0.3871  1.6332
 2971TIP3    H230329   5.028   1.906  16.521  0.3403  0.5047 -2.6622
 2972TIP3   OH230330   3.802   1.963  14.345 -0.4742 -0.4734 -0.1737
 2972TIP3    H130331   3.737   2.029  14.321  0.0819 -0.0873 -0.6113
 2972TIP3    H230332   3.886   2.002  14.324 -0.0480 -0.6872  1.0680
 2973TIP3   OH230333   4.656   6.698   2.690  0.3149 -0.2256  0.0918
 2973TIP3    H130334   4.643   6.757   2.616  1.4933  0.7633  0.6262
 2973TIP3    H230335   4.569   6.668   2.714 -0.1925  0.4112 -0.9227
 2974TIP3   OH230336   0.652   2.344   5.142  0.3173  0.2901  0.3955
 2974TIP3    H130337   0.704   2.385   5.073 -0.2629  1.0720  0.4165
 2974TIP3    H230338   0.683   2.253   5.144 -0.5544 -0.1176 -1.7913
 2975TIP3   OH230339   4.691   1.520   3.812 -0.1486 -0.3226 -0.3593
 2975TIP3    H130340   4.757   1.588   3.828  1.1557 -1.6433  0.0298
 2975TIP3    H230341   4.737   1.454   3.760 -1.7678 -0.3318 -1.8586
 2976TIP3   OH230342   2.595   4.806   6.018 -0.3881  0.2518 -0.3800
 2976TIP3    H130343   2.618   4.784   6.108 -0.2219 -1.9712 -0.9083
 2976TIP3    H230344   2.674   4.848   5.983  0.2965 -0.7257 -0.0577
 2977TIP3   OH230345   1.337   1.995  14.045  0.1850 -1.0163  0.6002
 2977TIP3    H130346   1.407   2.057  14.027 -0.8937 -0.0296 -0.3834
 2977TIP3    H230347   1.328   1.944  13.965  0.4734 -1.8514  1.0928
 2978TIP3   OH230348   5.920   1.365   1.952  0.0140 -0.4091 -0.3607
 2978TIP3    H130349   5.953   1.379   1.862 -0.2567 -0.7299 -0.5098
 2978TIP3    H230350   5.859   1.292   1.944 -2.4692  1.5604 -0.5070
 2979TIP3   OH230351   0.216   4.297   3.233  0.5747 -0.4549 -0.0477
 2979TIP3    H130352   0.274   4.231   3.271  0.3760 -0.0145  1.0453
 2979TIP3    H230353   0.224   4.373   3.291 -0.0863  0.0726 -0.6324
 2980TIP3   OH230354   5.024   6.561   4.820  0.2349  0.1306  0.0154
 2980TIP3    H130355   5.096   6.505   4.792 -0.9508 -1.1587 -0.5930
 2980TIP3    H230356   5.019   6.629   4.753  0.2911 -0.3229 -0.4549
 2981TIP3   OH230357   4.994   4.272  11.825 -0.2885  0.3391  0.4919
 2981TIP3    H130358   5.086   4.247  11.819 -0.3767 -0.6859  2.5077
 2981TIP3    H230359   4.976   4.319  11.743  1.6611 -0.5627 -0.5163
 2982TIP3   OH230360   4.747   4.225  15.790 -0.3064  0.6144  0.0992
 2982TIP3    H130361   4.769   4.146  15.741 -0.4942 -0.8016  2.1352
 2982TIP3    H230362   4.794   4.215  15.873 -2.0620  1.5287  1.2790
 2983TIP3   OH230363   1.091   1.191   2.130  0.0081  0.0804 -0.4315
 2983TIP3    H130364   1.036   1.193   2.208  1.1233 -0.9032  0.4126
 2983TIP3    H230365   1.030   1.179   2.057 -1.1363  1.9782  0.1575
 2984TIP3   OH230366   6.673   6.162   1.662  0.0221  0.7333 -0.1045
 2984TIP3    H130367   6.691   6.132   1.573  0.1696  0.1401  0.1181
 2984TIP3    H230368   6.675   6.258   1.656 -0.4146  0.7108 -0.8270
 2985TIP3   OH230369   3.089   2.125   3.704  1.2428  0.2090 -0.2261
 2985TIP3    H130370   3.034   2.094   3.776  0.0538  0.6572 -0.9194
 2985TIP3    H230371   3.177   2.098   3.729  0.9964  1.1004  1.8177
 2986TIP3   OH230372   2.351   2.188   0.524 -0.1842 -0.8531  0.3857
 2986TIP3    H130373   2.308   2.144   0.597 -0.2347  0.3606  1.1242
 2986TIP3    H230374   2.414   2.124   0.491 -0.7780 -1.7377  0.9219
 2987TIP3   OH230375   3.392   0.753  14.730 -0.2235 -0.0743  0.0001
 2987TIP3    H130376   3.399   0.672  14.781 -0.2969  0.5158  0.9637
 2987TIP3    H230377   3.440   0.734  14.648  0.4188 -0.8313  0.5354
 2988TIP3   OH230378   6.654   6.321  15.401  0.5696 -0.4306  0.2440
 2988TIP3    H130379   6.627   6.255  15.465  0.5356  0.3240  1.0371
 2988TIP3    H230380   6.741   6.348  15.429  0.0410  0.8460  0.8016
 2989TIP3   OH230381   4.365   6.155  14.063  0.3798 -0.5566 -0.8644
 2989TIP3    H130382   4.284   6.205  14.049 -0.5216 -1.5820  0.4350
 2989TIP3    H230383   4.429   6.197  14.006 -0.5169  1.6300 -0.3656
 2990TIP3   OH230384   4.008   2.014  16.526  0.3630  0.2549  0.4043
 2990TIP3    H130385   4.098   2.020  16.492  0.3434  0.8298  0.4526
 2990TIP3    H230386   4.016   1.960  16.604  0.3701 -1.3342 -0.6529
 2991TIP3   OH230387   0.572   4.484   1.887 -0.0759 -0.3314 -0.2066
 2991TIP3    H130388   0.582   4.538   1.966  0.1542  0.9414 -1.0674
 2991TIP3    H230389   0.659   4.483   1.848 -0.3601 -0.2681 -0.8520
 2992TIP3   OH230390   5.045   4.152  16.733  0.5704  0.0857  0.6949
 2992TIP3    H130391   5.119   4.181  16.680 -0.0169 -1.1682 -0.8929
 2992TIP3    H230392   5.072   4.066  16.766 -0.0755 -0.2726  0.2987
 2993TIP3   OH230393   5.193   2.228  13.639 -0.3103  0.2680 -0.2131
 2993TIP3    H130394   5.166   2.275  13.718  0.8981  2.5292 -1.0659
 2993TIP3    H230395   5.211   2.139  13.670 -0.1421  0.9943  1.9918
 2994TIP3   OH230396   4.926   1.307   3.433  0.1269 -0.6079 -0.5407
 2994TIP3    H130397   4.858   1.255   3.389  0.2017  0.8645 -2.5138
 2994TIP3    H230398   4.974   1.349   3.361  1.6008  0.2828  0.9076
 2995TIP3   OH230399   0.110   2.952  15.307 -0.3588  0.3297  0.3947
 2995TIP3    H130400   0.146   2.895  15.375 -1.1059  0.5078  0.9514
 2995TIP3    H230401   0.152   3.036  15.322  0.7819 -0.0748 -0.4575
 2996TIP3   OH230402   0.446   1.773  14.727 -0.3485 -0.2222  0.3370
 2996TIP3    H130403   0.463   1.740  14.816 -0.3743  0.8032  0.7406
 2996TIP3    H230404   0.442   1.868  14.738 -0.9345 -0.1190 -0.6721
 2997TIP3   OH230405   0.046   0.661   4.930  0.3445  0.3583 -0.1098
 2997TIP3    H130406   0.079   0.746   4.960 -0.4967  0.9421 -0.7759
 2997TIP3    H230407  -0.027   0.683   4.872 -1.0342 -0.8841  1.0839
 2998TIP3   OH230408   0.912   4.415   2.979 -0.5558  0.2145 -0.4899
 2998TIP3    H130409   0.969   4.388   3.051 -1.8298 -0.2958  0.3567
 2998TIP3    H230410   0.907   4.510   2.986  1.7796  0.5218 -1.8306
 2999TIP3   OH230411   6.263   3.445  12.676 -0.4246  0.2260 -0.5065
 2999TIP3    H130412   6.308   3.447  12.760  0.6580  1.0110 -1.0844
 2999TIP3    H230413   6.182   3.396  12.693 -1.1240  1.9483  1.4242
 3000TIP3   OH230414   0.853   3.634   5.835  0.2090  0.1487  0.0904
 3000TIP3    H130415   0.919   3.631   5.766 -0.0586 -0.0879 -0.1526
 3000TIP3    H230416   0.780   3.583   5.801 -0.4834  1.2026 -0.0360
 3001TIP3   OH230417   2.358   3.137  16.314 -0.0021 -0.0827  0.4335
 3001TIP3    H130418   2.427   3.158  16.377  0.6629  0.2493 -0.3841
 3001TIP3    H230419   2.402   3.088  16.245 -0.7366 -0.5290  0.2736
 3002TIP3   OH230420   1.860   2.399   2.792  0.0713 -0.2846  0.3782
 3002TIP3    H130421   1.845   2.431   2.881  1.2226  1.8626 -0.1142
 3002TIP3    H230422   1.939   2.346   2.798  0.5695  0.4577  0.5497
 3003TIP3   OH230423   5.975   6.393  16.595 -0.0442  0.4588 -0.1150
 3003TIP3    H130424   5.969   6.309  16.549  0.0645  0.7523 -0.6710
 3003TIP3    H230425   5.885   6.424  16.600  0.1872  2.2205 -3.5332
 3004TIP3   OH230426   3.402   5.472  11.565 -0.0230  0.2206 -0.1033
 3004TIP3    H130427   3.425   5.379  11.569 -1.8405 -0.3116 -0.7057
 3004TIP3    H230428   3.408   5.502  11.656  1.8529 -0.1135 -0.0816
 3005TIP3   OH230429   5.710   0.468  15.605 -0.1854 -0.1130 -0.1356
 3005TIP3    H130430   5.792   0.479  15.654  0.7111 -0.8287 -1.4112
 3005TIP3    H230431   5.645   0.448  15.672  0.5771  0.9094  0.9505
 3006TIP3   OH230432   5.626   4.967  16.973  0.0312  0.3680  0.1592
 3006TIP3    H130433   5.569   5.016  16.914  1.7793  0.4423 -1.5782
 3006TIP3    H230434   5.648   4.888  16.924  0.4424 -0.2426  1.2936
 3007TIP3   OH230435   1.557   5.804  12.477  0.1009  0.0921 -0.8242
 3007TIP3    H130436   1.626   5.840  12.533  0.8584 -1.2003 -0.8741
 3007TIP3    H230437   1.498   5.760  12.538  1.1742 -1.7135 -1.0269
 3008TIP3   OH230438   5.380   0.117   4.465 -0.0794  0.7476 -0.2499
 3008TIP3    H130439   5.373   0.151   4.376  2.8870 -2.9258 -2.1436
 3008TIP3    H230440   5.472   0.130   4.489 -0.1961 -0.7003  1.1666
 3009TIP3   OH230441   2.105   0.864   5.184 -0.2886 -0.5650 -0.2829
 3009TIP3    H130442   2.071   0.873   5.273  0.6942 -0.5187  0.0884
 3009TIP3    H230443   2.037   0.904   5.129 -0.3039  0.6182  0.5546
 3010TIP3   OH230444   1.795   3.809  14.152  0.2709 -0.0392 -0.0424
 3010TIP3    H130445   1.757   3.776  14.233  0.9085  0.1734  0.3493
 3010TIP3    H230446   1.724   3.804  14.088 -0.1885 -0.3560  0.4889
 3011TIP3   OH230447   5.657   1.030  12.610  0.7446 -0.1103  0.0980
 3011TIP3    H130448   5.650   1.029  12.514 -1.7416 -0.5670  0.2025
 3011TIP3    H230449   5.676   0.939  12.633 -2.9507 -1.0376  0.1196
 3012TIP3   OH230450   6.221   6.626   4.985  0.3306 -0.2368  0.0730
 3012TIP3    H130451   6.192   6.709   4.947  1.0724  0.3945  0.8424
 3012TIP3    H230452   6.317   6.629   4.978  0.3042 -2.0486 -1.9644
 3013TIP3   OH230453   1.863   2.154  13.478 -0.1702  0.0270 -0.3426
 3013TIP3    H130454   1.881   2.060  13.488 -1.0398 -0.1280 -0.0823
 3013TIP3    H230455   1.843   2.184  13.567 -0.6006  0.2993 -0.5271
 3014TIP3   OH230456   4.101   5.782   4.414 -0.2554  0.1155 -0.3234
 3014TIP3    H130457   4.184   5.798   4.369 -0.5388  1.9034 -0.2886
 3014TIP3    H230458   4.115   5.700   4.462  1.0116 -0.3295 -1.3794
 3015TIP3   OH230459   4.704   2.693   6.265 -0.2525  0.5615  0.6444
 3015TIP3    H130460   4.693   2.772   6.317 -0.3791 -1.0701  3.3229
 3015TIP3    H230461   4.625   2.641   6.282  0.0761 -0.3908 -0.5671
 3016TIP3   OH230462   4.392   0.069   1.273  0.1646  0.4246 -0.6520
 3016TIP3    H130463   4.431   0.018   1.344 -0.7258  1.2500  0.4726
 3016TIP3    H230464   4.299   0.045   1.275 -0.1066  1.4199 -0.6686
 3017TIP3   OH230465   5.929   1.093   0.165 -0.1706 -0.1508 -0.2413
 3017TIP3    H130466   5.884   1.010   0.185 -0.3168 -0.2199 -0.8162
 3017TIP3    H230467   5.887   1.157   0.222  0.3816 -0.5847  0.6756
 3018TIP3   OH230468   0.212   1.898  14.931 -0.3577 -0.1618  1.0216
 3018TIP3    H130469   0.245   1.892  15.021  0.8665  0.6936  0.6652
 3018TIP3    H230470   0.280   1.947  14.885 -0.7786 -0.9378 -0.4668
 3019TIP3   OH230471   3.801   2.703   1.991 -0.0124  0.2258  0.0100
 3019TIP3    H130472   3.725   2.660   2.029 -0.6361  0.8261 -0.5295
 3019TIP3    H230473   3.780   2.797   1.994 -0.2267  0.2984 -2.0364
 3020TIP3   OH230474   1.603   1.297   1.562  0.0160 -0.3402  0.3556
 3020TIP3    H130475   1.687   1.337   1.587 -0.4183 -0.7891  2.7509
 3020TIP3    H230476   1.627   1.228   1.500  1.4668 -0.5650  1.1221
 3021TIP3   OH230477   5.426   4.396   2.045  0.3604  0.2033 -0.0874
 3021TIP3    H130478   5.407   4.388   2.138 -0.2341  1.4640 -0.0765
 3021TIP3    H230479   5.487   4.470   2.039 -0.5474  0.9169 -0.7972
 3022TIP3   OH230480   0.088   2.823   0.325 -0.5407 -0.4183 -0.6440
 3022TIP3    H130481   0.127   2.744   0.288 -1.3250 -0.5798 -1.1499
 3022TIP3    H230482   0.108   2.819   0.418 -1.2405 -1.6193 -0.5281
 3023TIP3   OH230483   6.542   0.939  12.821 -0.1690 -0.2711  0.0848
 3023TIP3    H130484   6.600   0.885  12.767 -1.6783 -3.1038  1.0589
 3023TIP3    H230485   6.590   0.952  12.903 -0.3581 -1.5786  0.4333
 3024TIP3   OH230486   6.692   5.903  11.695 -0.5348  0.5948  0.2658
 3024TIP3    H130487   6.641   5.847  11.637 -0.8401  0.9206  0.2192
 3024TIP3    H230488   6.626   5.956  11.741 -0.4411 -0.8282  2.1513
 3025TIP3   OH230489   5.531   1.682  11.744  0.4726 -0.8085  0.5529
 3025TIP3    H130490   5.442   1.709  11.720  0.2683 -1.3433  0.6916
 3025TIP3    H230491   5.536   1.590  11.719  1.2011 -0.6175 -0.0269
 3026TIP3   OH230492   1.214   2.653  16.257 -0.1098 -0.2841  0.8479
 3026TIP3    H130493   1.176   2.725  16.207  0.2212  0.6325  1.8830
 3026TIP3    H230494   1.307   2.653  16.234 -0.0016 -0.0091  1.2693
 3027TIP3   OH230495   3.863   0.817   6.471  0.1305 -0.4429 -0.0824
 3027TIP3    H130496   3.794   0.795   6.533  0.8423 -0.5200  0.6894
 3027TIP3    H230497   3.939   0.766   6.499  1.0026  0.9008  0.0929
 3028TIP3   OH230498   2.101   1.750   2.456 -0.4417 -0.2617  0.0113
 3028TIP3    H130499   2.166   1.728   2.523  0.2770 -0.0648 -0.6137
 3028TIP3    H230500   2.034   1.799   2.503  0.5416  0.7390  0.4186
 3029TIP3   OH230501   4.201   4.782   0.097  0.3905 -0.4769  0.0558
 3029TIP3    H130502   4.278   4.821   0.138  1.4897 -2.0733 -0.3887
 3029TIP3    H230503   4.184   4.837   0.020  0.7620  0.1810  0.4354
 3030TIP3   OH230504   0.400   6.731  13.763  0.1064  0.1912  0.6368
 3030TIP3    H130505   0.461   6.659  13.777  0.2422 -0.1111 -1.2793
 3030TIP3    H230506   0.331   6.716  13.828  0.5190 -1.2242  0.7913
 3031TIP3   OH230507   0.872   2.236   1.291 -0.7143 -0.2646 -1.1911
 3031TIP3    H130508   0.937   2.202   1.230 -0.5388  0.3555 -1.3586
 3031TIP3    H230509   0.816   2.292   1.237 -1.2237 -0.5713 -0.9952
 3032TIP3   OH230510   2.778   4.240  16.490  0.7251  0.0452 -0.5599
 3032TIP3    H130511   2.719   4.256  16.416 -0.3676  0.6729  0.4225
 3032TIP3    H230512   2.756   4.308  16.554  0.7351 -1.2475  0.8810
 3033TIP3   OH230513   2.295   3.893  16.543  0.5211 -0.2042  0.1041
 3033TIP3    H130514   2.311   3.971  16.596  0.6905 -0.5059  0.5033
 3033TIP3    H230515   2.257   3.927  16.462  1.4270  0.3683 -0.0954
 3034TIP3   OH230516   6.330   1.719   3.363  0.0399  0.4927  0.1895
 3034TIP3    H130517   6.254   1.733   3.420 -1.5512 -0.8628 -1.4608
 3034TIP3    H230518   6.304   1.758   3.280  0.9533 -0.4339 -0.5515
 3035TIP3   OH230519   5.365   0.553   3.423 -0.4105  0.7354  0.1467
 3035TIP3    H130520   5.442   0.553   3.366 -0.6956  1.2081 -0.2397
 3035TIP3    H230521   5.373   0.471   3.473  0.0401  0.5007 -0.2934
 3036TIP3   OH230522   4.022   0.847  11.148 -0.1290 -0.4125 -0.4092
 3036TIP3    H130523   4.009   0.784  11.219  0.5756  0.5832  0.6464
 3036TIP3    H230524   4.043   0.794  11.072  0.7905 -1.4578  0.5300
 3037TIP3   OH230525   0.359   5.507  16.473 -0.1370  0.5925  0.5107
 3037TIP3    H130526   0.449   5.524  16.502 -0.2703 -2.8359  3.5728
 3037TIP3    H230527   0.304   5.543  16.543 -1.0420  0.4134 -0.0944
 3038TIP3   OH230528   4.931   0.890  11.148  0.6054 -0.3234  0.0056
 3038TIP3    H130529   4.990   0.862  11.218 -0.2706  1.8075  1.7046
 3038TIP3    H230530   4.987   0.939  11.088  0.7916  0.9126  1.1381
 3039TIP3   OH230531   2.618   2.119  11.162  0.3034 -0.2263 -0.3977
 3039TIP3    H130532   2.600   2.031  11.193 -2.5829 -0.2715 -1.8619
 3039TIP3    H230533   2.633   2.109  11.068 -0.5484  0.8587 -0.6727
 3040TIP3   OH230534   5.290   5.631   1.370  0.4374 -0.4549 -1.1147
 3040TIP3    H130535   5.290   5.565   1.440  1.1731  1.0310  0.3365
 3040TIP3    H230536   5.198   5.652   1.357  0.2548 -1.1557 -0.9925
 3041TIP3   OH230537   6.472   5.779  15.417  0.1840 -0.0676 -0.2596
 3041TIP3    H130538   6.516   5.771  15.332  0.5085  0.1890 -0.1183
 3041TIP3    H230539   6.524   5.724  15.476  0.1566  0.0226 -0.1507
 3042TIP3   OH230540   3.937   3.375   0.976 -0.1526 -0.1888  0.2569
 3042TIP3    H130541   4.023   3.370   1.018 -0.5012 -1.1113  0.8899
 3042TIP3    H230542   3.886   3.430   1.036  0.1498  0.8659 -0.4245
 3043TIP3   OH230543   3.742   4.970  13.183 -0.0006  0.3578  0.2645
 3043TIP3    H130544   3.697   4.984  13.267 -0.0204 -1.5421  0.6335
 3043TIP3    H230545   3.698   5.028  13.122 -0.1670  1.5983  1.5100
 3044TIP3   OH230546   3.853   1.680  11.352  0.1980  0.1335 -0.3987
 3044TIP3    H130547   3.815   1.592  11.359  0.1238 -0.1289 -2.9731
 3044TIP3    H230548   3.792   1.737  11.398  0.0449 -1.0938  0.9931
 3045TIP3   OH230549   4.737   3.299   2.112 -0.0919 -0.0183 -0.5125
 3045TIP3    H130550   4.785   3.280   2.192 -0.0257 -0.1712 -0.5893
 3045TIP3    H230551   4.732   3.215   2.066 -1.0414 -0.1624 -0.1698
 3046TIP3   OH230552   1.018   4.416   3.862 -0.0341 -0.0080  0.3868
 3046TIP3    H130553   1.081   4.410   3.934 -0.8338  1.1161  1.2150
 3046TIP3    H230554   0.933   4.424   3.905 -0.5898  0.0845 -0.6933
 3047TIP3   OH230555   5.139   2.741  17.065  0.3718 -0.1330  0.1800
 3047TIP3    H130556   5.078   2.667  17.072  1.5678 -1.1816 -0.0445
 3047TIP3    H230557   5.089   2.817  17.093 -1.9147 -0.4535 -2.5806
 3048TIP3   OH230558   2.175   4.769   5.876  0.7959 -0.3015 -0.0661
 3048TIP3    H130559   2.225   4.779   5.958  0.0848 -1.8195  0.5811
 3048TIP3    H230560   2.209   4.689   5.837 -0.4705 -0.8537 -0.0817
 3049TIP3   OH230561   3.452   6.300   1.555 -0.1270 -0.4371 -0.5220
 3049TIP3    H130562   3.502   6.225   1.522  0.7445  0.3009 -0.9345
 3049TIP3    H230563   3.476   6.372   1.497  1.0383  0.7869  1.3812
 3050TIP3   OH230564   2.875   5.929  14.156  0.1472  0.1362  0.2932
 3050TIP3    H130565   2.789   5.939  14.196 -0.2482  0.1237 -0.5536
 3050TIP3    H230566   2.936   5.954  14.226 -0.5488  0.6444  0.7324
 3051TIP3   OH230567   2.872   1.307  16.704  0.1440 -0.2963  0.4274
 3051TIP3    H130568   2.798   1.353  16.744  1.3152  0.1209  2.2052
 3051TIP3    H230569   2.899   1.364  16.632 -0.6949 -0.0088  0.3279
 3052TIP3   OH230570   6.484   5.850   0.168 -0.4245 -0.0746 -0.2129
 3052TIP3    H130571   6.527   5.770   0.138 -0.7867 -1.1826  1.9804
 3052TIP3    H230572   6.544   5.886   0.234 -2.1732 -1.0195  2.0580
 3053TIP3   OH230573   2.689   2.733  14.139 -0.0979  0.3880  0.0035
 3053TIP3    H130574   2.758   2.792  14.168  1.0373 -0.8309 -0.0950
 3053TIP3    H230575   2.642   2.709  14.219  1.7320 -1.3743  0.6217
 3054TIP3   OH230576   4.796   5.932   5.526 -0.6151  0.4661  0.1419
 3054TIP3    H130577   4.794   6.027   5.511 -1.1520  0.8010  2.0614
 3054TIP3    H230578   4.722   5.915   5.584 -1.1909 -1.3285 -1.0294
 3055TIP3   OH230579   4.403   0.295  10.558 -0.1685  0.1754  0.3712
 3055TIP3    H130580   4.457   0.217  10.570 -0.0282 -0.2059 -2.2903
 3055TIP3    H230581   4.319   0.272  10.598  0.4498 -0.5923  1.2901
 3056TIP3   OH230582   6.322   0.594  15.324 -0.7207  0.2519 -0.3318
 3056TIP3    H130583   6.378   0.517  15.338 -0.6425  0.2909 -0.4298
 3056TIP3    H230584   6.338   0.619  15.233  1.8826  2.4342  0.5781
 3057TIP3   OH230585   2.764   2.288  15.606  0.0638 -0.7652 -0.2372
 3057TIP3    H130586   2.736   2.327  15.689  1.1556 -0.5411  0.0334
 3057TIP3    H230587   2.686   2.243  15.574 -0.9372  0.7252 -0.0339
 3058TIP3   OH230588   6.667   1.032   0.294 -0.4055  0.5267 -0.1079
 3058TIP3    H130589   6.703   1.120   0.299 -1.6939  1.0190  1.6972
 3058TIP3    H230590   6.657   1.015   0.201  0.2696  2.1071 -0.4999
 3059TIP3   OH230591   3.194   0.812   4.701 -0.0606 -0.1639 -0.2686
 3059TIP3    H130592   3.170   0.829   4.610 -1.2215 -0.1762  0.0229
 3059TIP3    H230593   3.286   0.786   4.697  0.2366  0.9873 -1.3030
 3060TIP3   OH230594   0.802   2.757   0.895 -0.3034 -0.0319  0.1110
 3060TIP3    H130595   0.828   2.810   0.970 -0.4107  1.7380 -1.0402
 3060TIP3    H230596   0.756   2.682   0.933 -0.7234  1.0254  1.7840
 3061TIP3   OH230597   3.086   1.898  12.399 -0.4857 -0.3158  0.2916
 3061TIP3    H130598   3.108   1.809  12.427 -1.3159 -0.1615  1.5333
 3061TIP3    H230599   3.048   1.887  12.311  0.8977 -0.9834 -0.2509
 3062TIP3   OH230600   0.842   1.780  11.499 -0.0858 -0.7256  0.0045
 3062TIP3    H130601   0.872   1.850  11.441 -1.6676 -0.3747 -0.4394
 3062TIP3    H230602   0.923   1.745  11.537  0.9183 -0.1801 -1.4913
 3063TIP3   OH230603   5.211   4.347  15.999  0.5601 -0.1096  0.2131
 3063TIP3    H130604   5.177   4.269  15.955  1.2230 -0.8773  1.0149
 3063TIP3    H230605   5.134   4.396  16.024  0.1490 -0.1778 -0.8875
 3064TIP3   OH230606   1.709   5.477   4.033 -0.6884 -0.2076  0.2075
 3064TIP3    H130607   1.758   5.440   4.106 -1.5350 -0.5202  0.6234
 3064TIP3    H230608   1.703   5.406   3.969 -1.7699 -0.6018  0.7379
 3065TIP3   OH230609   3.640   2.314  17.017 -0.0314 -0.1937  0.3615
 3065TIP3    H130610   3.637   2.245  17.083  1.5849  0.2303  0.9364
 3065TIP3    H230611   3.569   2.374  17.042  0.9074  0.2674  2.1058
 3066TIP3   OH230612   6.357   0.012  16.541 -0.0826 -0.0701  0.0086
 3066TIP3    H130613   6.364   0.027  16.446  0.5934  1.7639  0.3082
 3066TIP3    H230614   6.345   0.099  16.578 -0.0717 -0.7394  1.6456
 3067TIP3   OH230615   4.445   6.261  13.581  0.3382 -0.1821 -0.4069
 3067TIP3    H130616   4.369   6.229  13.629 -0.8770  3.0928  0.1270
 3067TIP3    H230617   4.515   6.267  13.647 -0.0543  0.2768 -0.0293
 3068TIP3   OH230618   1.816   5.555  15.175 -0.5599  0.6727 -0.1084
 3068TIP3    H130619   1.893   5.499  15.166  0.7074  1.5824  3.2837
 3068TIP3    H230620   1.804   5.594  15.089  2.7149  0.3680 -0.8443
 3069TIP3   OH230621   1.510   1.399  13.163  1.0171  0.6300  0.2613
 3069TIP3    H130622   1.457   1.367  13.237  2.1605 -2.8595 -0.2924
 3069TIP3    H230623   1.469   1.361  13.086  2.1993  0.9159 -0.5302
 3070TIP3   OH230624   4.453   5.123  11.183 -0.3504 -0.0541 -0.2188
 3070TIP3    H130625   4.470   5.063  11.256 -1.7596  0.0687  0.2384
 3070TIP3    H230626   4.533   5.120  11.130  0.4485 -0.6375  0.9824
 3071TIP3   OH230627   5.367   6.054  15.108 -0.2566 -0.0656  0.4390
 3071TIP3    H130628   5.463   6.055  15.102 -0.2415 -0.8203  0.5189
 3071TIP3    H230629   5.344   5.962  15.113 -1.1536 -0.0703 -2.2134
 3072TIP3   OH230630   1.897   2.810   4.087  0.1307  0.4368  0.0075
 3072TIP3    H130631   1.886   2.717   4.106  1.3646  0.8175  3.3246
 3072TIP3    H230632   1.810   2.848   4.100 -0.5585 -0.2909 -2.1437
 3073TIP3   OH230633   6.651   6.791  12.953 -0.4254 -0.2179  0.1918
 3073TIP3    H130634   6.738   6.818  12.921 -2.0037  0.9373 -3.7494
 3073TIP3    H230635   6.624   6.861  13.012  0.9327 -0.1397  0.7520
 3074TIP3   OH230636   6.087   5.578   6.601  0.3528 -0.5328 -0.3738
 3074TIP3    H130637   6.075   5.507   6.665  1.5155 -1.0532 -0.7084
 3074TIP3    H230638   6.087   5.534   6.516 -0.3238  0.0514 -0.6828
 3075TIP3   OH230639   0.902   3.114  13.412 -0.0571  0.0066 -0.6225
 3075TIP3    H130640   0.941   3.123  13.325 -1.2188 -0.0958 -1.1663
 3075TIP3    H230641   0.910   3.201  13.451  0.1482  0.1460 -0.9707
 3076TIP3   OH230642   1.965   4.793   3.294 -0.0289 -0.0661 -0.0915
 3076TIP3    H130643   1.902   4.725   3.317  0.4689 -0.6659 -0.4360
 3076TIP3    H230644   1.963   4.855   3.367  0.1921 -0.9533  0.6877
 3077TIP3   OH230645   6.110   4.462  13.568 -0.4040  0.2027  0.2976
 3077TIP3    H130646   6.160   4.412  13.633  0.0355 -0.0444 -0.2298
 3077TIP3    H230647   6.027   4.415  13.560 -0.3562  0.0857  0.4772
 3078TIP3   OH230648   4.870   0.314   3.170 -0.0725  0.0287 -0.0284
 3078TIP3    H130649   4.847   0.277   3.256 -1.0560  1.1645  0.2142
 3078TIP3    H230650   4.956   0.354   3.184 -0.1897  0.1378  0.4057
 3079TIP3   OH230651   4.320   2.417  11.517 -0.1773  0.2721  0.2726
 3079TIP3    H130652   4.332   2.339  11.570 -1.6026  1.2475  2.1839
 3079TIP3    H230653   4.254   2.392  11.452  1.0264 -0.7212 -0.5988
 3080TIP3   OH230654   3.378   4.738  11.987  0.0880  0.2743 -0.1036
 3080TIP3    H130655   3.456   4.687  12.007  0.0945 -0.7198 -2.2773
 3080TIP3    H230656   3.305   4.677  12.001 -0.3992  1.2944  2.2461
 3081TIP3   OH230657   2.906   2.890   0.688  0.6508 -0.6778  0.5376
 3081TIP3    H130658   2.849   2.816   0.670  0.0509  0.0372 -0.6506
 3081TIP3    H230659   2.852   2.951   0.738  0.8461 -0.6319  0.6967
 3082TIP3   OH230660   0.676   0.783   4.304  0.0026 -0.4254  0.1565
 3082TIP3    H130661   0.707   0.706   4.352  1.7039  0.4240  0.4827
 3082TIP3    H230662   0.709   0.857   4.354 -2.6169  0.5850  0.5037
 3083TIP3   OH230663   1.662   6.603   4.613  0.5265  0.1371  0.9892
 3083TIP3    H130664   1.589   6.640   4.664  1.3911 -0.9679  3.1799
 3083TIP3    H230665   1.621   6.532   4.563 -0.4051  1.4521 -0.2087
 3084TIP3   OH230666   2.096   1.408  12.014 -0.2914 -0.1375 -0.3881
 3084TIP3    H130667   2.014   1.361  12.002 -0.6048  0.5246 -0.9091
 3084TIP3    H230668   2.144   1.393  11.932 -0.9663  1.5294 -1.1397
 3085TIP3   OH230669   4.772   0.152   0.469 -0.1959  0.2739 -0.1359
 3085TIP3    H130670   4.677   0.144   0.475 -0.0008 -1.1898  2.7781
 3085TIP3    H230671   4.803   0.062   0.462  1.0382  0.5720  1.1681
 3086TIP3   OH230672   2.957   1.922   2.968  0.5033  0.2269  0.1375
 3086TIP3    H130673   3.001   1.964   3.042 -0.5608  0.2109  0.7923
 3086TIP3    H230674   2.869   1.958   2.968  0.7478  0.9070 -1.6967
 3087TIP3   OH230675   3.246   6.184   6.284 -0.2512  0.1665 -0.3997
 3087TIP3    H130676   3.191   6.262   6.276 -1.8331 -0.8715 -0.1335
 3087TIP3    H230677   3.305   6.204   6.357 -1.7837  0.4883  0.8083
 3088TIP3   OH230678   3.758   3.083  17.156  0.0484 -0.2401 -0.2888
 3088TIP3    H130679   3.727   3.169  17.184  2.2016  0.8588 -1.0694
 3088TIP3    H230680   3.792   3.043  17.236  1.2410  0.6470 -0.3353
 3089TIP3   OH230681   2.461   0.216  13.573  0.5775  0.4720  0.1078
 3089TIP3    H130682   2.518   0.179  13.505  1.9124  1.1066  0.8467
 3089TIP3    H230683   2.404   0.277  13.525  0.7269  0.0675 -0.6030
 3090TIP3   OH230684   5.104   4.340   5.642 -0.3018  0.2509  0.1629
 3090TIP3    H130685   5.050   4.417   5.624 -0.8600 -0.1934 -0.1043
 3090TIP3    H230686   5.045   4.278   5.683 -0.2968 -0.6762 -1.1618
 3091TIP3   OH230687   1.090   0.843  15.057  0.1823  0.7641  0.0173
 3091TIP3    H130688   1.092   0.866  15.150  0.6614  2.5502 -0.3981
 3091TIP3    H230689   1.177   0.805  15.041  0.4109  1.2297  0.1270
 3092TIP3   OH230690   1.177   1.710   4.079  0.0632 -0.0625  0.2854
 3092TIP3    H130691   1.095   1.741   4.042  0.5060 -0.0878 -0.7567
 3092TIP3    H230692   1.163   1.712   4.174 -0.9342  0.4734  0.1420
 3093TIP3   OH230693   3.079   6.102   0.255 -0.6367  0.1406 -0.5107
 3093TIP3    H130694   3.050   6.048   0.181 -0.2438  0.3932 -0.8543
 3093TIP3    H230695   3.046   6.056   0.332 -1.8590  0.3648 -0.8718
 3094TIP3   OH230696   1.942   5.623  15.754 -0.8059  0.2805  0.0211
 3094TIP3    H130697   1.914   5.704  15.712 -0.5886  0.1318 -0.4174
 3094TIP3    H230698   1.892   5.554  15.709 -3.0356  0.3508  2.1636
 3095TIP3   OH230699   6.563   2.802  15.884  0.3464 -0.0940  0.0411
 3095TIP3    H130700   6.622   2.762  15.948  0.7390 -2.5699 -1.7280
 3095TIP3    H230701   6.492   2.739  15.875 -0.9313  1.3460 -0.2551
 3096TIP3   OH230702   0.133   6.159  13.032 -0.6081 -0.0125 -0.6398
 3096TIP3    H130703   0.092   6.096  13.091  0.4213  1.1899  1.4704
 3096TIP3    H230704   0.215   6.182  13.074 -0.6792  2.2853 -1.6074
 3097TIP3   OH230705   4.639   1.687   5.103  0.1982  0.4785 -0.4147
 3097TIP3    H130706   4.723   1.680   5.058 -0.4369  0.6876 -1.7001
 3097TIP3    H230707   4.587   1.615   5.067 -0.3771  0.7445 -0.1281
 3098TIP3   OH230708   5.999   0.442  13.881  0.5216 -0.4353 -0.1666
 3098TIP3    H130709   5.951   0.395  13.949  3.1225 -1.6698  0.9527
 3098TIP3    H230710   6.007   0.379  13.810 -1.7750  0.6957 -1.5677
 3099TIP3   OH230711   1.753   0.558  13.722 -0.3765  0.0742  0.7221
 3099TIP3    H130712   1.812   0.574  13.795 -0.3966 -1.3926  1.0885
 3099TIP3    H230713   1.723   0.645  13.696 -0.3707  0.6343  2.4582
 3100TIP3   OH230714   2.930   3.627   6.076  0.4699  0.0805  0.0545
 3100TIP3    H130715   2.925   3.687   6.151  1.5724  1.5825 -1.0199
 3100TIP3    H230716   3.019   3.594   6.078  0.5580  0.2657 -0.6873
 3101TIP3   OH230717   2.582   4.735   1.572 -0.3560  0.1459  0.0306
 3101TIP3    H130718   2.645   4.740   1.500  0.3143 -1.1952  0.4800
 3101TIP3    H230719   2.630   4.764   1.649 -0.7554  0.5689  0.1280
 3102TIP3   OH230720   4.632   0.306   3.458 -0.2713 -0.3278  0.0358
 3102TIP3    H130721   4.570   0.281   3.391 -0.0960 -0.5332 -0.0483
 3102TIP3    H230722   4.637   0.402   3.451 -0.8033 -0.2791  0.2456
 3103TIP3   OH230723   4.475   6.085  13.298 -0.2718  0.4870  0.0637
 3103TIP3    H130724   4.387   6.119  13.279  0.5729  2.2962 -0.7748
 3103TIP3    H230725   4.528   6.163  13.314  1.2844 -0.5672  0.2122
 3104TIP3   OH230726   5.524   4.693  11.467 -0.5903  0.2509 -0.0142
 3104TIP3    H130727   5.504   4.787  11.472  2.3494  0.9512  0.2392
 3104TIP3    H230728   5.541   4.667  11.558  0.0394 -0.1489 -0.2383
 3105TIP3   OH230729   3.466   3.205  11.220 -0.1883  0.1294  0.3276
 3105TIP3    H130730   3.533   3.162  11.273  2.6626  1.3516 -2.0382
 3105TIP3    H230731   3.501   3.292  11.203 -0.5989 -0.3407 -3.9442
 3106TIP3   OH230732   4.074   4.248  12.072  0.5619  0.4522 -0.2603
 3106TIP3    H130733   4.082   4.342  12.057  0.8497  0.2653 -1.3644
 3106TIP3    H230734   4.164   4.215  12.063  0.3683 -0.0128 -0.5180
 3107TIP3   OH230735   6.229   4.254  12.474 -0.7866  0.4620  0.2405
 3107TIP3    H130736   6.291   4.214  12.536 -1.4999 -0.2616  0.5010
 3107TIP3    H230737   6.194   4.180  12.424 -2.2802  0.7008  0.8741
 3108TIP3   OH230738   2.756   0.131   0.916  0.1113 -0.2162 -0.3465
 3108TIP3    H130739   2.843   0.109   0.883  0.0476 -2.5881  0.8233
 3108TIP3    H230740   2.699   0.061   0.883 -1.7946  2.1513 -2.4847
 3109TIP3   OH230741   0.548   3.427   0.676 -0.2709  0.0972  0.0536
 3109TIP3    H130742   0.583   3.497   0.731  0.0269  1.6122 -1.9723
 3109TIP3    H230743   0.543   3.465   0.588 -0.5274 -2.2859 -1.0394
 3110TIP3   OH230744   0.175   3.181   5.016  0.4698  0.4548  0.0392
 3110TIP3    H130745   0.164   3.222   4.930  0.4802 -0.0264 -0.1925
 3110TIP3    H230746   0.163   3.253   5.078 -0.8650  0.5676 -0.3098
 3111TIP3   OH230747   4.397   5.519   4.832  0.0857 -0.3635  0.5944
 3111TIP3    H130748   4.367   5.511   4.741  1.2575 -2.3836  0.3398
 3111TIP3    H230749   4.317   5.515   4.884 -0.5390  0.0836 -0.2872
 3112TIP3   OH230750   3.719   1.402   2.832  0.1216  0.3680  0.4023
 3112TIP3    H130751   3.771   1.337   2.785 -1.2805 -1.1020  0.8042
 3112TIP3    H230752   3.709   1.365   2.920 -2.0851  0.2893  0.1719
 3113TIP3   OH230753   1.113   0.823   4.467  0.3003  0.0227 -0.1412
 3113TIP3    H130754   1.117   0.861   4.379  0.5017  1.8266  0.6018
 3113TIP3    H230755   1.041   0.760   4.463 -0.0625  0.4847 -1.4384
 3114TIP3   OH230756   4.526   2.205   1.633 -0.1428  0.4234  0.6291
 3114TIP3    H130757   4.593   2.170   1.575 -0.1036  1.1045  0.2621
 3114TIP3    H230758   4.493   2.128   1.680 -0.6564 -0.2410 -0.7805
 3115TIP3   OH230759   1.656   1.241  11.553  0.2936  0.1684  0.7210
 3115TIP3    H130760   1.653   1.146  11.567  0.2017  0.1460  0.5453
 3115TIP3    H230761   1.568   1.271  11.575  0.9845  0.5552  3.2709
 3116TIP3   OH230762   6.478   3.420  12.514 -0.3950 -0.1138  0.3561
 3116TIP3    H130763   6.503   3.330  12.532 -1.7739 -1.0833 -2.1334
 3116TIP3    H230764   6.398   3.434  12.564  0.4324  0.1687  1.6524
 3117TIP3   OH230765   4.778   4.260  11.021  0.1164  0.9004  0.0862
 3117TIP3    H130766   4.705   4.268  11.084  0.9912  1.3882  1.0658
 3117TIP3    H230767   4.750   4.312  10.946 -1.0812  0.0651 -0.0691
 3118TIP3   OH230768   1.682   1.314   4.329 -0.0959  0.1788 -0.0294
 3118TIP3    H130769   1.681   1.262   4.409 -1.6743  0.5557  0.2172
 3118TIP3    H230770   1.590   1.323   4.304  0.2204  1.7372 -0.7883
 3119TIP3   OH230771   2.817   5.921  15.498  0.2904 -0.0638  0.0631
 3119TIP3    H130772   2.752   5.862  15.536 -1.7310  0.6259 -2.1219
 3119TIP3    H230773   2.820   5.897  15.405  0.1232  2.6101 -0.7023
 3120TIP3   OH230774   4.413   3.986   3.116  0.3547  0.0130  0.0378
 3120TIP3    H130775   4.413   4.077   3.145 -1.0798 -0.1037  0.5058
 3120TIP3    H230776   4.320   3.962   3.114  0.6961 -1.3448 -0.3718
 3121TIP3   OH230777   5.047   5.283   2.878  0.0730 -0.1353  0.5037
 3121TIP3    H130778   5.000   5.346   2.822  0.0811  0.0061  0.6549
 3121TIP3    H230779   5.026   5.311   2.967  0.5411  0.0010  0.5738
 3122TIP3   OH230780   5.490   5.802   0.198  0.2795  0.2579  0.2247
 3122TIP3    H130781   5.398   5.803   0.175 -0.1952  1.5003  1.9124
 3122TIP3    H230782   5.510   5.711   0.219 -0.0813 -0.3160 -1.7437
 3123TIP3   OH230783   0.702   0.596  11.908 -0.1696  0.4466  0.0424
 3123TIP3    H130784   0.681   0.502  11.912 -1.5577  0.7394  0.1838
 3123TIP3    H230785   0.793   0.599  11.879  0.0029 -0.9525  0.3670
 3124TIP3   OH230786   3.203   4.671  15.008  0.4827  0.3662  0.2007
 3124TIP3    H130787   3.136   4.729  15.045  0.2313 -0.2761  0.7981
 3124TIP3    H230788   3.208   4.695  14.916 -1.5019 -0.3941 -0.1719
 3125TIP3   OH230789   3.218   1.951  15.621 -0.0696  0.6903  0.3087
 3125TIP3    H130790   3.132   1.989  15.635 -0.4573 -0.1557  0.2969
 3125TIP3    H230791   3.244   1.981  15.534 -0.1302  1.3452  0.5130
 3126TIP3   OH230792   5.616   0.327   0.704 -0.0117 -0.4487 -0.1710
 3126TIP3    H130793   5.683   0.382   0.663  0.6899 -1.3652 -0.2939
 3126TIP3    H230794   5.644   0.318   0.795  0.6652 -1.7542 -0.4904
 3127TIP3   OH230795   5.950   6.194  11.058 -0.1252 -0.2233  0.0338
 3127TIP3    H130796   5.946   6.198  10.962 -0.2120  0.8986  0.0729
 3127TIP3    H230797   6.035   6.155  11.076 -0.1665 -0.5798 -0.4981
 3128TIP3   OH230798   4.055   1.498  15.109 -0.4659 -0.1695  0.2802
 3128TIP3    H130799   3.998   1.574  15.095 -0.1071 -0.1458 -1.2267
 3128TIP3    H230800   4.134   1.517  15.058 -0.9640 -2.1771 -1.3682
 3129TIP3   OH230801   1.785   2.869   3.088 -0.3374 -0.3951 -0.0115
 3129TIP3    H130802   1.798   2.954   3.046  0.1954 -1.4466 -2.1238
 3129TIP3    H230803   1.852   2.813   3.049 -0.9112 -1.8913  1.0602
 3130TIP3   OH230804   6.196   5.185   0.782 -0.2327 -0.2679 -0.2357
 3130TIP3    H130805   6.205   5.281   0.780 -1.1660 -0.1776 -0.9412
 3130TIP3    H230806   6.155   5.167   0.867 -0.2058 -0.0336 -0.1718
 3131TIP3   OH230807   5.790   0.080   0.495  0.0445 -0.2520  0.1377
 3131TIP3    H130808   5.702   0.115   0.482  0.7787  2.0600  0.9397
 3131TIP3    H230809   5.848   0.149   0.464  1.5892 -1.2187  0.7775
 3132TIP3   OH230810   5.600   0.398  10.563  0.0383  0.6579 -0.6120
 3132TIP3    H130811   5.546   0.425  10.637  0.2087 -1.3715  0.3332
 3132TIP3    H230812   5.621   0.479  10.517 -0.1786  1.9851  1.4981
 3133TIP3   OH230813   2.404   5.549  11.378 -0.0838  0.3731 -0.2266
 3133TIP3    H130814   2.487   5.552  11.330  0.5916  1.6344  0.9377
 3133TIP3    H230815   2.357   5.475  11.340  2.0107 -1.0493 -0.2231
 3134TIP3   OH230816   1.190   0.497  16.018 -0.5338  0.1879 -0.0694
 3134TIP3    H130817   1.210   0.409  15.987 -2.7793 -0.3913 -0.0826
 3134TIP3    H230818   1.198   0.552  15.940 -1.1409 -0.3765 -0.5419
 3135TIP3   OH230819   1.105   0.771  14.587 -0.0683  0.0692  0.3065
 3135TIP3    H130820   1.067   0.837  14.645 -1.6645 -1.4961  1.1139
 3135TIP3    H230821   1.043   0.767  14.513  0.1922 -0.3120  0.1094
 3136TIP3   OH230822   2.369   4.609  17.016  0.6484 -0.6339 -0.0023
 3136TIP3    H130823   2.371   4.515  17.037  2.0817 -0.1547  2.4679
 3136TIP3    H230824   2.326   4.649  17.091  0.5801  0.7446 -0.7559
 3137TIP3   OH230825   6.635   5.641  12.439 -0.7618  0.1941  0.2968
 3137TIP3    H130826   6.593   5.606  12.361  1.3773 -1.1346 -0.3430
 3137TIP3    H230827   6.638   5.736  12.424  0.5594 -0.1096 -1.7922
 3138TIP3   OH230828   4.488   6.474   2.004  0.4028 -0.0428 -0.1763
 3138TIP3    H130829   4.491   6.569   1.994  3.5403 -0.1061 -0.9646
 3138TIP3    H230830   4.507   6.441   1.916  0.9640 -1.3323  0.4120
 3139TIP3   OH230831   6.092   5.632  11.519  0.0175  0.0954 -0.0653
 3139TIP3    H130832   6.028   5.698  11.547  0.9824  0.9982  0.0935
 3139TIP3    H230833   6.074   5.556  11.574 -1.0435  0.2576 -0.1675
 3140TIP3   OH230834   5.732   0.766   0.575 -0.5292 -0.1703 -0.3430
 3140TIP3    H130835   5.758   0.773   0.483  0.6258 -0.9851 -0.1052
 3140TIP3    H230836   5.757   0.677   0.600  1.1035  0.6881  1.3162
 3141TIP3   OH230837   0.048   0.617  15.718 -0.1884 -0.4620  0.8176
 3141TIP3    H130838   0.117   0.612  15.652  0.4004 -1.1360  1.4655
 3141TIP3    H230839   0.017   0.708  15.714  1.3520  0.1137  1.1150
 3142TIP3   OH230840   6.143   1.892  15.640 -0.0517 -0.5373  0.2336
 3142TIP3    H130841   6.079   1.848  15.696 -0.0439 -0.0404  0.6360
 3142TIP3    H230842   6.216   1.829  15.634 -0.3935 -0.9253  0.1195
 3143TIP3   OH230843   5.373   5.796   2.670  0.5065 -0.1227  0.3544
 3143TIP3    H130844   5.454   5.745   2.683 -0.2804 -1.0118  2.1040
 3143TIP3    H230845   5.378   5.865   2.735  0.0178  0.0235  0.2354
 3144TIP3   OH230846   5.159   1.835   3.382 -0.2007 -0.6315 -0.0899
 3144TIP3    H130847   5.166   1.747   3.418 -1.9811 -0.8829 -0.2838
 3144TIP3    H230848   5.187   1.826   3.291 -3.2904 -1.7572 -1.0726
 3145TIP3   OH230849   6.590   6.012  14.907  0.1947 -0.2632  0.0646
 3145TIP3    H130850   6.661   5.947  14.908  1.8610  1.4679  0.1623
 3145TIP3    H230851   6.520   5.971  14.957  1.8890 -1.2731  1.7690
 3146TIP3   OH230852   1.560   4.215  17.055  0.1570 -0.3365  0.7622
 3146TIP3    H130853   1.493   4.266  17.009 -0.7690  0.2558  2.6522
 3146TIP3    H230854   1.564   4.132  17.007  1.5592  1.3299 -2.2868
 3147TIP3   OH230855   1.311   0.067   1.789 -0.1440  0.0165  0.3663
 3147TIP3    H130856   1.358  -0.015   1.780  1.9766  0.9060  2.1852
 3147TIP3    H230857   1.290   0.094   1.700 -2.6399 -3.3224 -0.2382
 3148TIP3   OH230858   6.297   5.878  12.821 -1.2902  0.1192  0.4724
 3148TIP3    H130859   6.225   5.848  12.876 -2.2346 -0.5286 -1.0584
 3148TIP3    H230860   6.257   5.896  12.736  0.1135  1.1183 -0.0171
 3149TIP3   OH230861   4.168   6.091  13.483  0.6074  0.1933  0.3610
 3149TIP3    H130862   4.171   6.008  13.529  0.3486 -0.2843 -0.4630
 3149TIP3    H230863   4.144   6.155  13.550  1.1638 -0.3309  1.0733
 3150TIP3   OH230864   6.349   3.677   2.860 -0.4403 -0.1040 -0.3946
 3150TIP3    H130865   6.300   3.652   2.938 -2.5007 -1.4519 -2.0246
 3150TIP3    H230866   6.405   3.602   2.841  0.4361  0.4227  0.0179
 3151TIP3   OH230867   4.104   0.147  11.857 -0.5274 -0.2157 -0.5337
 3151TIP3    H130868   4.030   0.202  11.831  0.7799  1.7790 -0.3376
 3151TIP3    H230869   4.178   0.182  11.807  0.6522 -0.8645  0.6738
 3152TIP3   OH230870   6.308   5.419  12.722 -0.1673  0.4884 -0.7634
 3152TIP3    H130871   6.256   5.345  12.691 -0.5563  1.4598 -2.5936
 3152TIP3    H230872   6.384   5.421  12.664  0.0791  1.2232 -0.4267
 3153TIP3   OH230873   4.373   3.737  15.051 -0.3063  0.0943  0.4067
 3153TIP3    H130874   4.337   3.809  14.999  0.9988  1.4060  1.2620
 3153TIP3    H230875   4.335   3.658  15.011 -2.0649  1.2478 -0.3139
 3154TIP3   OH230876   0.655   4.901  12.383  0.3506 -0.3271  0.3815
 3154TIP3    H130877   0.709   4.898  12.304 -0.1258  1.7224 -0.0906
 3154TIP3    H230878   0.593   4.828  12.372  0.0225  0.1534 -1.3844
 3155TIP3   OH230879   0.514   5.773   2.732  0.0522 -0.1484  0.4353
 3155TIP3    H130880   0.511   5.780   2.637  2.2339 -1.0793  0.2461
 3155TIP3    H230881   0.540   5.683   2.749 -1.6781 -0.4127  1.9897
 3156TIP3   OH230882   4.609   4.298  16.951 -0.3498 -0.5686 -0.3320
 3156TIP3    H130883   4.669   4.339  16.889 -2.2582  3.5412  0.2380
 3156TIP3    H230884   4.665   4.242  17.005  2.5574  1.1448 -1.3360
 3157TIP3   OH230885   5.390   6.385  12.480  0.2201 -0.7155  0.4345
 3157TIP3    H130886   5.370   6.311  12.538  0.7600 -1.7908 -0.6917
 3157TIP3    H230887   5.364   6.354  12.393  0.3614  0.4768 -0.0443
 3158TIP3   OH230888   4.747   1.960  14.563 -0.0680 -0.3961  0.5272
 3158TIP3    H130889   4.762   1.884  14.620  0.1529 -1.4928 -0.9174
 3158TIP3    H230890   4.683   1.929  14.499 -0.1825  0.7382  0.0722
 3159TIP3   OH230891   4.397   5.476   4.563  0.0289 -0.4069  0.0161
 3159TIP3    H130892   4.442   5.402   4.522  0.1773 -0.6337  0.5712
 3159TIP3    H230893   4.457   5.550   4.551 -0.1111 -0.3795 -0.5231
 3160TIP3   OH230894   5.977   3.645  11.257 -0.6795 -0.2332  0.0031
 3160TIP3    H130895   5.937   3.606  11.335 -0.3630  0.1347  0.3543
 3160TIP3    H230896   5.996   3.570  11.200 -0.6643 -0.5307  0.3947
 3161TIP3   OH230897   2.287   5.047   5.826  0.1855  0.1774 -0.0169
 3161TIP3    H130898   2.286   4.986   5.752 -0.8642 -1.8539  1.5560
 3161TIP3    H230899   2.356   5.013   5.884 -0.0462  0.8060  0.6394
 3162TIP3   OH230900   0.351   5.077  13.395  0.6440  0.2928  0.6434
 3162TIP3    H130901   0.337   4.982  13.387  0.6330  0.2960  0.6260
 3162TIP3    H230902   0.264   5.113  13.406  0.0809  0.7890 -3.7817
 3163TIP3   OH230903   3.470   0.226  16.003  0.1019  0.0363 -0.4180
 3163TIP3    H130904   3.422   0.259  16.079 -0.4073 -1.2956 -0.1434
 3163TIP3    H230905   3.480   0.303  15.946  1.4194  1.3059  1.4298
 3164TIP3   OH230906   5.409   3.373   2.853 -0.2981  0.0874  0.1328
 3164TIP3    H130907   5.471   3.300   2.843  1.1006  1.0949  1.0208
 3164TIP3    H230908   5.406   3.389   2.947 -0.6605  1.0886 -0.0365
 3165TIP3   OH230909   2.786   1.744   4.452  0.3636 -0.3239 -0.2494
 3165TIP3    H130910   2.729   1.816   4.426  1.5515  1.4745  1.7237
 3165TIP3    H230911   2.752   1.717   4.538  1.4513 -0.3345  0.1978
 3166TIP3   OH230912   1.692   3.655   2.076  0.4394  0.2694  0.1698
 3166TIP3    H130913   1.632   3.721   2.042 -0.0168  0.0654  0.5620
 3166TIP3    H230914   1.657   3.635   2.163  1.1552  0.2429  0.4515
 3167TIP3   OH230915   4.081   4.894  14.986  0.1490  0.1304  0.2381
 3167TIP3    H130916   4.036   4.812  14.965 -1.5753  0.4657  2.2094
 3167TIP3    H230917   4.168   4.885  14.947  0.4774 -3.1784  1.3795
 3168TIP3   OH230918   6.585   3.962  12.985  0.1024 -0.1236  0.5652
 3168TIP3    H130919   6.574   4.055  12.967 -0.3742 -0.1034  0.9576
 3168TIP3    H230920   6.619   3.958  13.074 -0.6010 -0.3517  0.8288
 3169TIP3   OH230921   0.042   0.482   1.601 -0.3969 -0.2540  0.0800
 3169TIP3    H130922  -0.022   0.525   1.546  0.7128  0.4236 -0.7107
 3169TIP3    H230923   0.125   0.491   1.554  0.7840  1.2064  2.2870
 3170TIP3   OH230924   3.310   3.765  15.483 -0.1251  0.2028 -0.1214
 3170TIP3    H130925   3.384   3.746  15.540 -0.0006 -0.8575 -0.6142
 3170TIP3    H230926   3.294   3.859  15.494  1.2400  0.4272  0.0379
 3171TIP3   OH230927   4.944   4.003   1.607  0.3628 -0.4481 -0.4933
 3171TIP3    H130928   5.033   4.020   1.578  0.0122 -0.0070 -1.3357
 3171TIP3    H230929   4.950   3.997   1.702  1.2808 -0.3974 -0.5436
 3172TIP3   OH230930   5.519   4.409  16.555  0.3186  0.0516 -0.0780
 3172TIP3    H130931   5.511   4.389  16.462  0.0679  1.1873 -0.3179
 3172TIP3    H230932   5.484   4.498  16.563  1.6669  0.5315  0.8498
 3173TIP3   OH230933   2.225   0.755  12.483 -0.2007 -0.6792 -0.3224
 3173TIP3    H130934   2.231   0.684  12.547 -0.3581  0.9356  1.5571
 3173TIP3    H230935   2.135   0.785  12.488  0.3208  0.8533  0.2614
 3174TIP3   OH230936   3.157   0.427   2.550 -0.7106 -0.6298 -0.1259
 3174TIP3    H130937   3.079   0.461   2.594 -0.9938 -1.7009  0.2163
 3174TIP3    H230938   3.196   0.366   2.612 -1.0183 -2.0284 -1.2456
 3175TIP3   OH230939   6.011   3.127  14.676  0.0790  0.2838  0.6010
 3175TIP3    H130940   5.963   3.204  14.646  2.3252  0.6819 -2.5067
 3175TIP3    H230941   5.967   3.053  14.634  0.4673  0.3646  0.0347
 3176TIP3   OH230942   4.947   5.356  11.559 -0.0486 -0.2842  0.2287
 3176TIP3    H130943   4.889   5.301  11.507  1.3937 -1.7595  0.0874
 3176TIP3    H230944   5.035   5.330  11.532  0.7178  0.4947  1.8104
 3177TIP3   OH230945   2.979   3.279  13.006 -0.0898 -0.1903  0.1726
 3177TIP3    H130946   2.898   3.252  12.961  0.0329  0.6815 -0.6019
 3177TIP3    H230947   2.990   3.371  12.982 -2.0150  1.5696  4.9459
 3178TIP3   OH230948   1.576   6.716  11.386 -0.3621  0.0342 -0.4191
 3178TIP3    H130949   1.527   6.782  11.338  0.6806 -0.4608 -2.2607
 3178TIP3    H230950   1.609   6.656  11.319 -0.5998 -1.9264  1.1007
 3179TIP3   OH230951   1.011   2.631  15.899  0.3431  0.0887 -0.1821
 3179TIP3    H130952   1.106   2.623  15.905  0.3171 -1.7619 -1.4318
 3179TIP3    H230953   0.980   2.619  15.989  1.2280 -0.5204  0.0546
 3180TIP3   OH230954   4.249   3.001  15.618 -0.0247 -0.2367  0.4952
 3180TIP3    H130955   4.160   2.968  15.607  0.9363 -3.0840  0.6457
 3180TIP3    H230956   4.288   2.994  15.531  1.2779 -3.0788  1.2135
 3181TIP3   OH230957   2.370   2.441   3.366  0.1850 -0.1641 -0.4472
 3181TIP3    H130958   2.292   2.485   3.402 -0.8486  1.3602 -4.1015
 3181TIP3    H230959   2.344   2.350   3.358 -2.2370  0.6291 -3.5462
 3182TIP3   OH230960   6.579   1.819  14.804  0.6496 -0.4312 -0.1923
 3182TIP3    H130961   6.670   1.826  14.775  0.0967  2.7432 -1.4729
 3182TIP3    H230962   6.536   1.769  14.735  0.8614  0.6225 -1.1125
 3183TIP3   OH230963   1.838   6.694  15.529 -0.0925 -0.3895 -0.4980
 3183TIP3    H130964   1.904   6.671  15.594  1.6202  0.0943 -1.9995
 3183TIP3    H230965   1.867   6.650  15.449 -2.0812 -0.8690 -1.0076
 3184TIP3   OH230966   1.218   6.171  12.897  0.2040  0.0112  0.1669
 3184TIP3    H130967   1.159   6.122  12.840  1.0316 -0.6463 -0.1452
 3184TIP3    H230968   1.268   6.227  12.838  0.5485 -0.1338  0.3155
 3185TIP3   OH230969   1.189   5.194   1.617  0.1592  0.5405  0.4989
 3185TIP3    H130970   1.177   5.100   1.609 -2.1701  0.7234  1.1604
 3185TIP3    H230971   1.264   5.204   1.675 -0.7419 -0.9543  1.9861
 3186TIP3   OH230972   3.260   4.551   0.362 -0.1601 -0.6755 -0.5512
 3186TIP3    H130973   3.262   4.608   0.439  0.0244  1.1499 -1.8277
 3186TIP3    H230974   3.239   4.464   0.396  1.2564 -0.2081  1.6922
 3187TIP3   OH230975   3.528   6.771   2.018  0.3646  0.2385  0.0312
 3187TIP3    H130976   3.611   6.736   1.986  0.3959  0.4108 -0.0826
 3187TIP3    H230977   3.548   6.803   2.106 -0.0892 -1.6214  0.8470
 3188TIP3   OH230978   5.540   5.987  11.508 -0.0845 -0.2238 -0.0441
 3188TIP3    H130979   5.519   6.078  11.529 -0.4379 -0.4907  0.8147
 3188TIP3    H230980   5.526   5.939  11.590  0.7708 -0.9438 -0.3029
 3189TIP3   OH230981   0.884   0.038  13.873 -0.0824 -0.4987  0.1149
 3189TIP3    H130982   0.900   0.012  13.782  0.7831  0.6679 -0.0849
 3189TIP3    H230983   0.829   0.116  13.866 -0.1469 -0.4974  0.6023
 3190TIP3   OH230984   6.701   2.383   0.076 -0.2068  0.0425 -0.2820
 3190TIP3    H130985   6.796   2.380   0.085 -0.1559 -0.8089 -1.0511
 3190TIP3    H230986   6.683   2.471   0.042  0.0712  1.1440  2.1533
 3191TIP3   OH230987   2.703   2.459  12.359 -0.4975  1.1699 -0.6133
 3191TIP3    H130988   2.622   2.418  12.331  0.1199  0.1825 -1.0200
 3191TIP3    H230989   2.678   2.547  12.385 -1.7694  0.7179 -0.2532
 3192TIP3   OH230990   6.185   3.440   0.156 -0.1073  0.1111 -0.0002
 3192TIP3    H130991   6.107   3.430   0.211  0.1187 -0.5542  0.2058
 3192TIP3    H230992   6.150   3.449   0.067 -0.4481  0.5648  0.1722
 3193TIP3   OH230993   3.195   1.014   1.831 -0.2430  0.3460  0.0805
 3193TIP3    H130994   3.151   1.005   1.915  0.4211 -0.3688  0.3697
 3193TIP3    H230995   3.129   0.992   1.766 -0.5277  0.0552  0.4646
 3194TIP3   OH230996   1.527   3.399   4.459 -0.3821  0.4068 -0.2398
 3194TIP3    H130997   1.462   3.377   4.526 -1.1066  0.6002 -0.8552
 3194TIP3    H230998   1.582   3.465   4.500  0.1227 -0.5615  0.6759
 3195TIP3   OH230999   1.240   0.840   1.349 -0.3218 -0.3886  0.0046
 3195TIP3    H131000   1.200   0.754   1.334 -0.0790 -0.3528 -0.9638
 3195TIP3    H231001   1.187   0.880   1.417 -0.2812 -1.4116  0.6563
 3196TIP3   OH231002   1.330   2.370   3.347 -0.1619 -0.1846 -0.2541
 3196TIP3    H131003   1.240   2.380   3.316  0.0685  1.4742 -0.4861
 3196TIP3    H231004   1.372   2.313   3.282 -1.1570 -1.3864  0.1317
 3197TIP3   OH231005   4.026   5.849  16.577  0.2594  0.2161  0.2659
 3197TIP3    H131006   4.073   5.882  16.500  0.5880 -1.2979 -0.2278
 3197TIP3    H231007   4.011   5.926  16.631  0.2484  1.2849 -1.1930
 3198TIP3   OH231008   4.125   6.497  14.580  0.5009 -0.8027 -0.0407
 3198TIP3    H131009   4.114   6.491  14.485 -0.1315 -2.6872  0.1179
 3198TIP3    H231010   4.091   6.584  14.602 -0.8278 -0.9302 -1.3658
 3199TIP3   OH231011   1.390   0.909   2.490  0.3662  0.0383 -0.0444
 3199TIP3    H131012   1.301   0.926   2.459  0.7755 -1.8989 -2.6818
 3199TIP3    H231013   1.431   0.996   2.496 -0.7783  0.7774 -2.0061
 3200TIP3   OH231014   3.770   6.026   1.704 -0.0262  0.2290 -0.2675
 3200TIP3    H131015   3.766   6.109   1.752  0.3174 -0.8465  1.7140
 3200TIP3    H231016   3.755   5.959   1.771  2.4441 -1.4520 -1.2619
 3201TIP3   OH231017   2.858   3.732  10.970 -0.6498  0.5522  0.3559
 3201TIP3    H131018   2.798   3.797  11.007  0.7264  1.0237  1.8984
 3201TIP3    H231019   2.852   3.745  10.875 -3.0722  0.4537  0.4233
 3202TIP3   OH231020   4.532   5.876  15.935 -0.3297 -0.4555 -0.3298
 3202TIP3    H131021   4.465   5.917  15.880 -0.6988 -2.1340 -1.1920
 3202TIP3    H231022   4.613   5.922  15.913 -0.4395 -1.1730 -2.4371
 3203TIP3   OH231023   4.285   4.060  13.508  0.5315 -0.2524  0.2598
 3203TIP3    H131024   4.235   4.021  13.437 -0.2230  1.1462 -0.0100
 3203TIP3    H231025   4.263   4.008  13.585  0.3140 -0.9479 -0.2656
 3204TIP3   OH231026   2.013   5.104   2.778 -0.0531  0.2438  0.4541
 3204TIP3    H131027   1.947   5.135   2.716 -1.2343 -3.5891 -0.4737
 3204TIP3    H231028   2.095   5.104   2.727 -0.4113  0.0015 -0.1308
 3205TIP3   OH231029   6.429   3.616   0.127 -0.6298 -0.2353 -0.5942
 3205TIP3    H131030   6.358   3.555   0.105 -1.3373 -0.0412  1.0023
 3205TIP3    H231031   6.402   3.699   0.089 -1.2480 -0.1760 -0.0428
 3206TIP3   OH231032   4.346   3.706  14.483  0.4041  0.0423  0.1504
 3206TIP3    H131033   4.394   3.671  14.558 -0.4446 -2.8903 -0.5764
 3206TIP3    H231034   4.395   3.678  14.406 -0.1315  0.7676 -0.4769
 3207TIP3   OH231035   3.173   5.209  14.772 -0.2483  0.4836  0.0091
 3207TIP3    H131036   3.102   5.243  14.717 -1.7639 -0.2838  1.4119
 3207TIP3    H231037   3.236   5.281  14.776 -1.3221  1.5049 -0.6182
 3208TIP3   OH231038   3.463   2.992  16.884 -0.1147  0.7996 -0.2879
 3208TIP3    H131039   3.455   2.972  16.791 -0.4891  2.0269 -0.5332
 3208TIP3    H231040   3.558   2.994  16.899 -0.0444  1.2616 -0.7892
 3209TIP3   OH231041   3.602   3.439   4.700  0.0068 -0.1566 -0.0051
 3209TIP3    H131042   3.693   3.467   4.702 -0.2210  0.8245 -1.4468
 3209TIP3    H231043   3.599   3.360   4.754  1.5925  0.1045  0.4956
 3210TIP3   OH231044   5.243   5.255   0.376 -0.2090 -0.0603 -0.2956
 3210TIP3    H131045   5.286   5.215   0.300  2.1988  0.9346  0.4533
 3210TIP3    H231046   5.310   5.256   0.444 -2.2155 -0.7418  1.8637
 3211TIP3   OH231047   3.951   0.194  16.035 -0.4128  0.8446  0.6680
 3211TIP3    H131048   3.900   0.114  16.045 -2.0142  1.6665 -0.5406
 3211TIP3    H231049   3.927   0.228  15.948  0.5743  2.3937  0.9522
 3212TIP3   OH231050   4.580   2.726   2.707 -0.8285 -0.0858  0.7320
 3212TIP3    H131051   4.513   2.790   2.685 -0.3253  0.7899  1.7032
 3212TIP3    H231052   4.550   2.688   2.790 -1.2147 -1.2635  0.0818
 3213TIP3   OH231053   2.141   6.018  11.629 -0.3566  0.0144 -0.0802
 3213TIP3    H131054   2.058   6.057  11.600 -0.4301 -0.0255  0.0707
 3213TIP3    H231055   2.203   6.091  11.627 -0.5697  0.2205  0.5074
 3214TIP3   OH231056   5.812   1.517  15.399 -0.3255 -0.2710 -0.5383
 3214TIP3    H131057   5.768   1.602  15.395 -0.9802 -0.4198  1.8287
 3214TIP3    H231058   5.749   1.455  15.363 -1.4923 -0.2489  1.3269
 3215TIP3   OH231059   6.118   6.062  12.687  0.8092  0.0594 -0.1240
 3215TIP3    H131060   6.169   6.098  12.614 -2.3449  3.7255 -0.8337
 3215TIP3    H231061   6.113   6.134  12.750 -0.4882 -1.4162  1.5491
 3216TIP3   OH231062   1.419   3.074  14.930 -0.2449 -0.3398  0.0953
 3216TIP3    H131063   1.418   3.114  15.017  2.2013  0.3452 -0.1057
 3216TIP3    H231064   1.498   3.020  14.930 -0.3819 -0.5792 -1.5920
 3217TIP3   OH231065   4.004   4.674   1.006  0.3334  0.4444  0.4877
 3217TIP3    H131066   4.050   4.719   0.935  2.9862 -1.2238  0.9808
 3217TIP3    H231067   4.002   4.582   0.980 -2.3591  0.3288  0.7938
 3218TIP3   OH231068   1.466   4.393  11.493  0.0556  0.1565 -0.0509
 3218TIP3    H131069   1.550   4.437  11.504  0.5758 -0.3852 -1.5969
 3218TIP3    H231070   1.471   4.316  11.550  1.5307 -1.0758 -1.7402
 3219TIP3   OH231071   6.283   2.585  12.021  0.6820 -0.1309  0.4069
 3219TIP3    H131072   6.292   2.529  11.943  0.8659 -1.2070  1.1755
 3219TIP3    H231073   6.263   2.524  12.092 -1.2433  0.9901  0.9153
 3220TIP3   OH231074   3.274   4.846   0.137  0.0730 -0.3047 -0.5138
 3220TIP3    H131075   3.252   4.851   0.230  0.3120 -0.9966 -0.4125
 3220TIP3    H231076   3.216   4.778   0.102  0.9206 -1.0269 -0.5686
 3221TIP3   OH231077   2.400   1.391  14.638 -0.4048 -0.6840 -0.2717
 3221TIP3    H131078   2.340   1.437  14.579 -1.3482 -0.9851  0.4183
 3221TIP3    H231079   2.487   1.413  14.606 -0.7908  1.7832  0.1561
 3222TIP3   OH231080   5.488   6.645   4.355 -0.2882 -0.3869 -0.2972
 3222TIP3    H131081   5.536   6.681   4.430 -0.4559 -0.0919 -0.3286
 3222TIP3    H231082   5.396   6.661   4.376 -0.3249 -0.1127 -0.6660
 3223TIP3   OH231083   4.751   5.069  14.893 -0.0654  0.9377  0.0070
 3223TIP3    H131084   4.694   5.100  14.823 -0.1366  3.1569  0.9899
 3223TIP3    H231085   4.692   5.048  14.965  0.2661  2.2604  0.6758
 3224TIP3   OH231086   1.982   5.916   4.042 -0.1825  0.1375  0.0640
 3224TIP3    H131087   1.909   5.899   4.101 -0.8342  0.1240 -0.7278
 3224TIP3    H231088   2.060   5.889   4.091 -0.7802 -0.6743  0.5868
 3225TIP3   OH231089   3.181   5.730  14.997  0.0102 -0.3448  0.8103
 3225TIP3    H131090   3.137   5.780  14.928  1.3463 -0.6958 -0.3520
 3225TIP3    H231091   3.110   5.694  15.050 -1.1526 -1.3319 -1.2829
 3226TIP3   OH231092   3.026   5.084   6.113  0.8870 -0.4605 -0.6313
 3226TIP3    H131093   2.939   5.048   6.132  2.3837 -3.8816  0.4968
 3226TIP3    H231094   3.011   5.178   6.104 -2.8476 -0.8374 -0.1331
 3227TIP3   OH231095   0.151   1.363  16.198 -0.1555 -0.4548 -0.8256
 3227TIP3    H131096   0.116   1.281  16.233 -0.2199 -0.9873 -2.0991
 3227TIP3    H231097   0.144   1.354  16.103 -1.4259  1.5837 -0.9807
 3228TIP3   OH231098   3.632   0.495   0.421  0.1549  0.0371 -0.5971
 3228TIP3    H131099   3.656   0.576   0.376  0.8262  0.3354  0.2767
 3228TIP3    H231100   3.702   0.434   0.401  1.0455  0.5138  0.9084
 3229TIP3   OH231101   0.645   0.203  14.225 -0.3660  0.1389 -0.0454
 3229TIP3    H131102   0.702   0.257  14.170  1.0257 -0.2968  0.9039
 3229TIP3    H231103   0.699   0.128  14.248 -0.3899  0.9103  2.9372
 3230TIP3   OH231104   5.614   2.691  12.938 -0.0775 -0.1101  0.1502
 3230TIP3    H131105   5.564   2.612  12.920  1.1604 -0.8315 -0.3049
 3230TIP3    H231106   5.592   2.750  12.866  0.4695 -0.8036 -0.6102
 3231TIP3   OH231107   1.309   3.564  13.513 -0.2442  0.5946 -0.1545
 3231TIP3    H131108   1.225   3.539  13.475 -0.2619 -0.0864  0.3194
 3231TIP3    H231109   1.287   3.633  13.576 -0.2765  1.3623 -0.9978
 3232TIP3   OH231110   5.106   0.355  12.909 -0.5687 -0.5113 -0.8410
 3232TIP3    H131111   5.102   0.279  12.966 -0.9960  0.6223  0.7331
 3232TIP3    H231112   5.181   0.340  12.852 -2.1768 -3.2868 -2.4334
 3233TIP3   OH231113   0.366   2.762  12.468 -0.6046 -0.0637  0.9213
 3233TIP3    H131114   0.457   2.764  12.496  0.2112  1.4716 -1.5154
 3233TIP3    H231115   0.343   2.855  12.456 -1.6354 -0.5012 -0.8692
 3234TIP3   OH231116   4.595   6.671   5.479 -0.2733  0.4097 -0.0303
 3234TIP3    H131117   4.590   6.580   5.448  0.9083 -0.7749  2.8234
 3234TIP3    H231118   4.633   6.720   5.406  1.3715 -1.9102 -0.8586
 3235TIP3   OH231119   0.786   2.137  12.343 -0.0386 -0.5383  0.4459
 3235TIP3    H131120   0.798   2.220  12.296 -1.0335 -1.3708 -1.4245
 3235TIP3    H231121   0.692   2.120  12.336  0.2481 -2.1593  0.1379
 3236TIP3   OH231122   5.323   4.739   2.385  0.5898 -0.6308 -0.4230
 3236TIP3    H131123   5.254   4.673   2.390 -0.2712  0.2969  0.6027
 3236TIP3    H231124   5.278   4.819   2.360  1.4973 -0.2569 -0.9022
 3237TIP3   OH231125   2.512   3.834  13.267 -0.3399 -0.1210 -0.0076
 3237TIP3    H131126   2.491   3.914  13.315 -2.7341  0.7111 -2.1794
 3237TIP3    H231127   2.512   3.765  13.333 -0.8315  1.3082  1.5376
 3238TIP3   OH231128   2.612   1.684   0.527 -0.1798  0.0519  0.4703
 3238TIP3    H131129   2.629   1.771   0.565 -0.3465  0.3567 -0.1454
 3238TIP3    H231130   2.539   1.650   0.578  1.5900 -0.8836  2.5387
 3239TIP3   OH231131   1.014   1.505   3.200 -0.4011 -0.2066  0.3459
 3239TIP3    H131132   0.990   1.488   3.291  1.1067 -0.2923  0.7535
 3239TIP3    H231133   1.110   1.509   3.201 -0.3788  0.1340 -1.1806
 3240TIP3   OH231134   1.802   0.412   2.754  0.3662 -0.4750 -0.3945
 3240TIP3    H131135   1.877   0.466   2.729  0.8265 -0.7921  0.2919
 3240TIP3    H231136   1.839   0.341   2.806 -0.3309 -1.0273 -0.6427
 3241TIP3   OH231137   5.394   4.265   3.443  0.0313  0.2243  0.6058
 3241TIP3    H131138   5.314   4.244   3.491  0.1782  0.6270  1.0466
 3241TIP3    H231139   5.446   4.315   3.506  0.4131  0.3959  0.1587
 3242TIP3   OH231140   1.018   2.813   2.107 -0.0927  0.0288 -0.1668
 3242TIP3    H131141   0.995   2.826   2.199 -0.9681 -1.6623 -0.1050
 3242TIP3    H231142   0.943   2.767   2.069  0.2843  0.6373 -1.7225
 3243TIP3   OH231143   2.778   6.658  11.716 -0.0324 -0.1736  0.4092
 3243TIP3    H131144   2.854   6.708  11.747  0.7998 -0.6380 -0.8004
 3243TIP3    H231145   2.805   6.624  11.631 -1.6589 -0.2411 -0.1142
 3244TIP3   OH231146   6.435   1.863   5.995 -0.3037  0.3860  0.2236
 3244TIP3    H131147   6.485   1.837   6.072 -1.0598  1.0851  0.9781
 3244TIP3    H231148   6.346   1.832   6.012 -0.6805  1.3390  0.0611
 3245TIP3   OH231149   3.914   2.209  11.668 -0.4614 -0.0968 -0.2592
 3245TIP3    H131150   3.892   2.269  11.597  0.9441  0.5195 -0.2192
 3245TIP3    H231151   3.876   2.125  11.641  0.3056  0.0359 -1.9284
 3246TIP3   OH231152   5.225   4.350   4.431 -0.5479  0.0961  0.3560
 3246TIP3    H131153   5.255   4.350   4.340  0.4875  1.4996  0.6560
 3246TIP3    H231154   5.182   4.435   4.442  0.2853  0.3919  1.4516
 3247TIP3   OH231155   5.896   2.592  17.182 -0.5039  0.5468 -0.0622
 3247TIP3    H131156   5.970   2.536  17.158 -1.4547 -1.3029  1.0543
 3247TIP3    H231157   5.931   2.652  17.248  0.0311 -0.2670  0.4096
 3248TIP3   OH231158   6.491   4.675   3.567 -0.5672 -0.2902 -0.0389
 3248TIP3    H131159   6.545   4.664   3.489  0.1764 -1.6819  0.6507
 3248TIP3    H231160   6.404   4.646   3.540 -0.7190  0.7960 -0.7968
 3249TIP3   OH231161   3.144   5.648  15.589  0.4303  0.5281  0.5731
 3249TIP3    H131162   3.137   5.718  15.654  2.7733  1.2947  0.0561
 3249TIP3    H231163   3.180   5.574  15.638 -2.6258 -0.6574  1.2733
 3250TIP3   OH231164   0.724   2.190   0.598  0.4396 -0.5158  0.1991
 3250TIP3    H131165   0.731   2.212   0.691 -0.7924  0.4752  0.0905
 3250TIP3    H231166   0.718   2.095   0.596  0.0859 -0.5252  1.1738
 3251TIP3   OH231167   0.910   5.419   6.337  0.4424 -0.4419  0.1155
 3251TIP3    H131168   0.991   5.468   6.352  0.4385 -0.9570  2.1034
 3251TIP3    H231169   0.851   5.450   6.405  0.5163 -3.2836  1.6528
 3252TIP3   OH231170   0.894   3.912  14.873  0.4564  0.1905 -0.5075
 3252TIP3    H131171   0.834   3.852  14.919  0.4789 -0.3423 -1.1527
 3252TIP3    H231172   0.925   3.861  14.798  1.5302  0.5513 -0.3191
 3253TIP3   OH231173   4.885   3.004  15.183  0.3149 -0.6808 -0.3449
 3253TIP3    H131174   4.974   3.040  15.186  0.0094 -0.0103  1.3821
 3253TIP3    H231175   4.848   3.040  15.102 -0.0028  3.1376  1.2513
 3254TIP3   OH231176   6.085   0.385  15.708  0.1483 -0.0157  0.3403
 3254TIP3    H131177   6.140   0.446  15.660  0.0333 -0.4479 -0.3608
 3254TIP3    H231178   6.023   0.440  15.755 -0.0140  0.4039 -0.3494
 3255TIP3   OH231179   0.680   6.695  14.006 -0.5462 -0.1448 -0.0481
 3255TIP3    H131180   0.746   6.735  13.950 -0.5150  1.0970  0.8416
 3255TIP3    H231181   0.663   6.610  13.965 -0.3234  0.5951 -1.7550
 3256TIP3   OH231182   2.616   2.936   4.820  0.3379  0.0447 -0.3104
 3256TIP3    H131183   2.579   3.023   4.809  1.7311  0.5522 -1.2053
 3256TIP3    H231184   2.561   2.879   4.767 -0.2984  0.4541 -0.0982
 3257TIP3   OH231185   6.145   4.956  15.558 -0.5184 -0.6045 -0.3585
 3257TIP3    H131186   6.090   4.926  15.629 -0.9673 -0.5096 -0.6630
 3257TIP3    H231187   6.151   5.051  15.570 -1.5638 -0.4265 -1.1131
 3258TIP3   OH231188   2.512   4.087   5.374  0.1503 -0.2586  0.3896
 3258TIP3    H131189   2.424   4.086   5.413 -0.5052 -0.8330 -1.0198
 3258TIP3    H231190   2.496   4.076   5.280  1.8298 -1.9635  0.2558
 3259TIP3   OH231191   2.963   6.104  11.891  0.3353 -0.2036  0.3400
 3259TIP3    H131192   2.969   6.142  11.803 -2.6761 -0.0046  0.0833
 3259TIP3    H231193   2.942   6.179  11.947  0.1804 -0.6227  0.8442
 3260TIP3   OH231194   0.971   1.083  15.411 -0.3417 -1.0005 -0.0792
 3260TIP3    H131195   0.924   1.115  15.488 -1.3645  1.7150 -1.6792
 3260TIP3    H231196   0.946   0.991  15.404 -0.4078 -1.2497  2.6325
 3261TIP3   OH231197   0.176   0.297   3.173  0.3715 -0.0843  0.0032
 3261TIP3    H131198   0.146   0.224   3.228  0.9507 -0.5021 -0.2218
 3261TIP3    H231199   0.116   0.368   3.193  0.1388 -0.4524  0.6513
 3262TIP3   OH231200   2.504   4.413   4.852  0.7233  0.2185  0.6416
 3262TIP3    H131201   2.546   4.327   4.842  0.5808  0.1305  0.7855
 3262TIP3    H231202   2.494   4.446   4.763 -0.1980 -0.3862  0.5058
 3263TIP3   OH231203   5.940   1.580  13.622  0.3293  0.8022  0.0541
 3263TIP3    H131204   6.016   1.522  13.629 -0.4061 -0.2927 -0.6554
 3263TIP3    H231205   5.907   1.588  13.711  0.7435  0.5459  0.2326
 3264TIP3   OH231206   4.463   2.062   4.398 -0.5813 -0.0805  0.0733
 3264TIP3    H131207   4.413   2.030   4.323 -1.1969  1.1443 -0.0514
 3264TIP3    H231208   4.554   2.038   4.378 -0.6293  0.8569 -1.4147
 3265TIP3   OH231209   2.328   3.794  11.231  0.4819  0.0401 -0.2199
 3265TIP3    H131210   2.267   3.840  11.289  0.7008  0.6789 -0.4874
 3265TIP3    H231211   2.282   3.713  11.208  0.7617 -0.6855  1.5794
 3266TIP3   OH231212   0.274   5.866  16.785  0.1478  0.4293 -0.2413
 3266TIP3    H131213   0.243   5.854  16.875 -0.7576 -0.5963 -0.6634
 3266TIP3    H231214   0.288   5.961  16.777 -1.4755  0.7632  0.4474
 3267TIP3   OH231215   2.603   5.748  16.658  0.3028 -0.3249  0.0656
 3267TIP3    H131216   2.573   5.663  16.691  1.1876 -0.7216 -0.1246
 3267TIP3    H231217   2.529   5.807  16.673 -0.6109 -1.2950 -0.5041
 3268TIP3   OH231218   4.007   2.986  14.114  0.1073  0.2415  0.4323
 3268TIP3    H131219   4.079   3.008  14.055 -0.3602 -0.4713 -0.4146
 3268TIP3    H231220   4.049   2.976  14.199  0.8259  1.0303  0.1919
 3269TIP3   OH231221   1.718   6.666   0.473  0.7256 -0.3002  0.0869
 3269TIP3    H131222   1.637   6.698   0.432  0.8332  1.5733  1.2222
 3269TIP3    H231223   1.717   6.572   0.457  0.6275  0.2255 -3.8820
 3270TIP3   OH231224   1.294   4.709   2.222  0.0599 -0.5260  0.0924
 3270TIP3    H131225   1.233   4.637   2.236  0.1113 -0.8746 -1.3182
 3270TIP3    H231226   1.240   4.788   2.227 -0.1850 -0.7273  0.6238
 3271TIP3   OH231227   1.040   2.340  12.208  0.1102 -0.5373 -0.3632
 3271TIP3    H131228   1.115   2.372  12.259 -0.0045  1.6703 -1.4573
 3271TIP3    H231229   1.076   2.321  12.122 -0.5480  0.6374 -0.9295
 3272TIP3   OH231230   2.900   1.268   0.424 -0.2959 -0.3616 -0.3672
 3272TIP3    H131231   2.906   1.280   0.518  1.1041  0.2282 -0.4950
 3272TIP3    H231232   2.887   1.174   0.412 -0.9519 -0.3741  0.4204
 3273TIP3   OH231233   1.654   4.856  13.764  0.4404 -0.2853 -0.1130
 3273TIP3    H131234   1.677   4.882  13.853 -1.2059 -0.2034  0.3313
 3273TIP3    H231235   1.726   4.802  13.735  2.5322  2.1912  0.0980
 3274TIP3   OH231236   3.346   5.336   3.454 -0.2494 -0.5358 -0.4085
 3274TIP3    H131237   3.341   5.275   3.380 -1.3556 -1.8506  0.7050
 3274TIP3    H231238   3.289   5.409   3.428  1.2840  0.2182 -1.8626
 3275TIP3   OH231239   1.140   4.427   6.236  0.8795  0.2999  0.3695
 3275TIP3    H131240   1.096   4.463   6.313 -1.7225  0.1232 -0.9257
 3275TIP3    H231241   1.179   4.502   6.192 -0.1049  0.8275  0.3746
 3276TIP3   OH231242   5.888   4.799  14.231  0.6351 -0.4499  0.6845
 3276TIP3    H131243   5.907   4.733  14.298  1.5074  0.1584  1.0375
 3276TIP3    H231244   5.904   4.883  14.274  2.3326 -0.0746 -0.6197
 3277TIP3   OH231245   0.559   1.831   1.260 -0.7658 -0.4553  0.0464
 3277TIP3    H131246   0.513   1.779   1.326 -0.9737  0.3855  0.5738
 3277TIP3    H231247   0.596   1.905   1.308 -2.5771  1.2500 -1.0346
 3278TIP3   OH231248   4.318   6.540   3.693 -0.1100 -0.1737  0.2948
 3278TIP3    H131249   4.389   6.484   3.724  0.8190  0.1739 -1.0681
 3278TIP3    H231250   4.239   6.488   3.703  0.3674 -0.6792  1.5929
 3279TIP3   OH231251   6.542   1.351  16.979  0.0544  0.8522  0.9019
 3279TIP3    H131252   6.550   1.427  17.036  0.1428  1.1426  0.5016
 3279TIP3    H231253   6.454   1.316  16.998 -0.7565  2.1650 -0.2846
 3280TIP3   OH231254   3.725   5.805   0.861 -0.2280 -0.5839 -0.0821
 3280TIP3    H131255   3.811   5.799   0.819  0.7750  3.6385  0.8751
 3280TIP3    H231256   3.664   5.809   0.788  0.9840  1.3320 -1.1099
 3281TIP3   OH231257   1.116   1.811  13.050  0.0271  0.2784 -0.3006
 3281TIP3    H131258   1.184   1.775  12.992 -0.5877  0.5606 -1.2238
 3281TIP3    H231259   1.049   1.743  13.054  0.4253 -0.0738  0.7596
 3282TIP3   OH231260   5.968   6.444  16.200 -0.6082 -0.0231 -0.5706
 3282TIP3    H131261   6.050   6.485  16.228 -0.3154  1.1022 -2.8236
 3282TIP3    H231262   5.924   6.420  16.281  1.1150  1.0128  0.7478
 3283TIP3   OH231263   5.695   4.231  12.050 -0.2723  0.3853 -0.3705
 3283TIP3    H131264   5.778   4.191  12.024 -0.3473  0.6364 -1.0038
 3283TIP3    H231265   5.710   4.261  12.140 -0.2792 -1.2546  0.2239
 3284TIP3   OH231266   1.887   6.710   4.743  0.1820  0.3343  0.3952
 3284TIP3    H131267   1.836   6.745   4.815  1.3565  0.6612  1.0997
 3284TIP3    H231268   1.825   6.657   4.692 -0.9180  1.0127  0.9969
 3285TIP3   OH231269   3.693   0.758  13.557 -0.6462 -0.0926  0.2926
 3285TIP3    H131270   3.742   0.807  13.491  1.2226 -2.4244 -0.2150
 3285TIP3    H231271   3.644   0.825  13.606 -1.0947  1.8450 -2.5682
 3286TIP3   OH231272   5.753   5.518   3.179 -0.3235 -0.4915  0.0126
 3286TIP3    H131273   5.713   5.593   3.135 -2.0465 -1.2289  0.2305
 3286TIP3    H231274   5.740   5.445   3.118  0.6127 -0.7849  0.1450
 3287TIP3   OH231275   0.264   5.801  11.399 -0.4257  0.1841  0.0238
 3287TIP3    H131276   0.225   5.808  11.486  0.3033 -2.1021  0.5935
 3287TIP3    H231277   0.344   5.852  11.404 -0.4527  0.1679  0.6531
 3288TIP3   OH231278   4.454   3.362   2.828  0.5802  0.2301 -0.4825
 3288TIP3    H131279   4.437   3.297   2.896  0.7036  0.4702 -0.2186
 3288TIP3    H231280   4.372   3.410   2.819  1.3213  2.0837  1.5360
 3289TIP3   OH231281   1.388   1.421   1.661  0.2599 -0.8281  0.1501
 3289TIP3    H131282   1.438   1.355   1.613 -0.2312  0.0168 -1.6150
 3289TIP3    H231283   1.448   1.494   1.670  0.5820 -1.2404  1.5012
 3290TIP3   OH231284   4.152   5.952  16.365  0.5573  0.0124  0.3856
 3290TIP3    H131285   4.243   5.952  16.394  1.4185 -1.2725 -2.0289
 3290TIP3    H231286   4.145   5.875  16.308 -1.3020  1.5665 -1.6327
 3291TIP3   OH231287   2.716   1.072  11.767 -0.6822 -0.4874  0.1147
 3291TIP3    H131288   2.734   1.165  11.773  0.7507 -0.7325 -0.0504
 3291TIP3    H231289   2.678   1.060  11.680  0.3276 -0.2284 -0.3712
 3292TIP3   OH231290   5.973   1.995  10.720 -0.7133 -0.4452  0.0403
 3292TIP3    H131291   5.879   1.984  10.732 -0.5770 -0.5974  1.0816
 3292TIP3    H231292   6.006   1.906  10.705 -0.6189 -0.5185  0.6491
 3293TIP3   OH231293   6.693   5.236  11.861 -0.6294 -0.2218 -0.1000
 3293TIP3    H131294   6.785   5.259  11.865  0.0866 -2.8025  0.9592
 3293TIP3    H231295   6.647   5.318  11.843  1.7497  1.3637  0.6609
 3294TIP3   OH231296   6.642   4.605   3.321  0.7614 -0.0622 -0.6093
 3294TIP3    H131297   6.620   4.542   3.253 -1.6605 -0.5038  0.4914
 3294TIP3    H231298   6.697   4.670   3.276  0.7370 -1.2779 -2.5221
 3295TIP3   OH231299   4.455   4.771   5.215  0.2011  0.8610  0.0728
 3295TIP3    H131300   4.387   4.722   5.168 -0.6213  2.1063 -0.0671
 3295TIP3    H231301   4.471   4.848   5.161  1.5849  0.7029  0.2227
 3296TIP3   OH231302   4.388   0.874  14.091  0.3377 -0.2708  0.1744
 3296TIP3    H131303   4.309   0.924  14.071  1.2046  1.9092  1.8617
 3296TIP3    H231304   4.387   0.802  14.028 -1.4200  1.3842 -1.8210
 3297TIP3   OH231305   6.115   2.646   1.172  0.4566  0.2318 -0.0620
 3297TIP3    H131306   6.056   2.571   1.163 -0.6589  1.0199  0.4777
 3297TIP3    H231307   6.192   2.611   1.215 -0.4382 -0.4252  1.0533
 3298TIP3   OH231308   6.268   1.481  10.793  0.6583 -0.3745 -0.4616
 3298TIP3    H131309   6.198   1.431  10.750  1.1875 -0.5104 -1.1841
 3298TIP3    H231310   6.294   1.546  10.728  0.2120  0.6377  0.3468
 3299TIP3   OH231311   5.325   6.412   1.857 -0.5083 -0.3849 -0.2504
 3299TIP3    H131312   5.381   6.490   1.856 -2.2937  0.9961  0.8505
 3299TIP3    H231313   5.381   6.343   1.892  1.4118  0.1201 -2.1440
 3300TIP3   OH231314   3.665   2.805  14.381  0.1432  0.4112  0.3810
 3300TIP3    H131315   3.703   2.881  14.337 -1.8784 -0.2100 -2.7221
 3300TIP3    H231316   3.733   2.738  14.377  0.1045  0.4313 -1.7596
 3301TIP3   OH231317   6.315   1.116   4.071 -0.5596  0.1174  0.3169
 3301TIP3    H131318   6.300   1.211   4.073 -0.8205  0.1450 -1.3376
 3301TIP3    H231319   6.410   1.107   4.067 -0.4529  0.2358  2.0149
 3302TIP3   OH231320   3.562   2.782   4.821  0.6015  0.4399 -0.4670
 3302TIP3    H131321   3.477   2.757   4.857 -0.0899  1.0839 -1.5894
 3302TIP3    H231322   3.616   2.703   4.828  0.0086  0.1059  0.5076
 3303TIP3   OH231323   6.223   4.159   4.819 -0.0322  0.3473 -0.1773
 3303TIP3    H131324   6.261   4.104   4.751 -0.1286 -0.7952  0.6515
 3303TIP3    H231325   6.132   4.170   4.794 -0.2427 -0.6425  0.0810
 3304TIP3   OH231326   6.584   3.431  16.036  0.2083 -0.4777 -0.1595
 3304TIP3    H131327   6.625   3.440  15.950  1.3810 -0.1770  0.3966
 3304TIP3    H231328   6.502   3.384  16.020 -0.7507  1.6030 -1.7413
 3305TIP3   OH231329   2.109   5.198  12.540  0.1679  0.3911 -0.7852
 3305TIP3    H131330   2.095   5.108  12.509  1.4450 -0.2109  0.2508
 3305TIP3    H231331   2.075   5.253  12.470 -1.3756 -0.8865 -1.1198
 3306TIP3   OH231332   0.713   3.340   4.079  0.1019  0.1168  1.1475
 3306TIP3    H131333   0.773   3.408   4.109 -0.0366  0.7687 -0.0146
 3306TIP3    H231334   0.756   3.258   4.103  0.2773  0.5894  2.5582
 3307TIP3   OH231335   2.373   0.885   1.786  0.1668  0.1048 -0.3773
 3307TIP3    H131336   2.320   0.815   1.747 -0.8322  0.8265 -0.3222
 3307TIP3    H231337   2.459   0.844   1.800  0.1638 -0.5790 -2.0765
 3308TIP3   OH231338   3.366   0.992  14.887 -0.2495 -0.2324 -0.1024
 3308TIP3    H131339   3.382   0.907  14.846  0.2875  0.1227 -0.6437
 3308TIP3    H231340   3.271   1.004  14.880 -0.1195  0.0187 -1.6457
 3309TIP3   OH231341   6.616   2.897   5.841  0.0049 -0.1172 -1.2669
 3309TIP3    H131342   6.573   2.952   5.776 -0.2671  0.0692 -0.9302
 3309TIP3    H231343   6.560   2.821   5.850  0.4232 -0.4906 -1.7924
 3310TIP3   OH231344   4.053   5.751  15.865  0.8130 -0.1029 -0.2500
 3310TIP3    H131345   4.024   5.676  15.814  0.0118 -1.0409  1.4848
 3310TIP3    H231346   3.976   5.809  15.869  0.8272 -0.0976 -0.0131
 3311TIP3   OH231347   3.686   5.401  16.042  0.7883 -0.2719 -0.3690
 3311TIP3    H131348   3.708   5.313  16.014  0.3586 -0.1216 -1.1892
 3311TIP3    H231349   3.628   5.389  16.118 -0.0653 -0.7060 -1.0827
 3312TIP3   OH231350   2.264   5.695  16.490 -0.0755  0.4701 -0.3665
 3312TIP3    H131351   2.168   5.693  16.494 -0.1161 -0.2235 -1.5566
 3312TIP3    H231352   2.286   5.679  16.399  1.2013  0.1887 -0.0362
 3313TIP3   OH231353   6.233   4.368   3.345  0.2649 -0.1447  0.2093
 3313TIP3    H131354   6.155   4.376   3.400 -0.6600  2.3897 -1.2807
 3313TIP3    H231355   6.200   4.335   3.261  0.7512  0.9036 -0.4203
 3314TIP3   OH231356   3.885   0.862   3.622  0.4695  0.3738  0.0883
 3314TIP3    H131357   3.937   0.782   3.620 -1.1795 -0.7220 -0.0808
 3314TIP3    H231358   3.800   0.837   3.587 -1.0345  1.4620  2.6531
 3315TIP3   OH231359   3.083   1.184   3.518 -0.4905  0.0827  0.3403
 3315TIP3    H131360   3.132   1.256   3.479 -1.9403  0.2495 -1.2858
 3315TIP3    H231361   3.122   1.173   3.605  1.3745  1.1944 -0.2899
 3316TIP3   OH231362   0.877   0.584  12.793  0.2874 -0.3112  0.5059
 3316TIP3    H131363   0.849   0.654  12.736  2.3613 -0.4165 -0.7445
 3316TIP3    H231364   0.924   0.628  12.864  2.7756 -0.3693 -0.9742
 3317TIP3   OH231365   5.743   2.379  13.116 -0.3629 -0.2162 -0.5709
 3317TIP3    H131366   5.729   2.349  13.026 -2.8807 -2.9465  0.5820
 3317TIP3    H231367   5.657   2.406  13.147 -0.2290 -2.2085  1.8941
 3318TIP3   OH231368   1.210   0.090   5.550  0.2136 -0.0444 -0.0985
 3318TIP3    H131369   1.167   0.130   5.474 -0.2000  0.1141  0.2228
 3318TIP3    H231370   1.281   0.150   5.571 -1.1275  1.1782  1.1327
 3319TIP3   OH231371   1.301   4.151  11.847  0.2230 -0.1713  0.4956
 3319TIP3    H131372   1.248   4.076  11.872  0.7631 -0.2611  1.4357
 3319TIP3    H231373   1.308   4.203  11.928 -0.4556  1.0821 -0.2323
 3320TIP3   OH231374   1.074   2.176   1.072 -0.4977  0.5316  0.7135
 3320TIP3    H131375   1.160   2.182   1.030 -0.7156  3.0775  0.4997
 3320TIP3    H231376   1.030   2.105   1.025  1.2312 -0.4230  0.4168
 3321TIP3   OH231377   0.908   6.643  15.740 -0.3261 -0.1675  0.0733
 3321TIP3    H131378   0.814   6.642  15.761 -0.0967  0.9940  1.2736
 3321TIP3    H231379   0.911   6.630  15.645 -1.6105 -1.8571  0.2084
 3322TIP3   OH231380   4.757   4.106   4.693 -0.0276 -0.6718 -0.5502
 3322TIP3    H131381   4.727   4.189   4.657 -0.3637 -0.3351  0.4657
 3322TIP3    H231382   4.825   4.130   4.756  0.1787 -1.1981 -0.5630
 3323TIP3   OH231383   4.659   0.432   1.863 -0.6376  0.1374 -0.9918
 3323TIP3    H131384   4.596   0.375   1.908 -1.5867  1.2116 -0.9298
 3323TIP3    H231385   4.648   0.411   1.770  0.0319 -0.7841 -0.8760
 3324TIP3   OH231386   2.124   0.923  13.666  0.1337  0.1760 -0.6626
 3324TIP3    H131387   2.108   0.835  13.701 -0.7866  0.7991  0.5920
 3324TIP3    H231388   2.206   0.915  13.617  0.3910 -1.2401 -0.0573
 3325TIP3   OH231389   5.263   1.365  13.307 -0.0066  0.2285 -0.1160
 3325TIP3    H131390   5.176   1.339  13.338 -0.8687 -0.3030 -2.7373
 3325TIP3    H231391   5.320   1.350  13.382 -1.4980 -3.2826  0.5559
 3326TIP3   OH231392   3.160   0.367   0.270 -0.1321  0.7373 -0.1119
 3326TIP3    H131393   3.210   0.397   0.346  1.7363  0.6158 -1.2268
 3326TIP3    H231394   3.158   0.272   0.279  1.9815  0.5324 -1.2609
 3327TIP3   OH231395   5.723   5.578   0.109  0.3872 -0.2154 -0.1426
 3327TIP3    H131396   5.630   5.583   0.086  0.7553 -1.2675 -2.0756
 3327TIP3    H231397   5.754   5.668   0.107  0.2851 -0.1396 -3.7258
 3328TIP3   OH231398   3.655   1.976   2.412  0.4964  0.6844 -0.1312
 3328TIP3    H131399   3.704   2.038   2.359 -0.9132  1.3479 -0.7137
 3328TIP3    H231400   3.578   1.955   2.359  0.7443 -1.2676  0.2286
 3329TIP3   OH231401   6.782   3.928  13.854 -0.5463  0.3689 -0.8062
 3329TIP3    H131402   6.696   3.946  13.815 -1.2858 -0.5570  0.3234
 3329TIP3    H231403   6.780   3.835  13.872  0.0918  0.6271  0.6702
 3330TIP3   OH231404   1.739   5.819   4.147 -0.2242  0.2963 -0.4103
 3330TIP3    H131405   1.708   5.861   4.066 -1.0147 -1.4539 -1.0476
 3330TIP3    H231406   1.686   5.858   4.216  0.3110  1.6567 -0.7276
 3331TIP3   OH231407   4.051   1.335   2.690  0.4182 -0.4945  0.0593
 3331TIP3    H131408   4.060   1.276   2.616 -1.7777 -1.1965  0.2939
 3331TIP3    H231409   4.021   1.418   2.652 -1.0440 -0.9558  0.1506
 3332TIP3   OH231410   2.884   6.475  13.815  0.4577  0.2420 -0.1461
 3332TIP3    H131411   2.798   6.518  13.811  0.4612  0.2561 -0.0707
 3332TIP3    H231412   2.866   6.383  13.797  0.3547  0.1512  0.4057
 3333TIP3   OH231413   2.803   4.487  13.347 -0.8368  0.1162 -0.2329
 3333TIP3    H131414   2.772   4.534  13.425  0.1338  0.6857 -0.1707
 3333TIP3    H231415   2.830   4.557  13.286  0.2987 -0.3358 -0.2786
 3334TIP3   OH231416   6.005   4.342   3.501  0.3387 -0.1148  0.1959
 3334TIP3    H131417   5.930   4.284   3.486  1.5511 -1.8033  0.3826
 3334TIP3    H231418   6.039   4.317   3.587  0.8048  0.9994  0.3615
 3335TIP3   OH231419   0.277   4.171  15.797 -0.0885 -0.4608 -0.6899
 3335TIP3    H131420   0.286   4.107  15.726  1.0491 -0.6917 -0.3604
 3335TIP3    H231421   0.262   4.254  15.753  1.2226 -0.4961 -1.2521
 3336TIP3   OH231422   0.762   3.270  13.837  0.0287  0.5942 -0.3913
 3336TIP3    H131423   0.726   3.214  13.905 -0.0346 -0.4130 -1.2443
 3336TIP3    H231424   0.685   3.312  13.797  0.1646  2.7072  1.4014
 3337TIP3   OH231425   1.238   2.644  14.139 -0.0672 -0.1533  0.5047
 3337TIP3    H131426   1.255   2.556  14.172 -0.4216 -0.5458 -0.3048
 3337TIP3    H231427   1.169   2.631  14.073  0.4555  0.6082 -0.2175
 3338TIP3   OH231428   5.384   4.547   4.752  0.5616  0.6371 -0.6415
 3338TIP3    H131429   5.387   4.581   4.841 -1.0623  0.7053 -0.5797
 3338TIP3    H231430   5.354   4.457   4.762  0.3630  0.6492 -1.1164
 3339TIP3   OH231431   3.287   6.753  12.763 -0.6430 -0.2790 -0.0541
 3339TIP3    H131432   3.211   6.799  12.727  0.0529  0.6299 -0.4194
 3339TIP3    H231433   3.345   6.823  12.794  0.5063 -0.9003 -0.7305
 3340TIP3   OH231434   6.657   2.618  17.142 -0.3967  0.4104 -0.0025
 3340TIP3    H131435   6.750   2.633  17.126 -0.5098 -0.2611 -1.4218
 3340TIP3    H231436   6.615   2.627  17.056 -1.4396 -0.6721  0.3481
 3341TIP3   OH231437   0.101   6.680   2.678  0.0159 -0.1062  0.0825
 3341TIP3    H131438   0.080   6.587   2.674  0.1284 -0.2586  2.0442
 3341TIP3    H231439   0.117   6.705   2.587 -2.6802 -1.3466 -0.8202
 3342TIP3   OH231440   4.791   4.380   0.661  0.3445 -0.1678 -0.1728
 3342TIP3    H131441   4.848   4.322   0.610  1.1227 -0.3876  0.9061
 3342TIP3    H231442   4.722   4.323   0.693 -0.1826 -0.0173 -1.0001
 3343TIP3   OH231443   4.428   0.632  16.201 -0.0770 -0.2810  0.8210
 3343TIP3    H131444   4.376   0.681  16.264 -0.9713 -0.7704  0.4805
 3343TIP3    H231445   4.415   0.540  16.225  1.1333 -0.3832  1.1116
 3344TIP3   OH231446   2.523   2.898  11.371 -0.3814 -0.3037  0.0351
 3344TIP3    H131447   2.615   2.885  11.394 -0.1611  1.6194  0.3962
 3344TIP3    H231448   2.525   2.956  11.295 -1.3023 -0.9485 -0.5111
 3345TIP3   OH231449   1.895   3.683   1.907  0.6196  0.2614  0.0267
 3345TIP3    H131450   1.953   3.713   1.977  0.7459  2.5368 -0.9535
 3345TIP3    H231451   1.812   3.665   1.951  1.0511  0.4080  0.9322
 3346TIP3   OH231452   6.250   6.283   1.736 -0.1023 -0.2191 -0.2245
 3346TIP3    H131453   6.211   6.367   1.763  0.4728  0.7190 -2.1548
 3346TIP3    H231454   6.338   6.285   1.775 -0.4354 -0.3986  0.5625
 3347TIP3   OH231455   2.119   1.398  16.611 -0.3162 -0.1870  0.1988
 3347TIP3    H131456   2.185   1.371  16.676  0.5566 -0.4323 -0.7580
 3347TIP3    H231457   2.146   1.485  16.585 -0.8273  0.0216  0.3553
 3348TIP3   OH231458   5.562   0.138   1.670 -0.2293  0.2454 -0.4904
 3348TIP3    H131459   5.550   0.204   1.602 -0.9132  0.6672  0.0334
 3348TIP3    H231460   5.604   0.185   1.742  0.3382 -0.1600 -0.5536
 3349TIP3   OH231461   2.102   6.633   1.418  0.1819 -0.2830  0.7076
 3349TIP3    H131462   2.193   6.627   1.445  0.9458  1.2332 -1.2063
 3349TIP3    H231463   2.090   6.560   1.357 -0.0901 -0.8355  1.4076
 3350TIP3   OH231464   0.902   5.265  16.826  0.2704  0.0150  0.1007
 3350TIP3    H131465   0.992   5.292  16.848  0.2397  0.2228 -0.0263
 3350TIP3    H231466   0.912   5.180  16.783  0.5977  0.9343 -1.7581
 3351TIP3   OH231467   5.863   4.804   1.228  0.3681  0.4178 -0.1698
 3351TIP3    H131468   5.778   4.806   1.272  0.6879 -0.4587  0.5255
 3351TIP3    H231469   5.924   4.838   1.293  0.4843  1.5441 -0.8516
 3352TIP3   OH231470   5.600   3.035   0.746  0.2345  0.2202  0.0877
 3352TIP3    H131471   5.695   3.041   0.737  0.0858  0.8799 -1.2388
 3352TIP3    H231472   5.582   3.076   0.831  1.2169 -0.9442  0.9007
 3353TIP3   OH231473   5.179   3.369  14.613 -0.1625  0.4876  0.2355
 3353TIP3    H131474   5.157   3.431  14.543 -0.4253 -0.9042 -0.9588
 3353TIP3    H231475   5.273   3.382  14.626 -0.8008  3.8699  2.8092
 3354TIP3   OH231476   4.442   4.897   1.031  0.2177 -0.7996 -0.3570
 3354TIP3    H131477   4.511   4.951   1.069  0.5775 -0.9352 -0.8193
 3354TIP3    H231478   4.405   4.851   1.106 -0.8688  0.9255  0.2343
 3355TIP3   OH231479   0.232   2.421  16.375 -0.4688  0.0403 -0.0895
 3355TIP3    H131480   0.294   2.370  16.427  0.5378 -0.0717 -1.3468
 3355TIP3    H231481   0.287   2.476  16.319 -1.4872 -0.1576 -1.3318
 3356TIP3   OH231482   6.244   6.549  14.534 -0.0309  0.2045 -0.5956
 3356TIP3    H131483   6.218   6.461  14.560  2.4949 -0.8728 -1.3562
 3356TIP3    H231484   6.216   6.605  14.607 -1.4232 -1.2551  0.0406
 3357TIP3   OH231485   4.501   3.578   3.863 -0.1247 -0.8489  0.3335
 3357TIP3    H131486   4.449   3.520   3.918 -0.6131 -0.3374  0.4255
 3357TIP3    H231487   4.438   3.642   3.829  0.2867 -0.7659 -0.2880
 3358TIP3   OH231488   0.573   6.693  12.069  0.0493 -0.3586  0.2592
 3358TIP3    H131489   0.521   6.773  12.057  0.0737 -0.3264  0.3717
 3358TIP3    H231490   0.523   6.641  12.131 -0.1695 -0.6091 -0.1200
 3359TIP3   OH231491   5.889   6.449  11.210 -0.2284  0.9149 -0.2874
 3359TIP3    H131492   5.869   6.366  11.254 -0.7286 -0.0957 -2.3197
 3359TIP3    H231493   5.823   6.457  11.141  1.6443  1.4218 -2.1255
 3360TIP3   OH231494   0.352   5.013   5.167 -0.0495  0.5001 -0.2881
 3360TIP3    H131495   0.342   5.099   5.128 -0.4499  1.3608  1.6050
 3360TIP3    H231496   0.270   4.967   5.146 -1.0315  1.5881  0.9906
 3361TIP3   OH231497   4.356   5.226   1.379 -0.1325 -0.4798 -0.1976
 3361TIP3    H131498   4.435   5.269   1.410  0.1519 -1.4652  0.4858
 3361TIP3    H231499   4.380   5.192   1.293  0.4880 -1.5595  0.3879
 3362TIP3   OH231500   1.846   6.657  15.979  0.5036 -0.5542  0.1880
 3362TIP3    H131501   1.914   6.606  16.023  0.4734 -0.9942 -0.2737
 3362TIP3    H231502   1.889   6.691  15.901  0.4379 -0.1110  0.3435
 3363TIP3   OH231503   4.090   5.802   1.282 -0.1510  0.1181  0.5602
 3363TIP3    H131504   4.106   5.751   1.362  1.2180 -1.6078 -0.7326
 3363TIP3    H231505   4.032   5.746   1.230 -2.7968  2.1473  1.1409
 3364TIP3   OH231506   1.421   5.667  13.478 -0.2269  0.4626  0.4316
 3364TIP3    H131507   1.487   5.600  13.462  2.9368  3.3920  0.2059
 3364TIP3    H231508   1.341   5.617  13.498  1.3447 -3.3051 -1.6595
 3365TIP3   OH231509   2.821   4.253  13.672 -0.1255 -0.5061  0.1933
 3365TIP3    H131510   2.844   4.210  13.754  1.5764 -2.6268 -1.2650
 3365TIP3    H231511   2.901   4.300  13.646  0.1061 -1.6283 -1.2401
 3366TIP3   OH231512   5.669   4.614  13.904  0.0083  0.2994 -0.1366
 3366TIP3    H131513   5.704   4.700  13.925 -1.4541  1.1705 -1.1096
 3366TIP3    H231514   5.674   4.608  13.809 -2.2914  0.4383 -0.3231
 3367TIP3   OH231515   3.338   5.417  14.820 -0.4491  0.0900 -0.3388
 3367TIP3    H131516   3.368   5.476  14.888 -0.8686 -1.8452  1.6403
 3367TIP3    H231517   3.407   5.418  14.754  0.5708  1.0723  0.7204
 3368TIP3   OH231518   5.875   3.841  14.095 -0.4605 -0.0406  0.1746
 3368TIP3    H131519   5.878   3.914  14.034 -1.1047  0.2261  0.4551
 3368TIP3    H231520   5.951   3.854  14.152  0.2379 -0.3791 -0.6540
 3369TIP3   OH231521   5.383   3.961  14.135  0.3636 -0.4526  0.0193
 3369TIP3    H131522   5.405   3.895  14.201  0.8335 -1.2567 -0.9238
 3369TIP3    H231523   5.447   4.031  14.150 -0.4121  0.0251  1.3104
 3370TIP3   OH231524   4.693   5.412  11.667  0.0438 -0.1497 -0.5825
 3370TIP3    H131525   4.764   5.364  11.625  0.9483  0.2394  0.4658
 3370TIP3    H231526   4.729   5.499  11.684 -0.6241  0.0030  0.1136
 3371TIP3   OH231527   4.925   0.387  15.742  0.0781 -0.1573 -0.4483
 3371TIP3    H131528   4.903   0.467  15.791  0.4107 -1.8132  2.6130
 3371TIP3    H231529   5.021   0.383  15.746  0.0222 -1.0833  0.1175
 3372TIP3   OH231530   1.679   0.259   2.559 -0.3210  0.4180 -0.1006
 3372TIP3    H131531   1.630   0.316   2.500 -0.9418 -0.5297 -0.5389
 3372TIP3    H231532   1.675   0.303   2.644  0.0052  1.4659 -0.6126
 3373TIP3   OH231533   5.667   5.949   0.354 -0.2289  0.1258  0.0350
 3373TIP3    H131534   5.603   5.909   0.295 -0.5911 -1.2272  1.2602
 3373TIP3    H231535   5.646   5.912   0.440  3.5596 -2.2533  0.1866
 3374TIP3   OH231536   1.937   4.437  12.697  0.2969 -0.1965 -0.0239
 3374TIP3    H131537   1.961   4.483  12.778  0.1976 -0.5477  0.2085
 3374TIP3    H231538   2.015   4.387  12.673 -0.1241 -1.2381  0.6625
 3375TIP3   OH231539   6.321   3.703   3.433  0.1598  0.3075 -0.0428
 3375TIP3    H131540   6.248   3.758   3.463 -1.1477 -0.3738 -1.8271
 3375TIP3    H231541   6.376   3.763   3.383 -1.7531 -0.0466 -2.7911
 3376TIP3   OH231542   6.786   0.846   2.530 -0.0900 -0.3339 -0.4350
 3376TIP3    H131543   6.830   0.876   2.610  0.3931 -0.6417 -0.5808
 3376TIP3    H231544   6.789   0.751   2.535  1.0296 -0.3754 -1.3930
 3377TIP3   OH231545   5.666   6.420   4.890 -0.4195 -0.6278  0.2503
 3377TIP3    H131546   5.628   6.349   4.839  0.1077 -0.9788  0.3369
 3377TIP3    H231547   5.711   6.377   4.962  0.0127 -0.2160  0.2356
 3378TIP3   OH231548   3.382   4.382  16.850 -0.0893 -0.0672 -0.5691
 3378TIP3    H131549   3.292   4.404  16.826 -0.1225  0.5488  0.0715
 3378TIP3    H231550   3.396   4.294  16.815 -1.3515 -0.6759  0.3733
 3379TIP3   OH231551   4.176   1.849   5.376 -0.3578 -0.1544 -0.3263
 3379TIP3    H131552   4.125   1.768   5.380 -1.5571  0.5734 -0.2616
 3379TIP3    H231553   4.167   1.878   5.285 -1.1287  0.6179 -0.0241
 3380TIP3   OH231554   1.715   5.476  11.722  0.6615 -0.8156  0.1923
 3380TIP3    H131555   1.742   5.493  11.813  1.8868  0.7089 -0.4167
 3380TIP3    H231556   1.696   5.563  11.686  4.5191 -0.7435 -2.2801
 3381TIP3   OH231557   4.389   2.040  14.635  0.1109  0.2148 -0.0841
 3381TIP3    H131558   4.321   2.055  14.702 -0.5674 -1.0112 -0.4568
 3381TIP3    H231559   4.374   1.949  14.607  0.4403  0.6794 -1.8330
 3382TIP3   OH231560   1.615   0.930  12.442  0.2215  0.0309 -0.2601
 3382TIP3    H131561   1.618   0.896  12.532 -0.3084 -1.0633 -0.6424
 3382TIP3    H231562   1.605   1.025  12.453  1.7879  0.0950  0.8260
 3383TIP3   OH231563   0.495   4.885  12.687  0.4488 -0.0495  0.4338
 3383TIP3    H131564   0.475   4.861  12.777  0.2509  0.7696  0.6171
 3383TIP3    H231565   0.581   4.928  12.692  1.9460 -2.7344 -0.2212
 3384TIP3   OH231566   4.481   6.486  12.913 -0.2721 -0.0140  0.1435
 3384TIP3    H131567   4.546   6.533  12.966  0.2476 -0.0799 -0.4249
 3384TIP3    H231568   4.533   6.435  12.852 -0.8496  1.3317 -1.5606
 3385TIP3   OH231569   2.820   3.276   4.073  0.1296  0.2165 -0.0091
 3385TIP3    H131570   2.780   3.196   4.108  0.0836  0.2967  0.1243
 3385TIP3    H231571   2.805   3.341   4.141 -0.3717  0.4923 -0.3806
 3386TIP3   OH231572   3.903   3.947   2.048 -0.2043 -0.4887  0.1860
 3386TIP3    H131573   3.981   3.921   2.097  2.7227  1.7856 -2.7964
 3386TIP3    H231574   3.871   4.026   2.093 -0.6362 -1.2091  1.1896
 3387TIP3   OH231575   2.383   5.326  12.742 -0.2101  0.9133  0.4015
 3387TIP3    H131576   2.305   5.350  12.692  1.1860 -1.0402 -3.0823
 3387TIP3    H231577   2.399   5.234  12.718  2.8312  1.0923  1.3783
 3388TIP3   OH231578   3.862   2.118  15.946  0.0658  0.0394 -0.5517
 3388TIP3    H131579   3.944   2.068  15.938 -1.6966 -3.2102 -0.2662
 3388TIP3    H231580   3.852   2.132  16.040  0.5501  0.9711 -0.6296
 3389TIP3   OH231581   2.440   1.146   2.259 -0.2780 -0.2051 -0.5290
 3389TIP3    H131582   2.467   1.069   2.309  0.4717  0.2019 -0.2916
 3389TIP3    H231583   2.387   1.111   2.187  0.0040 -0.9295 -0.3928
 3390TIP3   OH231584   2.910   1.423   4.215  0.1805 -0.4813 -0.1692
 3390TIP3    H131585   2.907   1.405   4.309 -0.3065 -2.3969 -0.5096
 3390TIP3    H231586   2.951   1.345   4.177 -4.1205 -2.1650 -2.0084
 3391TIP3   OH231587   1.319   2.646  14.420 -0.5264 -0.6749 -0.1355
 3391TIP3    H131588   1.413   2.651  14.407 -0.5322  1.1752  0.2284
 3391TIP3    H231589   1.282   2.669  14.334 -0.5971  0.8621  0.2688
 3392TIP3   OH231590   1.677   0.019   2.772  0.3403  0.3192 -0.0294
 3392TIP3    H131591   1.610   0.087   2.774  0.3804  0.3642 -0.2068
 3392TIP3    H231592   1.740   0.045   2.838  0.4042  0.5033 -0.1642
 3393TIP3   OH231593   3.486   3.252   1.664 -0.7677 -0.2560  0.1692
 3393TIP3    H131594   3.411   3.269   1.607  0.4783  0.5306 -1.2969
 3393TIP3    H231595   3.561   3.249   1.606  0.4264 -0.5097  1.6555
 3394TIP3   OH231596   3.151   3.697  14.359  0.3107  0.0015 -0.0176
 3394TIP3    H131597   3.111   3.662  14.439 -1.8418  0.3235 -0.9022
 3394TIP3    H231598   3.163   3.621  14.303  0.6622 -0.0493  0.1237
 3395TIP3   OH231599   0.285   3.625  12.120 -0.2234 -0.0110  0.2881
 3395TIP3    H131600   0.308   3.550  12.066  1.0276 -0.3616  1.2400
 3395TIP3    H231601   0.260   3.693  12.058 -0.5039 -0.9289 -0.6305
 3396TIP3   OH231602   6.582   0.234  12.386  0.4115 -0.5529 -0.7613
 3396TIP3    H131603   6.621   0.236  12.298  1.6445  0.0975 -0.2196
 3396TIP3    H231604   6.654   0.207  12.443  0.0995  0.7263  0.2833
 3397TIP3   OH231605   4.202   5.999   1.494  0.4919  0.2287  0.2450
 3397TIP3    H131606   4.297   5.999   1.483  0.4419  0.7697 -0.2436
 3397TIP3    H231607   4.176   5.909   1.475  0.7295  0.4671 -1.3832
 3398TIP3   OH231608   3.795   2.473   3.413  0.4796  0.1101 -0.5992
 3398TIP3    H131609   3.792   2.535   3.340  0.5894  1.1130  0.2142
 3398TIP3    H231610   3.772   2.526   3.490  0.6985 -0.8403  0.1385
 3399TIP3   OH231611   1.444   4.510  16.429  0.5687 -0.6129  0.4899
 3399TIP3    H131612   1.399   4.449  16.369 -1.6145  0.9723  0.3795
 3399TIP3    H231613   1.494   4.567  16.371 -0.2191 -0.1207  0.2741
 3400TIP3   OH231614   5.574   6.133   1.299 -0.7455  0.0562  0.0235
 3400TIP3    H131615   5.545   6.141   1.208 -0.2057 -0.5173 -0.2067
 3400TIP3    H231616   5.501   6.090   1.344 -1.0180  0.3518 -0.1228
 3401TIP3   OH231617   5.965   4.480   4.683 -0.3489 -0.0561 -0.6749
 3401TIP3    H131618   5.889   4.510   4.633 -0.5885 -0.0019 -0.2748
 3401TIP3    H231619   5.975   4.388   4.657 -0.1768  0.0996 -1.1881
 3402TIP3   OH231620   5.006   0.879  15.667 -0.3056 -0.6577 -0.1010
 3402TIP3    H131621   4.967   0.963  15.645  1.2657 -0.2752 -1.5949
 3402TIP3    H231622   4.970   0.818  15.602  1.7016 -0.2340 -1.7118
 3403TIP3   OH231623   3.502   5.826  15.347  0.0069  0.2180 -0.1978
 3403TIP3    H131624   3.420   5.777  15.346  0.3591 -0.4025  0.6279
 3403TIP3    H231625   3.498   5.881  15.268 -0.2892 -1.3035 -1.2961
 3404TIP3   OH231626   0.213   5.995  16.211 -0.0748  0.0674 -0.0148
 3404TIP3    H131627   0.305   5.973  16.195 -0.1605  0.8955 -2.0036
 3404TIP3    H231628   0.203   6.082  16.173 -1.9260 -0.4504 -0.8166
 3405TIP3   OH231629   1.990   3.176   0.248  0.2803 -0.4788 -0.5548
 3405TIP3    H131630   2.069   3.169   0.193 -0.3962 -0.8567 -1.5054
 3405TIP3    H231631   2.019   3.225   0.325  1.6974 -1.4805 -0.4022
 3406TIP3   OH231632   6.470   1.141   5.131 -0.2384  0.4204  0.0111
 3406TIP3    H131633   6.390   1.117   5.178  0.4455  1.2155  1.6965
 3406TIP3    H231634   6.534   1.158   5.201  1.5353 -0.5870 -1.2830
 3407TIP3   OH231635   1.214   2.191   5.087  0.0364 -0.7325  0.0522
 3407TIP3    H131636   1.182   2.121   5.029 -0.1375 -0.9219  0.3747
 3407TIP3    H231637   1.169   2.269   5.056  1.7554 -0.3318 -1.6445
 3408TIP3   OH231638   3.950   4.138  16.769  0.1215  0.1085  0.0369
 3408TIP3    H131639   3.979   4.048  16.784  0.1800  0.1945  0.4737
 3408TIP3    H231640   4.021   4.179  16.720  0.7906  0.3360  1.1607
 3409TIP3   OH231641   6.684   2.313   3.497 -0.0880  0.3187  0.5545
 3409TIP3    H131642   6.718   2.228   3.473  1.3414  1.1202 -0.4050
 3409TIP3    H231643   6.733   2.338   3.575  0.1293  0.6340  0.3197
 3410TIP3   OH231644   3.238   2.741   2.062 -0.0382 -0.5352  0.1275
 3410TIP3    H131645   3.297   2.702   2.126  0.0370 -0.1001  0.3247
 3410TIP3    H231646   3.286   2.738   1.979  0.4834  0.3046  0.3839
 3411TIP3   OH231647   5.356   0.995  14.999 -0.4669  0.1255  0.3925
 3411TIP3    H131648   5.289   1.062  14.987 -0.9608 -0.0465  1.9807
 3411TIP3    H231649   5.318   0.915  14.962 -1.6226 -0.2243  2.2440
 3412TIP3   OH231650   4.737   0.403   0.642 -0.0048  0.1943  0.1876
 3412TIP3    H131651   4.768   0.333   0.585  1.4268  2.1326 -1.5645
 3412TIP3    H231652   4.667   0.363   0.694  0.2036 -2.2694 -1.2895
 3413TIP3   OH231653   1.378   5.474  15.699 -0.0359 -0.3471  0.4321
 3413TIP3    H131654   1.389   5.569  15.692 -0.8324 -0.2920 -0.2264
 3413TIP3    H231655   1.467   5.441  15.712  0.4752  0.3579 -1.0322
 3414TIP3   OH231656   2.798   3.901  12.765  0.3333  0.3822  0.3016
 3414TIP3    H131657   2.788   3.850  12.846  1.1280 -1.1387 -0.5181
 3414TIP3    H231658   2.708   3.914  12.734  0.1263 -1.1373  0.1803
 3415TIP3   OH231659   3.261   6.460   5.842 -0.1110  0.4193  0.2485
 3415TIP3    H131660   3.331   6.394   5.845 -0.5721 -0.0494  2.2189
 3415TIP3    H231661   3.306   6.544   5.851  0.3157  0.2332 -0.1115
 3416TIP3   OH231662   0.718   4.784  14.943  0.3450 -0.1210 -0.0203
 3416TIP3    H131663   0.758   4.755  15.025 -0.6839  0.4445  0.7173
 3416TIP3    H231664   0.684   4.704  14.903  1.5658 -0.5092 -0.3082
 3417TIP3   OH231665   4.764   3.280   1.659 -0.5211  0.1410  0.5282
 3417TIP3    H131666   4.792   3.370   1.675  1.6552 -0.8918  3.2982
 3417TIP3    H231667   4.677   3.274   1.697 -1.5713  1.5041 -1.4926
 3418TIP3   OH231668   5.271   4.828  15.807  0.3706  0.0228 -0.3278
 3418TIP3    H131669   5.286   4.736  15.783 -1.7041 -0.1135 -1.3988
 3418TIP3    H231670   5.234   4.824  15.895 -0.4678 -0.2734 -0.6769
 3419TIP3   OH231671   4.760   5.478   0.585  0.2092 -0.6229 -0.0623
 3419TIP3    H131672   4.802   5.564   0.575  1.4605 -1.3831 -2.0174
 3419TIP3    H231673   4.667   5.498   0.598  0.6674  1.0379  1.0628
 3420TIP3   OH231674   5.721   6.459  12.921 -0.5936  0.2311 -0.2042
 3420TIP3    H131675   5.777   6.537  12.909  0.7763 -0.8691 -1.3415
 3420TIP3    H231676   5.712   6.450  13.016 -1.3271  2.1201 -0.0402
 3421TIP3   OH231677   5.012   0.353   4.225 -0.1774 -0.7601  0.3052
 3421TIP3    H131678   4.981   0.265   4.246 -1.5052 -0.3020  0.3978
 3421TIP3    H231679   4.941   0.392   4.174  0.6464  0.0542 -0.2503
 3422TIP3   OH231680   3.470   2.771  11.558 -0.0866 -0.4844 -0.4772
 3422TIP3    H131681   3.420   2.820  11.623  1.7372 -0.2847  0.8836
 3422TIP3    H231682   3.488   2.835  11.489  2.1566  0.8900  1.2206
 3423TIP3   OH231683   1.720   1.612   2.942  0.0262  0.1955  0.3830
 3423TIP3    H131684   1.659   1.680   2.970 -1.3102 -0.9186  0.3122
 3423TIP3    H231685   1.781   1.656   2.883 -0.3745  1.4637  0.8948
 3424TIP3   OH231686   2.745   2.026  16.533 -0.2607 -0.5593  0.1131
 3424TIP3    H131687   2.732   2.082  16.609 -0.7737 -0.7528  0.1719
 3424TIP3    H231688   2.782   1.945  16.568 -0.6807 -0.7220  0.1812
 3425TIP3   OH231689   1.376   0.931   1.935 -0.1388 -0.1097 -0.2417
 3425TIP3    H131690   1.385   0.875   1.859  0.1288 -0.7781  0.2706
 3425TIP3    H231691   1.378   0.871   2.010  0.5149  0.6011  0.3393
 3426TIP3   OH231692   0.038   1.561  16.327 -0.0987  0.4341  0.2880
 3426TIP3    H131693   0.073   1.482  16.285 -1.5401 -1.4642  2.3882
 3426TIP3    H231694   0.012   1.617  16.254  2.4800 -0.2509 -1.3073
 3427TIP3   OH231695   2.321   2.027   3.596  0.0683 -0.1753  0.2971
 3427TIP3    H131696   2.353   2.036   3.686 -0.3560 -2.1575  0.6952
 3427TIP3    H231697   2.312   1.932   3.583 -3.6505  0.1613 -0.4763
 3428TIP3   OH231698   1.426   3.918   1.318  0.2424 -0.1513 -0.4483
 3428TIP3    H131699   1.370   3.992   1.341  0.7226  0.0602  0.0880
 3428TIP3    H231700   1.411   3.904   1.225  0.1135  0.5940 -0.5451
 3429TIP3   OH231701   5.409   1.303   6.025 -0.2779 -0.8227 -0.5710
 3429TIP3    H131702   5.323   1.323   5.988 -0.4013 -0.1563  0.0690
 3429TIP3    H231703   5.399   1.215   6.061 -1.0869 -0.2533  0.6506
 3430TIP3   OH231704   0.582   0.678   2.579 -0.2375  0.0221  0.2149
 3430TIP3    H131705   0.600   0.649   2.489 -0.4357  0.6655 -0.0399
 3430TIP3    H231706   0.627   0.762   2.586  0.1302 -0.2251  0.8645
 3431TIP3   OH231707   4.887   6.268   3.813  0.5612  0.0128  0.2251
 3431TIP3    H131708   4.969   6.318   3.820  0.2508  0.4566  0.7785
 3431TIP3    H231709   4.912   6.179   3.838  0.8322  0.1921  0.6093
 3432TIP3   OH231710   2.867   2.596  11.853 -0.1303  0.1446  0.5033
 3432TIP3    H131711   2.865   2.607  11.758  0.3218  0.6026  0.5393
 3432TIP3    H231712   2.791   2.541  11.872  0.6545 -1.2697 -0.2887
 3433TIP3   OH231713   6.562   1.325   1.613  0.2086 -0.5131 -0.6882
 3433TIP3    H131714   6.492   1.322   1.548  0.1711  1.8387 -0.8585
 3433TIP3    H231715   6.539   1.400   1.669  0.1511 -2.5176  2.1935
 3434TIP3   OH231716   3.929   2.157  15.063  0.1334 -0.1281  0.3167
 3434TIP3    H131717   3.936   2.088  15.129 -1.0146 -0.8512 -0.3056
 3434TIP3    H231718   3.998   2.220  15.088  0.7454 -1.1408  1.2841
 3435TIP3   OH231719   3.783   5.143  15.939 -0.1727 -0.3740 -0.2783
 3435TIP3    H131720   3.769   5.163  15.847  0.0267 -2.3053 -0.7672
 3435TIP3    H231721   3.878   5.133  15.948 -0.2102 -0.4221  0.1016
 3436TIP3   OH231722   3.361   2.489   4.246  0.7112 -0.6047  0.1786
 3436TIP3    H131723   3.453   2.464   4.246  1.0044  0.1309  2.6856
 3436TIP3    H231724   3.315   2.412   4.279  0.8449 -0.0748  1.7212
 3437TIP3   OH231725   3.543   4.673   5.937  0.3712  0.4055 -0.0035
 3437TIP3    H131726   3.461   4.642   5.900  0.6623 -0.1892 -0.1593
 3437TIP3    H231727   3.519   4.751   5.987 -0.4491 -0.3352  0.7946
 3438TIP3   OH231728   3.300   4.197   5.416 -0.2411  0.4390  0.0025
 3438TIP3    H131729   3.213   4.160   5.428  0.0952 -0.0685  1.0659
 3438TIP3    H231730   3.355   4.121   5.397 -0.3989  0.9908 -3.1922
 3439TIP3   OH231731   2.127   6.348  17.113 -0.1586  0.1064 -0.1772
 3439TIP3    H131732   2.047   6.319  17.157  0.6284 -1.8251  0.0819
 3439TIP3    H231733   2.139   6.286  17.041  0.8004  0.7032 -0.5549
 3440TIP3   OH231734   3.316   6.449  17.006  0.0529 -0.1081 -0.2636
 3440TIP3    H131735   3.235   6.400  16.992 -0.6464  1.5126 -2.4575
 3440TIP3    H231736   3.294   6.515  17.071  0.1797 -0.8291  0.5297
 3441TIP3   OH231737   5.440   3.433  14.439 -0.4687  0.5917 -0.2206
 3441TIP3    H131738   5.400   3.517  14.463  3.2637  2.1577  1.2044
 3441TIP3    H231739   5.426   3.427  14.344 -0.4965  3.0416 -0.4424
 3442TIP3   OH231740   1.402   6.303  15.405 -0.2615  0.1933 -0.0576
 3442TIP3    H131741   1.401   6.348  15.489 -0.7446 -0.5401  0.3426
 3442TIP3    H231742   1.312   6.274  15.391 -0.0057 -0.4819 -0.3852
 3443TIP3   OH231743   2.982   4.018  13.524 -0.4202  0.3798 -0.7432
 3443TIP3    H131744   2.932   3.944  13.491  0.9122 -0.2347 -1.4852
 3443TIP3    H231745   2.929   4.054  13.595 -1.5654 -0.6391 -1.0482
 3444TIP3   OH231746   5.763   6.018   2.529  0.3836  0.0982  0.1658
 3444TIP3    H131747   5.821   6.024   2.605 -0.7299 -1.6196  1.2308
 3444TIP3    H231748   5.716   6.101   2.527  0.4367  0.1735  1.3906
 3445TIP3   OH231749   6.036   5.060  14.041  0.4490  0.0003  0.0272
 3445TIP3    H131750   5.970   5.124  14.069 -1.1353  0.0751 -3.4006
 3445TIP3    H231751   6.043   4.999  14.115 -0.4022  2.2502  2.0991
 3446TIP3   OH231752   1.653   3.447   1.913 -0.5396 -0.4868  0.5080
 3446TIP3    H131753   1.651   3.522   1.972 -1.3897 -0.7313  0.8115
 3446TIP3    H231754   1.740   3.450   1.873 -1.1690  1.7115 -0.8613
 3447TIP3   OH231755   3.944   5.328   1.712 -0.1180  0.4828  0.3088
 3447TIP3    H131756   4.037   5.344   1.700 -0.2610  0.8644 -0.3370
 3447TIP3    H231757   3.937   5.286   1.798  0.4982  1.7938  1.0137
 3448TIP3   OH231758   5.427   0.633   0.512  0.3061  0.1884 -0.1876
 3448TIP3    H131759   5.461   0.556   0.466 -1.3288 -1.8547  1.8159
 3448TIP3    H231760   5.350   0.659   0.461  1.3391  1.0930 -1.3474
 3449TIP3   OH231761   4.388   1.582   2.239  0.3913  0.0733  0.0790
 3449TIP3    H131762   4.395   1.487   2.246 -0.7085 -0.2126 -1.9300
 3449TIP3    H231763   4.474   1.614   2.266  1.1022 -1.5464 -0.1274
 3450TIP3   OH231764   2.188   2.290  12.544 -0.3010  0.5074 -0.2954
 3450TIP3    H131765   2.251   2.342  12.494 -1.0554 -0.6973 -2.6451
 3450TIP3    H231766   2.109   2.291  12.490 -0.6046 -2.3701 -0.0396
 3451TIP3   OH231767   3.446   1.648  15.195 -0.0103 -0.4185 -0.4930
 3451TIP3    H131768   3.427   1.589  15.268  0.0192  1.5103  1.1769
 3451TIP3    H231769   3.371   1.638  15.136 -0.7002 -1.0814  0.4605
 3452TIP3   OH231770   1.769   0.835  16.998 -0.2398 -0.0409 -0.3442
 3452TIP3    H131771   1.739   0.759  17.048  1.3294 -0.2155  0.4098
 3452TIP3    H231772   1.862   0.818  16.982  0.1252  1.6690 -0.2371
 3453TIP3   OH231773   4.078   2.872  15.401  0.1721  0.3291 -0.1706
 3453TIP3    H131774   4.012   2.922  15.451 -0.0055 -1.4495  1.4911
 3453TIP3    H231775   4.032   2.846  15.321 -1.3855 -1.2873  1.1715
 3454TIP3   OH231776   3.995   1.296   1.876 -0.0633  0.3426 -0.3946
 3454TIP3    H131777   4.048   1.360   1.923 -1.8075  0.4675  1.5266
 3454TIP3    H231778   3.966   1.343   1.797 -0.7153  1.7215  0.6225
 3455TIP3   OH231779   0.238   4.823  15.475  0.1013 -0.3355  0.4773
 3455TIP3    H131780   0.206   4.758  15.412 -0.5679  1.6210 -1.3530
 3455TIP3    H231781   0.164   4.883  15.486  0.3930 -0.2988  2.7893
 3456TIP3   OH231782   6.238   2.557   0.342  0.0517 -0.1485  0.2797
 3456TIP3    H131783   6.304   2.502   0.300  0.7592  1.3310 -0.6040
 3456TIP3    H231784   6.165   2.497   0.359  1.1847 -1.5841  0.3076
 3457TIP3   OH231785   3.542   1.294   1.118  0.5046 -0.4214  0.0606
 3457TIP3    H131786   3.496   1.378   1.126  2.2953  0.6367 -0.1324
 3457TIP3    H231787   3.594   1.287   1.199  0.6467 -1.1680 -0.0848
 3458TIP3   OH231788   1.483   0.831  15.969 -0.3443  0.2246 -0.4021
 3458TIP3    H131789   1.484   0.742  16.003 -0.4246  0.7297  0.9885
 3458TIP3    H231790   1.397   0.865  15.995  0.5315  1.4212  1.0619
 3459TIP3   OH231791   4.286   0.375   3.574 -0.1042 -0.0194 -0.3568
 3459TIP3    H131792   4.315   0.284   3.583  1.4996  0.5872  1.2268
 3459TIP3    H231793   4.364   0.427   3.595  0.0863  1.8089 -4.5715
 3460TIP3   OH231794   0.338   0.847  14.660  0.3969  0.1603 -0.0862
 3460TIP3    H131795   0.338   0.936  14.625 -0.0685  0.0607 -0.3441
 3460TIP3    H231796   0.247   0.830  14.685  0.6794  0.1475  0.9708
 3461TIP3   OH231797   6.470   1.096   0.488  0.4818  0.6424 -0.2248
 3461TIP3    H131798   6.527   1.081   0.413  1.1824 -0.5808  0.5202
 3461TIP3    H231799   6.474   1.014   0.538 -0.5351  1.1714  0.7698
 3462TIP3   OH231800   3.307   1.287   3.185  0.5550  0.2011  0.2154
 3462TIP3    H131801   3.344   1.376   3.185 -1.1178  0.9574  1.1375
 3462TIP3    H231802   3.307   1.262   3.092 -0.7018  2.0001 -0.3471
 3463TIP3   OH231803   6.110   1.963   0.531  0.3013 -0.2428  0.7257
 3463TIP3    H131804   6.081   1.896   0.468  3.0414 -1.5066  0.6627
 3463TIP3    H231805   6.147   2.032   0.476 -0.1023  0.0899  0.8716
 3464TIP3   OH231806   3.273   1.030   5.446 -0.6786 -0.1161 -0.1191
 3464TIP3    H131807   3.320   1.023   5.363  0.8598  0.6902  0.6488
 3464TIP3    H231808   3.202   1.092   5.427 -1.0231 -0.7858 -1.1077
 3465TIP3   OH231809   1.224   2.271  14.314 -0.1350 -0.1019  0.0274
 3465TIP3    H131810   1.151   2.222  14.276 -0.8852  1.2179 -0.2969
 3465TIP3    H231811   1.184   2.324  14.383  0.6892 -0.0840  0.5034
 3466TIP3   OH231812   6.502   3.518   4.736 -0.2905 -0.0902  0.1153
 3466TIP3    H131813   6.496   3.425   4.757 -1.2947 -0.1979 -0.5382
 3466TIP3    H231814   6.441   3.529   4.662 -1.2750  1.3495  1.0970
 3467TIP3   OH231815   2.951   6.458  17.025 -0.0573  0.1282  0.0450
 3467TIP3    H131816   2.919   6.399  17.093 -1.7341 -0.9189 -1.5547
 3467TIP3    H231817   2.946   6.406  16.944 -2.2783  2.6348 -1.5780
 3468TIP3   OH231818   3.927   0.424   6.408  0.4516 -0.0418 -0.3133
 3468TIP3    H131819   3.983   0.417   6.485  1.9397 -1.8991 -1.4579
 3468TIP3    H231820   3.840   0.445   6.443  1.2831  0.1724  1.7640
 3469TIP3   OH231821   3.881   5.910  13.547 -0.1345 -1.1675 -0.2396
 3469TIP3    H131822   3.864   5.939  13.457 -0.4929 -0.5924  0.0067
 3469TIP3    H231823   3.904   5.817  13.538 -1.7656 -1.5689 -0.7786
 3470TIP3   OH231824   3.466   0.666   6.465  0.0476  0.5939 -0.4718
 3470TIP3    H131825   3.376   0.668   6.498  0.9047  0.8299  2.0961
 3470TIP3    H231826   3.469   0.590   6.407 -1.8769  0.8046 -0.9233
 3471TIP3   OH231827   4.732   2.119   1.462  0.7180  0.0284 -0.0191
 3471TIP3    H131828   4.811   2.129   1.515  0.1691  0.1769  0.7836
 3471TIP3    H231829   4.732   2.195   1.404  0.5713  0.6551  0.7806
 3472TIP3   OH231830   6.112   1.160  16.064  0.3979 -0.1244  0.3059
 3472TIP3    H131831   6.019   1.181  16.077 -0.4420 -2.2102 -1.7113
 3472TIP3    H231832   6.158   1.235  16.101 -2.1852  2.7949 -1.8496
 3473TIP3   OH231833   1.517   5.167  12.198 -0.4383  0.2469  0.1971
 3473TIP3    H131834   1.425   5.182  12.178 -0.6189  0.8778  1.3782
 3473TIP3    H231835   1.522   5.074  12.220 -1.0420  0.4625  1.3096
 3474TIP3   OH231836   2.060   1.098  12.314  0.0656  0.0554 -0.8365
 3474TIP3    H131837   2.112   1.028  12.276 -0.5159 -0.4320 -0.7656
 3474TIP3    H231838   1.972   1.059  12.324  0.2002  0.1130  1.0533
 3475TIP3   OH231839   3.541   2.879   2.070  0.2376  0.3431  0.1903
 3475TIP3    H131840   3.521   2.920   2.155 -0.4559  0.0169  0.1993
 3475TIP3    H231841   3.525   2.786   2.086 -1.6862  0.4528 -0.7603
 3476TIP3   OH231842   4.007   5.043  15.618  0.9267  0.3096 -0.0690
 3476TIP3    H131843   4.073   5.077  15.678  3.2243 -1.5713 -1.3801
 3476TIP3    H231844   3.973   4.965  15.661  1.4200 -0.1501 -0.5075
 3477TIP3   OH231845   2.859   6.171   5.132  0.1464 -0.0745  0.0204
 3477TIP3    H131846   2.875   6.265   5.124 -2.9732  0.7079  1.5163
 3477TIP3    H231847   2.892   6.148   5.219 -0.1191 -0.1209  0.1079
 3478TIP3   OH231848   6.194   0.740   0.871 -0.1997 -0.4373  0.1994
 3478TIP3    H131849   6.100   0.755   0.875 -0.4508 -1.4160 -1.1048
 3478TIP3    H231850   6.217   0.760   0.780  0.0202 -4.2819 -0.7635
 3479TIP3   OH231851   1.329   3.160  13.419 -0.3177  0.5234  0.2981
 3479TIP3    H131852   1.319   3.145  13.513 -0.1564  0.2938  0.2807
 3479TIP3    H231853   1.254   3.215  13.396 -0.3556  0.5861  0.5609
 3480TIP3   OH231854   3.466   4.635  13.999 -0.2743 -0.0766  0.2047
 3480TIP3    H131855   3.485   4.596  13.914 -1.3066  0.6487 -0.3713
 3480TIP3    H231856   3.477   4.563  14.062  0.6330 -0.5780 -0.5113
 3481TIP3   OH231857   4.903   5.172  14.365 -0.3571  0.1495 -0.8491
 3481TIP3    H131858   4.808   5.163  14.362 -0.3110 -0.8834 -0.0298
 3481TIP3    H231859   4.919   5.253  14.413 -0.8146  0.8918 -1.9233
 3482TIP3   OH231860   6.297   3.109  14.253  0.3076  0.0911 -0.0224
 3482TIP3    H131861   6.303   3.030  14.307  0.2981  0.5340  0.6351
 3482TIP3    H231862   6.229   3.088  14.188 -2.3270  0.7775  2.2968
 3483TIP3   OH231863   5.722   1.116   3.084  0.1815  0.0022  0.4465
 3483TIP3    H131864   5.738   1.183   3.018  0.8927 -1.4725 -0.9523
 3483TIP3    H231865   5.706   1.165   3.164  0.2017  1.8416 -0.6062
 3484TIP3   OH231866   6.109   3.844   3.756  0.2696  0.2075  0.4411
 3484TIP3    H131867   6.155   3.760   3.764 -2.7559 -1.6079  0.5164
 3484TIP3    H231868   6.156   3.890   3.686 -0.3706 -3.4218 -2.7478
 3485TIP3   OH231869   0.373   6.522   2.600 -0.8906 -0.3504  0.1983
 3485TIP3    H131870   0.419   6.569   2.530 -0.9527 -0.4953  0.0578
 3485TIP3    H231871   0.369   6.584   2.672 -3.4381  0.9084 -0.8799
 3486TIP3   OH231872   0.536   3.611  16.532  0.3982  0.0881 -0.0697
 3486TIP3    H131873   0.453   3.659  16.529  0.3332 -0.0630 -1.4085
 3486TIP3    H231874   0.556   3.602  16.625 -0.1157  1.8008  0.2352
 3487TIP3   OH231875   6.355   3.355  11.459 -0.1877  0.0742 -0.2757
 3487TIP3    H131876   6.420   3.322  11.398  0.5613 -0.5679  0.8424
 3487TIP3    H231877   6.282   3.294  11.452 -0.9959  1.1426 -1.9950
 3488TIP3   OH231878   3.464   6.174  12.995 -0.1144 -0.0264  0.1305
 3488TIP3    H131879   3.416   6.255  13.008 -1.6947 -0.9246  0.2232
 3488TIP3    H231880   3.489   6.147  13.084  1.6967  1.0492 -0.0063
 3489TIP3   OH231881   0.370   4.471   1.400 -0.1056 -0.1979  0.2281
 3489TIP3    H131882   0.324   4.440   1.478 -0.3876 -0.9253 -0.2156
 3489TIP3    H231883   0.356   4.402   1.336  2.3770 -0.8988  0.3544
 3490TIP3   OH231884   3.494   6.168  13.976 -0.1744  0.1752  0.1213
 3490TIP3    H131885   3.439   6.127  13.909  1.8895  0.5970 -1.9301
 3490TIP3    H231886   3.575   6.117  13.974 -0.0963  0.1085  2.4685
 3491TIP3   OH231887   6.582   2.896   5.485  0.2518  0.3198  0.4653
 3491TIP3    H131888   6.615   2.979   5.521  0.9899  0.7896 -1.1827
 3491TIP3    H231889   6.655   2.836   5.492  0.6197  0.5942 -0.7496
 3492TIP3   OH231890   4.280   5.533   0.788 -0.4983  0.3810  0.4878
 3492TIP3    H131891   4.280   5.512   0.882 -0.2585  0.2447  0.4591
 3492TIP3    H231892   4.209   5.596   0.778 -0.7945  0.0895  0.6922
 3493TIP3   OH231893   4.085   2.659  13.617 -0.0688 -0.1564 -0.2554
 3493TIP3    H131894   4.105   2.645  13.710  1.3328  0.7815 -0.3772
 3493TIP3    H231895   4.164   2.701  13.582 -1.4382  1.6403 -1.3541
 3494TIP3   OH231896   6.213   6.306   4.982 -0.2114  0.3132  1.0100
 3494TIP3    H131897   6.151   6.351   4.925  1.1499  2.1190  0.8912
 3494TIP3    H231898   6.202   6.349   5.067  1.9779  1.8436  0.5935
 3495TIP3   OH231899   1.783   2.837  13.789 -0.5018 -0.2327  0.1278
 3495TIP3    H131900   1.832   2.886  13.855 -0.1953 -1.4671  0.8594
 3495TIP3    H231901   1.801   2.745  13.809 -1.5333 -0.6732 -0.8229
 3496TIP3   OH231902   1.676   2.606  16.967  0.1125 -0.0599 -0.9085
 3496TIP3    H131903   1.680   2.517  17.002 -2.2926  0.7115  1.6773
 3496TIP3    H231904   1.737   2.656  17.020  0.4911  0.1045 -1.4889
 3497TIP3   OH231905   2.548   4.363   0.561  0.2165  0.4031  0.2082
 3497TIP3    H131906   2.628   4.350   0.511  0.6255  2.7394  0.1249
 3497TIP3    H231907   2.478   4.332   0.504  1.0333 -1.9606  0.4080
 3498TIP3   OH231908   2.299   2.210   2.528  0.0537  0.3981  0.8216
 3498TIP3    H131909   2.343   2.191   2.446 -1.1683 -0.3218  0.3096
 3498TIP3    H231910   2.369   2.210   2.594  0.9425  0.3098 -0.1076
 3499TIP3   OH231911   3.626   4.104  15.801 -0.4666 -0.1844 -0.0907
 3499TIP3    H131912   3.667   4.148  15.727  0.6686 -0.1536  0.5416
 3499TIP3    H231913   3.618   4.012  15.773  0.6266 -0.3227  0.0054
 3500TIP3   OH231914   5.570   3.506   0.326  0.2585  0.6076 -0.2225
 3500TIP3    H131915   5.603   3.416   0.339  2.9698  1.6162  0.6514
 3500TIP3    H231916   5.528   3.528   0.409  0.6911  0.5390  0.0225
 3501TIP3   OH231917   4.598   3.997  15.688  0.2969  0.0444  0.2091
 3501TIP3    H131918   4.617   3.968  15.777  0.4903  0.3585  0.2727
 3501TIP3    H231919   4.649   3.940  15.632 -0.2158 -0.4839  0.2722
 3502TIP3   OH231920   2.378   3.539   0.485 -0.5015  0.0350  0.1550
 3502TIP3    H131921   2.297   3.568   0.527  0.2747  0.3827  1.4769
 3502TIP3    H231922   2.421   3.620   0.457 -0.0215 -0.0585  0.6091
 3503TIP3   OH231923   0.568   6.123  12.679 -0.2894  0.2308  0.4689
 3503TIP3    H131924   0.564   6.208  12.723 -2.0472  1.2345 -1.4672
 3503TIP3    H231925   0.573   6.144  12.586  0.1070 -1.8079 -0.0222
 3504TIP3   OH231926   1.596   3.108   2.027  0.3168 -0.1965 -0.7066
 3504TIP3    H131927   1.519   3.051   2.034 -0.1271  0.5217  0.7524
 3504TIP3    H231928   1.560   3.194   2.005  0.8418 -0.1296 -1.3366
 3505TIP3   OH231929   1.636   0.595   2.642 -0.0207 -0.2361 -0.2545
 3505TIP3    H131930   1.700   0.542   2.688 -1.2043 -1.3411  0.1617
 3505TIP3    H231931   1.672   0.684   2.644  0.7090 -0.5460  1.4020
 3506TIP3   OH231932   1.162   2.084  15.079 -0.3787  0.7093  0.5816
 3506TIP3    H131933   1.095   2.091  15.011 -0.6448 -0.2088  0.7361
 3506TIP3    H231934   1.210   2.004  15.057 -0.9193  0.0044  1.8563
 3507TIP3   OH231935   4.022   0.294  16.526 -0.3900 -0.3126 -0.3440
 3507TIP3    H131936   4.068   0.378  16.534 -0.4967 -0.0766 -1.8933
 3507TIP3    H231937   4.091   0.228  16.527 -0.2295 -0.1431 -0.1932
 3508TIP3   OH231938   0.842   2.705   1.908 -0.2264 -0.0189  0.6406
 3508TIP3    H131939   0.791   2.644   1.854 -0.7463 -0.3685  1.4960
 3508TIP3    H231940   0.842   2.786   1.858 -2.1833  0.1833  0.8604
 3509TIP3   OH231941   5.646   6.136  15.097  0.1785 -0.3165  0.1290
 3509TIP3    H131942   5.707   6.171  15.162 -0.0232 -0.1445  0.2263
 3509TIP3    H231943   5.660   6.190  15.019  0.9985 -1.0364 -0.2463
 3510TIP3   OH231944   6.545   2.518  13.119 -0.3737  0.1113 -0.5317
 3510TIP3    H131945   6.524   2.605  13.085  0.2026  0.3164 -0.3626
 3510TIP3    H231946   6.600   2.534  13.195  0.8538 -0.4258 -1.2688
 3511TIP3   OH231947   0.556   4.243  13.574 -0.4716 -0.0302 -0.4286
 3511TIP3    H131948   0.601   4.326  13.590 -2.1807  1.1006 -1.2793
 3511TIP3    H231949   0.579   4.220  13.484  1.5608 -1.5500  0.3967
 3512TIP3   OH231950   5.239   5.491  12.568  0.0695 -0.0768  0.2306
 3512TIP3    H131951   5.238   5.406  12.611  1.0967 -0.4263 -0.4066
 3512TIP3    H231952   5.313   5.487  12.508 -1.0111  0.5701 -1.2151
 3513TIP3   OH231953   3.954   4.462   0.692 -0.1595 -0.5817  0.3243
 3513TIP3    H131954   4.034   4.417   0.668 -0.0603 -0.0035 -0.4473
 3513TIP3    H231955   3.956   4.465   0.788  0.5241 -0.9441  0.3250
 3514TIP3   OH231956   2.043   0.052   5.228  0.9776 -0.2692 -0.5502
 3514TIP3    H131957   2.062   0.129   5.173 -0.2326  0.6432  0.2636
 3514TIP3    H231958   2.027   0.088   5.315 -0.1473 -1.3794 -0.2666
 3515TIP3   OH231959   0.180   2.091  12.607  0.2927  0.1571 -0.0389
 3515TIP3    H131960   0.199   2.059  12.695 -0.1007  1.2116  0.4404
 3515TIP3    H231961   0.148   2.180  12.619  0.1628  0.3008 -1.2459
 3516TIP3   OH231962   0.231   2.920   1.912  0.7363  0.0188  0.0158
 3516TIP3    H131963   0.155   2.901   1.857  1.2633  0.5664 -0.9373
 3516TIP3    H231964   0.260   2.835   1.944  0.5034 -0.3352 -0.6955
 3517TIP3   OH231965   0.135   2.893   5.016  0.6205  0.7623  0.4264
 3517TIP3    H131966   0.205   2.882   5.080  0.6933  1.5818  0.4924
 3517TIP3    H231967   0.143   2.984   4.986 -0.5588  0.9461  0.6233
 3518TIP3   OH231968   5.032   0.502  11.631 -0.4841  0.1504 -0.2426
 3518TIP3    H131969   5.126   0.511  11.616 -0.5272  0.0036 -0.6092
 3518TIP3    H231970   5.010   0.575  11.689 -0.4623  1.3105 -1.6203
 3519TIP3   OH231971   5.705   5.867  15.458  0.0026  0.2303  0.2254
 3519TIP3    H131972   5.697   5.771  15.454  1.6799  0.0865 -0.6069
 3519TIP3    H231973   5.716   5.894  15.367  0.6100  1.0952  0.5447
 3520TIP3   OH231974   3.497   5.505   0.530 -0.0447 -0.0996  0.0058
 3520TIP3    H131975   3.589   5.494   0.555  0.5836  2.3662 -0.8479
 3520TIP3    H231976   3.455   5.422   0.552  2.3953 -1.3165  0.3804
 3521TIP3   OH231977   1.175   1.035   5.380 -0.5794 -0.2031 -0.5905
 3521TIP3    H131978   1.196   1.101   5.445 -0.0548  0.6245 -1.5649
 3521TIP3    H231979   1.099   1.069   5.333 -2.5174 -1.9123  1.1038
 3522TIP3   OH231980   5.402   2.809  10.943 -0.2205 -0.1751  0.2867
 3522TIP3    H131981   5.377   2.735  10.999 -0.7447 -0.3365 -0.1513
 3522TIP3    H231982   5.482   2.844  10.984  0.4591 -1.4295  0.0850
 3523TIP3   OH231983   0.429   5.980  13.366  0.4592  0.5329 -0.4850
 3523TIP3    H131984   0.457   5.911  13.306 -0.6694  1.1347 -1.7778
 3523TIP3    H231985   0.509   6.027  13.389  1.0434 -0.3315 -0.7131
 3524TIP3   OH231986   0.247   5.108   3.917  0.1506  0.0829  0.2604
 3524TIP3    H131987   0.310   5.153   3.974  1.2353 -0.3292 -0.5648
 3524TIP3    H231988   0.169   5.162   3.920  0.4744  0.5161  1.4726
 3525TIP3   OH231989   5.843   4.536  16.558 -0.3157  0.1829 -0.1745
 3525TIP3    H131990   5.757   4.504  16.586 -0.3092 -0.6508 -1.0567
 3525TIP3    H231991   5.901   4.516  16.632 -0.5580 -0.7466 -0.2271
 3526TIP3   OH231992   2.078   3.498  14.433  0.4124  0.3636  0.2533
 3526TIP3    H131993   2.048   3.478  14.345 -2.5337  0.1843  1.1965
 3526TIP3    H231994   2.140   3.570  14.422 -0.7386  1.0864 -1.8572
 3527TIP3   OH231995   4.524   1.796  11.530 -0.6096  0.3072 -0.0016
 3527TIP3    H131996   4.489   1.862  11.470 -0.0960  1.2571  0.7085
 3527TIP3    H231997   4.568   1.733  11.473 -1.9867 -0.0039 -0.7688
 3528TIP3   OH231998   2.042   1.961  11.723 -0.1795 -0.0946 -0.0188
 3528TIP3    H131999   1.950   1.936  11.728  0.4282 -2.7410 -0.8824
 3528TIP3    H232000   2.068   1.941  11.633  2.1381 -3.1017  1.1624
 3529TIP3   OH232001   4.236   4.308   0.948 -0.3099  0.2134  0.1039
 3529TIP3    H132002   4.276   4.241   0.894 -0.4984  0.2204 -0.0475
 3529TIP3    H232003   4.300   4.325   1.017  0.5190  1.1500 -0.8583
 3530TIP3   OH232004   2.266   0.715  10.645 -0.5097  0.0233  0.3166
 3530TIP3    H132005   2.343   0.701  10.590 -1.3626  1.2964 -1.3023
 3530TIP3    H232006   2.246   0.628  10.681  1.3361 -0.4284  0.3607
 3531TIP3   OH232007   2.288   3.644   4.772 -0.3682  0.2107  0.2692
 3531TIP3    H132008   2.212   3.587   4.785  0.9914 -2.3699 -2.0962
 3531TIP3    H232009   2.266   3.696   4.695  0.6319 -1.4282 -1.1912
 3532TIP3   OH232010   4.289   6.507  14.943 -0.4033  0.0994  0.4751
 3532TIP3    H132011   4.223   6.438  14.944 -0.4144  0.1137  0.7718
 3532TIP3    H232012   4.328   6.504  15.031  1.3990 -1.2677 -0.3160
 3533TIP3   OH232013   6.015   0.647   1.297 -0.0190 -0.4331  0.2376
 3533TIP3    H132014   5.935   0.690   1.327 -0.3678  1.6322 -3.1085
 3533TIP3    H232015   6.003   0.555   1.319 -4.1706 -0.5450 -1.5544
 3534TIP3   OH232016   1.069   1.140   2.897  0.2093  0.0237 -0.2060
 3534TIP3    H132017   1.052   1.052   2.930 -4.1850  0.4576 -0.6712
 3534TIP3    H232018   1.105   1.127   2.810 -0.6288 -1.3185 -0.3752
 3535TIP3   OH232019   5.469   4.200   4.495 -0.0391 -0.0810 -0.3763
 3535TIP3    H132020   5.389   4.243   4.465 -0.0926  0.1986  0.1627
 3535TIP3    H232021   5.480   4.229   4.585 -0.0275 -1.1446 -0.0242
 3536TIP3   OH232022   5.891   6.312   6.474 -0.3243 -0.0091  0.2885
 3536TIP3    H132023   5.914   6.248   6.406  1.7099 -0.0873  0.9973
 3536TIP3    H232024   5.909   6.266   6.556 -0.7806  0.7947  0.8417
 3537TIP3   OH232025   3.080   3.849   5.966 -0.1289  0.6071  0.3488
 3537TIP3    H132026   3.009   3.785   5.975  2.5408 -2.6314  0.2248
 3537TIP3    H232027   3.086   3.889   6.053 -0.5490 -0.9007  1.1196
 3538TIP3   OH232028   1.449   4.374  14.793  0.0462  0.3534 -0.2257
 3538TIP3    H132029   1.380   4.440  14.807  0.3875  0.8107 -0.6952
 3538TIP3    H232030   1.456   4.330  14.878 -1.0961  0.0314 -0.2715
 3539TIP3   OH232031   1.461   2.113  15.663 -0.4255 -0.1839 -0.1997
 3539TIP3    H132032   1.441   2.122  15.756  0.7009 -2.4192  0.3349
 3539TIP3    H232033   1.396   2.051  15.630 -2.6140  2.6637 -1.6744
 3540TIP3   OH232034   5.587   5.051  15.327  0.2087 -0.6020 -0.2918
 3540TIP3    H132035   5.571   5.145  15.337  0.6662 -0.6511  1.0348
 3540TIP3    H232036   5.678   5.039  15.355  0.8624 -1.1518 -2.4513
 3541TIP3   OH232037   3.935   5.324   1.016 -0.3015 -0.2087  0.1554
 3541TIP3    H132038   3.936   5.235   0.981  0.1395 -0.3127  0.4216
 3541TIP3    H232039   4.003   5.324   1.083 -0.1614  0.3860  0.0184
 3542TIP3   OH232040   2.755   2.832   5.708 -0.0055  0.4587  0.1867
 3542TIP3    H132041   2.742   2.904   5.771  0.3237 -1.4842  2.6230
 3542TIP3    H232042   2.839   2.794   5.732 -0.3297 -0.9720 -0.8213
 3543TIP3   OH232043   2.878   5.144   0.836 -0.2833  0.0260  0.5778
 3543TIP3    H132044   2.883   5.085   0.760  3.5349 -0.8662  1.2930
 3543TIP3    H232045   2.876   5.085   0.911  0.4430  0.8086  1.2297
 3544TIP3   OH232046   1.831   6.602   1.637 -0.2095 -0.2999  0.0545
 3544TIP3    H132047   1.915   6.588   1.592  0.1151 -1.6032  0.9925
 3544TIP3    H232048   1.856   6.632   1.725 -0.7894  0.7699 -0.1269
 3545TIP3   OH232049   4.872   5.768   6.017 -0.1097  0.1284 -0.1268
 3545TIP3    H132050   4.828   5.718   5.949 -1.1856  1.4961 -0.4903
 3545TIP3    H232051   4.910   5.702   6.075 -2.2714 -1.1224 -0.0453
 3546TIP3   OH232052   5.227   0.349  11.983  0.4710  0.2577 -0.4147
 3546TIP3    H132053   5.201   0.284  11.919 -0.8367  1.4643 -1.1828
 3546TIP3    H232054   5.144   0.386  12.015  1.1565  1.8268 -0.3335
 3547TIP3   OH232055   4.935   0.161  11.399  1.0378 -0.2812 -0.1705
 3547TIP3    H132056   5.026   0.190  11.405  0.7608  0.6566 -0.4078
 3547TIP3    H232057   4.896   0.184  11.484  0.9531 -0.4443 -0.1638
 3548TIP3   OH232058   2.510   3.345  12.538  0.3629 -0.5082  0.0616
 3548TIP3    H132059   2.591   3.365  12.490  0.6216  1.5744  1.2766
 3548TIP3    H232060   2.539   3.324  12.627 -0.3602 -1.0823  0.1774
 3549TIP3   OH232061   2.464   1.216   4.914 -0.1914  0.2920  0.6060
 3549TIP3    H132062   2.546   1.166   4.915 -0.3547  0.0136  0.3610
 3549TIP3    H232063   2.463   1.260   4.828 -0.7134 -0.4184  0.2313
 3550TIP3   OH232064   2.616   0.693  10.885 -0.3760 -0.4660 -0.1850
 3550TIP3    H132065   2.594   0.602  10.901  0.0774 -0.6524 -0.6043
 3550TIP3    H232066   2.535   0.741  10.904 -0.6999 -0.9793 -0.2485
 3551TIP3   OH232067   6.422   4.660   1.958 -0.6108 -0.3097 -0.5069
 3551TIP3    H132068   6.515   4.681   1.949 -0.8066  0.0848 -1.9459
 3551TIP3    H232069   6.418   4.565   1.948 -0.2276 -0.5267  1.1104
 3552TIP3   OH232070   1.845   5.734   1.954  0.6379  0.0311 -0.4568
 3552TIP3    H132071   1.762   5.766   1.919  0.1537  0.3232  0.9152
 3552TIP3    H232072   1.821   5.659   2.009  1.2111  0.4415  0.3755
 3553TIP3   OH232073   6.110   1.637   3.507 -0.0265  0.0629 -0.1522
 3553TIP3    H132074   6.124   1.602   3.419 -1.6696  0.7171 -0.7130
 3553TIP3    H232075   6.150   1.573   3.566  1.0447 -0.4105 -1.3702
 3554TIP3   OH232076   5.508   2.940   4.143 -0.7729  0.4858 -0.7074
 3554TIP3    H132077   5.567   2.868   4.165  0.2778  1.0133 -1.7246
 3554TIP3    H232078   5.421   2.900   4.143 -0.2461 -0.6961 -0.8858
 3555TIP3   OH232079   0.058   0.146   5.142 -0.2659  0.1605 -0.5914
 3555TIP3    H132080   0.046   0.228   5.094 -1.3225 -0.4441 -1.4124
 3555TIP3    H232081   0.048   0.170   5.234  0.9097  1.1856 -0.6984
 3556TIP3   OH232082   1.924   6.274  13.810  0.4963  0.5190  0.2813
 3556TIP3    H132083   1.913   6.182  13.790 -0.7075  0.7696 -0.3186
 3556TIP3    H232084   1.888   6.320  13.734  1.5232  1.4815  0.3509
 3557TIP3   OH232085   2.714   2.449  16.439 -0.1856 -0.2529  0.4520
 3557TIP3    H132086   2.737   2.382  16.375 -1.6989 -0.3998  0.0313
 3557TIP3    H232087   2.650   2.407  16.497  0.8010  0.0272  1.7869
 3558TIP3   OH232088   1.724   2.340  16.473  0.1202 -0.1017  0.0187
 3558TIP3    H132089   1.720   2.432  16.497  1.9738  0.0068  0.0224
 3558TIP3    H232090   1.660   2.298  16.531  1.3176  0.7797  2.0962
 3559TIP3   OH232091   6.568   4.950   2.505 -0.4169  0.1559  0.2731
 3559TIP3    H132092   6.540   5.018   2.443  0.7489  0.4917  0.0896
 3559TIP3    H232093   6.588   4.999   2.585  2.1102  0.3232 -0.3755
 3560TIP3   OH232094   0.568   3.836   5.028  0.3827 -0.2017 -0.1134
 3560TIP3    H132095   0.571   3.744   5.053  1.0368 -0.6593 -1.7411
 3560TIP3    H232096   0.560   3.835   4.932 -2.6309  1.4272 -0.0024
 3561TIP3   OH232097   0.821   6.329  13.341 -0.1214 -0.0892  0.2115
 3561TIP3    H132098   0.779   6.316  13.256 -0.5563 -0.4881  0.4822
 3561TIP3    H232099   0.805   6.422  13.361 -0.7628 -0.2030  0.2497
 3562TIP3   OH232100   4.047   0.176   5.143 -0.1819 -0.1085 -0.2210
 3562TIP3    H132101   4.142   0.186   5.154 -0.2114  1.4730 -1.1603
 3562TIP3    H232102   4.016   0.263   5.119 -1.9522 -0.5089  0.4486
 3563TIP3   OH232103   3.663   1.947   3.252  0.2321  0.2779  0.2216
 3563TIP3    H132104   3.697   2.015   3.310  0.2659 -1.2209  2.0599
 3563TIP3    H232105   3.698   1.865   3.287 -1.4131 -0.8821 -0.6822
 3564TIP3   OH232106   2.113   5.244  14.045 -0.3302  0.4180 -0.2825
 3564TIP3    H132107   2.079   5.332  14.059 -0.2484  0.3545  0.3347
 3564TIP3    H232108   2.128   5.209  14.133  1.1146  0.3706 -0.5204
 3565TIP3   OH232109   0.397   1.611  15.777  0.0223  0.0785 -0.1675
 3565TIP3    H132110   0.311   1.585  15.746 -0.4857  2.4661 -1.0170
 3565TIP3    H232111   0.458   1.551  15.735 -1.2056 -2.0672  0.9537
 3566TIP3   OH232112   0.992   3.406  15.660 -0.4561 -0.1805  0.0659
 3566TIP3    H132113   0.973   3.479  15.719  2.0650 -0.9247  1.9433
 3566TIP3    H232114   0.932   3.337  15.688 -0.2647 -0.0557  0.7974
 3567TIP3   OH232115   2.711   4.547  17.184  0.0279 -0.1276  0.2317
 3567TIP3    H132116   2.665   4.606  17.244 -1.2010 -1.1998  0.3864
 3567TIP3    H232117   2.746   4.605  17.116 -1.8769  0.7393 -0.0847
 3568TIP3   OH232118   6.062   2.638  13.246 -0.4191 -0.7777 -0.1719
 3568TIP3    H132119   6.093   2.565  13.191 -0.0372  0.0264 -1.0502
 3568TIP3    H232120   5.979   2.664  13.206 -1.1062 -1.4140  0.7909
 3569TIP3   OH232121   2.875   0.028  14.284  0.0189 -0.2931  0.0060
 3569TIP3    H132122   2.933  -0.043  14.257  1.2217  0.2322  1.1225
 3569TIP3    H232123   2.787  -0.008  14.272  0.5819 -2.3339  1.4293
 3570TIP3   OH232124   5.489   4.691  16.566  0.3114 -0.4597 -0.1777
 3570TIP3    H132125   5.568   4.691  16.513  0.0547  1.1341 -0.6283
 3570TIP3    H232126   5.417   4.681  16.503 -0.0081  1.6518 -0.2357
 3571TIP3   OH232127   4.347   1.719  10.901 -0.3633  0.4243  0.8926
 3571TIP3    H132128   4.408   1.675  10.960  0.9888 -0.7642 -1.2405
 3571TIP3    H232129   4.324   1.801  10.945  2.6609  0.8447  1.8613
 3572TIP3   OH232130   5.013   3.058  11.800  0.2214 -0.2574  0.5720
 3572TIP3    H132131   4.978   3.076  11.712  1.4331 -1.5776 -0.2406
 3572TIP3    H232132   5.000   3.139  11.849 -1.2741  0.2265 -0.5621
 3573TIP3   OH232133   0.566   6.073  15.050  0.3536  0.2273 -0.2187
 3573TIP3    H132134   0.649   6.050  15.092  1.2422 -0.1392 -2.0647
 3573TIP3    H232135   0.590   6.137  14.983 -1.3666  2.7457  1.3939
 3574TIP3   OH232136   1.328   3.031   3.425  0.2672  0.4786 -0.2036
 3574TIP3    H132137   1.393   2.968   3.455 -0.0228  0.5573  0.5960
 3574TIP3    H232138   1.245   2.983   3.429  0.3623  0.0311 -2.2094
 3575TIP3   OH232139   6.029   6.451   4.839 -0.3168 -1.1474 -0.4227
 3575TIP3    H132140   5.942   6.450   4.879 -0.7063  0.0885 -1.1564
 3575TIP3    H232141   6.078   6.516   4.890 -0.1560 -1.0954 -0.6406
 3576TIP3   OH232142   1.481   2.778  16.836  0.4403  0.2949  0.3541
 3576TIP3    H132143   1.430   2.699  16.815 -0.7995  1.5386 -1.7051
 3576TIP3    H232144   1.560   2.745  16.877 -1.0433 -1.8677  1.6647
 3577TIP3   OH232145   5.723   3.665   1.510 -0.2311 -0.0991  0.1390
 3577TIP3    H132146   5.751   3.735   1.452 -0.3358 -0.5825 -0.4970
 3577TIP3    H232147   5.801   3.613   1.526 -0.3536 -0.3620 -0.1187
 3578TIP3   OH232148   0.040   2.873  16.755 -0.0379  0.2543 -0.4539
 3578TIP3    H132149   0.015   2.959  16.787 -0.6369  0.7823 -2.2145
 3578TIP3    H232150  -0.042   2.831  16.731  0.2704 -0.7106  0.1243
 3579TIP3   OH232151   4.216   1.695  12.033  0.5610 -0.1195  0.7512
 3579TIP3    H132152   4.308   1.667  12.035  0.3527 -1.1373 -1.3096
 3579TIP3    H232153   4.176   1.643  11.963 -1.3376  1.0976  0.8392
 3580TIP3   OH232154   0.676   2.840  16.891  0.4085 -0.0443  0.1407
 3580TIP3    H132155   0.625   2.864  16.812  0.6257  0.3527  0.1161
 3580TIP3    H232156   0.610   2.813  16.954  0.2489 -0.6119 -0.2628
 3581TIP3   OH232157   3.984   4.402   0.975 -0.7346  0.0979  0.1071
 3581TIP3    H132158   3.914   4.341   0.999 -0.9836 -0.1407 -1.1515
 3581TIP3    H232159   4.061   4.347   0.964 -0.9317  0.0029 -0.9110
 3582TIP3   OH232160   5.850   0.544  15.048  0.3407 -0.0639  0.3303
 3582TIP3    H132161   5.787   0.592  15.102 -1.5947  0.4112 -2.1528
 3582TIP3    H232162   5.866   0.601  14.973  1.3998 -1.4858 -0.5807
 3583TIP3   OH232163   4.737   3.569   4.474 -0.8703  0.1057 -0.3102
 3583TIP3    H132164   4.739   3.497   4.537  0.3648 -0.6736 -1.2018
 3583TIP3    H232165   4.820   3.615   4.488 -1.0565  0.5533 -0.6504
 3584TIP3   OH232166   0.378   0.188  10.897  0.1610 -0.1297  0.4049
 3584TIP3    H132167   0.378   0.137  10.816  0.3841 -1.0615  0.9763
 3584TIP3    H232168   0.450   0.151  10.949 -0.1687  0.2570  1.1525
 3585TIP3   OH232169   2.661   0.926   5.330  0.2689  0.0984  0.6192
 3585TIP3    H132170   2.632   0.932   5.238 -0.1700 -0.7440  0.6882
 3585TIP3    H232171   2.583   0.947   5.381 -0.4049 -2.4696  0.8144
 3586TIP3   OH232172   2.917   4.246   4.993  0.1802 -0.3818  0.0643
 3586TIP3    H132173   2.938   4.190   4.918  1.3804  2.1442 -1.6347
 3586TIP3    H232174   3.000   4.254   5.041  0.5362  1.3156 -0.7578
 3587TIP3   OH232175   4.559   4.543   0.912 -0.3871  0.0926  0.7944
 3587TIP3    H132176   4.550   4.526   0.818 -0.7639  1.0064  0.6605
 3587TIP3    H232177   4.533   4.634   0.923 -1.7955 -0.4027  1.9930
 3588TIP3   OH232178   5.419   4.250  14.987  0.2227 -0.7113  0.1707
 3588TIP3    H132179   5.414   4.171  15.040  2.3458 -0.9076  0.1632
 3588TIP3    H232180   5.429   4.321  15.051 -4.0060 -0.0042  0.3492
 3589TIP3   OH232181   1.415   2.586  15.819  1.0656 -0.3141  0.0505
 3589TIP3    H132182   1.472   2.663  15.811  2.6443 -1.4667 -0.2301
 3589TIP3    H232183   1.444   2.528  15.749 -0.6927 -0.8284 -0.2938
 3590TIP3   OH232184   1.301   6.694   2.071 -0.2856  0.0101 -0.0363
 3590TIP3    H132185   1.375   6.753   2.085  0.0714 -0.3182 -0.5097
 3590TIP3    H232186   1.277   6.665   2.159 -0.8032  1.2472  0.2619
 3591TIP3   OH232187   3.949   4.678  16.082  0.0159  0.2812 -0.3045
 3591TIP3    H132188   3.911   4.632  16.007 -1.1269 -0.4661  0.6982
 3591TIP3    H232189   3.941   4.616  16.155  0.9021  1.0666  0.4905
 3592TIP3   OH232190   5.947   0.626  13.520  0.3088 -0.1172 -0.0541
 3592TIP3    H132191   5.970   0.546  13.472  2.7214  0.3014  0.2858
 3592TIP3    H232192   6.008   0.628  13.594 -0.3386  1.5675  0.4850
 3593TIP3   OH232193   4.915   6.704   6.144 -0.1775 -0.1467  0.4176
 3593TIP3    H132194   5.004   6.695   6.178 -0.0549 -2.5180 -0.3953
 3593TIP3    H232195   4.865   6.636   6.188 -0.8967 -0.7622 -1.2864
 3594TIP3   OH232196   4.760   3.424   0.711 -0.4851  0.0049  0.1423
 3594TIP3    H132197   4.707   3.367   0.655  0.4743 -1.2063  0.4255
 3594TIP3    H232198   4.838   3.445   0.659 -1.0136  1.4508 -0.1236
 3595TIP3   OH232199   2.755   1.810  16.278  0.2900 -0.4218  0.3986
 3595TIP3    H132200   2.671   1.843  16.247 -0.1168 -1.6488  0.1431
 3595TIP3    H232201   2.782   1.872  16.346 -0.1271  0.7659 -0.4981
 3596TIP3   OH232202   6.320   5.628  15.818 -0.3390 -0.1029 -0.0577
 3596TIP3    H132203   6.263   5.692  15.859 -0.7051  0.1319 -0.9099
 3596TIP3    H232204   6.401   5.675  15.801 -1.0460  0.5468 -1.8595
 3597TIP3   OH232205   3.655   2.774   1.300 -0.1923 -0.4630  0.3347
 3597TIP3    H132206   3.574   2.816   1.272 -0.2408 -1.4058 -1.0797
 3597TIP3    H232207   3.724   2.836   1.275 -0.4631  0.4391  1.7464
 3598TIP3   OH232208   4.275   6.753  15.110 -1.1043  0.4281  0.0639
 3598TIP3    H132209   4.238   6.670  15.082 -2.1020  0.8452  0.0914
 3598TIP3    H232210   4.294   6.741  15.203 -0.6710  0.0342 -0.0748
 3599TIP3   OH232211   3.402   1.030  11.875  0.7484  0.2856 -0.2021
 3599TIP3    H132212   3.480   1.041  11.820 -0.7568 -0.3913 -2.6740
 3599TIP3    H232213   3.374   0.940  11.857 -0.3323  0.3589  1.0280
 3600TIP3   OH232214   5.820   1.969   1.602  0.3684  0.4951  0.1722
 3600TIP3    H132215   5.730   1.998   1.585 -1.2366 -3.6789  0.3004
 3600TIP3    H232216   5.870   2.000   1.527 -1.6829  0.9453 -1.0810
 3601TIP3   OH232217   4.864   0.509  11.405  0.2558  0.1556  0.1056
 3601TIP3    H132218   4.938   0.509  11.466 -1.3494 -0.6487  2.1721
 3601TIP3    H232219   4.842   0.602  11.396  0.1932  0.2697  1.2103
 3602TIP3   OH232220   6.406   6.714   5.343  0.0170  0.1294 -0.2006
 3602TIP3    H132221   6.425   6.651   5.412 -0.4402 -1.0916 -1.1397
 3602TIP3    H232222   6.439   6.797   5.376 -0.2362 -0.4079  1.4825
 3603TIP3   OH232223   3.858   3.461   2.760  0.3253  0.4867  0.1245
 3603TIP3    H132224   3.771   3.497   2.747  0.0584  0.4486  1.6430
 3603TIP3    H232225   3.908   3.532   2.799  0.8191  0.3366 -0.2225
 3604TIP3   OH232226   5.329   1.553  13.532  0.0218  0.4185  0.0935
 3604TIP3    H132227   5.285   1.569  13.615 -0.0032  1.7078 -0.1447
 3604TIP3    H232228   5.384   1.477  13.548 -1.4632 -0.5696  0.7127
 3605TIP3   OH232229   1.513   0.870   0.135  0.3563  0.0751 -0.6919
 3605TIP3    H132230   1.607   0.878   0.123  0.4831  1.1592  0.7699
 3605TIP3    H232231   1.498   0.894   0.227 -1.1867 -1.4588 -0.4934
 3606TIP3   OH232232   1.047   5.004  10.947  0.2356 -0.0457 -0.5781
 3606TIP3    H132233   1.077   5.015  10.857 -0.0236  1.3171 -0.5119
 3606TIP3    H232234   0.958   5.039  10.948  0.7953  1.4670  0.5402
 3607TIP3   OH232235   1.263   3.956   5.634  0.2896 -0.2499  0.9511
 3607TIP3    H132236   1.285   3.942   5.726  0.2460  2.2095  1.4074
 3607TIP3    H232237   1.311   4.035   5.610  0.5147 -1.0085 -1.2513
 3608TIP3   OH232238   4.262   0.175   0.185 -0.6095 -0.5103 -0.3194
 3608TIP3    H132239   4.285   0.261   0.222 -1.7561 -0.9060  1.4078
 3608TIP3    H232240   4.273   0.186   0.090 -2.9389  2.2805 -0.4015
 3609TIP3   OH232241   0.276   0.586   5.116  0.1745  0.5012 -0.2071
 3609TIP3    H132242   0.321   0.642   5.053  0.0833 -1.2244 -1.8578
 3609TIP3    H232243   0.183   0.604   5.102  0.1401 -0.1345 -0.8251
 3610TIP3   OH232244   3.379   3.262  16.759 -0.1145 -0.0324 -0.2559
 3610TIP3    H132245   3.363   3.246  16.666  0.7403 -0.8147 -0.2824
 3610TIP3    H232246   3.450   3.326  16.760  1.0308 -1.2684 -0.1622
 3611TIP3   OH232247   3.762   6.523   3.678  0.1741 -0.1993 -0.4580
 3611TIP3    H132248   3.706   6.600   3.691 -0.2083 -0.1545 -2.1575
 3611TIP3    H232249   3.738   6.464   3.749  0.9974  1.5129  1.3276
 3612TIP3   OH232250   5.700   3.192  14.365  0.2595 -0.1683 -0.7612
 3612TIP3    H132251   5.706   3.097  14.351 -0.8820 -0.2016 -1.1293
 3612TIP3    H232252   5.621   3.218  14.317 -2.5834  0.1070  3.4753
 3613TIP3   OH232253   2.977   3.078  13.398  0.2013  0.0230 -0.3981
 3613TIP3    H132254   2.956   2.988  13.421  0.2855 -0.1581 -1.0019
 3613TIP3    H232255   3.036   3.108  13.467 -1.4084  0.2863  0.8991
 3614TIP3   OH232256   4.733   0.709  16.382  0.2350  0.2561 -0.7166
 3614TIP3    H132257   4.694   0.636  16.334  1.4392  0.2755 -1.7757
 3614TIP3    H232258   4.827   0.692  16.379  0.4293  1.0251  0.4206
 3615TIP3   OH232259   0.180   3.460  13.795 -0.4879 -0.1207 -0.0513
 3615TIP3    H132260   0.122   3.525  13.754 -1.2839  0.1975  1.4782
 3615TIP3    H232261   0.268   3.488  13.772 -0.7653  2.0594  1.2293
 3616TIP3   OH232262   5.425   6.244  11.865  0.3471  0.3014 -0.1531
 3616TIP3    H132263   5.518   6.221  11.862  0.2857 -0.1338  0.8465
 3616TIP3    H232264   5.384   6.185  11.802  0.5257 -0.7148  0.6507
 3617TIP3   OH232265   5.662   1.126   1.788 -0.1403  0.0092  0.6449
 3617TIP3    H132266   5.749   1.088   1.803  0.4176  0.6491 -0.7945
 3617TIP3    H232267   5.608   1.052   1.761  0.3152 -0.1650  0.2025
 3618TIP3   OH232268   1.126   1.040   0.501  0.2039  0.2235  0.0370
 3618TIP3    H132269   1.044   1.007   0.537  1.1176 -1.4266  0.7222
 3618TIP3    H232270   1.159   1.102   0.567  0.3463 -0.4232  0.5754
 3619TIP3   OH232271   0.243   6.644   5.865  0.1449 -0.3329  0.0538
 3619TIP3    H132272   0.273   6.603   5.947  0.8575 -3.5279 -1.6397
 3619TIP3    H232273   0.239   6.572   5.803 -1.4620  1.7921 -2.4866
 3620TIP3   OH232274   3.578   3.700   2.362  0.1031  0.3309  0.0464
 3620TIP3    H132275   3.528   3.781   2.351 -1.5581 -0.6338  0.0978
 3620TIP3    H232276   3.526   3.648   2.423  0.8928 -0.9554 -0.3342
 3621TIP3   OH232277   2.272   5.179   0.484  0.1589 -0.0272  0.3847
 3621TIP3    H132278   2.344   5.200   0.543 -0.7185 -0.2489  1.5996
 3621TIP3    H232279   2.208   5.134   0.540  0.4079 -2.7105 -1.2834
 3622TIP3   OH232280   5.865   6.016  12.613 -0.5554 -0.3653  0.8295
 3622TIP3    H132281   5.955   6.034  12.641 -0.3655 -2.5874  1.8123
 3622TIP3    H232282   5.867   6.027  12.518  0.3041  1.2528  0.9928
 3623TIP3   OH232283   1.926   2.557   1.583  0.1849 -0.7151 -0.1226
 3623TIP3    H132284   1.880   2.634   1.550 -0.2004 -1.5218 -1.5144
 3623TIP3    H232285   1.988   2.534   1.515 -1.0186 -2.7505 -0.6109
 3624TIP3   OH232286   3.659   1.105   2.139 -0.5457  0.1515 -0.2515
 3624TIP3    H132287   3.594   1.129   2.073 -0.2089 -0.6911 -0.9179
 3624TIP3    H232288   3.737   1.080   2.088 -0.7829 -2.0506  0.3345
 3625TIP3   OH232289   0.676   3.971   0.282  0.2776 -0.1366 -0.1747
 3625TIP3    H132290   0.589   3.936   0.302  0.9166 -0.8873  1.4471
 3625TIP3    H232291   0.667   4.066   0.296 -0.6384 -0.0069 -1.4719
 3626TIP3   OH232292   0.885   0.848   0.351 -0.1334 -0.3895  0.2923
 3626TIP3    H132293   0.902   0.936   0.317 -0.3842  0.0935  1.3828
 3626TIP3    H232294   0.828   0.808   0.285 -0.2640  0.3681 -0.0714
 3627TIP3   OH232295   5.452   2.246   3.987 -0.0226  0.7303  0.1362
 3627TIP3    H132296   5.503   2.284   4.058 -0.8094  1.5197  0.3021
 3627TIP3    H232297   5.472   2.300   3.911 -0.4951  0.9707  0.1746
 3628TIP3   OH232298   6.632   3.366  12.866 -0.3488 -0.1342 -0.2602
 3628TIP3    H132299   6.648   3.366  12.960  1.8359  0.0223 -0.5573
 3628TIP3    H232300   6.649   3.276  12.839  0.1047  0.0546 -0.6262
 3629TIP3   OH232301   3.057   0.045   2.010  0.2681 -0.5939  0.2622
 3629TIP3    H132302   3.126   0.111   2.019 -0.2504  0.0778 -0.5456
 3629TIP3    H232303   3.104  -0.037   1.995  0.9045 -0.2508  0.3530
 3630TIP3   OH232304   3.870   4.275   1.936  0.0436  0.2482 -0.0185
 3630TIP3    H132305   3.778   4.249   1.937  0.8372 -2.9796 -0.1097
 3630TIP3    H232306   3.885   4.311   1.849 -1.7922  4.0681  1.0426
 3631TIP3   OH232307   3.432   2.684  14.561  0.4595  0.4802  0.2654
 3631TIP3    H132308   3.438   2.589  14.554  1.1733  0.5506 -0.2565
 3631TIP3    H232309   3.514   2.716  14.523  2.0048  1.1869  3.7885
 3632TIP3   OH232310   5.140   1.482   5.150 -0.2039  0.1946  0.1985
 3632TIP3    H132311   5.166   1.569   5.178 -0.1316  0.7558 -1.5037
 3632TIP3    H232312   5.179   1.471   5.064 -1.5088 -0.8950 -0.3043
 3633TIP3   OH232313   4.518   0.583  11.661 -0.3650 -0.3372  0.0101
 3633TIP3    H132314   4.526   0.490  11.681  1.3800 -0.2307 -0.0170
 3633TIP3    H232315   4.425   0.597  11.648 -0.7042 -1.9928  0.4333
 3634TIP3   OH232316   6.156   5.458   0.781 -0.0358  0.1495  0.6105
 3634TIP3    H132317   6.146   5.493   0.693  1.3242  0.7469  0.6721
 3634TIP3    H232318   6.228   5.508   0.819 -0.7625  0.0946  2.1603
 3635TIP3   OH232319   1.042   5.516   2.160  0.2302  0.4904 -0.4842
 3635TIP3    H132320   1.076   5.426   2.155 -0.6369  0.0757  0.6750
 3635TIP3    H232321   1.032   5.533   2.253  0.3382  1.7925 -0.6962
 3636TIP3   OH232322   3.099   0.834   5.556 -0.3308 -0.7023  0.2192
 3636TIP3    H132323   3.182   0.858   5.515  1.1567 -2.0712  2.2080
 3636TIP3    H232324   3.066   0.917   5.593  0.6624 -0.2983  0.2392
 3637TIP3   OH232325   6.273   4.697  12.123  0.5474  0.5666 -0.3380
 3637TIP3    H132326   6.269   4.714  12.029 -1.5859 -2.2579 -0.8870
 3637TIP3    H232327   6.341   4.630  12.132  0.2094  0.2648  0.0057
 3638TIP3   OH232328   0.768   1.246   0.550  0.6930  0.0992 -0.1780
 3638TIP3    H132329   0.715   1.318   0.516 -0.2000 -0.3581  0.1854
 3638TIP3    H232330   0.856   1.262   0.515  0.1762  0.5154 -1.3667
 3639TIP3   OH232331   2.247   5.979   2.095 -0.0640 -0.7159  0.0375
 3639TIP3    H132332   2.253   6.030   2.175 -0.4452 -0.2902 -0.2028
 3639TIP3    H232333   2.284   6.035   2.027 -0.1281 -0.9096 -0.1604
 3640TIP3   OH232334   0.741   5.448   3.915  0.1222 -0.0721  0.1949
 3640TIP3    H132335   0.652   5.420   3.935  0.6030 -0.8896  1.2985
 3640TIP3    H232336   0.796   5.396   3.974  1.2655  1.0237  0.1258
 3641TIP3   OH232337   1.425   4.238   3.256  0.3956 -0.1915  0.0534
 3641TIP3    H132338   1.427   4.302   3.186 -0.2255  2.0316  1.9354
 3641TIP3    H232339   1.516   4.229   3.283  0.6497 -1.1362 -1.0430
 3642TIP3   OH232340   6.358   1.226  11.947  0.5359 -0.3895  0.0840
 3642TIP3    H132341   6.328   1.157  11.888  1.6789  0.6103 -1.7813
 3642TIP3    H232342   6.305   1.302  11.924 -0.1935 -0.4069  1.5935
 3643TIP3   OH232343   0.213   6.185   4.697 -0.5507  0.5171  0.1072
 3643TIP3    H132344   0.145   6.148   4.640 -0.9270  2.5295 -0.8178
 3643TIP3    H232345   0.195   6.279   4.699  1.8432  1.0432  0.3106
 3644TIP3   OH232346   2.948   0.964   6.022  0.1569 -0.1137 -0.3550
 3644TIP3    H132347   2.903   0.896   6.072 -0.6109  0.7912  0.2012
 3644TIP3    H232348   2.951   1.039   6.081  0.8487  0.3969 -1.0229
 3645TIP3   OH232349   6.254   1.864  17.175 -0.0888  0.2676  0.0080
 3645TIP3    H132350   6.319   1.934  17.177 -1.5346  1.7524 -1.5255
 3645TIP3    H232351   6.298   1.789  17.214  2.5468  1.1812 -0.9914
 3646TIP3   OH232352   1.641   0.383   4.845  0.0060  0.6824  0.4922
 3646TIP3    H132353   1.580   0.452   4.821 -1.0790 -0.6430 -0.8003
 3646TIP3    H232354   1.592   0.328   4.907  0.6421  0.7472  1.0619
 3647TIP3   OH232355   3.033   0.588  15.600 -0.0757  0.0478  0.5785
 3647TIP3    H132356   2.952   0.538  15.589 -0.3852  0.5155  0.7397
 3647TIP3    H232357   3.008   0.679  15.585  0.8944 -0.0088 -1.9284
 3648TIP3   OH232358   3.345   5.471   1.274  0.0240 -0.5927 -0.4103
 3648TIP3    H132359   3.423   5.493   1.324 -0.6237  1.7370 -0.3088
 3648TIP3    H232360   3.301   5.404   1.326  0.7106 -0.1264  0.8103
 3649TIP3   OH232361   6.398   2.895   1.467  0.3613 -0.4593 -0.0141
 3649TIP3    H132362   6.399   2.873   1.373  0.0351  0.8463 -0.3452
 3649TIP3    H232363   6.354   2.821   1.508 -2.2216  0.2666 -1.2793
 3650TIP3   OH232364   0.974   6.737  11.341 -0.4087  0.4111  0.2056
 3650TIP3    H132365   1.068   6.726  11.332 -0.3680  1.4633 -0.8577
 3650TIP3    H232366   0.958   6.730  11.435  0.6329 -0.4314  0.3398
 3651TIP3   OH232367   0.963   4.526  11.831 -0.2074  0.5908  0.1087
 3651TIP3    H132368   0.952   4.622  11.832  2.1266  0.9155 -0.3160
 3651TIP3    H232369   0.874   4.492  11.829 -1.1579  2.7150  2.0893
 3652TIP3   OH232370   2.558   1.952   4.310  0.7136 -0.4591  0.1525
 3652TIP3    H132371   2.619   1.974   4.380  1.9420 -3.1675  0.0450
 3652TIP3    H232372   2.571   2.022   4.245  0.7836  1.1515  1.8283
 3653TIP3   OH232373   2.745   0.241   3.930  0.6281  0.4451  0.1940
 3653TIP3    H132374   2.649   0.242   3.935  0.5544  2.7593 -0.4541
 3653TIP3    H232375   2.764   0.226   3.838  0.8438  1.0410  0.1367
 3654TIP3   OH232376   2.358   2.399   4.784  0.5377 -0.1762 -0.0894
 3654TIP3    H132377   2.345   2.363   4.697 -1.7536 -1.1000  0.5605
 3654TIP3    H232378   2.320   2.334   4.843  1.2972  0.7975  1.5375
 3655TIP3   OH232379   3.276   5.401   4.261  0.0006 -0.1853  0.1909
 3655TIP3    H132380   3.184   5.374   4.253  0.4280 -1.5169 -0.5298
 3655TIP3    H232381   3.280   5.446   4.345 -1.4432  0.4747 -0.0570
 3656TIP3   OH232382   4.686   3.242  14.727  0.3149 -0.3912 -0.2323
 3656TIP3    H132383   4.736   3.196  14.660 -1.2228 -1.5636 -0.6583
 3656TIP3    H232384   4.596   3.242  14.694 -0.4295 -0.6519  1.6275
 3657TIP3   OH232385   6.378   3.510   5.418 -0.0866 -0.1395  0.0761
 3657TIP3    H132386   6.324   3.432   5.408 -0.7535  0.5062 -1.8662
 3657TIP3    H232387   6.337   3.558   5.490 -0.8709 -0.6432 -0.0194
 3658TIP3   OH232388   0.314   5.649  15.693 -0.0665  0.4295  0.0524
 3658TIP3    H132389   0.387   5.587  15.686  0.5218  1.0356  0.6764
 3658TIP3    H232390   0.250   5.618  15.628  0.3669 -0.6134  0.1012
 3659TIP3   OH232391   3.230   2.259  15.005  0.1800 -0.1717  0.0430
 3659TIP3    H132392   3.261   2.309  14.928 -2.2468  0.8011 -0.3943
 3659TIP3    H232393   3.200   2.326  15.066 -1.1662 -1.0229  0.3521
 3660TIP3   OH232394   6.072   6.740   1.694  0.5080  0.1369 -0.3693
 3660TIP3    H132395   6.147   6.799   1.694  1.0680 -0.5666 -0.9705
 3660TIP3    H232396   6.027   6.758   1.611 -0.3469  0.9877  0.2572
 3661TIP3   OH232397   1.540   1.618   4.117 -0.0913  0.1509 -0.5199
 3661TIP3    H132398   1.614   1.589   4.171 -0.2140 -0.5116 -0.7016
 3661TIP3    H232399   1.466   1.620   4.177 -0.3420 -1.0974 -0.7609
 3662TIP3   OH232400   6.620   3.279   0.220 -0.4889  0.6464  0.0452
 3662TIP3    H132401   6.689   3.214   0.227 -0.2788  0.8279 -0.3089
 3662TIP3    H232402   6.606   3.309   0.310 -1.0702 -0.3724  0.3164
 3663TIP3   OH232403   6.688   1.633  15.752 -0.2308 -0.7388 -0.3580
 3663TIP3    H132404   6.723   1.547  15.728  0.5346 -0.8002  0.9098
 3663TIP3    H232405   6.765   1.690  15.756 -0.5807 -0.2894  0.0165
 3664TIP3   OH232406   3.219   2.292   1.515 -0.1284  0.0320 -0.1906
 3664TIP3    H132407   3.261   2.247   1.589  1.6579  2.6646  0.5458
 3664TIP3    H232408   3.125   2.284   1.533  0.2190  1.5400  3.1078
 3665TIP3   OH232409   0.499   0.895  11.501  0.3274  0.3252  0.2520
 3665TIP3    H132410   0.497   0.800  11.504  1.6200  0.2936  0.6228
 3665TIP3    H232411   0.553   0.915  11.424 -1.8200  0.8077 -1.2232
 3666TIP3   OH232412   0.856   1.079   5.380  0.3085  0.4780 -0.0961
 3666TIP3    H132413   0.816   1.000   5.343 -0.6676  0.1955  1.4630
 3666TIP3    H232414   0.826   1.150   5.324  1.3369 -0.2530 -1.6268
 3667TIP3   OH232415   1.794   0.712   5.090 -0.1332 -0.7042  0.0635
 3667TIP3    H132416   1.723   0.707   5.026 -1.0659  2.4545  0.7069
 3667TIP3    H232417   1.851   0.781   5.057 -0.0447  0.2177  2.0263
 3668TIP3   OH232418   3.950   5.213  13.742 -0.4762 -0.3765  0.0299
 3668TIP3    H132419   3.940   5.124  13.776  0.6690 -0.6490 -0.3301
 3668TIP3    H232420   3.964   5.267  13.820 -0.5496 -0.5918  0.1951
 3669TIP3   OH232421   2.665   4.528  14.258  0.4828 -0.3990  0.1521
 3669TIP3    H132422   2.595   4.591  14.275  1.0296  0.1132  0.5574
 3669TIP3    H232423   2.632   4.474  14.187 -0.1929  0.0490  0.1195
 3670TIP3   OH232424   3.792   3.637   2.189  0.6066 -0.0417 -0.1575
 3670TIP3    H132425   3.727   3.652   2.257  0.4819 -0.0254 -0.2788
 3670TIP3    H232426   3.875   3.663   2.228  0.3887  1.0496 -0.3876
 3671TIP3   OH232427   5.406   0.368  13.813  0.0983 -0.3308 -0.0973
 3671TIP3    H132428   5.438   0.289  13.856 -0.6421 -0.8333 -0.4484
 3671TIP3    H232429   5.477   0.395  13.754  0.9145  0.0756  1.0488
 3672TIP3   OH232430   2.888   4.349   2.125 -0.2522 -0.0402  0.0366
 3672TIP3    H132431   2.844   4.276   2.168 -0.2749  0.8891  1.6677
 3672TIP3    H232432   2.866   4.339   2.033 -1.8065 -1.0202  0.4743
 3673TIP3   OH232433   0.971   3.993  15.874  0.7100  0.1864  0.1195
 3673TIP3    H132434   0.994   3.911  15.830 -0.9351 -1.7539  2.5410
 3673TIP3    H232435   0.888   4.019  15.834  1.6690  1.2655 -1.2754
 3674TIP3   OH232436   3.812   5.591  15.910  0.1109  0.3839 -0.1784
 3674TIP3    H132437   3.873   5.622  15.977 -1.1916  0.1911  1.1155
 3674TIP3    H232438   3.789   5.502  15.937 -1.7249  0.9015  0.0840
 3675TIP3   OH232439   5.406   2.274  13.474 -0.0899  0.1692  0.4037
 3675TIP3    H132440   5.352   2.217  13.528  0.5221 -0.8775 -0.0655
 3675TIP3    H232441   5.476   2.218  13.441  1.0098  1.3669  0.5855
 3676TIP3   OH232442   0.208   3.010   3.931 -0.0558 -0.4026 -0.3275
 3676TIP3    H132443   0.160   3.077   3.882  0.6042  0.5896  0.3407
 3676TIP3    H232444   0.296   3.011   3.892  0.0112 -0.7657 -0.1905
 3677TIP3   OH232445   0.950   3.271  16.458 -0.1302 -0.0118  0.5330
 3677TIP3    H132446   0.859   3.271  16.488 -0.7594 -0.9812 -1.1585
 3677TIP3    H232447   0.946   3.309  16.370  1.4865  2.0224  1.2655
 3678TIP3   OH232448   6.659   2.525  14.128 -0.6537 -0.4807  0.2959
 3678TIP3    H132449   6.714   2.578  14.070 -1.7434 -1.2534 -1.5156
 3678TIP3    H232450   6.582   2.579  14.143 -0.0510  0.0319  1.7091
 3679TIP3   OH232451   0.023   6.749  16.977  0.6267  0.1285  0.0279
 3679TIP3    H132452   0.022   6.838  17.011 -2.0060  0.6278 -1.1417
 3679TIP3    H232453  -0.025   6.754  16.895  0.6096 -2.3431 -0.1802
 3680TIP3   OH232454   4.369   1.292  12.486 -0.2829  0.0522  0.0418
 3680TIP3    H132455   4.449   1.312  12.438 -0.1425 -0.5584  0.0064
 3680TIP3    H232456   4.307   1.359  12.459  0.8267  1.8178  1.6716
 3681TIP3   OH232457   0.050   0.184  11.566 -0.6047  0.2803  0.5238
 3681TIP3    H132458   0.043   0.280  11.570 -0.3111  0.2680  1.8427
 3681TIP3    H232459   0.124   0.163  11.623 -0.8355 -0.7523  0.4615
 3682TIP3   OH232460   2.249   2.511  16.175 -0.5931  0.8298 -0.3659
 3682TIP3    H132461   2.160   2.496  16.206  0.1826  0.7762  2.0245
 3682TIP3    H232462   2.304   2.501  16.253  1.5613  0.5028 -1.8390
 3683TIP3   OH232463   3.972   2.228   3.419  0.2910  0.7663  1.1486
 3683TIP3    H132464   3.944   2.138   3.436 -0.3683  1.0366  1.5717
 3683TIP3    H232465   3.890   2.278   3.417  0.4097  1.0079 -1.5068
 3684TIP3   OH232466   3.407   3.184  10.698  0.6668 -0.1501  0.3954
 3684TIP3    H132467   3.346   3.208  10.629  2.9359  0.8039 -1.4080
 3684TIP3    H232468   3.360   3.203  10.779 -1.4264  0.4416 -0.8675
 3685TIP3   OH232469   2.526   6.012   4.828  0.3641  0.1971  0.1569
 3685TIP3    H132470   2.555   6.053   4.909  1.6766  0.5703 -0.4747
 3685TIP3    H232471   2.453   5.955   4.854  0.4027  0.7290  1.4935
 3686TIP3   OH232472   1.482   0.487   1.750  0.3090 -0.2351 -0.2590
 3686TIP3    H132473   1.473   0.463   1.658 -0.4279 -2.2520  0.2674
 3686TIP3    H232474   1.481   0.403   1.796  0.8861  0.7134  1.5752
 3687TIP3   OH232475   1.694   5.938  17.143 -0.3276 -0.5051 -0.4009
 3687TIP3    H132476   1.607   5.907  17.168 -0.6012 -0.8634 -1.6713
 3687TIP3    H232477   1.738   5.859  17.109  0.3799 -0.2675 -0.0458
 3688TIP3   OH232478   2.517   6.748   0.203 -0.3958  0.5486 -0.7910
 3688TIP3    H132479   2.596   6.795   0.231 -0.1311  0.3962 -1.2772
 3688TIP3    H232480   2.445   6.798   0.241 -0.0335  0.0702  0.5962
 3689TIP3   OH232481   3.863   4.756  13.749 -0.0314  0.1887  0.2337
 3689TIP3    H132482   3.777   4.778  13.784 -0.7375 -0.9202 -0.7440
 3689TIP3    H232483   3.896   4.687  13.807 -0.9986 -1.3105 -0.9191
 3690TIP3   OH232484   4.101   5.150   0.638 -0.1644 -0.0344 -0.1563
 3690TIP3    H132485   4.058   5.229   0.607  0.6599 -0.3743 -2.3912
 3690TIP3    H232486   4.078   5.083   0.573 -0.8037 -1.6536  1.6394
 3691TIP3   OH232487   5.897   5.557   4.329  0.0819 -0.5876 -0.7487
 3691TIP3    H132488   5.828   5.556   4.263  0.0590 -0.8760 -0.7201
 3691TIP3    H232489   5.892   5.471   4.371 -1.1179  0.2286  0.8957
 3692TIP3   OH232490   5.480   5.983   3.451 -0.0148  0.1772 -0.5946
 3692TIP3    H132491   5.432   6.064   3.471 -0.0111  0.6263 -2.3021
 3692TIP3    H232492   5.417   5.928   3.406 -1.3514 -2.5967  4.0363
 3693TIP3   OH232493   5.511   2.652   3.243 -0.2301 -0.3688 -0.3088
 3693TIP3    H132494   5.430   2.657   3.193 -0.9811  2.2616  1.0058
 3693TIP3    H232495   5.490   2.595   3.317 -0.6622 -0.2684 -0.3514
 3694TIP3   OH232496   6.690   4.614   0.896  0.1435 -0.2252  0.4712
 3694TIP3    H132497   6.640   4.560   0.836  0.9754  1.4112 -1.8384
 3694TIP3    H232498   6.630   4.629   0.970 -0.7943 -2.5586  0.2724
 3695TIP3   OH232499   6.786   5.379   1.952  0.5035  0.7352 -0.8778
 3695TIP3    H132500   6.875   5.349   1.970  0.6099 -0.4124 -2.9544
 3695TIP3    H232501   6.796   5.468   1.918  0.7246  1.0975  0.1274
 3696TIP3   OH232502   2.140   6.185  16.299 -0.3436 -0.0034 -0.6297
 3696TIP3    H132503   2.211   6.217  16.242 -1.2527 -0.9520 -2.3858
 3696TIP3    H232504   2.184   6.134  16.366  0.7482  0.8201 -0.6876
 3697TIP3   OH232505   0.968   4.042  15.542  0.1816 -0.1380  0.2540
 3697TIP3    H132506   0.886   4.067  15.499  0.2049 -1.9696 -0.9600
 3697TIP3    H232507   0.949   3.957  15.582  1.3101 -0.2876  0.4966
 3698TIP3   OH232508   2.261   3.640   4.169  0.4335  0.5549 -0.1869
 3698TIP3    H132509   2.235   3.572   4.106 -0.5006  0.2471  0.5259
 3698TIP3    H232510   2.182   3.659   4.219  0.9509  1.4330  0.3209
 3699TIP3   OH232511   6.402   5.213   4.994  0.3227 -0.4067  0.0477
 3699TIP3    H132512   6.341   5.241   5.062 -0.4718  1.9679 -1.5301
 3699TIP3    H232513   6.464   5.285   4.986  0.2413 -0.5139 -1.9227
 3700TIP3   OH232514   5.487   5.124  14.528  0.1445 -0.1186  0.6482
 3700TIP3    H132515   5.425   5.186  14.489 -0.2207 -1.4205 -0.9928
 3700TIP3    H232516   5.432   5.060  14.573  0.3240 -0.6946  0.0750
 3701TIP3   OH232517   5.355   3.299  15.839  0.4055  0.3581 -0.2406
 3701TIP3    H132518   5.414   3.336  15.773 -0.4954 -0.6273 -1.6578
 3701TIP3    H232519   5.273   3.282  15.792 -0.4892  0.1921  1.2873
 3702TIP3   OH232520   0.512   5.237   6.641 -0.5933 -0.0736  0.4427
 3702TIP3    H132521   0.461   5.270   6.715  0.3144  0.9815  0.6132
 3702TIP3    H232522   0.496   5.142   6.641 -3.8714  0.3479 -0.5037
 3703TIP3   OH232523   0.819   4.626  13.184  0.1024 -0.2624  0.0640
 3703TIP3    H132524   0.898   4.637  13.237 -0.0116 -1.0975  0.4277
 3703TIP3    H232525   0.816   4.532  13.165 -0.4761 -0.1440 -0.4531
 3704TIP3   OH232526   2.962   5.711   3.308  0.0227  0.4806  0.6947
 3704TIP3    H132527   2.977   5.748   3.395  2.4799 -0.8939  0.9450
 3704TIP3    H232528   2.889   5.651   3.320  1.0167 -0.5041  2.1155
 3705TIP3   OH232529   4.228   1.466   3.790 -0.8801  0.5637 -1.1992
 3705TIP3    H132530   4.246   1.380   3.753 -1.0967  1.1318 -2.7060
 3705TIP3    H232531   4.225   1.524   3.714  0.5254  2.1390 -0.1352
 3706TIP3   OH232532   2.039   5.172   1.533  0.4693 -0.2234 -0.5135
 3706TIP3    H132533   1.963   5.165   1.476  0.0462  3.2606 -0.5903
 3706TIP3    H232534   2.009   5.227   1.606  2.3925 -0.3245  0.4152
 3707TIP3   OH232535   5.712   5.607  15.808 -0.1376  0.0660 -0.2962
 3707TIP3    H132536   5.663   5.560  15.876  1.0618 -1.8042 -0.6604
 3707TIP3    H232537   5.798   5.564  15.807  0.5193  1.3479 -1.6761
 3708TIP3   OH232538   3.092   3.219   4.039 -0.2078 -0.5170  0.0213
 3708TIP3    H132539   3.005   3.250   4.013 -0.3190  0.7685  1.7593
 3708TIP3    H232540   3.149   3.295   4.029  0.4287 -0.9620  0.2208
 3709TIP3   OH232541   3.240   2.474   1.749  0.4517 -0.5606  0.3557
 3709TIP3    H132542   3.245   2.486   1.654  0.0507  2.3589  0.6358
 3709TIP3    H232543   3.262   2.559   1.786 -0.3427 -1.3648  2.8983
 3710TIP3   OH232544   5.436   4.349  14.403 -0.2566 -0.3811  0.0808
 3710TIP3    H132545   5.387   4.400  14.339 -0.7997 -1.2222 -0.1829
 3710TIP3    H232546   5.432   4.401  14.483 -1.3904 -0.3264  0.0069
 3711TIP3   OH232547   4.666   5.348  11.278 -0.1644  0.0198  0.4334
 3711TIP3    H132548   4.696   5.278  11.336  1.1173 -0.5905 -0.9306
 3711TIP3    H232549   4.648   5.305  11.195 -1.1744  1.0197  0.1076
 3712TIP3   OH232550   6.458   2.337  14.787 -0.4542  0.3323 -0.5403
 3712TIP3    H132551   6.463   2.242  14.799  0.5766  0.1319 -2.1672
 3712TIP3    H232552   6.402   2.367  14.858  1.9224 -1.0600  2.1536
 3713TIP3   OH232553   1.269   4.699  12.194  0.3367  0.1265 -0.1310
 3713TIP3    H132554   1.186   4.746  12.186  0.8734  0.9612 -1.0701
 3713TIP3    H232555   1.288   4.668  12.105  0.6015 -0.8153  0.2431
 3714TIP3   OH232556   0.686   1.866  12.574 -0.3499 -0.1907  0.2414
 3714TIP3    H132557   0.748   1.939  12.571 -0.3695 -0.1956 -1.1705
 3714TIP3    H232558   0.706   1.820  12.655 -1.4120  2.2869  2.0477
 3715TIP3   OH232559   5.142   6.123  16.535 -0.2454 -0.2101 -0.0615
 3715TIP3    H132560   5.059   6.087  16.504 -0.0520  0.0920 -0.9340
 3715TIP3    H232561   5.162   6.195  16.476 -0.4476  1.1521  1.4503
 3716TIP3   OH232562   3.592   5.129  12.927 -0.2634  0.0086  0.6535
 3716TIP3    H132563   3.673   5.170  12.896 -0.9782  0.7059 -0.3412
 3716TIP3    H232564   3.550   5.096  12.848 -1.8500  1.3067  0.9269
 3717TIP3   OH232565   1.053   0.093   0.077  0.0127  0.5133 -0.0305
 3717TIP3    H132566   1.027   0.177   0.039  2.8763  0.8046 -1.5797
 3717TIP3    H232567   1.076   0.113   0.168  0.3918  1.3482 -0.3032
 3718TIP3   OH232568   4.382   3.482   2.008  0.3695 -0.3146  0.0798
 3718TIP3    H132569   4.415   3.411   2.063  1.0542  0.8587  1.2259
 3718TIP3    H232570   4.287   3.474   2.013  0.4334 -1.1113  0.2287
 3719TIP3   OH232571   5.936   1.121   2.321 -1.2223  0.6088 -0.4190
 3719TIP3    H132572   5.876   1.176   2.372 -1.8794  1.5526 -2.1437
 3719TIP3    H232573   5.979   1.181   2.260  1.5013 -0.0311  0.6788
 3720TIP3   OH232574   3.836   0.313   0.318 -0.8005 -0.0728  0.2802
 3720TIP3    H132575   3.902   0.375   0.287 -0.1914 -0.8928 -0.1124
 3720TIP3    H232576   3.863   0.229   0.282 -0.9019 -0.8067  1.8163
 3721TIP3   OH232577   2.078   6.148  12.112  0.3235 -0.1678  0.1198
 3721TIP3    H132578   2.119   6.073  12.156  0.9916  0.5321  0.7279
 3721TIP3    H232579   2.112   6.145  12.023  1.0926 -0.0645  0.3979
 3722TIP3   OH232580   1.753   5.244  12.400 -0.0094 -0.5554 -0.3958
 3722TIP3    H132581   1.680   5.295  12.435  0.0218 -0.6884 -0.1279
 3722TIP3    H232582   1.791   5.299  12.332  1.6048  0.8964  1.5723
 3723TIP3   OH232583   1.841   5.832   2.652  0.5068 -0.5107  1.0278
 3723TIP3    H132584   1.884   5.916   2.667 -0.2044  0.0535  0.0054
 3723TIP3    H232585   1.857   5.783   2.733  3.1276 -0.3931  0.6717
 3724TIP3   OH232586   0.333   5.038  13.735 -0.0073 -0.5169  0.3951
 3724TIP3    H132587   0.363   4.978  13.666 -1.6767  0.2352 -1.0803
 3724TIP3    H232588   0.242   5.057  13.712 -0.3171  0.5567  2.2891
 3725TIP3   OH232589   5.165   3.545  11.674 -0.1506 -0.2259 -0.2381
 3725TIP3    H132590   5.252   3.586  11.681  0.3967 -0.9748 -1.9741
 3725TIP3    H232591   5.108   3.601  11.726  1.0507  1.2934 -0.4586
 3726TIP3   OH232592   2.361   5.584   3.039 -0.2026  0.1365 -0.2557
 3726TIP3    H132593   2.269   5.557   3.046  0.3879 -2.0874 -0.3249
 3726TIP3    H232594   2.360   5.655   2.974 -1.9082  0.5356  0.1514
 3727TIP3   OH232595   1.168   4.802  11.457  0.0636 -0.0427  0.1930
 3727TIP3    H132596   1.224   4.878  11.442  0.5960 -1.0067 -3.7001
 3727TIP3    H232597   1.201   4.735  11.398 -3.9374 -1.3593 -0.8830
 3728TIP3   OH232598   4.388   4.779  15.261 -0.1735  0.1239 -0.3141
 3728TIP3    H132599   4.463   4.802  15.316  0.1936 -1.6796  0.0174
 3728TIP3    H232600   4.313   4.817  15.306  0.2803 -0.1678  0.7230
 3729TIP3   OH232601   1.136   6.577   3.972 -0.0761 -0.1546 -0.3930
 3729TIP3    H132602   1.120   6.671   3.970 -0.8652 -0.2621  0.2893
 3729TIP3    H232603   1.050   6.538   3.990  0.6047 -0.8800  1.5184
 3730TIP3   OH232604   3.063   2.649  12.767 -0.5410 -0.1382  0.7178
 3730TIP3    H132605   3.147   2.647  12.813 -0.8887  0.9418  1.4289
 3730TIP3    H232606   3.074   2.586  12.696  1.3319  0.9375 -0.0320
 3731TIP3   OH232607   5.385   3.510   4.437  0.5796 -0.2819 -0.3235
 3731TIP3    H132608   5.296   3.476   4.445 -0.3271  1.8756 -0.4924
 3731TIP3    H232609   5.415   3.480   4.351 -0.3364 -0.3033 -0.6434
 3732TIP3   OH232610   4.451   5.620  12.238  0.0923  0.0625  0.6437
 3732TIP3    H132611   4.479   5.620  12.146  0.5014  3.7984  0.6317
 3732TIP3    H232612   4.528   5.648  12.287 -0.7746  0.4277  1.8438
 3733TIP3   OH232613   6.195   0.381  14.407 -0.2106 -0.0447 -0.3124
 3733TIP3    H132614   6.197   0.371  14.502  1.1679  0.5787 -0.2636
 3733TIP3    H232615   6.109   0.346  14.382 -0.1239 -1.3093  1.0238
 3734TIP3   OH232616   5.808   4.261   1.671 -0.4705  0.0308  0.3446
 3734TIP3    H132617   5.796   4.329   1.738  0.5975 -1.6451  2.3646
 3734TIP3    H232618   5.789   4.179   1.717  2.1976 -1.3525 -0.7947
 3735TIP3   OH232619   3.244   2.712   1.510 -0.1962 -0.1189 -0.4304
 3735TIP3    H132620   3.221   2.777   1.443  1.6420  1.1933  0.1240
 3735TIP3    H232621   3.325   2.673   1.479  0.4460  0.1979  0.7719
 3736TIP3   OH232622   4.245   1.696  14.997  0.0592 -0.3655  0.1979
 3736TIP3    H132623   4.339   1.711  14.985 -0.2110  0.8139 -0.6265
 3736TIP3    H232624   4.232   1.697  15.092  0.4578  2.5191  0.2987
 3737TIP3   OH232625   5.987   3.091   3.727  0.2410  0.8300 -0.7767
 3737TIP3    H132626   5.937   3.027   3.676  0.2694 -1.8275  2.2553
 3737TIP3    H232627   5.924   3.129   3.788  0.9249  1.2729 -0.3307
 3738TIP3   OH232628   4.476   2.632  14.573  0.2678  0.3909  0.2027
 3738TIP3    H132629   4.388   2.655  14.543  0.8833  0.2330 -1.9067
 3738TIP3    H232630   4.473   2.643  14.668 -2.4277 -1.0053  0.3869
 3739TIP3   OH232631   4.137   1.724  14.102 -0.4830  0.2701 -0.1697
 3739TIP3    H132632   4.044   1.707  14.119 -0.8426  0.8349 -1.4952
 3739TIP3    H232633   4.163   1.786  14.170 -0.8994 -0.3736  0.5957
 3740TIP3   OH232634   0.139   3.550   2.390 -0.4360  0.4448 -0.2707
 3740TIP3    H132635   0.208   3.484   2.377  1.3922  2.2684 -0.3172
 3740TIP3    H232636   0.116   3.577   2.301  1.8161  2.7204 -0.2856
 3741TIP3   OH232637   5.709   5.011   1.713 -0.1391 -0.4420 -0.2136
 3741TIP3    H132638   5.787   5.060   1.742  0.2031  0.0618 -1.8957
 3741TIP3    H232639   5.717   5.008   1.618 -2.5285  0.2268 -0.4977
 3742TIP3   OH232640   5.586   0.401  15.850  0.0094 -0.0010 -0.4898
 3742TIP3    H132641   5.516   0.447  15.896  1.4681  2.1260 -0.2387
 3742TIP3    H232642   5.663   0.412  15.905  1.7200  2.2149 -3.0385
 3743TIP3   OH232643   6.134   0.174   6.462  0.2690  0.0877 -0.0134
 3743TIP3    H132644   6.044   0.145   6.471  0.3204  0.2360  1.0690
 3743TIP3    H232645   6.185   0.092   6.458  0.3937 -0.0908  2.8253
 3744TIP3   OH232646   0.978   1.952  12.766  0.3162 -0.3545  0.1989
 3744TIP3    H132647   1.005   1.993  12.684  2.8010  0.7705  1.4766
 3744TIP3    H232648   1.048   1.890  12.787  0.8016  0.8173  2.4026
 3745TIP3   OH232649   5.245   1.057   0.714 -0.3071 -0.1592  0.5441
 3745TIP3    H132650   5.192   1.069   0.792 -0.2523 -2.2164  0.9578
 3745TIP3    H232651   5.189   1.007   0.655  0.8997 -1.8610  0.7575
 3746TIP3   OH232652   0.990   1.939   0.905  0.0675 -0.5456  0.0428
 3746TIP3    H132653   1.026   1.906   0.823 -0.8432  3.1675 -2.0830
 3746TIP3    H232654   0.895   1.932   0.894 -0.1208  1.5174 -0.0590
 3747TIP3   OH232655   5.835   3.139  16.795  0.2962 -0.0999  0.3426
 3747TIP3    H132656   5.810   3.167  16.883  1.9787  1.8789  0.2807
 3747TIP3    H232657   5.833   3.220  16.743  0.8252 -0.9481 -1.0496
 3748TIP3   OH232658   1.786   4.436   0.587 -0.3710 -0.0058 -0.0395
 3748TIP3    H132659   1.853   4.374   0.614 -1.1242 -0.5546  0.6262
 3748TIP3    H232660   1.719   4.382   0.545 -0.1627  0.5951 -1.1738
 3749TIP3   OH232661   3.703   3.553   1.935 -0.7197  0.1010  0.0828
 3749TIP3    H132662   3.736   3.559   2.024  1.0595 -0.5998 -0.4832
 3749TIP3    H232663   3.667   3.639   1.916 -3.5081 -0.4405  2.3167
 3750TIP3   OH232664   2.984   6.627  12.323 -0.2959 -0.1118 -0.3539
 3750TIP3    H132665   2.965   6.541  12.359  0.8408  0.1103  0.8550
 3750TIP3    H232666   3.008   6.611  12.232  0.6397 -1.1842  0.0596
 3751TIP3   OH232667   5.380   3.667   2.468 -0.6433 -0.4623 -0.2012
 3751TIP3    H132668   5.295   3.688   2.507 -0.4251  0.7671 -0.3490
 3751TIP3    H232669   5.419   3.604   2.528  0.0431  1.9866  2.1405
 3752TIP3   OH232670   4.870   5.057  12.092  0.2819  0.0536 -0.1944
 3752TIP3    H132671   4.870   5.153  12.092 -2.3399  0.1423  0.6156
 3752TIP3    H232672   4.833   5.034  12.177 -0.5324 -1.6166 -0.9609
 3753TIP3   OH232673   1.146   6.589  12.946 -0.0342  0.1285 -0.4734
 3753TIP3    H132674   1.085   6.622  12.880  0.4418 -1.9423 -2.0426
 3753TIP3    H232675   1.191   6.516  12.904  0.7379 -0.9219  1.9536
 3754TIP3   OH232676   3.722   0.233   0.796 -0.0384  0.2242 -0.4873
 3754TIP3    H132677   3.667   0.173   0.847  0.0501  0.4160 -0.1608
 3754TIP3    H232678   3.700   0.214   0.705  0.7686 -1.0329 -0.4309
 3755TIP3   OH232679   0.456   2.470   5.395 -0.1075  0.0128 -0.2893
 3755TIP3    H132680   0.549   2.448   5.389 -0.1844 -0.1865 -0.8886
 3755TIP3    H232681   0.425   2.424   5.472  0.5326  0.9910  0.5795
 3756TIP3   OH232682   5.185   2.778  13.312 -0.2561 -0.1878 -0.3915
 3756TIP3    H132683   5.181   2.862  13.267  1.0037 -0.1869 -0.5364
 3756TIP3    H232684   5.255   2.789  13.377 -0.1137 -1.0980 -0.3808
 3757TIP3   OH232685   4.640   6.271   3.227  0.0520 -0.4116 -0.2992
 3757TIP3    H132686   4.732   6.245   3.228 -0.2805 -1.6613 -0.6931
 3757TIP3    H232687   4.622   6.292   3.136 -0.3941 -1.5081 -0.4797
 3758TIP3   OH232688   2.470   1.645   1.262  0.1558 -0.1463  0.4108
 3758TIP3    H132689   2.519   1.576   1.217 -0.7388  0.2430 -1.2440
 3758TIP3    H232690   2.432   1.697   1.191 -1.7254  0.2179  1.6289
 3759TIP3   OH232691   4.726   4.558  11.685 -0.4877 -0.1443 -0.0426
 3759TIP3    H132692   4.751   4.578  11.775 -2.0592 -2.5369  1.0441
 3759TIP3    H232693   4.798   4.504  11.651 -0.1660  0.2823 -0.0538
 3760TIP3   OH232694   5.346   3.465  12.822 -0.1433 -0.0360  0.4266
 3760TIP3    H132695   5.316   3.527  12.756 -0.2331 -0.3200  0.1992
 3760TIP3    H232696   5.375   3.520  12.895  0.0581  0.2814  0.1117
 3761TIP3   OH232697   2.265   2.561   1.813  0.1760  0.1985 -0.8893
 3761TIP3    H132698   2.300   2.490   1.760 -0.6018 -0.4720 -0.5221
 3761TIP3    H232699   2.230   2.623   1.749  1.7929  0.7849 -1.2555
 3762TIP3   OH232700   1.399   3.897   2.736  0.1464 -0.1232  0.8928
 3762TIP3    H132701   1.327   3.837   2.759  1.7860 -1.9938  1.4884
 3762TIP3    H232702   1.473   3.839   2.718  0.5599  1.4534 -3.8407
 3763TIP3   OH232703   5.161   2.254  12.615  0.6355  0.1777 -0.0699
 3763TIP3    H132704   5.129   2.340  12.641 -0.3605  0.9398 -3.3530
 3763TIP3    H232705   5.248   2.271  12.578  0.1502 -0.0656 -1.3727
 3764TIP3   OH232706   3.505   0.341  12.262  0.2956  0.0835  0.0752
 3764TIP3    H132707   3.549   0.359  12.345 -0.0504 -0.8658  0.4814
 3764TIP3    H232708   3.502   0.246  12.257  2.4455  0.0514 -2.1929
 3765TIP3   OH232709   1.213   1.328   0.981  0.3335  0.0778  0.6876
 3765TIP3    H132710   1.133   1.374   1.005 -0.2946 -0.2017 -0.7343
 3765TIP3    H232711   1.284   1.384   1.011 -0.3950  2.0810 -1.1245
 3766TIP3   OH232712   4.597   6.749  13.214  0.3842 -0.2312 -0.4291
 3766TIP3    H132713   4.543   6.775  13.140 -1.4653 -0.6287  0.6850
 3766TIP3    H232714   4.589   6.653  13.216 -1.3182 -0.1305  1.3969
 3767TIP3   OH232715   4.783   3.504   5.637 -0.1542 -0.0890  0.1445
 3767TIP3    H132716   4.796   3.570   5.705 -0.3316 -0.5806  0.6588
 3767TIP3    H232717   4.829   3.427   5.669  1.0132  0.1146 -0.9813
 3768TIP3   OH232718   5.501   0.049   2.500 -0.1998 -0.0163  0.3774
 3768TIP3    H132719   5.564   0.120   2.510  0.6211 -0.9637  2.5993
 3768TIP3    H232720   5.516   0.016   2.411  0.8106  1.2748  0.0415
 3769TIP3   OH232721   5.597   1.102   4.675 -0.1757  0.5821  0.0975
 3769TIP3    H132722   5.501   1.105   4.678 -0.6407 -0.4999 -5.0177
 3769TIP3    H232723   5.624   1.194   4.670 -1.3735  0.8623 -2.3374
 3770TIP3   OH232724   5.438   4.628   0.699 -0.4479  0.0890  0.5000
 3770TIP3    H132725   5.530   4.642   0.677 -0.2051 -0.5589  1.0612
 3770TIP3    H232726   5.389   4.662   0.624  0.3044 -0.9561 -0.4968
 3771TIP3   OH232727   2.671   4.032  11.935 -0.2866  0.0341 -0.6674
 3771TIP3    H132728   2.643   4.028  12.026  1.7213  1.1004  0.0488
 3771TIP3    H232729   2.670   4.126  11.914  1.9001  0.0590 -0.8264
 3772TIP3   OH232730   2.333   0.774   4.805 -0.1532 -0.2473  0.6293
 3772TIP3    H132731   2.419   0.803   4.774 -1.0166  1.9140  0.1139
 3772TIP3    H232732   2.318   0.825   4.885  0.2395 -2.7404  2.4228
 3773TIP3   OH232733   4.778   3.797   0.852 -0.3785 -0.2861 -0.2619
 3773TIP3    H132734   4.783   3.788   0.757  0.0532  0.0349 -0.2695
 3773TIP3    H232735   4.869   3.789   0.882 -0.4411  0.2193  0.0712
 3774TIP3   OH232736   6.038   3.012   4.671  0.0465 -0.0001 -0.0659
 3774TIP3    H132737   6.121   3.059   4.678  0.3217 -0.2925 -1.2227
 3774TIP3    H232738   6.063   2.924   4.641 -0.7271  0.1280 -1.1490
 3775TIP3   OH232739   1.471   2.433  15.597  0.2703 -0.1714  0.2202
 3775TIP3    H132740   1.564   2.437  15.573  0.1440 -2.3246 -0.8660
 3775TIP3    H232741   1.458   2.343  15.627 -1.8516 -0.4698 -1.3893
 3776TIP3   OH232742   1.112   2.530   1.068 -0.0092 -0.1920  0.3298
 3776TIP3    H132743   1.087   2.438   1.064  0.6657 -0.3379 -1.0515
 3776TIP3    H232744   1.140   2.551   0.979 -0.5951  1.4806  0.5162
 3777TIP3   OH232745   5.817   5.057  17.168  0.5065  0.2577 -0.0122
 3777TIP3    H132746   5.760   5.051  17.092  0.7471 -1.1650 -0.1095
 3777TIP3    H232747   5.796   5.141  17.208 -0.7388  0.3196 -0.7668
 3778TIP3   OH232748   0.828   4.715   3.666 -0.4694 -0.3499 -0.8425
 3778TIP3    H132749   0.897   4.763   3.620 -0.8504 -0.2486 -1.3224
 3778TIP3    H232750   0.862   4.626   3.674  0.2394 -0.0118  0.0443
 3779TIP3   OH232751   2.640   5.386   0.051  0.2180  0.6272 -0.2002
 3779TIP3    H132752   2.614   5.322  -0.015 -1.0785 -0.1394  0.9978
 3779TIP3    H232753   2.565   5.391   0.111  0.7331  2.4470  0.3682
 3780TIP3   OH232754   0.967   4.718   2.288  0.2025 -0.2318  0.5939
 3780TIP3    H132755   0.899   4.783   2.305 -0.2896 -0.8571  1.0362
 3780TIP3    H232756   1.004   4.699   2.374 -0.7061 -1.6714  0.7062
 3781TIP3   OH232757   1.509   4.880  16.888  0.5366  0.3219  0.0289
 3781TIP3    H132758   1.508   4.962  16.838  2.6701  0.7293  0.5375
 3781TIP3    H232759   1.425   4.879  16.934 -0.5145  1.0492 -1.7581
 3782TIP3   OH232760   4.569   1.561   4.773 -0.4278 -0.0682  0.2949
 3782TIP3    H132761   4.558   1.486   4.715 -2.1378 -0.7760  1.4523
 3782TIP3    H232762   4.634   1.616   4.730  0.6781 -2.0748 -0.7128
 3783TIP3   OH232763   2.295   4.029   3.997 -0.0423 -0.2807 -0.0045
 3783TIP3    H132764   2.291   4.123   4.015 -0.5430  0.0548 -1.7099
 3783TIP3    H232765   2.207   4.007   3.966 -0.2608 -1.5708  1.3936
 3784TIP3   OH232766   1.650   3.825   3.949  0.1743 -0.1915  0.0648
 3784TIP3    H132767   1.560   3.835   3.919  0.3228  5.8730  0.3778
 3784TIP3    H232768   1.703   3.858   3.876  2.1658 -2.4314  0.3802
 3785TIP3   OH232769   2.111   5.947   1.510  0.1664  0.1710  0.0844
 3785TIP3    H132770   2.031   5.991   1.481  0.6768  1.4632  0.5789
 3785TIP3    H232771   2.091   5.915   1.598 -0.3351 -0.9986 -0.4220
 3786TIP3   OH232772   4.958   3.061   2.988  0.4407 -0.0924  0.1389
 3786TIP3    H132773   5.001   3.114   2.920 -0.1168 -0.5901 -0.6169
 3786TIP3    H232774   5.016   3.068   3.064  1.7090 -0.5023 -0.7668
 3787TIP3   OH232775   5.028   1.865  15.568  0.4249  0.6418 -0.1145
 3787TIP3    H132776   5.080   1.873  15.648  1.2790  2.7199 -0.8044
 3787TIP3    H232777   4.976   1.945  15.566  0.0614  0.3868 -1.3892
 3788TIP3   OH232778   1.841   5.062   1.352  0.2858  0.0056 -0.0798
 3788TIP3    H132779   1.824   4.972   1.325  0.9472 -0.1513  0.0032
 3788TIP3    H232780   1.764   5.111   1.322  0.2769 -0.4506 -0.8271
 3789TIP3   OH232781   3.871   6.180  11.337 -0.9574 -0.0161 -0.6736
 3789TIP3    H132782   3.939   6.131  11.291  0.4610 -0.1406  1.3608
 3789TIP3    H232783   3.789   6.138  11.313 -0.3393  0.0383 -3.1073
 3790TIP3   OH232784   2.912   0.862   4.431 -0.2618 -0.4296 -0.1971
 3790TIP3    H132785   2.918   0.778   4.386 -2.6174 -1.3055  0.9333
 3790TIP3    H232786   2.818   0.881   4.433 -0.1638  0.2928  2.9068
 3791TIP3   OH232787   6.351   3.155  11.095 -0.6018  0.1012  0.2236
 3791TIP3    H132788   6.257   3.168  11.078 -0.6633 -0.9899 -0.3352
 3791TIP3    H232789   6.392   3.166  11.009 -0.3702 -0.7190  0.2269
 3792TIP3   OH232790   2.762   1.259   2.423  0.2352 -0.5421 -0.3554
 3792TIP3    H132791   2.770   1.211   2.506  0.3044 -1.2644 -0.7689
 3792TIP3    H232792   2.815   1.208   2.361  0.4061  0.1457 -0.7783
 3793TIP3   OH232793   1.666   4.776   3.402  0.3168 -0.0334  0.0962
 3793TIP3    H132794   1.644   4.865   3.372 -0.1069  0.8580  2.8114
 3793TIP3    H232795   1.587   4.745   3.446 -0.6636 -3.1026 -3.3279
 3794TIP3   OH232796   0.343   4.456  12.487 -0.1942  0.5167  0.5090
 3794TIP3    H132797   0.266   4.506  12.463 -1.7057 -2.5251 -1.8128
 3794TIP3    H232798   0.409   4.481  12.422 -0.2019  1.0386  0.7022
 3795TIP3   OH232799   4.026   1.263   4.055  0.0533  0.3966 -0.2770
 3795TIP3    H132800   4.067   1.346   4.031 -0.6979  0.7869 -0.2261
 3795TIP3    H232801   4.001   1.223   3.971  0.2539  0.2971 -0.2916
 3796TIP3   OH232802   4.278   6.276  14.626  0.1582  0.2779 -1.1510
 3796TIP3    H132803   4.232   6.360  14.624 -0.5318 -0.0098  0.6043
 3796TIP3    H232804   4.358   6.294  14.676 -0.5265 -0.3033  0.2252
 3797TIP3   OH232805   5.640   4.522  12.345 -0.2183 -0.1090  0.1855
 3797TIP3    H132806   5.702   4.591  12.371 -0.0851  0.9765 -2.6507
 3797TIP3    H232807   5.570   4.569  12.299 -1.5105 -1.6450  0.4921
 3798TIP3   OH232808   5.463   4.079   1.176  0.1310 -0.3163  0.3298
 3798TIP3    H132809   5.533   4.144   1.162  0.7790 -1.1925 -0.5930
 3798TIP3    H232810   5.456   4.073   1.271 -0.9000  2.0899  0.4965
 3799TIP3   OH232811   2.441   4.734  13.335 -0.3366  0.7600  0.1099
 3799TIP3    H132812   2.438   4.803  13.269 -0.7486  0.9532  0.3227
 3799TIP3    H232813   2.503   4.669  13.300  0.3416  1.4125  0.0874
 3800TIP3   OH232814   6.375   3.062  14.606 -0.1983  0.6363  0.3141
 3800TIP3    H132815   6.324   3.023  14.535  0.1121  1.2511 -0.2531
 3800TIP3    H232816   6.460   3.082  14.566 -0.4779  2.2479  0.4856
 3801TIP3   OH232817   0.165   0.126   2.820 -0.1712 -0.1931 -0.2573
 3801TIP3    H132818   0.153   0.033   2.803  0.2702 -0.5885  1.4435
 3801TIP3    H232819   0.154   0.167   2.734  0.8209 -1.9139 -1.2743
 3802TIP3   OH232820   5.220   1.381   5.414  0.0148  0.1179  0.6783
 3802TIP3    H132821   5.198   1.438   5.487  2.7006  0.9300  0.9741
 3802TIP3    H232822   5.215   1.438   5.337 -0.2543 -0.0572  0.5645
 3803TIP3   OH232823   0.774   6.639   1.714  0.0814 -0.4161  0.3473
 3803TIP3    H132824   0.869   6.648   1.710  0.1853 -0.9780  1.3201
 3803TIP3    H232825   0.741   6.729   1.706  0.6895 -0.2182 -0.0055
 3804TIP3   OH232826   4.530   2.197  11.333 -0.1283 -0.8060 -0.5824
 3804TIP3    H132827   4.500   2.274  11.381  0.5656  0.5034 -2.1375
 3804TIP3    H232828   4.450   2.151  11.309 -0.7002  0.4867 -1.2588
 3805TIP3   OH232829   3.019   6.377   0.909  0.6091  0.0050  0.0550
 3805TIP3    H132830   2.943   6.322   0.930  0.8457 -0.0468  0.7723
 3805TIP3    H232831   3.095   6.322   0.929  0.9052 -0.7208 -2.5558
 3806TIP3   OH232832   1.847   6.292   3.012 -0.0582 -0.8329 -0.1188
 3806TIP3    H132833   1.874   6.375   2.972  1.2638 -1.3937 -0.4494
 3806TIP3    H232834   1.757   6.307   3.039 -0.2915  0.2784 -1.3836
 3807TIP3   OH232835   4.304   5.663   2.955 -0.4999 -0.1329  0.6380
 3807TIP3    H132836   4.237   5.620   2.903 -2.4245  1.2213  1.8839
 3807TIP3    H232837   4.320   5.603   3.028 -1.4363  0.1573  1.0989
 3808TIP3   OH232838   2.945   4.180  14.733  0.4124  0.8864  0.7840
 3808TIP3    H132839   2.983   4.135  14.809  0.8843  0.4116  0.2791
 3808TIP3    H232840   3.021   4.205  14.680  0.1014 -3.3580 -2.1375
 3809TIP3   OH232841   3.746   6.088   0.595 -0.5759 -0.2251  0.5929
 3809TIP3    H132842   3.703   6.008   0.566 -1.9131  0.4559  0.6038
 3809TIP3    H232843   3.838   6.075   0.574 -1.0550 -0.9447 -1.2709
 3810TIP3   OH232844   6.624   3.961   4.038 -0.1223 -0.0750  0.2115
 3810TIP3    H132845   6.544   4.012   4.020 -0.7262 -1.9126 -3.1696
 3810TIP3    H232846   6.688   3.995   3.975  0.5412 -1.1460  0.2884
 3811TIP3   OH232847   4.430   0.105  15.821 -0.2220 -0.2903 -0.4818
 3811TIP3    H132848   4.513   0.145  15.846  0.6146 -2.7657  1.1951
 3811TIP3    H232849   4.374   0.178  15.796  1.7849  1.6662  0.3958
 3812TIP3   OH232850   6.759   4.212   5.068  0.0552 -0.7437 -0.0735
 3812TIP3    H132851   6.691   4.185   5.007  0.4613 -0.0536 -0.8437
 3812TIP3    H232852   6.796   4.292   5.031  1.2631 -1.0711  0.3404
 3813TIP3   OH232853   5.652   3.912   3.205 -0.0574 -0.2706  0.2401
 3813TIP3    H132854   5.743   3.904   3.231  0.4769  0.0297 -1.4501
 3813TIP3    H232855   5.646   3.866   3.122 -0.8285  1.9520 -1.0024
 3814TIP3   OH232856   1.095   0.416   4.284 -0.6234  0.6216  0.1636
 3814TIP3    H132857   1.077   0.323   4.295 -0.8534  0.4423 -1.5899
 3814TIP3    H232858   1.029   0.447   4.222 -0.0298  1.7727  0.0819
 3815TIP3   OH232859   1.611   4.831   4.401 -0.3447 -0.1392 -0.4400
 3815TIP3    H132860   1.676   4.858   4.336 -0.5438 -1.1141 -1.0556
 3815TIP3    H232861   1.541   4.789   4.351 -1.2513  0.4900  0.2593
 3816TIP3   OH232862   2.974   5.684  14.364 -0.0701  0.1298  0.3775
 3816TIP3    H132863   2.902   5.626  14.338  0.0211  0.7759 -1.4821
 3816TIP3    H232864   3.009   5.718  14.281  0.5564  2.0207  1.3493
 3817TIP3   OH232865   4.526   0.412  15.252  0.3811 -0.2720  0.3259
 3817TIP3    H132866   4.469   0.342  15.220 -2.1907  1.7380  0.1736
 3817TIP3    H232867   4.531   0.474  15.180  0.8813  0.6741  1.1416
 3818TIP3   OH232868   6.342   4.982  10.886 -0.0715  0.3115 -0.5331
 3818TIP3    H132869   6.377   5.023  10.807  0.2081  1.9814  0.4071
 3818TIP3    H232870   6.274   5.043  10.916  0.7425  0.4037  1.2223
 3819TIP3   OH232871   5.324   1.112   3.503  0.2750  0.0365  0.4451
 3819TIP3    H132872   5.353   1.021   3.491  0.1079  0.0896 -0.4443
 3819TIP3    H232873   5.247   1.105   3.559  0.7722 -0.2877  1.1037
 3820TIP3   OH232874   3.287   6.547   5.537 -0.1571  0.3352 -0.5474
 3820TIP3    H132875   3.252   6.602   5.607  1.2879  1.8436 -0.9574
 3820TIP3    H232876   3.377   6.529   5.563 -0.2080 -0.7539 -1.0661
 3821TIP3   OH232877   5.699   2.281  12.122  0.0484  0.3077  0.0030
 3821TIP3    H132878   5.630   2.216  12.112  1.4081 -0.9756 -1.3193
 3821TIP3    H232879   5.768   2.236  12.171 -0.2217  1.7519  1.8253
 3822TIP3   OH232880   5.123   2.771   0.184 -0.2876 -0.2047 -0.2669
 3822TIP3    H132881   5.129   2.751   0.277 -1.1936 -0.4936 -0.2656
 3822TIP3    H232882   5.057   2.840   0.178  0.9541  1.0228 -0.5355
 3823TIP3   OH232883   6.622   2.481   6.081  0.2363  0.0431  0.7194
 3823TIP3    H132884   6.616   2.386   6.092  1.7703 -0.0826  0.6509
 3823TIP3    H232885   6.708   2.496   6.044 -0.4048  1.4015 -0.3018
 3824TIP3   OH232886   3.383   1.833  14.770 -0.2192  0.0133 -0.4303
 3824TIP3    H132887   3.377   1.865  14.679  0.1148  0.6471 -0.2370
 3824TIP3    H232888   3.315   1.883  14.816 -1.7427 -1.7047 -0.6980
 3825TIP3   OH232889   4.037   3.887  16.802 -0.0030 -0.1671  0.5761
 3825TIP3    H132890   3.983   3.809  16.818  1.0158 -0.5212  2.5454
 3825TIP3    H232891   4.107   3.881  16.866  2.1189  0.5671 -1.5260
 3826TIP3   OH232892   1.806   4.723  16.676 -0.6689 -0.1853 -0.4936
 3826TIP3    H132893   1.764   4.638  16.689  0.0776 -0.8945 -2.4215
 3826TIP3    H232894   1.750   4.768  16.612  0.7221 -0.6013 -2.0552
 3827TIP3   OH232895   3.198   0.190   2.685 -0.3577 -0.1920 -0.5518
 3827TIP3    H132896   3.191   0.119   2.749  1.4196  0.7398  0.7727
 3827TIP3    H232897   3.266   0.160   2.624  0.5742  0.4401  0.1534
 3828TIP3   OH232898   3.830   4.515   1.574 -0.7488  0.2773 -0.2863
 3828TIP3    H132899   3.859   4.424   1.576  0.4985  0.6409  1.7915
 3828TIP3    H232900   3.734   4.510   1.583 -0.5547 -0.8680  2.1001
 3829TIP3   OH232901   0.249   3.995  13.019 -0.6401  0.5176  0.0648
 3829TIP3    H132902   0.229   3.951  12.936 -0.2515 -0.3993  0.4416
 3829TIP3    H232903   0.339   3.970  13.037 -0.7438  0.6609  0.7924
 3830TIP3   OH232904   4.135   2.279  14.701 -0.2987  0.6469  0.0046
 3830TIP3    H132905   4.212   2.333  14.721 -0.5951  1.0107  0.1758
 3830TIP3    H232906   4.061   2.332  14.729 -0.5113 -0.7436  2.2924
 3831TIP3   OH232907   5.764   3.212   3.889  0.3883 -0.2897  0.2969
 3831TIP3    H132908   5.685   3.165   3.917 -0.0057  0.8623  1.2106
 3831TIP3    H232909   5.795   3.255   3.969 -0.1307  2.2224 -0.7509
 3832TIP3   OH232910   0.594   3.578  17.095  0.0653 -0.1027 -0.0558
 3832TIP3    H132911   0.575   3.665  17.132 -1.0328  0.4861 -1.8647
 3832TIP3    H232912   0.675   3.592  17.045  0.6876 -0.4998  0.8294
 3833TIP3   OH232913   5.060   2.461   2.471  0.3893  0.0087 -0.8982
 3833TIP3    H132914   5.028   2.545   2.438 -1.0962  0.5948  1.7356
 3833TIP3    H232915   4.998   2.396   2.436 -0.9786  0.5765  0.3529
 3834TIP3   OH232916   6.623   6.637  16.438 -0.3093 -0.3792  0.0369
 3834TIP3    H132917   6.531   6.617  16.453 -0.8666  1.5946 -0.5179
 3834TIP3    H232918   6.646   6.698  16.508 -0.3574  1.6295 -1.5974
 3835TIP3   OH232919   0.075   4.919   0.120 -0.4288 -0.3698  0.2260
 3835TIP3    H132920   0.083   5.014   0.124 -1.3334 -0.2521 -0.4850
 3835TIP3    H232921  -0.002   4.903   0.065 -1.1329 -1.4952  1.4887
 3836TIP3   OH232922   0.362   6.262  15.779 -0.5471  0.0999  0.1223
 3836TIP3    H132923   0.450   6.275  15.816  0.0300 -1.3812 -0.6835
 3836TIP3    H232924   0.308   6.240  15.855  0.5161 -2.3512  0.2702
 3837TIP3   OH232925   2.006   0.532  12.731 -0.0624 -0.0390  0.0764
 3837TIP3    H132926   1.964   0.602  12.682 -0.0123  0.4858  0.7713
 3837TIP3    H232927   2.038   0.574  12.811 -0.9132 -1.0409  0.9711
 3838TIP3   OH232928   5.599   0.731   5.368 -0.1285 -0.6776  0.2775
 3838TIP3    H132929   5.655   0.807   5.357  1.9427 -2.3025 -1.4312
 3838TIP3    H232930   5.542   0.732   5.292  0.1734 -1.0177  0.0421
 3839TIP3   OH232931   5.249   5.039  12.985  0.9716 -0.3520 -0.1825
 3839TIP3    H132932   5.163   5.048  12.945  1.3147  1.3385 -0.6400
 3839TIP3    H232933   5.280   5.129  12.994  1.7850 -0.7753  1.9939
 3840TIP3   OH232934   3.503   0.733  11.402 -0.0690 -0.7190  0.9009
 3840TIP3    H132935   3.491   0.643  11.371  1.2531 -0.4175 -0.6338
 3840TIP3    H232936   3.584   0.731  11.452 -0.0182 -0.3732  0.8364
 3841TIP3   OH232937   3.610   0.803   4.319 -0.2266  0.4877 -0.6180
 3841TIP3    H132938   3.617   0.807   4.414  2.2722  2.3055 -0.7750
 3841TIP3    H232939   3.582   0.713   4.300 -0.9508  0.1486  1.8026
 3842TIP3   OH232940   0.940   0.788  14.356  0.4531  0.3242  0.1715
 3842TIP3    H132941   0.964   0.837  14.278  1.7428 -0.3812  0.0961
 3842TIP3    H232942   0.846   0.773  14.347  0.6027  0.1494 -1.3017
 3843TIP3   OH232943   5.134   3.123   3.448  0.5024  0.3478  0.8731
 3843TIP3    H132944   5.095   3.036   3.457 -0.0740  0.6458  1.3145
 3843TIP3    H232945   5.081   3.166   3.381  1.8210 -0.2006 -0.5851
 3844TIP3   OH232946   1.909   6.557  14.884 -0.1440  0.1890 -0.5444
 3844TIP3    H132947   1.858   6.484  14.920  0.7487 -0.0560  0.2820
 3844TIP3    H232948   1.879   6.634  14.933 -0.1597  0.1519 -0.4967
 3845TIP3   OH232949   3.849   3.048   0.231  0.3350 -0.4117  0.4263
 3845TIP3    H132950   3.783   3.003   0.285 -1.2928  0.2815 -0.8885
 3845TIP3    H232951   3.847   3.139   0.262  1.6805 -0.6370  1.2683
 3846TIP3   OH232952   3.746   0.055   4.562 -0.3100 -0.2228  0.3382
 3846TIP3    H132953   3.779   0.022   4.645 -0.5045  1.0036  0.9174
 3846TIP3    H232954   3.698  -0.019   4.524 -1.5691 -0.3398  2.0526
 3847TIP3   OH232955   4.140   5.876   3.837  0.5581 -0.2695 -0.1892
 3847TIP3    H132956   4.144   5.782   3.824  0.3685 -0.5490  1.5337
 3847TIP3    H232957   4.057   5.891   3.883  1.0813  0.5795  0.5285
 3848TIP3   OH232958   0.115   5.029  13.996 -0.5432  0.2987 -0.5553
 3848TIP3    H132959   0.121   4.950  14.051 -0.2943  0.8518  0.2279
 3848TIP3    H232960   0.194   5.027  13.942 -0.6883 -0.1462 -0.7538
 3849TIP3   OH232961   5.920   1.080  14.418 -0.3575 -0.2094  0.0253
 3849TIP3    H132962   5.946   1.158  14.466 -1.5530  0.6666 -0.7060
 3849TIP3    H232963   5.945   1.007  14.475  1.8826  0.6276  0.1852
 3850TIP3   OH232964   0.424   6.059  11.460  0.5446 -0.0092  0.0806
 3850TIP3    H132965   0.395   6.148  11.479  0.4175  0.0042 -0.1767
 3850TIP3    H232966   0.498   6.069  11.400  1.3581 -0.0249  1.0480
 3851TIP3   OH232967   4.957   2.283  16.813  0.1988 -0.4981  0.0541
 3851TIP3    H132968   4.944   2.373  16.842 -3.4346 -0.6659 -0.5195
 3851TIP3    H232969   4.997   2.291  16.727  0.3244  0.5499  0.1956
 3852TIP3   OH232970   0.497   5.102  12.498 -0.2512 -0.4309  0.3802
 3852TIP3    H132971   0.571   5.056  12.459 -0.1020 -1.1209  1.4568
 3852TIP3    H232972   0.466   5.045  12.568 -1.0976  0.3588  0.6813
 3853TIP3   OH232973   2.788   2.981  16.932  0.3876  0.0581  0.2709
 3853TIP3    H132974   2.824   3.062  16.895 -0.6764  0.2092 -0.5028
 3853TIP3    H232975   2.714   2.960  16.875  0.8927 -1.7003  0.2022
 3854TIP3   OH232976   1.985   5.222   1.000 -0.6701  0.0486  0.4308
 3854TIP3    H132977   2.053   5.162   0.970 -2.4987 -2.5000  1.0016
 3854TIP3    H232978   2.019   5.309   0.982  2.3883 -1.1191  0.0354
 3855TIP3   OH232979   6.220   4.182   5.975 -0.6862 -0.4950  0.3407
 3855TIP3    H132980   6.203   4.270   5.940 -0.7763 -0.2976  0.8743
 3855TIP3    H232981   6.206   4.124   5.900 -1.3149 -0.1148  0.1537
 3856TIP3   OH232982   1.684   1.612   4.378 -0.2308  0.5153 -0.0733
 3856TIP3    H132983   1.625   1.567   4.439 -0.0932 -0.7357 -0.8289
 3856TIP3    H232984   1.771   1.579   4.402 -0.1400  0.2853 -0.7024
 3857TIP3   OH232985   5.850   1.320  11.854 -0.4292 -0.4074 -0.3499
 3857TIP3    H132986   5.777   1.349  11.909 -0.6588  0.8206 -1.2573
 3857TIP3    H232987   5.897   1.256  11.908  0.1727  1.7611  1.8637
 3858TIP3   OH232988   1.352   1.408   5.362  0.7354 -0.2426 -0.4940
 3858TIP3    H132989   1.381   1.447   5.279  0.9327 -0.3215 -0.4621
 3858TIP3    H232990   1.425   1.354   5.390  1.6061  1.5643  0.8905
 3859TIP3   OH232991   2.237   3.664  16.271  0.2728  0.4842  0.6346
 3859TIP3    H132992   2.247   3.650  16.176  1.6166  0.0165  0.8187
 3859TIP3    H232993   2.179   3.740  16.278 -0.6087 -0.0434 -0.5410
 3860TIP3   OH232994   4.654   4.541   6.459 -0.5121 -0.4987 -0.2040
 3860TIP3    H132995   4.586   4.485   6.497  0.1282 -0.6781  0.7235
 3860TIP3    H232996   4.728   4.533   6.520 -0.3224  1.1868 -0.1787
 3861TIP3   OH232997   3.135   4.863   2.207  0.3414 -0.2926  0.1323
 3861TIP3    H132998   3.088   4.932   2.253  1.6600  0.1076  0.9398
 3861TIP3    H232999   3.081   4.844   2.130  0.1688  1.9741 -0.3799
 3862TIP3   OH233000   2.839   2.417  14.183  0.3642 -0.0473  0.2819
 3862TIP3    H133001   2.921   2.442  14.140 -0.3706  0.1176 -1.1088
 3862TIP3    H233002   2.835   2.473  14.261  1.2359  0.4483 -0.0098
 3863TIP3   OH233003   1.779   1.165   3.873  0.3269 -0.4432 -0.4778
 3863TIP3    H133004   1.722   1.157   3.949  0.3033  0.7351 -0.3516
 3863TIP3    H233005   1.789   1.076   3.841  0.1813 -0.9386  0.7938
 3864TIP3   OH233006   5.829   4.698  12.027  0.1400  0.5214 -0.1532
 3864TIP3    H133007   5.808   4.782  12.069  1.2851  0.4162  0.6733
 3864TIP3    H233008   5.752   4.644  12.043  0.5288  0.4845  1.8820
 3865TIP3   OH233009   2.049   1.641  13.513  0.2820 -0.4431  0.1985
 3865TIP3    H133010   2.141   1.645  13.538 -0.1358 -1.2663  1.9972
 3865TIP3    H233011   2.037   1.553  13.478 -0.0637 -0.7154  0.9962
 3866TIP3   OH233012   4.181   4.302  11.002 -0.3553 -0.4662  0.3308
 3866TIP3    H133013   4.234   4.267  11.073 -1.2466  0.1721  1.3299
 3866TIP3    H233014   4.154   4.225  10.951  1.7968 -0.7853 -0.4344
 3867TIP3   OH233015   3.812   2.469   0.386  0.2024  0.1861  0.1884
 3867TIP3    H133016   3.726   2.450   0.424  0.6909 -2.3468  0.1667
 3867TIP3    H233017   3.796   2.474   0.291 -0.2325  1.8842  0.3176
 3868TIP3   OH233018   2.787   1.140   3.113  0.5396 -0.4659  0.2311
 3868TIP3    H133019   2.835   1.081   3.054  0.5610  0.4671 -0.7203
 3868TIP3    H233020   2.837   1.221   3.111 -1.5312  0.8986 -1.6220
 3869TIP3   OH233021   5.575   0.058   0.869 -0.1011  0.1532  0.1318
 3869TIP3    H133022   5.539  -0.027   0.892  0.1547  0.3698  1.4297
 3869TIP3    H233023   5.503   0.106   0.829 -0.0474 -0.9155 -1.3268
 3870TIP3   OH233024   0.665   5.996   0.160 -0.4458  0.1296 -0.2352
 3870TIP3    H133025   0.598   5.938   0.125 -1.0775  0.6706  0.0649
 3870TIP3    H233026   0.707   6.034   0.082  1.1958 -2.0496 -0.5001
 3871TIP3   OH233027   3.473   1.746   1.390 -0.2087  0.1032  0.0405
 3871TIP3    H133028   3.424   1.665   1.393 -0.6769  0.3743 -0.1583
 3871TIP3    H233029   3.468   1.782   1.478 -0.2278  0.0518  0.0600
 3872TIP3   OH233030   4.294   6.267  15.514 -0.7940  0.0996  0.4725
 3872TIP3    H133031   4.275   6.208  15.440  0.7854  1.2989 -0.9570
 3872TIP3    H233032   4.329   6.209  15.582  0.5053 -0.7003 -0.8181
 3873TIP3   OH233033   2.499   4.953   3.645 -0.0378  0.5360 -0.6404
 3873TIP3    H133034   2.437   5.025   3.659 -0.1005 -0.0497  3.1088
 3873TIP3    H233035   2.568   4.968   3.709 -0.7865 -3.3730  1.4475
 3874TIP3   OH233036   6.518   5.836  13.479 -0.4560  0.0254  0.1753
 3874TIP3    H133037   6.565   5.822  13.397 -1.7460  0.7320 -0.7109
 3874TIP3    H233038   6.476   5.921  13.469 -0.1011  0.4284  1.8518
 3875TIP3   OH233039   2.491   5.374   5.383  0.3424  0.0340  0.8718
 3875TIP3    H133040   2.497   5.358   5.288 -1.2184  1.1207  0.5500
 3875TIP3    H233041   2.577   5.351   5.417  0.9394 -0.3623 -0.8205
 3876TIP3   OH233042   2.664   2.160  12.365  0.1735 -0.5365  0.6126
 3876TIP3    H133043   2.702   2.083  12.323  0.5945 -0.3191  0.5840
 3876TIP3    H233044   2.571   2.141  12.372  0.2594 -1.0000  0.5035
 3877TIP3   OH233045   0.143   6.554   5.116 -0.2837  0.2987  0.1186
 3877TIP3    H133046   0.219   6.531   5.063 -0.1690  2.1360 -0.5744
 3877TIP3    H233047   0.091   6.474   5.119  0.0646 -0.0763 -2.1505
 3878TIP3   OH233048   3.770   4.028   2.479 -0.0425  0.2878  0.6663
 3878TIP3    H133049   3.799   3.942   2.450  2.7131  0.9146  1.1656
 3878TIP3    H233050   3.689   4.012   2.527 -0.7335 -1.6903 -1.0209
 3879TIP3   OH233051   3.512   5.821  11.712 -0.2682 -0.0193 -0.7167
 3879TIP3    H133052   3.518   5.768  11.633 -1.1522 -1.5379  0.1977
 3879TIP3    H233053   3.436   5.878  11.698 -1.4775 -1.4819 -0.2967
 3880TIP3   OH233054   5.932   3.896  11.610 -0.6467  0.0645  0.0068
 3880TIP3    H133055   6.005   3.859  11.561  1.7225  2.1786  1.6590
 3880TIP3    H233056   5.883   3.947  11.545  0.0206 -0.4503 -0.9304
 3881TIP3   OH233057   2.101   0.880   1.241  0.9582  0.3956  0.2093
 3881TIP3    H133058   2.107   0.941   1.314  0.0624  1.2068 -0.3764
 3881TIP3    H233059   2.008   0.882   1.215  1.4862  1.1374 -1.7913
 3882TIP3   OH233060   6.747   4.525   0.608 -0.4193  0.3106 -0.2260
 3882TIP3    H133061   6.797   4.607   0.604  0.0147  0.1043  0.7335
 3882TIP3    H233062   6.789   4.475   0.678 -1.9760  0.1441  0.6411
 3883TIP3   OH233063   5.013   3.472  13.970 -0.4188  0.4953 -0.3052
 3883TIP3    H133064   5.092   3.419  13.965  0.3312  0.9481  3.8056
 3883TIP3    H233065   5.037   3.555  13.929  1.1028  0.4336  0.3907
 3884TIP3   OH233066   5.267   0.325  16.205 -0.6405  0.1647 -0.1647
 3884TIP3    H133067   5.254   0.417  16.226 -1.4009 -0.4196  2.3172
 3884TIP3    H233068   5.186   0.298  16.162 -0.5357  0.5672 -0.6196
 3885TIP3   OH233069   4.029   2.069  16.857  0.5964  0.1896 -0.3998
 3885TIP3    H133070   3.948   2.120  16.853  0.0105 -0.7653 -1.1431
 3885TIP3    H233071   4.039   2.048  16.950  0.0377  0.3745 -0.2882
 3886TIP3   OH233072   4.563   1.201   4.339 -0.4810 -0.0307  0.1901
 3886TIP3    H133073   4.568   1.136   4.409 -0.3665 -1.0837 -0.7588
 3886TIP3    H233074   4.655   1.221   4.319 -0.4825 -0.5812 -0.4030
 3887TIP3   OH233075   0.823   2.024   4.205  0.4902 -0.0239  0.2425
 3887TIP3    H133076   0.812   2.076   4.285 -0.9472 -0.2015  0.1871
 3887TIP3    H233077   0.733   2.003   4.178  0.9546 -3.0416  0.6207
 3888TIP3   OH233078   3.002   1.098  11.667  0.2616  0.0865 -0.6703
 3888TIP3    H133079   3.027   1.188  11.644 -1.5042  0.7795 -0.0255
 3888TIP3    H233080   2.990   1.054  11.583  4.1432 -0.5427 -1.0890
 3889TIP3   OH233081   3.289   5.173   4.524  0.0240  0.0624 -0.1479
 3889TIP3    H133082   3.251   5.140   4.443 -0.3554 -0.3800  0.2111
 3889TIP3    H233083   3.240   5.130   4.594  1.1621 -0.4966  0.3204
 3890TIP3   OH233084   1.701   5.303   2.176 -0.1232  0.1988 -0.0369
 3890TIP3    H133085   1.650   5.265   2.104  0.5253 -3.2799  1.1220
 3890TIP3    H233086   1.792   5.298   2.146  0.0614 -0.2587  0.5842
 3891TIP3   OH233087   2.357   0.255   1.018  0.1676  1.0337  0.7699
 3891TIP3    H133088   2.304   0.333   1.031  0.2370  0.8542  2.3967
 3891TIP3    H233089   2.309   0.185   1.063  0.2180  0.1758 -0.4613
 3892TIP3   OH233090   5.764   6.394   1.365  0.3676 -0.3156 -0.0631
 3892TIP3    H133091   5.724   6.455   1.427 -1.3918  0.3242 -1.7085
 3892TIP3    H233092   5.710   6.315   1.371  0.0319 -0.1659 -0.8746
 3893TIP3   OH233093   2.635   1.759  11.624 -0.2992 -0.2519 -0.0670
 3893TIP3    H133094   2.562   1.821  11.615 -1.0274 -1.0473  0.1862
 3893TIP3    H233095   2.635   1.711  11.541 -0.0658 -0.2605 -0.0617
 3894TIP3   OH233096   6.609   6.214   4.066 -0.0858  0.2127 -0.0332
 3894TIP3    H133097   6.547   6.148   4.036 -0.7064  0.7955 -0.0659
 3894TIP3    H233098   6.676   6.165   4.114 -1.7619 -0.2521  1.9912
 3895TIP3   OH233099   0.395   3.010   2.163 -0.7052 -0.2957 -0.5203
 3895TIP3    H133100   0.472   3.032   2.111 -0.4083 -0.5402 -0.1924
 3895TIP3    H233101   0.340   2.959   2.104 -0.3388 -0.6299 -0.5853
 3896TIP3   OH233102   4.083   5.397  11.363 -0.9013 -0.4262 -0.1305
 3896TIP3    H133103   4.121   5.310  11.344 -0.0343 -0.2274  0.6161
 3896TIP3    H233104   4.152   5.442  11.412 -1.0458  0.9703 -1.1698
 3897TIP3   OH233105   1.841   1.266  11.166  0.9266 -0.2069  0.3365
 3897TIP3    H133106   1.759   1.219  11.182  1.5197 -1.3568  0.1305
 3897TIP3    H233107   1.909   1.200  11.182  1.7310 -0.1299 -2.3116
 3898TIP3   OH233108   4.671   0.385  14.763 -0.3426 -0.2369  0.3204
 3898TIP3    H133109   4.626   0.310  14.801  2.2560 -1.3231  1.4697
 3898TIP3    H233110   4.682   0.446  14.835  0.0100  0.0290  0.0466
 3899TIP3   OH233111   2.254   0.649  16.137  0.4067 -0.2102 -0.1954
 3899TIP3    H133112   2.202   0.572  16.116 -0.5117  0.1214  0.8009
 3899TIP3    H233113   2.195   0.723  16.120  0.5028  0.1666  1.0170
 3900TIP3   OH233114   1.008   2.505  12.954  0.5382 -0.3291  0.2369
 3900TIP3    H133115   0.974   2.450  13.026  0.4357 -0.8873 -0.2290
 3900TIP3    H233116   1.046   2.442  12.893 -1.5861 -0.1341 -1.4131
 3901TIP3   OH233117   2.219   1.567  14.532 -0.7292  0.4896 -0.0061
 3901TIP3    H133118   2.236   1.636  14.468  0.4998 -0.6667 -1.0055
 3901TIP3    H233119   2.124   1.567  14.542 -0.8587  1.4579 -0.9802
 3902TIP3   OH233120   0.781   5.446   2.956  0.8325  0.1728 -0.4374
 3902TIP3    H133121   0.750   5.482   3.039  0.3903 -0.4570 -0.3204
 3902TIP3    H233122   0.721   5.483   2.891  0.6838  0.0410 -0.3768
 3903TIP3   OH233123   6.339   4.388   1.076 -0.1560 -0.2460  0.3988
 3903TIP3    H133124   6.299   4.408   1.161 -1.9242 -0.3688 -0.3510
 3903TIP3    H233125   6.340   4.292   1.072  0.3309 -0.2457  0.4512
 3904TIP3   OH233126   6.686   4.874   4.015 -0.1846  0.2476  0.0543
 3904TIP3    H133127   6.716   4.796   3.968 -0.2367  1.0489 -1.3840
 3904TIP3    H233128   6.690   4.944   3.949 -2.8497  0.9023  0.4687
 3905TIP3   OH233129   3.841   0.210  13.357  0.8951 -0.3528 -0.0055
 3905TIP3    H133130   3.793   0.244  13.282 -0.4967 -1.3517  0.4055
 3905TIP3    H233131   3.827   0.274  13.427 -0.5842 -1.0427  0.3612
 3906TIP3   OH233132   2.155   3.066   5.853 -0.1852  0.1940  0.3105
 3906TIP3    H133133   2.145   3.160   5.842  0.6748  0.1370 -1.2282
 3906TIP3    H233134   2.170   3.054   5.947  1.7280  1.8026  0.2615
 3907TIP3   OH233135   2.418   3.010   0.482  0.2408 -0.1124  0.4336
 3907TIP3    H133136   2.343   2.952   0.498  0.9278 -1.6574 -1.5050
 3907TIP3    H233137   2.487   2.974   0.538 -0.0592  0.4938  1.2139
 3908TIP3   OH233138   5.254   6.397  11.219  0.8002 -0.0285 -0.2075
 3908TIP3    H133139   5.340   6.403  11.177  0.7250  1.3777 -0.1995
 3908TIP3    H233140   5.192   6.406  11.147  0.5906 -2.5219 -0.4350
 3909TIP3   OH233141   2.418   5.359   0.235 -0.3865 -0.2024  0.0749
 3909TIP3    H133142   2.384   5.388   0.319 -0.1424  2.5179 -0.6424
 3909TIP3    H233143   2.418   5.264   0.239 -0.5417 -0.1467  3.0566
 3910TIP3   OH233144   1.642   3.842   3.231 -0.5601  0.3905 -0.1103
 3910TIP3    H133145   1.628   3.904   3.160  2.5442  0.5866 -0.6820
 3910TIP3    H233146   1.565   3.785   3.228 -1.3801  1.4876 -2.4393
 3911TIP3   OH233147   4.304   1.491  12.748 -0.2311  0.0375 -0.0314
 3911TIP3    H133148   4.374   1.556  12.746  0.7832 -0.9798  0.8659
 3911TIP3    H233149   4.267   1.499  12.836 -0.2547 -0.4348  0.0024
 3912TIP3   OH233150   4.981   5.017   3.643 -0.0549 -0.3460  0.2183
 3912TIP3    H133151   4.999   5.107   3.671 -1.3571 -0.4564  1.5199
 3912TIP3    H233152   4.952   5.025   3.552 -0.7794  0.6230  0.5242
 3913TIP3   OH233153   3.098   3.305  11.109  0.1325  0.0155  0.2860
 3913TIP3    H133154   3.054   3.358  11.042 -0.0253 -1.0446 -0.4713
 3913TIP3    H233155   3.087   3.355  11.190  0.7883  1.5920 -0.5507
 3914TIP3   OH233156   3.461   5.555   4.725 -0.1780 -0.0342  0.5783
 3914TIP3    H133157   3.471   5.632   4.669  0.9317 -0.4530  0.1665
 3914TIP3    H233158   3.414   5.491   4.671 -2.9957  0.9986  1.6028
 3915TIP3   OH233159   2.546   6.678   3.840  0.0279 -0.7360  0.2887
 3915TIP3    H133160   2.511   6.599   3.883 -3.3821 -0.6604 -1.9788
 3915TIP3    H233161   2.497   6.750   3.879  0.5822 -0.1076 -0.1574
 3916TIP3   OH233162   1.727   0.136  16.555  0.2991  0.2779  0.0156
 3916TIP3    H133163   1.671   0.076  16.605 -0.3392 -0.1840 -1.2144
 3916TIP3    H233164   1.792   0.167  16.619 -0.1958 -0.6587  1.0065
 3917TIP3   OH233165   0.764   4.896  11.316  0.3183  0.1456  0.3218
 3917TIP3    H133166   0.811   4.858  11.390 -0.6643 -0.4259  0.6763
 3917TIP3    H233167   0.741   4.984  11.345 -0.0784 -0.0812  0.7145
 3918TIP3   OH233168   1.195   0.386   0.108 -0.3827 -0.4250  0.2314
 3918TIP3    H133169   1.244   0.353   0.183  0.3462 -0.3297 -0.1890
 3918TIP3    H233170   1.188   0.481   0.123  4.2458  0.6249 -2.1451
 3919TIP3   OH233171   2.162   4.681   3.547 -0.2017  0.3658  0.2974
 3919TIP3    H133172   2.085   4.707   3.497 -0.1344  1.1959  0.5959
 3919TIP3    H233173   2.227   4.749   3.528 -0.0540  0.5025  1.1996
 3920TIP3   OH233174   5.220   4.927   0.287 -0.4667 -0.2830 -0.6114
 3920TIP3    H133175   5.256   4.943   0.374 -0.6998 -0.5901 -0.4598
 3920TIP3    H233176   5.126   4.913   0.301 -0.4382 -0.7501 -0.8622
 3921TIP3   OH233177   0.390   6.427   2.142  0.0397  0.1787  0.3231
 3921TIP3    H133178   0.459   6.451   2.080  0.0669  1.4073  0.7848
 3921TIP3    H233179   0.436   6.418   2.226 -0.0335 -1.2190  0.2228
 3922TIP3   OH233180   1.031   3.994   2.554 -0.0698 -0.0974 -0.5801
 3922TIP3    H133181   1.086   3.921   2.524  0.7220  1.1045 -2.2600
 3922TIP3    H233182   1.035   3.989   2.649  1.5998 -1.0563 -0.6485
 3923TIP3   OH233183   6.130   0.223   0.040  0.2719  0.2524 -0.5884
 3923TIP3    H133184   6.203   0.175   0.078 -0.0990  0.1461  0.0089
 3923TIP3    H233185   6.146   0.315   0.064 -1.1951 -0.0646  2.0062
 3924TIP3   OH233186   4.538   4.797  16.933  0.3800 -0.8409 -0.5856
 3924TIP3    H133187   4.608   4.753  16.885  0.0425 -1.4637 -0.5171
 3924TIP3    H233188   4.497   4.855  16.868  1.1994 -0.1678 -0.5260
 3925TIP3   OH233189   5.606   4.088  15.451  0.0883 -0.1314  0.0907
 3925TIP3    H133190   5.671   4.154  15.474 -0.4553 -0.1218  1.7540
 3925TIP3    H233191   5.595   4.036  15.530  0.2559 -2.0484 -1.0703
 3926TIP3   OH233192   2.948   3.798  12.164  0.4727 -0.2071  0.7225
 3926TIP3    H133193   2.911   3.776  12.078 -0.8035  0.2486  1.1471
 3926TIP3    H233194   3.024   3.852  12.144 -0.5619  0.9819 -0.0964
 3927TIP3   OH233195   6.650   5.704   3.971 -0.3288 -0.7839  0.0897
 3927TIP3    H133196   6.745   5.704   3.982 -0.2642  0.4727 -0.3803
 3927TIP3    H233197   6.628   5.611   3.961  0.8120 -1.1138  0.4721
 3928TIP3   OH233198   0.793   0.871   2.654 -0.1004 -0.1061  0.4640
 3928TIP3    H133199   0.832   0.880   2.741  0.9016  0.3495 -0.0201
 3928TIP3    H233200   0.860   0.826   2.603 -0.2866  0.5161 -0.3350
 3929TIP3   OH233201   1.153   2.696  15.615 -0.5817  0.1424  0.2071
 3929TIP3    H133202   1.228   2.699  15.556 -1.0375  1.7094 -0.3457
 3929TIP3    H233203   1.173   2.760  15.683 -1.4016  0.5909  0.0453
 3930TIP3   OH233204   1.943   1.425  15.310  0.1038 -0.2620  0.1546
 3930TIP3    H133205   1.969   1.348  15.362 -2.4140 -0.0673  1.8771
 3930TIP3    H233206   2.002   1.494  15.340  1.1378 -1.0424 -0.0098
 3931TIP3   OH233207   4.846   1.655   2.392 -0.4492  0.2666  0.0346
 3931TIP3    H133208   4.844   1.700   2.477  1.1162 -1.0298  0.8170
 3931TIP3    H233209   4.830   1.563   2.413 -0.1735 -0.0526 -1.0926
 3932TIP3   OH233210   4.815   5.232   4.225  0.1713 -1.0870  0.4569
 3932TIP3    H133211   4.754   5.188   4.284  1.5376  0.1480  2.9882
 3932TIP3    H233212   4.898   5.233   4.273  1.1157  0.8923 -1.0704
 3933TIP3   OH233213   3.878   6.736  13.100  0.0640  0.1274 -0.2146
 3933TIP3    H133214   3.884   6.817  13.049 -1.2820 -0.1032 -0.7914
 3933TIP3    H233215   3.861   6.668  13.034  2.2821 -0.8390  0.1302
 3934TIP3   OH233216   3.447   1.048   3.544 -0.3950 -0.3263 -0.8090
 3934TIP3    H133217   3.356   1.037   3.518 -0.6243  0.6290 -0.4360
 3934TIP3    H233218   3.458   0.988   3.618 -1.1642  0.6606  0.1368
 3935TIP3   OH233219   2.594   2.357   1.795  0.4628 -0.0299  0.3849
 3935TIP3    H133220   2.610   2.393   1.707 -0.9170 -0.4028 -0.0395
 3935TIP3    H233221   2.672   2.304   1.814  0.7615  0.0251 -0.6249
 3936TIP3   OH233222   1.765   6.041  15.017 -0.0828  0.2707  0.0889
 3936TIP3    H133223   1.714   5.966  14.987 -1.4726  1.2213 -0.0456
 3936TIP3    H233224   1.820   6.065  14.942  0.1941 -0.4568  0.0549
 3937TIP3   OH233225   3.404   6.637  11.138 -0.4969 -0.1261 -0.5247
 3937TIP3    H133226   3.456   6.716  11.157 -0.0452 -0.6673  0.5693
 3937TIP3    H233227   3.334   6.668  11.081  0.3151  0.8558 -1.0302
 3938TIP3   OH233228   6.453   0.148   0.268  0.6733 -0.4637 -0.1152
 3938TIP3    H133229   6.435   0.108   0.183  1.9424  0.4024 -0.8251
 3938TIP3    H233230   6.450   0.076   0.330 -2.5257 -0.8022 -0.5002
 3939TIP3   OH233231   5.731   4.470  14.435 -0.0357 -0.3336 -0.1518
 3939TIP3    H133232   5.660   4.411  14.457 -1.2514  0.8857 -0.6826
 3939TIP3    H233233   5.760   4.507  14.518 -0.2871 -0.5415  0.0258
 3940TIP3   OH233234   1.457   2.422  13.172 -0.0676 -0.2691 -0.3444
 3940TIP3    H133235   1.513   2.487  13.214  0.4786 -2.5659  2.7849
 3940TIP3    H233236   1.517   2.363  13.127 -0.2950 -0.4311 -0.4386
 3941TIP3   OH233237   1.416   2.388   2.161 -0.0388  0.2120  0.6712
 3941TIP3    H133238   1.360   2.364   2.088  1.3200 -0.9116 -0.0466
 3941TIP3    H233239   1.399   2.482   2.174 -1.5069  0.0619  0.0095
 3942TIP3   OH233240   5.932   5.401  15.165 -0.6381 -0.1146 -0.7861
 3942TIP3    H133241   5.953   5.373  15.255 -0.2671  0.3142 -0.7392
 3942TIP3    H233242   5.985   5.478  15.151 -2.3601  1.1749 -0.5614
 3943TIP3   OH233243   4.441   6.026   2.643  0.0174  0.2349  0.0137
 3943TIP3    H133244   4.413   5.943   2.605  1.1709 -0.0849 -0.1588
 3943TIP3    H233245   4.368   6.086   2.627 -0.4698 -0.5222 -0.6102
 3944TIP3   OH233246   1.482   0.217  12.701  0.1180 -0.3785 -0.2413
 3944TIP3    H133247   1.548   0.225  12.769 -0.3013 -0.2620  0.1628
 3944TIP3    H233248   1.431   0.139  12.726  1.3728 -1.7053 -1.6791
 3945TIP3   OH233249   1.177   2.583  10.647 -0.0230 -0.0781 -0.2484
 3945TIP3    H133250   1.237   2.547  10.713 -0.3052  0.7880  0.5099
 3945TIP3    H233251   1.164   2.512  10.585  1.2331 -0.5189 -0.0434
 3946TIP3   OH233252   1.525   3.077   3.100 -0.1101 -0.3750  0.5091
 3946TIP3    H133253   1.515   3.055   3.193 -1.8095 -1.6366  0.0944
 3946TIP3    H233254   1.565   2.999   3.062 -0.9901 -0.5637 -0.0663
 3947TIP3   OH233255   3.747   0.568   3.763 -0.2330  0.5442  0.3473
 3947TIP3    H133256   3.748   0.581   3.668  1.0274 -0.9899  0.1057
 3947TIP3    H233257   3.686   0.496   3.777  0.0254  0.3786  0.6406
 3948TIP3   OH233258   1.331   0.084   3.833  0.3349 -0.4414  0.3391
 3948TIP3    H133259   1.394   0.015   3.855 -0.6419 -1.6993 -0.6195
 3948TIP3    H233260   1.283   0.101   3.914  2.4650  1.2372  1.3627
 3949TIP3   OH233261   3.403   5.497  11.838 -0.4106  0.0379 -0.1802
 3949TIP3    H133262   3.476   5.510  11.898  1.1866 -2.0751 -1.5246
 3949TIP3    H233263   3.392   5.402  11.834 -3.2469  0.2695 -0.0929
 3950TIP3   OH233264   2.636   4.918  12.164  0.5196 -0.1103  0.3119
 3950TIP3    H133265   2.599   4.966  12.238 -0.7429  0.6465 -0.7796
 3950TIP3    H233266   2.720   4.961  12.147  1.2735 -0.8728  1.8410
 3951TIP3   OH233267   0.531   1.439  12.314  0.5493  0.4433  0.6607
 3951TIP3    H133268   0.499   1.480  12.233  1.9412  1.1923  0.4603
 3951TIP3    H233269   0.616   1.402  12.290 -0.9896 -3.4376  0.5893
 3952TIP3   OH233270   0.327   5.017   3.327 -0.0127  0.2579  0.2510
 3952TIP3    H133271   0.313   4.924   3.343  1.2490 -0.2157 -1.1497
 3952TIP3    H233272   0.356   5.022   3.236 -0.5498  2.0869  0.1346
 3953TIP3   OH233273   6.118   6.135  15.689  0.0676  0.2284 -0.8064
 3953TIP3    H133274   6.189   6.187  15.651  0.0956  0.0027 -1.0673
 3953TIP3    H233275   6.153   6.046  15.691  1.7293  0.6868  3.5039
 3954TIP3   OH233276   0.322   2.410   1.232  0.1924 -0.0096  0.5127
 3954TIP3    H133277   0.305   2.316   1.237 -1.0837  0.2867  2.1805
 3954TIP3    H233278   0.236   2.450   1.226  0.6969  1.0976  0.4503
 3955TIP3   OH233279   3.899   2.948   4.208  0.2662  0.2991 -0.0276
 3955TIP3    H133280   3.856   2.952   4.293  2.1502  1.3887  0.9414
 3955TIP3    H233281   3.930   2.857   4.202 -2.4658 -0.6518 -0.9799
 3956TIP3   OH233282   4.064   3.156   4.405  0.2782  0.0361  0.3006
 3956TIP3    H133283   4.110   3.223   4.354 -0.4953  0.8141  0.6117
 3956TIP3    H233284   3.977   3.153   4.366  0.3650 -0.9450  0.1595
 3957TIP3   OH233285   5.677   1.236  13.090 -0.1887 -0.2709 -0.2665
 3957TIP3    H133286   5.732   1.160  13.110  1.6176  0.1713 -3.0193
 3957TIP3    H233287   5.687   1.294  13.166  1.2401 -1.2636  0.3346
 3958TIP3   OH233288   4.722   5.009   1.103  0.2219  0.4792  0.2281
 3958TIP3    H133289   4.775   4.953   1.159 -0.6944 -0.8297 -0.1520
 3958TIP3    H233290   4.740   4.978   1.014 -0.1468  0.9183 -0.0046
 3959TIP3   OH233291   1.966   5.693  12.863  1.4629  0.5838 -0.2357
 3959TIP3    H133292   1.878   5.666  12.837  0.9661  1.1786  0.7269
 3959TIP3    H233293   2.025   5.639  12.811  0.5408 -1.7501  0.9954
 3960TIP3   OH233294   0.500   4.532  16.120  0.6737  0.6267  0.5378
 3960TIP3    H133295   0.449   4.530  16.201  0.8200  2.5473  0.7298
 3960TIP3    H233296   0.586   4.496  16.145  0.2054 -0.3310  0.8108
 3961TIP3   OH233297   0.915   4.028  13.690 -0.1997  0.2078 -0.6012
 3961TIP3    H133298   0.905   3.942  13.731  2.4336 -0.2817 -0.7649
 3961TIP3    H233299   0.934   4.008  13.598  1.6169  0.8308 -0.4020
 3962TIP3   OH233300   2.977   3.425   1.153 -0.2157 -0.5051 -0.1247
 3962TIP3    H133301   2.919   3.436   1.078 -0.8600  0.6602  0.5142
 3962TIP3    H233302   3.023   3.509   1.160  0.4410 -0.8910  0.2835
 3963TIP3   OH233303   2.585   2.020   0.400 -0.2891 -0.0793 -0.0091
 3963TIP3    H133304   2.644   2.038   0.326 -0.6162 -0.7667 -0.4417
 3963TIP3    H233305   2.639   2.035   0.478 -0.1585  1.4408 -0.3538
 3964TIP3   OH233306   1.858   4.526   0.342  0.3186  0.1369 -0.0018
 3964TIP3    H133307   1.939   4.495   0.382 -0.4668 -1.7126  0.2698
 3964TIP3    H233308   1.792   4.516   0.411 -0.1796  1.5228 -0.2440
 3965TIP3   OH233309   3.337   0.453  13.617 -0.1444 -0.3275 -0.4199
 3965TIP3    H133310   3.314   0.425  13.528 -2.3729 -0.1467  0.0474
 3965TIP3    H233311   3.256   0.487  13.654  0.5623 -0.9761  1.9245
 3966TIP3   OH233312   4.877   1.060   3.268 -0.7181 -0.2715  0.3179
 3966TIP3    H133313   4.969   1.036   3.260 -0.2620  1.5895 -0.4566
 3966TIP3    H233314   4.834   1.011   3.198  0.1296  0.7834 -0.9873
 3967TIP3   OH233315   1.884   4.052   4.553  0.3537  0.3480 -0.1627
 3967TIP3    H133316   1.940   4.089   4.485 -0.2577  3.5600  0.8912
 3967TIP3    H233317   1.810   4.113   4.559 -0.7810 -1.0841  1.8288
 3968TIP3   OH233318   2.068   4.888   1.522  0.0278  0.4340 -0.1335
 3968TIP3    H133319   2.160   4.915   1.517  0.2870 -0.7010 -2.3209
 3968TIP3    H233320   2.020   4.959   1.480  0.1618  0.0144 -1.0215
 3969TIP3   OH233321   5.035   0.721   1.309  0.4013  0.4641 -0.7021
 3969TIP3    H133322   5.121   0.711   1.349  0.3364  0.1150 -0.6472
 3969TIP3    H233323   5.029   0.648   1.247  0.1822  0.5433 -0.7754
 3970TIP3   OH233324   1.172   0.705  11.669 -0.0758  0.1742 -0.5437
 3970TIP3    H133325   1.189   0.638  11.603 -1.9943  0.4138 -1.3616
 3970TIP3    H233326   1.258   0.738  11.694  0.7376 -0.3828 -2.4546
 3971TIP3   OH233327   1.556   6.786  16.722 -0.0349 -0.1619 -0.4214
 3971TIP3    H133328   1.581   6.707  16.770  1.0174  0.5236  0.2165
 3971TIP3    H233329   1.482   6.822  16.771  0.4060  0.0065  0.1381
 3972TIP3   OH233330   6.543   4.054  14.204 -0.0785  0.5487 -0.5014
 3972TIP3    H133331   6.516   3.986  14.266  2.8640 -0.3826 -0.1048
 3972TIP3    H233332   6.532   4.013  14.118 -0.7491  0.5230 -0.4086
 3973TIP3   OH233333   0.151   1.540   5.408  0.1677  0.6249  0.1932
 3973TIP3    H133334   0.149   1.555   5.502  0.8754  1.6255  0.0573
 3973TIP3    H233335   0.060   1.519   5.386  0.0323  0.1742  1.1141
 3974TIP3   OH233336   2.642   2.222   2.927  0.2475 -0.3578 -0.0998
 3974TIP3    H133337   2.650   2.309   2.967  2.0255  0.1278 -1.3801
 3974TIP3    H233338   2.684   2.163   2.989  1.5700  0.1456 -0.4929
 3975TIP3   OH233339   5.150   0.145  11.795  0.3535  0.6383 -0.3169
 3975TIP3    H133340   5.104   0.100  11.866  1.1339  1.3302  0.6481
 3975TIP3    H233341   5.129   0.094  11.717  0.3938 -0.7972  0.5866
 3976TIP3   OH233342   4.572   1.252  11.795  0.6014 -0.0218 -0.1459
 3976TIP3    H133343   4.657   1.278  11.830  0.9717 -0.7478 -0.4823
 3976TIP3    H233344   4.550   1.322  11.733 -0.2173  1.4406  1.7220
 3977TIP3   OH233345   3.366   6.041   5.922 -0.0166  0.1417  0.0248
 3977TIP3    H133346   3.439   5.992   5.961  1.7427  0.1504 -2.9752
 3977TIP3    H233347   3.314   6.070   5.997  1.6037 -2.0870  2.1657
 3978TIP3   OH233348   2.736   3.981   4.718 -0.1785 -0.0775  0.0871
 3978TIP3    H133349   2.723   3.910   4.655  1.8096  1.3402 -2.0586
 3978TIP3    H233350   2.801   4.038   4.678 -0.3941  2.0703  2.5099
 3979TIP3   OH233351   0.603   1.772   4.338 -0.2096  0.7345  0.2458
 3979TIP3    H133352   0.528   1.743   4.391  1.3122  1.1831  2.7996
 3979TIP3    H233353   0.595   1.722   4.257 -1.6969 -1.4085  1.5845
 3980TIP3   OH233354   6.555   4.884   6.379  0.1599 -0.2707  0.7299
 3980TIP3    H133355   6.523   4.972   6.398 -1.1473 -0.1859 -1.5274
 3980TIP3    H233356   6.477   4.828   6.385 -0.0754 -0.4532 -2.4292
 3981TIP3   OH233357   4.357   1.938  12.769 -0.7752 -1.0284 -0.4793
 3981TIP3    H133358   4.421   1.962  12.836 -1.5078 -1.3407  0.3633
 3981TIP3    H233359   4.396   1.865  12.722  0.0069 -0.4127 -0.8053
 3982TIP3   OH233360   1.843   6.679   5.801  0.3298  0.7432  0.7739
 3982TIP3    H133361   1.776   6.668   5.867  1.5162 -2.0841  1.6386
 3982TIP3    H233362   1.897   6.752   5.833 -0.4168  0.8783  1.7542
 3983TIP3   OH233363   1.012   5.303   4.875  0.2326 -0.1292  0.0982
 3983TIP3    H133364   1.022   5.209   4.893  0.4002 -0.1720 -0.2057
 3983TIP3    H233365   1.072   5.319   4.802 -2.1169 -0.4507 -2.0179
 3984TIP3   OH233366   4.978   1.080  16.468  0.2201 -0.2088 -0.2581
 3984TIP3    H133367   4.966   1.019  16.540  1.1608 -1.7042 -1.3037
 3984TIP3    H233368   5.013   1.159  16.509 -0.6033 -0.4981  1.0716
 3985TIP3   OH233369   3.217   3.235  10.481 -0.6427  0.2697 -0.5231
 3985TIP3    H133370   3.135   3.224  10.530 -0.2845 -0.5103 -0.0682
 3985TIP3    H233371   3.210   3.321  10.441 -2.2692 -0.3028 -1.5923
 3986TIP3   OH233372   0.926   4.270  16.377  0.8175 -0.0935  0.3465
 3986TIP3    H133373   0.999   4.223  16.418  1.8226 -1.3044 -2.5323
 3986TIP3    H233374   0.852   4.209  16.382  1.2839 -0.7705 -0.6717
 3987TIP3   OH233375   5.833   3.316   1.370 -0.1714  0.1891 -0.1646
 3987TIP3    H133376   5.743   3.297   1.396 -0.0143 -0.7408 -0.2405
 3987TIP3    H233377   5.884   3.244   1.408  0.8448  1.8011  1.6300
 3988TIP3   OH233378   1.948   4.226   0.630 -0.0558  0.1935 -0.4738
 3988TIP3    H133379   1.993   4.211   0.547 -0.6339 -0.3250 -0.6929
 3988TIP3    H233380   2.000   4.177   0.694  1.2426  1.7541 -0.2514
 3989TIP3   OH233381   0.524   1.086  13.097 -0.0015 -0.4227  0.1931
 3989TIP3    H133382   0.579   1.105  13.021 -0.9754  0.2709 -0.3520
 3989TIP3    H233383   0.460   1.024  13.065  1.7444 -3.0386  1.3831
 3990TIP3   OH233384   0.313   4.253  13.693 -0.6132  0.3882 -0.3353
 3990TIP3    H133385   0.402   4.248  13.660 -0.6650 -0.2612 -0.3912
 3990TIP3    H233386   0.262   4.198  13.634 -1.0773  0.8501 -0.3743
 3991TIP3   OH233387   1.755   6.278   1.156  0.3011  0.6384 -0.5392
 3991TIP3    H133388   1.805   6.197   1.156  1.1974  1.1740 -0.8190
 3991TIP3    H233389   1.803   6.337   1.214  0.1778  1.2621 -1.0501
 3992TIP3   OH233390   2.718   3.141  12.979 -0.1229  0.3657  0.4448
 3992TIP3    H133391   2.723   3.136  13.075 -0.7134  1.1791  0.5230
 3992TIP3    H233392   2.697   3.051  12.953 -1.5589  0.4589  1.1925
 3993TIP3   OH233393   5.937   3.264  13.487 -0.7792 -0.6431 -0.0138
 3993TIP3    H133394   5.987   3.324  13.543  1.0620 -1.1572 -1.0088
 3993TIP3    H233395   5.928   3.184  13.539 -1.4502 -0.2099  0.5448
 3994TIP3   OH233396   4.150   6.130   6.341  0.0681  0.0394  0.3782
 3994TIP3    H133397   4.147   6.076   6.263  2.5918 -1.1979  1.0400
 3994TIP3    H233398   4.107   6.212   6.315 -0.8748 -1.0298 -1.6629
 3995TIP3   OH233399   2.764   4.144   5.264  0.7555  0.5971  0.1240
 3995TIP3    H133400   2.730   4.225   5.227  0.0653  1.2706  2.1181
 3995TIP3    H233401   2.687   4.098   5.296  1.2464 -0.3658 -0.0328
 3996TIP3   OH233402   5.288   5.501   5.611 -0.4237  0.4077 -0.3601
 3996TIP3    H133403   5.241   5.510   5.694 -2.5873  4.3585 -1.7377
 3996TIP3    H233404   5.219   5.503   5.544  1.1733 -3.2710 -2.4060
 3997TIP3   OH233405   1.317   0.319   5.826 -0.3148  0.6869 -0.3008
 3997TIP3    H133406   1.273   0.237   5.849 -0.6146  1.3672  1.7801
 3997TIP3    H233407   1.255   0.387   5.850  0.7711  1.5829  0.0633
 3998TIP3   OH233408   3.382   5.362   6.843 -0.8369  0.5053 -0.1173
 3998TIP3    H133409   3.397   5.440   6.789  0.5575  0.4821  0.1914
 3998TIP3    H233410   3.463   5.353   6.894 -0.8983 -1.2394 -0.2697
 3999TIP3   OH233411   3.822   3.021   2.493  0.0835 -0.3370 -0.0689
 3999TIP3    H133412   3.911   3.033   2.526  0.1304  0.8148 -0.5677
 3999TIP3    H233413   3.767   3.029   2.571  0.2652  1.3582 -0.0784
 4000TIP3   OH233414   0.930   1.903   5.510 -0.2862 -0.4539 -0.1673
 4000TIP3    H133415   0.957   1.812   5.498 -0.6343 -0.8526  1.6455
 4000TIP3    H233416   0.996   1.940   5.569 -0.7707  0.1140  0.0284
 4001TIP3   OH233417   1.653   0.017  13.635 -0.0391  0.2442 -0.8696
 4001TIP3    H133418   1.668   0.110  13.653  0.6874 -0.1838  0.9209
 4001TIP3    H233419   1.734  -0.013  13.595  0.0500  0.1936 -0.6519
 4002TIP3   OH233420   3.374   3.318  15.158  0.3540  0.3632  0.7531
 4002TIP3    H133421   3.444   3.307  15.222  2.6850 -0.3412 -1.7318
 4002TIP3    H233422   3.337   3.230  15.147  0.7995  0.2258  0.2887
 4003TIP3   OH233423   5.860   3.948  14.762 -0.2113 -0.1339  0.5530
 4003TIP3    H133424   5.796   3.964  14.693 -0.3918 -1.6971  0.3352
 4003TIP3    H233425   5.918   4.024  14.759 -0.2089 -0.1810 -1.3431
 4004TIP3   OH233426   2.569   3.173  10.800 -0.5883 -0.4299  0.1783
 4004TIP3    H133427   2.556   3.079  10.789 -0.0473 -0.4228 -0.5938
 4004TIP3    H233428   2.524   3.212  10.725  1.2324 -0.2334 -0.8707
 4005TIP3   OH233429   3.430   4.227   5.797 -0.1086 -0.3955  0.0821
 4005TIP3    H133430   3.344   4.251   5.763 -0.9647 -3.6108 -0.3747
 4005TIP3    H233431   3.416   4.211   5.891 -0.1833 -1.3838 -0.0801
 4006TIP3   OH233432   0.571   6.295   6.021 -0.1161  0.1544  0.0544
 4006TIP3    H133433   0.604   6.369   6.073  0.3924 -0.9165  1.3011
 4006TIP3    H233434   0.482   6.281   6.054 -0.0531 -0.0778  0.1230
 4007TIP3   OH233435   5.218   5.929  11.412 -0.2243  0.2278 -0.5512
 4007TIP3    H133436   5.262   5.864  11.358  0.6489  1.8826 -1.9253
 4007TIP3    H233437   5.289   5.971  11.461 -0.8919 -0.5386  1.1627
 4008TIP3   OH233438   2.830   0.967  16.948 -0.3820 -0.1444  0.1743
 4008TIP3    H133439   2.815   0.936  16.859 -1.2862  3.4785 -1.1258
 4008TIP3    H233440   2.921   0.997  16.948 -0.4137 -0.0482  0.4156
 4009TIP3   OH233441   0.338   4.662  15.695 -0.7560 -0.5461 -0.1284
 4009TIP3    H133442   0.422   4.687  15.735 -0.9103 -0.4906  0.1682
 4009TIP3    H233443   0.318   4.733  15.634 -0.2035 -0.9435 -0.7884
 4010TIP3   OH233444   6.021   5.741  16.434  0.3567  0.2781  0.8320
 4010TIP3    H133445   6.051   5.718  16.522 -0.3594 -1.7518  0.5921
 4010TIP3    H233446   5.954   5.807  16.448 -0.0172 -0.3010  1.8611
 4011TIP3   OH233447   1.372   6.649   2.751  0.7466  0.4573  0.4506
 4011TIP3    H133448   1.350   6.724   2.697  0.6857  0.2523  0.1877
 4011TIP3    H233449   1.458   6.621   2.719  0.6515  0.2544  0.3715
 4012TIP3   OH233450   3.746   2.544   3.675 -0.3446 -0.2347 -0.3835
 4012TIP3    H133451   3.654   2.520   3.689  0.0908 -1.5139  0.4802
 4012TIP3    H233452   3.793   2.504   3.749  0.9685  0.0120 -1.0530
 4013TIP3   OH233453   1.789   4.006  15.205  0.5053  0.3529  0.3096
 4013TIP3    H133454   1.713   4.058  15.178  0.7622  0.5529 -0.0392
 4013TIP3    H233455   1.781   3.999  15.300  0.7881  1.5643  0.4429
 4014TIP3   OH233456   0.730   3.928  10.460 -0.3960  0.6151 -0.6886
 4014TIP3    H133457   0.642   3.902  10.489 -0.6658  1.2036 -0.9546
 4014TIP3    H233458   0.738   3.888  10.373 -0.6331  1.0342 -0.9077
 4015TIP3   OH233459   3.758   2.865   5.094 -0.4742  0.2854 -0.7126
 4015TIP3    H133460   3.801   2.787   5.058 -0.2219  0.1541 -0.1263
 4015TIP3    H233461   3.768   2.856   5.188  0.4323  1.5174 -0.6705
 4016TIP3   OH233462   5.445   3.505  12.392  0.1183  0.7860  0.1757
 4016TIP3    H133463   5.432   3.432  12.332 -2.6657  1.3498 -0.0513
 4016TIP3    H233464   5.517   3.478  12.448  0.1509 -1.4714 -0.8531
 4017TIP3   OH233465   4.332   5.528   6.430  0.1427  0.3832  0.0436
 4017TIP3    H133466   4.423   5.518   6.458  0.1383 -1.0151 -0.3774
 4017TIP3    H233467   4.323   5.470   6.354 -0.6790  1.7170 -0.9357
 4018TIP3   OH233468   5.124   3.854  16.736  0.3154 -0.2951  0.2671
 4018TIP3    H133469   5.157   3.774  16.776  0.3921  0.0528  0.9140
 4018TIP3    H233470   5.155   3.851  16.645  2.7906  0.3620  1.0142
 4019TIP3   OH233471   0.909   3.726  12.710 -0.3142  0.5043 -0.0806
 4019TIP3    H133472   0.841   3.660  12.721  1.1670 -1.0588  0.0523
 4019TIP3    H233473   0.987   3.677  12.683  0.8593  2.1837  0.0741
 4020TIP3   OH233474   4.040   1.499  17.038  0.3542  0.6453 -0.2422
 4020TIP3    H133475   3.953   1.507  16.999 -1.4458  0.7999  3.4167
 4020TIP3    H233476   4.043   1.411  17.074  1.8481  0.5611 -0.4937
 4021TIP3   OH233477   3.972   1.887   2.447 -0.2964 -0.0915 -0.1007
 4021TIP3    H133478   3.880   1.889   2.473 -0.5588  2.1404 -0.9674
 4021TIP3    H233479   3.981   1.808   2.395 -2.0622  0.2948 -1.0752
 4022TIP3   OH233480   5.332   0.650  13.844 -0.2758  0.0970 -0.1289
 4022TIP3    H133481   5.330   0.558  13.820 -1.5040  0.3115 -0.8817
 4022TIP3    H233482   5.316   0.650  13.939 -2.9807 -0.3332 -0.5308
 4023TIP3   OH233483   0.416   6.672   3.126  0.0363 -0.2579 -0.2140
 4023TIP3    H133484   0.511   6.669   3.128  0.1273  0.4746 -1.8492
 4023TIP3    H233485   0.394   6.763   3.150 -0.1114  0.2168 -2.0170
 4024TIP3   OH233486   1.172   1.369   1.355 -0.9956  0.2571  0.1090
 4024TIP3    H133487   1.262   1.365   1.321 -0.6990  2.9868  0.3555
 4024TIP3    H233488   1.151   1.278   1.376  1.2426 -0.6385 -1.1104
 4025TIP3   OH233489   3.259   5.696   5.960  0.1381 -0.1226 -0.7440
 4025TIP3    H133490   3.349   5.711   5.988 -0.5549  2.1703  0.5227
 4025TIP3    H233491   3.209   5.696   6.042 -1.5755  3.5322 -1.6155
 4026TIP3   OH233492   6.715   1.341   2.270  0.4162 -0.2473 -0.0506
 4026TIP3    H133493   6.705   1.353   2.176  0.2547  0.5361  0.0597
 4026TIP3    H233494   6.770   1.264   2.279  0.6668 -0.1577 -0.7913
 4027TIP3   OH233495   1.764   1.898   2.091 -0.1307 -0.5380 -0.9480
 4027TIP3    H133496   1.787   1.983   2.127 -1.0329 -0.7048  0.0922
 4027TIP3    H233497   1.822   1.836   2.136 -2.3351 -0.9431  1.5782
 4028TIP3   OH233498   6.306   5.037   2.824  0.0017  0.1873  0.7266
 4028TIP3    H133499   6.218   5.050   2.861 -0.2734  1.7093 -0.4054
 4028TIP3    H233500   6.292   4.981   2.748 -0.1752  1.3688 -0.1333
 4029TIP3   OH233501   1.503   2.622  16.326 -0.4650 -0.4990  0.1087
 4029TIP3    H133502   1.480   2.715  16.326  1.4939  0.0989 -2.4072
 4029TIP3    H233503   1.597   2.620  16.340 -0.3516 -2.0324 -0.6133
 4030TIP3   OH233504   3.087   0.606  12.785  0.5483 -0.3744 -0.1442
 4030TIP3    H133505   3.045   0.692  12.796  0.6091 -0.2091 -1.1689
 4030TIP3    H233506   3.181   0.625  12.791  0.5445 -0.4592  0.2057
 4031TIP3   OH233507   2.274   1.757   3.501  1.0622  0.4203 -0.2204
 4031TIP3    H133508   2.235   1.673   3.525  3.6391 -0.5030  1.0371
 4031TIP3    H233509   2.201   1.807   3.465 -0.8143 -1.8970  0.1013
 4032TIP3   OH233510   2.808   4.874  10.453  0.5409  0.2741 -0.2299
 4032TIP3    H133511   2.859   4.932  10.397  0.7014 -0.6620 -1.0913
 4032TIP3    H233512   2.728   4.856  10.403 -0.9645  2.1901  1.3511
 4033TIP3   OH233513   5.531   0.170   0.488 -0.6320 -0.9302  0.5543
 4033TIP3    H133514   5.543   0.218   0.570 -3.7345  0.2004  0.4705
 4033TIP3    H233515   5.450   0.121   0.501 -0.2608 -2.1262 -1.2462
 4034TIP3   OH233516   5.317   3.988   6.199  0.4898 -0.2281  0.6380
 4034TIP3    H133517   5.390   3.964   6.256  0.8699 -2.6116 -0.7185
 4034TIP3    H233518   5.336   4.078   6.172  2.2781 -0.3794  1.2848
 4035TIP3   OH233519   1.779   5.072  16.214  0.1032  0.8881 -0.0470
 4035TIP3    H133520   1.854   5.094  16.159 -0.7924  1.8937 -0.9184
 4035TIP3    H233521   1.741   4.994  16.174 -0.4358  1.5082 -0.7581
 4036TIP3   OH233522   4.894   1.065  12.107 -0.3603  0.5658 -0.9867
 4036TIP3    H133523   4.951   1.035  12.177  0.6191  2.6958 -0.7953
 4036TIP3    H233524   4.807   1.033  12.132  0.1647  0.2693  0.5861
 4037TIP3   OH233525   3.386   3.714   6.278 -0.7522 -0.0410  0.3726
 4037TIP3    H133526   3.452   3.656   6.239  0.3181  1.8475 -0.7614
 4037TIP3    H233527   3.434   3.770   6.337 -1.5036  0.7145  0.2860
 4038TIP3   OH233528   4.544   1.715   2.470  0.5506 -0.1710 -0.3709
 4038TIP3    H133529   4.450   1.698   2.462  0.4228  0.0181  0.5967
 4038TIP3    H233530   4.549   1.804   2.506  1.0950 -0.1764 -0.4344
 4039TIP3   OH233531   1.933   2.732   1.987 -0.6109  0.1439 -0.2022
 4039TIP3    H133532   1.912   2.825   1.987  1.3704  0.6451 -1.0985
 4039TIP3    H233533   1.886   2.697   1.911  0.3369  0.8695 -1.1449
 4040TIP3   OH233534   3.798   2.652  15.457 -0.3662  0.6477 -0.0477
 4040TIP3    H133535   3.889   2.663  15.431 -0.4339  1.0596 -0.1181
 4040TIP3    H233536   3.747   2.689  15.385 -0.6364 -0.7168 -0.5948
 4041TIP3   OH233537   0.860   3.531  11.734 -0.1267  0.0094  0.3041
 4041TIP3    H133538   0.826   3.615  11.703  0.2398  0.6247  1.5258
 4041TIP3    H233539   0.797   3.501  11.799  0.7714  0.3475  1.3593
 4042TIP3   OH233540   1.181   3.679   1.171 -0.2838 -0.6590 -0.1971
 4042TIP3    H133541   1.126   3.671   1.249 -1.1950  0.9643 -0.6240
 4042TIP3    H233542   1.135   3.630   1.103 -0.1517 -0.9869 -0.0533
 4043TIP3   OH233543   0.634   5.096  13.495 -0.3331  0.1835 -0.3148
 4043TIP3    H133544   0.586   5.048  13.427 -1.1879 -1.3866  1.3136
 4043TIP3    H233545   0.618   5.188  13.474 -2.3202 -0.2649 -1.0661
 4044TIP3   OH233546   1.038   0.435   5.238 -0.4965 -0.8153 -0.3988
 4044TIP3    H133547   1.097   0.367   5.269 -2.0048 -1.1542  2.0204
 4044TIP3    H233548   0.983   0.456   5.314 -0.9726  2.1766 -1.4105
 4045TIP3   OH233549   6.693   4.763  13.020 -0.2161 -0.4178 -0.2813
 4045TIP3    H133550   6.743   4.842  12.998  1.2684 -1.0515  0.6356
 4045TIP3    H233551   6.604   4.794  13.035  0.8557  1.6572  2.9002
 4046TIP3   OH233552   1.860   2.033   6.102  0.2683 -0.4079 -0.0862
 4046TIP3    H133553   1.916   1.967   6.145 -0.8635 -1.4114 -0.0773
 4046TIP3    H233554   1.811   2.073   6.174 -1.0844 -1.5636 -0.3169
 4047TIP3   OH233555   6.496   3.838  13.987  0.1066 -0.1267  0.0188
 4047TIP3    H133556   6.427   3.780  13.956  0.2799 -0.3203 -0.0043
 4047TIP3    H233557   6.512   3.898  13.914  1.5502 -1.5079 -0.8479
 4048TIP3   OH233558   6.045   2.046   4.102 -0.3461  0.8565 -0.2845
 4048TIP3    H133559   6.119   2.098   4.133 -0.0666  0.6976 -0.6664
 4048TIP3    H233560   5.972   2.108   4.097 -1.1937  0.3442  3.3225
 4049TIP3   OH233561   0.651   3.227  14.282 -0.2998 -0.5213  0.7087
 4049TIP3    H133562   0.697   3.300  14.323  0.1794 -0.5579  0.2547
 4049TIP3    H233563   0.609   3.181  14.354 -0.5937  0.1933  0.9966
 4050TIP3   OH233564   1.234   0.264   5.327 -0.0786  0.6618 -0.0403
 4050TIP3    H133565   1.254   0.326   5.397  3.3545  1.2563 -1.3920
 4050TIP3    H233566   1.318   0.224   5.306 -1.5036 -1.5236 -1.9886
 4051TIP3   OH233567   2.209   1.309   5.005 -0.1327 -0.0841 -0.0609
 4051TIP3    H133568   2.253   1.381   5.049 -0.0747 -0.1953  0.0631
 4051TIP3    H233569   2.279   1.261   4.960 -0.3653  0.8660 -1.4767
 4052TIP3   OH233570   3.462   2.132  11.839 -0.5087 -0.1210 -0.5391
 4052TIP3    H133571   3.432   2.194  11.905  0.8091  0.5359 -0.5392
 4052TIP3    H233572   3.538   2.173  11.800 -0.4453 -1.1263 -1.5162
 4053TIP3   OH233573   6.728   0.071  13.344 -0.6027  0.5431 -0.2492
 4053TIP3    H133574   6.762   0.095  13.430 -1.9102 -1.2897  0.8572
 4053TIP3    H233575   6.737  -0.024  13.341 -1.2051  0.5050 -1.8817
 4054TIP3   OH233576   5.649   5.733   3.603 -1.1127  0.1950  0.2169
 4054TIP3    H133577   5.725   5.694   3.558 -2.0507 -0.8490 -0.5162
 4054TIP3    H233578   5.601   5.778   3.533 -1.5478  0.2257  0.5362
 4055TIP3   OH233579   0.734   5.338  12.286  0.1872  0.3009  0.3036
 4055TIP3    H133580   0.660   5.334  12.347  0.4195  0.5079  0.6048
 4055TIP3    H233581   0.695   5.329  12.199 -0.0867 -0.6336  0.5145
 4056TIP3   OH233582   5.024   1.593   5.835  0.2103 -0.2185 -0.2226
 4056TIP3    H133583   4.967   1.661   5.872  0.2817  0.2619 -0.9596
 4056TIP3    H233584   4.982   1.511   5.858 -0.8403  0.1304 -0.8096
 4057TIP3   OH233585   4.560   6.283  15.977  0.4963 -0.4872  0.3403
 4057TIP3    H133586   4.535   6.217  16.042 -1.6524  1.6366  1.8543
 4057TIP3    H233587   4.635   6.327  16.016  0.4900 -0.5386  0.4123
 4058TIP3   OH233588   0.883   1.353   1.011 -0.1828 -0.2178  0.3501
 4058TIP3    H133589   0.866   1.294   1.084  2.2541 -1.2714  0.1601
 4058TIP3    H233590   0.945   1.418   1.047 -0.4448  0.3884 -0.2711
 4059TIP3   OH233591   6.323   5.276  16.359  0.0391  0.1030 -0.1077
 4059TIP3    H133592   6.311   5.358  16.311  0.3473 -0.2327 -0.7690
 4059TIP3    H233593   6.254   5.218  16.326 -1.6331  0.7708  1.9491
 4060TIP3   OH233594   6.512   5.810  15.768 -0.1679 -0.4761 -0.2149
 4060TIP3    H133595   6.581   5.781  15.707  0.3441 -1.2461  0.7049
 4060TIP3    H233596   6.534   5.901  15.787  0.5518 -0.6850 -0.0091
 4061TIP3   OH233597   3.778   4.856   2.824  0.7587  0.7132  0.5840
 4061TIP3    H133598   3.804   4.872   2.733  1.5740 -0.6924  0.5565
 4061TIP3    H233599   3.727   4.934   2.848  0.7306  1.2111 -0.9927
 4062TIP3   OH233600   3.952   5.562   1.407 -0.2989  0.0129  0.5600
 4062TIP3    H133601   3.898   5.629   1.367  0.2816  0.8529  1.1618
 4062TIP3    H233602   3.958   5.587   1.499  0.0259 -0.7955  0.7749
 4063TIP3   OH233603   4.204   5.665   3.351 -0.1556 -0.0768 -0.0104
 4063TIP3    H133604   4.165   5.750   3.333  0.2134 -0.0707 -0.8432
 4063TIP3    H233605   4.188   5.650   3.444  1.3790  1.7410  0.6132
 4064TIP3   OH233606   2.469   4.070  13.441  0.4609  0.2662 -0.0562
 4064TIP3    H133607   2.458   4.021  13.523  0.7703  0.2924  0.0014
 4064TIP3    H233608   2.498   4.156  13.469 -0.4313  0.6019 -0.1377
 4065TIP3   OH233609   1.845   2.957  16.715  0.6438 -0.3487  0.6748
 4065TIP3    H133610   1.866   2.955  16.808 -0.5710  1.3318  1.0401
 4065TIP3    H233611   1.838   3.050  16.694 -0.9436 -0.7051 -0.6445
 4066TIP3   OH233612   2.760   2.030   0.105 -0.4742 -0.3774  0.5544
 4066TIP3    H133613   2.702   2.059   0.034 -0.0626  2.4622  1.2506
 4066TIP3    H233614   2.791   1.944   0.077 -1.2663  0.1010 -2.1245
 4067TIP3   OH233615   3.155   6.743   2.827 -0.1075 -0.7439  0.0184
 4067TIP3    H133616   3.130   6.711   2.740 -2.3849  1.9117 -0.4544
 4067TIP3    H233617   3.075   6.734   2.880  0.1552  0.9392  0.7723
 4068TIP3   OH233618   4.429   0.991   0.614  0.5894  0.4197 -0.4932
 4068TIP3    H133619   4.438   0.949   0.699  2.6801  0.6495 -0.5620
 4068TIP3    H233620   4.458   1.081   0.628 -1.3077  1.1716 -0.9548
 4069TIP3   OH233621   4.729   0.658   3.652 -0.3617 -0.4010  0.5661
 4069TIP3    H133622   4.772   0.676   3.569  0.9697  0.6735  1.4665
 4069TIP3    H233623   4.797   0.670   3.718 -1.6600 -0.1747  1.9091
 4070TIP3   OH233624   6.516   2.784   0.092 -0.9395 -0.1388 -0.2228
 4070TIP3    H133625   6.564   2.712   0.051  0.8706  1.2554 -0.6999
 4070TIP3    H233626   6.521   2.855   0.028 -0.3630  1.2509  1.2990
 4071TIP3   OH233627   1.759   2.620  16.411 -0.1842 -0.2514  0.2478
 4071TIP3    H133628   1.806   2.692  16.369  4.0592 -2.1378  1.2340
 4071TIP3    H233629   1.778   2.630  16.504 -1.1787 -1.5091  0.6147
 4072TIP3   OH233630   0.666   6.404  16.071 -0.2087 -0.4251  0.1873
 4072TIP3    H133631   0.628   6.489  16.089 -0.0978 -0.5886  1.2219
 4072TIP3    H233632   0.758   6.422  16.050  0.3449 -0.4304  2.3684
 4073TIP3   OH233633   1.969   1.781   0.555  0.2581 -0.2584 -0.7130
 4073TIP3    H133634   2.015   1.697   0.555  0.4307 -0.1709  0.0741
 4073TIP3    H233635   1.880   1.761   0.585  0.2754 -0.1780 -0.6041
 4074TIP3   OH233636   3.250   3.541  11.053 -0.0312  0.4403 -0.4307
 4074TIP3    H133637   3.291   3.603  10.993 -0.5722  1.0865 -0.1563
 4074TIP3    H233638   3.321   3.486  11.085  0.5321  1.1961 -0.3665
 4075TIP3   OH233639   1.749   5.115   0.872 -0.2512  0.4387  0.2120
 4075TIP3    H133640   1.693   5.186   0.903  0.4202  0.4135  1.5803
 4075TIP3    H233641   1.835   5.134   0.909  0.2500 -0.4090 -0.4665
 4076TIP3   OH233642   4.636   0.971   2.437  0.0715  0.0988  0.3616
 4076TIP3    H133643   4.631   1.044   2.498  0.2274 -1.0910  1.8388
 4076TIP3    H233644   4.589   1.002   2.359 -1.7713  0.9608  1.7562
 4077TIP3   OH233645   1.970   4.201   1.529  0.2434 -0.5750  0.9219
 4077TIP3    H133646   2.043   4.142   1.507  0.2617 -0.5072  0.8017
 4077TIP3    H233647   1.984   4.222   1.622  0.5409 -0.3341  0.8249
 4078TIP3   OH233648   4.208   1.667  13.462  0.5114 -0.2747 -0.2768
 4078TIP3    H133649   4.176   1.667  13.372 -0.4505 -0.3447  0.0613
 4078TIP3    H233650   4.267   1.592  13.466  0.5778 -0.2595 -0.8510
 4079TIP3   OH233651   5.793   6.120  15.539 -0.1638  0.3070 -0.2137
 4079TIP3    H133652   5.867   6.084  15.588  0.5280  0.3440 -1.2118
 4079TIP3    H233653   5.742   6.044  15.512 -0.7605  0.3041  0.8597
 4080TIP3   OH233654   5.355   0.066  15.358  0.3312  0.0765  0.2981
 4080TIP3    H133655   5.367   0.017  15.277 -0.9439  1.4485 -0.8061
 4080TIP3    H233656   5.409   0.144  15.347 -0.4228  0.6327  0.4053
 4081TIP3   OH233657   1.615   6.749   1.493 -0.3288 -0.2464 -0.5262
 4081TIP3    H133658   1.676   6.699   1.547 -0.8014  0.0448  0.2919
 4081TIP3    H233659   1.597   6.692   1.418  0.5434 -0.5397 -0.5229
 4082TIP3   OH233660   0.693   0.091  13.532  0.0533 -0.2187  0.3054
 4082TIP3    H133661   0.628   0.151  13.569  0.0900 -0.2592  0.4339
 4082TIP3    H233662   0.735   0.142  13.462 -0.8892 -0.5623 -0.5293
 4083TIP3   OH233663   0.767   5.700   2.405  0.2541 -0.3268 -0.2791
 4083TIP3    H133664   0.850   5.738   2.378 -0.2291  1.0721  0.1366
 4083TIP3    H233665   0.791   5.631   2.467  1.0664  1.3868  1.4129
 4084TIP3   OH233666   6.278   4.859   0.534 -0.4215 -0.1875  0.2063
 4084TIP3    H133667   6.318   4.788   0.484 -0.6278  1.8001 -3.0466
 4084TIP3    H233668   6.300   4.840   0.626  2.9662 -2.2541 -0.8793
 4085TIP3   OH233669   3.023   4.723  11.386 -0.0457 -0.7706  0.0114
 4085TIP3    H133670   3.112   4.699  11.362  0.5478  0.7834  0.5474
 4085TIP3    H233671   2.981   4.640  11.411  1.3118 -1.4861 -0.0246
 4086TIP3   OH233672   3.622   4.696  12.502 -0.3432  0.5607 -0.1222
 4086TIP3    H133673   3.532   4.685  12.534 -0.5130  1.5093 -0.2449
 4086TIP3    H233674   3.675   4.647  12.564 -0.7185  1.9378  1.3745
 4087TIP3   OH233675   6.533   4.858   5.566 -0.5824 -0.7111  0.1670
 4087TIP3    H133676   6.594   4.796   5.526  0.7508  1.2506 -0.9872
 4087TIP3    H233677   6.586   4.904   5.631 -0.6288  1.3564 -1.1876
 4088TIP3   OH233678   0.742   2.021   5.087  0.3178 -0.3448 -0.3338
 4088TIP3    H133679   0.770   2.068   5.165  0.8980 -0.5835 -0.3920
 4088TIP3    H233680   0.648   2.008   5.099  0.2307  0.4669 -0.1317
 4089TIP3   OH233681   6.425   4.659  10.874  0.1008 -0.3075  0.0645
 4089TIP3    H133682   6.403   4.692  10.787 -1.8006 -1.1289  0.1877
 4089TIP3    H233683   6.434   4.564  10.861  1.1865 -0.2814  0.5233
 4090TIP3   OH233684   1.384   5.214  16.167  0.0549 -0.4313 -0.2536
 4090TIP3    H133685   1.391   5.212  16.262 -1.3940  0.8090 -0.0857
 4090TIP3    H233686   1.440   5.286  16.140 -1.8213  1.1795 -0.0335
 4091TIP3   OH233687   2.003   4.561  17.089  0.0430  0.7783  0.2470
 4091TIP3    H133688   2.037   4.493  17.031  0.8849  1.2601  0.1591
 4091TIP3    H233689   2.075   4.623  17.098 -0.3740  1.1528  1.1201
 4092TIP3   OH233690   6.110   2.839  16.339  0.1941 -0.0888 -0.4054
 4092TIP3    H133691   6.023   2.867  16.310 -0.8749 -1.0105  1.7186
 4092TIP3    H233692   6.165   2.917  16.328 -1.2839  1.0166 -0.2522
 4093TIP3   OH233693   0.173   2.259   3.426 -0.5229 -0.1628  0.2688
 4093TIP3    H133694   0.189   2.270   3.332  0.2680  0.8297  0.5051
 4093TIP3    H233695   0.222   2.330   3.467 -0.2851 -1.0031  1.4859
 4094TIP3   OH233696   0.113   1.058   3.854 -0.0727 -0.4792 -0.4776
 4094TIP3    H133697   0.178   1.128   3.849 -0.2575 -0.3107 -0.5689
 4094TIP3    H233698   0.051   1.088   3.921 -0.3964 -0.3437 -0.8310
 4095TIP3   OH233699   4.511   0.363  12.057  0.5963  0.3457 -0.1745
 4095TIP3    H133700   4.556   0.334  12.137 -2.6914 -2.0300  1.0560
 4095TIP3    H233701   4.488   0.454  12.075  0.2120 -0.0397  1.5168
 4096TIP3   OH233702   1.158   6.167   4.415 -0.8185 -0.4909 -0.1693
 4096TIP3    H133703   1.179   6.129   4.501 -1.1845 -0.4291 -0.0507
 4096TIP3    H233704   1.079   6.218   4.431 -1.5275 -1.3742 -0.7916
 4097TIP3   OH233705   4.100   2.022  17.108  0.6938  0.0871  0.5386
 4097TIP3    H133706   4.075   2.030  17.200 -0.6529  0.7271  0.1302
 4097TIP3    H233707   4.196   2.014  17.111  0.7738  1.1280  1.9312
 4098TIP3   OH233708   0.384   6.624   0.020 -0.2985  0.1333  0.1314
 4098TIP3    H133709   0.479   6.638   0.015 -0.4381  1.3542  0.5100
 4098TIP3    H233710   0.349   6.667  -0.058 -0.5262 -0.5827 -0.1715
 4099TIP3   OH233711   4.195   0.657   0.275 -0.8774  0.4073 -0.3279
 4099TIP3    H133712   4.274   0.698   0.241 -0.3116  0.2506  0.7507
 4099TIP3    H233713   4.198   0.673   0.369 -1.9991  0.1645 -0.2299
 4100TIP3   OH233714   4.463   2.679  16.359  0.1208  0.1016 -0.3586
 4100TIP3    H133715   4.439   2.743  16.426  1.1312 -0.2259  0.3495
 4100TIP3    H233716   4.511   2.729  16.293  1.3150  0.0218  0.4216
 4101TIP3   OH233717   6.345   6.205  12.565 -0.5427  0.2602 -0.2001
 4101TIP3    H133718   6.430   6.214  12.607 -0.5212 -2.0970  0.4263
 4101TIP3    H233719   6.339   6.280  12.506  1.4991  1.0518  0.5179
 4102TIP3   OH233720   6.561   2.022  14.016  0.5396 -0.0124 -0.2712
 4102TIP3    H133721   6.630   2.087  14.027  0.2854  0.2537 -0.2301
 4102TIP3    H233722   6.523   2.012  14.104 -0.8441  1.3824 -0.6639
 4103TIP3   OH233723   6.679   2.886   5.094 -0.3485 -0.0340  0.2317
 4103TIP3    H133724   6.758   2.904   5.043 -0.6505 -2.0981 -1.0639
 4103TIP3    H233725   6.691   2.796   5.126 -2.2817 -0.5313 -0.2874
 4104TIP3   OH233726   4.187   3.190  11.314 -0.7607 -0.1223  0.9005
 4104TIP3    H133727   4.212   3.131  11.385  1.1458  0.2717  0.6044
 4104TIP3    H233728   4.265   3.196  11.259 -1.5309  1.2039 -0.1101
 4105TIP3   OH233729   5.672   2.469  17.041  0.1180 -0.6994  0.4254
 4105TIP3    H133730   5.747   2.500  17.093  2.3759 -2.3027 -1.6492
 4105TIP3    H233731   5.664   2.533  16.971  0.7164 -1.4395 -0.3339
 4106TIP3   OH233732   2.728   2.969   0.005 -0.1648  0.1547  0.2211
 4106TIP3    H133733   2.754   2.958  -0.086  2.5655  0.2159  0.9020
 4106TIP3    H233734   2.709   2.881   0.036  0.1474 -0.0247 -0.0958
 4107TIP3   OH233735   6.449   1.723   2.767  0.3002  0.6996  0.3985
 4107TIP3    H133736   6.480   1.637   2.737  0.2514  0.4358  1.0870
 4107TIP3    H233737   6.513   1.750   2.833  1.2928  1.9882 -1.0097
 4108TIP3   OH233738   5.126   4.217   0.497 -0.4299 -0.0245  1.1373
 4108TIP3    H133739   5.134   4.126   0.526 -1.0163 -0.0010  1.3928
 4108TIP3    H233740   5.095   4.264   0.575  0.7214  0.5581  1.2619
 4109TIP3   OH233741   5.832   1.695  16.421  0.7372 -0.7103 -0.3094
 4109TIP3    H133742   5.859   1.666  16.508  2.7462  0.8109 -0.3357
 4109TIP3    H233743   5.826   1.614  16.370  0.4861 -1.5425  0.9859
 4110TIP3   OH233744   6.753   3.048   3.117  0.2615  0.0031  0.2264
 4110TIP3    H133745   6.807   3.091   3.183  1.4462  2.4617 -2.1601
 4110TIP3    H233746   6.667   3.087   3.127  0.5352  0.6538  0.0592
 4111TIP3   OH233747   6.575   4.432   0.380  0.6165  0.3288 -0.1680
 4111TIP3    H133748   6.537   4.515   0.352 -1.3741 -0.2032  0.7946
 4111TIP3    H233749   6.620   4.452   0.462 -0.6277  0.3120  0.5361
 4112TIP3   OH233750   2.700   2.732   2.088 -0.0684  0.8142 -0.2384
 4112TIP3    H133751   2.693   2.696   2.177  2.1392 -0.3371 -0.4717
 4112TIP3    H233752   2.634   2.684   2.038  0.6669 -0.6715  0.1637
 4113TIP3   OH233753   1.878   1.309   1.616  0.0076 -0.0880  0.0988
 4113TIP3    H133754   1.837   1.244   1.674 -1.4393  1.6787  1.1541
 4113TIP3    H233755   1.943   1.352   1.671 -1.1854  1.4171  0.3949
 4114TIP3   OH233756   5.911   5.043   2.111 -0.1057  0.1197 -0.3649
 4114TIP3    H133757   5.942   4.990   2.185 -1.1934  0.8517  0.6418
 4114TIP3    H233758   5.844   4.989   2.070  0.6998 -0.4092 -1.0194
 4115TIP3   OH233759   1.395   0.812  14.206 -0.1904  0.7511 -0.4282
 4115TIP3    H133760   1.316   0.791  14.156 -0.5033 -0.0394  0.3702
 4115TIP3    H233761   1.372   0.792  14.297  1.0122  0.2473 -0.2092
 4116TIP3   OH233762   4.517   6.715   4.286 -0.1947 -0.5255 -0.5763
 4116TIP3    H133763   4.518   6.728   4.192 -0.9280  2.1031 -0.2843
 4116TIP3    H233764   4.430   6.679   4.304 -1.2306  1.7851 -0.6573
 4117TIP3   OH233765   4.840   2.525  16.920 -0.4415  0.6399 -0.3356
 4117TIP3    H133766   4.843   2.523  17.016  0.7714  1.0622 -0.3426
 4117TIP3    H233767   4.771   2.589  16.900 -0.3291  0.9651  0.2653
 4118TIP3   OH233768   4.984   3.225   4.559  0.3853 -0.3363 -0.1916
 4118TIP3    H133769   4.910   3.235   4.619  0.2259  0.5323 -0.5278
 4118TIP3    H233770   5.051   3.180   4.611  0.1400  0.1344  0.5443
 4119TIP3   OH233771   4.522   3.480   1.741  0.5689 -0.0864  0.2413
 4119TIP3    H133772   4.606   3.524   1.731  0.4010  0.5030  1.2392
 4119TIP3    H233773   4.497   3.497   1.832 -1.2042  0.8172 -0.3710
 4120TIP3   OH233774   0.678   3.867  11.801 -0.5981  0.4621  0.4774
 4120TIP3    H133775   0.743   3.804  11.834 -1.1021 -1.6175 -2.1574
 4120TIP3    H233776   0.731   3.935  11.759 -0.0931  1.1589  2.1301
 4121TIP3   OH233777   3.572   6.460   5.388 -0.1477  0.1145  0.3896
 4121TIP3    H133778   3.623   6.510   5.451  0.3992  0.5885 -0.4053
 4121TIP3    H233779   3.542   6.383   5.437  1.4537 -0.2550  0.8600
 4122TIP3   OH233780   2.097   3.540  15.531 -0.0563 -0.1980  0.0759
 4122TIP3    H133781   2.123   3.448  15.542  2.1050  0.5024  1.3887
 4122TIP3    H233782   2.180   3.587  15.518 -1.1068  1.5882 -0.4441
 4123TIP3   OH233783   5.982   0.426  12.454 -0.0333 -0.2939  0.5029
 4123TIP3    H133784   6.072   0.395  12.446 -0.1835 -0.5554 -0.2109
 4123TIP3    H233785   5.966   0.477  12.375 -0.3118  0.2635  0.9157
 4124TIP3   OH233786   0.212   1.866   4.658 -0.0006  0.2279 -0.0188
 4124TIP3    H133787   0.139   1.830   4.608  0.2755  0.1771 -0.3874
 4124TIP3    H233788   0.275   1.794   4.664  0.3173  0.4787 -0.2955
 4125TIP3   OH233789   2.035   4.770  15.285 -0.1513 -0.4444 -0.3168
 4125TIP3    H133790   2.115   4.813  15.255  0.2284  0.1678  1.4741
 4125TIP3    H233791   1.996   4.833  15.346 -2.3514 -0.4544 -1.6192
 4126TIP3   OH233792   1.069   1.624   4.354  0.0439  0.3104  0.2072
 4126TIP3    H133793   1.007   1.692   4.381 -1.3759 -0.2783 -1.4270
 4126TIP3    H233794   1.053   1.552   4.415 -0.0102  0.6170  0.5584
 4127TIP3   OH233795   1.850   2.320  11.770  0.2337 -0.4732  0.8168
 4127TIP3    H133796   1.770   2.288  11.812  1.7739 -1.4061  3.2167
 4127TIP3    H233797   1.825   2.332  11.678 -2.6026 -0.8500  1.4438
 4128TIP3   OH233798   1.414   1.537  15.589  0.6907  0.2453 -0.4653
 4128TIP3    H133799   1.441   1.629  15.585  0.7928  0.1674 -3.8503
 4128TIP3    H233800   1.466   1.493  15.522 -0.4299 -2.0078  0.0464
 4129TIP3   OH233801   0.901   3.683   2.893  0.2162  0.1272  0.0996
 4129TIP3    H133802   0.984   3.645   2.920 -0.5481 -2.6736 -1.1631
 4129TIP3    H233803   0.895   3.765   2.943  3.7720  0.5630  0.0513
 4130TIP3   OH233804   4.330   4.484  14.078 -0.5794 -0.1913 -0.0410
 4130TIP3    H133805   4.406   4.490  14.136 -0.9424 -0.0959  0.4336
 4130TIP3    H233806   4.316   4.574  14.049 -0.3717 -0.2463 -0.3108
 4131TIP3   OH233807   6.492   5.060  11.705 -0.4985 -0.0919 -0.6285
 4131TIP3    H133808   6.542   5.103  11.774 -0.2599  1.9171 -1.9740
 4131TIP3    H233809   6.402   5.092  11.716 -0.1804  1.4572 -2.0785
 4132TIP3   OH233810   0.280   3.657   4.226 -0.3215  0.1378 -0.3246
 4132TIP3    H133811   0.278   3.734   4.282 -1.6155  0.3856 -0.6639
 4132TIP3    H233812   0.195   3.658   4.181 -0.5995 -1.7586  0.0519
 4133TIP3   OH233813   3.281   1.112   4.030  0.0938  0.0132 -0.4122
 4133TIP3    H133814   3.354   1.125   4.090 -0.9020  1.4886  0.5557
 4133TIP3    H233815   3.255   1.021   4.041  0.4953  0.0278  0.7508
 4134TIP3   OH233816   0.137   3.669   2.651 -0.0114 -0.0360 -0.8699
 4134TIP3    H133817   0.188   3.749   2.638 -0.7879  0.1606 -2.9779
 4134TIP3    H233818   0.143   3.622   2.568  0.2029 -2.0942  0.2127
 4135TIP3   OH233819   4.347   2.998  12.234  0.1431  0.2761  0.0356
 4135TIP3    H133820   4.423   3.034  12.279 -0.5192  1.1179  0.5118
 4135TIP3    H233821   4.362   2.904  12.232  0.7976  0.3559  0.8700
 4136TIP3   OH233822   6.375   1.847  13.871 -0.5388 -0.7259  0.2767
 4136TIP3    H133823   6.311   1.915  13.893 -0.6237 -0.7084 -0.0196
 4136TIP3    H233824   6.455   1.874  13.916 -0.3511 -0.0146 -0.4609
 4137TIP3   OH233825   6.651   2.695   2.630  0.4937 -0.0188  0.1334
 4137TIP3    H133826   6.637   2.723   2.721 -0.6657 -1.5403  0.4636
 4137TIP3    H233827   6.710   2.761   2.594 -0.3611  1.5691  1.4921
 4138TIP3   OH233828   2.416   6.083  17.107 -0.2320  0.0087  0.1747
 4138TIP3    H133829   2.511   6.072  17.096 -0.0941  0.1343  1.1031
 4138TIP3    H233830   2.408   6.149  17.176 -0.9781 -0.8198  0.9196
 4139TIP3   OH233831   6.022   3.544   5.008 -0.2107 -0.1891 -0.8186
 4139TIP3    H133832   5.955   3.477   5.016  0.2604 -0.6350 -0.5026
 4139TIP3    H233833   6.079   3.531   5.084 -0.0982  0.5575 -0.7614
 4140TIP3   OH233834   6.291   1.718  16.592 -0.5603 -0.0538  0.1631
 4140TIP3    H133835   6.291   1.810  16.617 -0.5248 -0.0123  0.0096
 4140TIP3    H233836   6.382   1.691  16.603 -0.3195  0.2516 -0.9786
 4141TIP3   OH233837   0.685   6.043  13.364  0.1152  0.4435  0.4947
 4141TIP3    H133838   0.778   6.025  13.378  0.8229  1.7807 -1.8627
 4141TIP3    H233839   0.677   6.137  13.380 -0.9092  0.2842  0.9616
 4142TIP3   OH233840   1.537   0.893  15.668  0.0038 -0.5543  0.5395
 4142TIP3    H133841   1.512   0.983  15.648 -2.9161 -1.4464 -0.3898
 4142TIP3    H233842   1.551   0.893  15.763 -0.6512  0.7473  0.6627
 4143TIP3   OH233843   4.723   3.568   2.074  0.2572 -0.5058 -0.1408
 4143TIP3    H133844   4.724   3.475   2.051  0.9863 -0.3855 -0.5951
 4143TIP3    H233845   4.785   3.575   2.146 -0.6450 -0.5560  0.6689
 4144TIP3   OH233846   0.919   6.267   2.681 -0.3175  0.3722 -0.0201
 4144TIP3    H133847   0.933   6.283   2.587 -2.0715  0.6305 -0.2767
 4144TIP3    H233848   0.829   6.295   2.696  0.4234  1.7924  2.1108
 4145TIP3   OH233849   0.049   1.935   3.011  0.3331 -0.5579 -0.5106
 4145TIP3    H133850   0.038   1.962   2.920  0.6893  0.8100 -0.1615
 4145TIP3    H233851   0.010   1.847   3.015 -3.0220  0.7787 -1.1605
 4146TIP3   OH233852   2.258   2.226  10.770 -0.1398  0.4838 -0.0639
 4146TIP3    H133853   2.255   2.321  10.761 -1.0116  0.7548  2.2333
 4146TIP3    H233854   2.229   2.192  10.686 -5.6844  2.3713  0.6676
 4147TIP3   OH233855   1.985   2.331   0.658 -0.3884 -0.3954 -0.3263
 4147TIP3    H133856   1.963   2.424   0.648  0.9789 -0.0961 -0.8134
 4147TIP3    H233857   1.931   2.286   0.594 -0.5084  0.1568 -0.6243
 4148TIP3   OH233858   4.563   1.277  12.212  0.1894  0.5097 -0.0393
 4148TIP3    H133859   4.474   1.251  12.190  1.1130 -2.9617 -0.1488
 4148TIP3    H233860   4.600   1.309  12.130 -0.4261  0.4081 -0.3618
 4149TIP3   OH233861   4.747   0.022   2.003  0.3125  0.3549 -0.1797
 4149TIP3    H133862   4.808   0.066   1.944 -0.8880 -0.3068 -1.9929
 4149TIP3    H233863   4.730   0.086   2.072  0.3267  1.8980 -1.5502
 4150TIP3   OH233864   3.257   4.169  17.047  0.4697  0.1887 -0.1350
 4150TIP3    H133865   3.325   4.161  16.980  0.5343 -0.5556  0.0097
 4150TIP3    H233866   3.300   4.213  17.120  0.3091  1.3113 -0.6980
 4151TIP3   OH233867   5.927   3.577  10.497 -0.4116 -0.0007 -0.1574
 4151TIP3    H133868   5.994   3.615  10.440 -0.3419  0.7772  0.4179
 4151TIP3    H233869   5.855   3.641  10.494 -0.4990 -0.0624  0.4320
 4152TIP3   OH233870   3.759   5.044   3.190 -1.1157  0.1924 -0.0339
 4152TIP3    H133871   3.763   5.130   3.231 -1.7771 -0.1100  0.6980
 4152TIP3    H233872   3.667   5.019   3.194 -0.8296 -0.8632  0.4501
 4153TIP3   OH233873   5.879   2.590   6.489  0.5438 -0.2203  0.0446
 4153TIP3    H133874   5.798   2.630   6.522 -0.9067 -2.8164 -0.0790
 4153TIP3    H233875   5.925   2.561   6.567  0.2292 -0.7473  0.0369
 4154TIP3   OH233876   6.472   4.043   2.708 -0.1702  0.0693 -0.4558
 4154TIP3    H133877   6.562   4.075   2.703  0.2090 -0.7810  0.5584
 4154TIP3    H233878   6.478   3.951   2.683 -1.1779  0.6115 -2.9161
 4155TIP3   OH233879   2.173   4.746  11.977 -0.0415 -0.1890  0.3055
 4155TIP3    H133880   2.205   4.656  11.965 -0.8036 -0.4876  0.4468
 4155TIP3    H233881   2.117   4.741  12.054  1.8322  0.9363  1.8292
 4156TIP3   OH233882   4.784   0.749   0.088 -1.0676  0.2023  0.3818
 4156TIP3    H133883   4.710   0.755   0.149 -1.5587  0.7500 -0.2485
 4156TIP3    H233884   4.769   0.820   0.025 -0.6194 -0.3909 -0.4196
 4157TIP3   OH233885   0.094   4.887  16.370 -0.5522  0.3367 -0.4451
 4157TIP3    H133886   0.079   4.901  16.276 -1.5535 -2.0861 -0.7062
 4157TIP3    H233887   0.134   4.800  16.375 -0.9938  0.2112  1.4236
 4158TIP3   OH233888   6.429   1.695  16.226 -0.6957  0.4146  0.2305
 4158TIP3    H133889   6.441   1.779  16.182  0.7860  0.1383  0.0623
 4158TIP3    H233890   6.514   1.653  16.221 -1.2230 -0.7915  0.9760
 4159TIP3   OH233891   5.497   2.380   3.753  0.3843  0.3092  0.3912
 4159TIP3    H133892   5.517   2.370   3.660  2.0109 -0.2235  0.7700
 4159TIP3    H233893   5.482   2.474   3.765  3.0722  0.8633  0.0852
 4160TIP3   OH233894   1.455   6.073   3.346 -0.3992 -0.0506 -0.5369
 4160TIP3    H133895   1.485   6.079   3.436  0.7312  2.9253 -1.0301
 4160TIP3    H233896   1.362   6.096   3.350 -0.0896  1.1736 -0.2590
 4161TIP3   OH233897   0.889   1.450   0.358  0.7308  0.1038  0.3590
 4161TIP3    H133898   0.895   1.544   0.339  0.9206 -0.2333 -1.3980
 4161TIP3    H233899   0.952   1.436   0.429 -1.1481  1.7145  2.4550
 4162TIP3   OH233900   4.756   2.623  12.688  0.1707  0.0889 -0.0694
 4162TIP3    H133901   4.663   2.607  12.703  0.2542  0.2328  0.6182
 4162TIP3    H233902   4.795   2.624  12.775  1.1419 -1.8826 -0.4150
 4163TIP3   OH233903   2.021   1.006  16.783 -0.6717 -0.0703 -0.3454
 4163TIP3    H133904   2.023   0.940  16.714  2.3332 -0.2182 -0.2480
 4163TIP3    H233905   1.976   1.081  16.744  1.6589  0.1592 -2.8738
 4164TIP3   OH233906   5.533   6.285  15.421  0.2666 -1.2158  0.3841
 4164TIP3    H133907   5.516   6.363  15.369 -0.3014 -0.3537  1.7883
 4164TIP3    H233908   5.448   6.241  15.427  0.0991 -0.7874  1.3557
 4165TIP3   OH233909   4.369   5.741   6.210  0.4033  0.0377 -0.3401
 4165TIP3    H133910   4.340   5.667   6.263 -0.5545  0.1204 -0.7151
 4165TIP3    H233911   4.443   5.778   6.258 -0.2587 -0.0552  0.8111
 4166TIP3   OH233912   5.018   0.339  10.977 -0.2313  0.0034 -0.0261
 4166TIP3    H133913   4.980   0.252  10.987  0.2286 -0.1463  0.4920
 4166TIP3    H233914   4.969   0.393  11.039 -0.6478  0.1611 -0.4881
 4167TIP3   OH233915   1.703   1.275  13.908  0.3485 -0.4878 -0.4587
 4167TIP3    H133916   1.771   1.270  13.840  0.4956 -0.9629 -0.2820
 4167TIP3    H233917   1.741   1.230  13.983 -0.4794 -1.5077 -0.6244
 4168TIP3   OH233918   3.805   3.296   2.977 -0.0025  0.0577  0.4523
 4168TIP3    H133919   3.737   3.349   3.018 -0.3494 -0.6400  0.7819
 4168TIP3    H233920   3.861   3.360   2.933 -0.9759  0.6277  0.0088
 4169TIP3   OH233921   0.297   4.215   1.137 -0.0715  0.6940 -0.7355
 4169TIP3    H133922   0.347   4.219   1.055  0.2739  0.3036 -0.5518
 4169TIP3    H233923   0.206   4.207   1.109 -0.3249  3.6658 -1.1080
 4170TIP3   OH233924   2.649   4.625  12.093 -0.5647  0.4934  0.3277
 4170TIP3    H133925   2.582   4.692  12.109  0.4908  1.2234  2.1026
 4170TIP3    H233926   2.731   4.674  12.092  0.2524 -0.7591  1.7540
 4171TIP3   OH233927   0.209   1.044   6.136  0.0623  0.8651 -0.2019
 4171TIP3    H133928   0.207   0.958   6.094 -0.4497  0.3174  0.9261
 4171TIP3    H233929   0.206   1.105   6.062 -0.9378 -0.0760 -0.9830
 4172TIP3   OH233930   5.317   0.580  17.095  0.1237 -0.0198 -0.7121
 4172TIP3    H133931   5.311   0.653  17.157  0.4843  0.6443 -1.4499
 4172TIP3    H233932   5.257   0.603  17.025 -1.0584 -1.2568 -0.1453
 4173TIP3   OH233933   0.783   0.641   2.022 -0.3288  0.3290 -0.6673
 4173TIP3    H133934   0.724   0.705   2.060  2.6865  1.8154  2.0129
 4173TIP3    H233935   0.773   0.563   2.077 -1.0175 -0.0647 -1.3329
 4174TIP3   OH233936   4.649   6.704   2.366  0.2865 -0.2368 -0.5046
 4174TIP3    H133937   4.669   6.772   2.431  2.8141 -1.9533  0.6742
 4174TIP3    H233938   4.727   6.700   2.310 -0.8083 -0.5748 -2.0730
 4175TIP3   OH233939   5.335   4.966  11.086 -0.2116 -0.3793 -0.7198
 4175TIP3    H133940   5.400   5.036  11.079  0.1915 -0.5146  1.2371
 4175TIP3    H233941   5.384   4.886  11.063  0.4055 -0.5050  0.9183
 4176TIP3   OH233942   6.610   4.442  13.333 -0.3819  0.0643 -0.2021
 4176TIP3    H133943   6.620   4.347  13.339  0.1569  0.1084 -0.3415
 4176TIP3    H233944   6.567   4.456  13.249  2.0524  0.0902 -1.5330
 4177TIP3   OH233945   1.611   1.094  11.862 -0.1201  0.7517 -0.1393
 4177TIP3    H133946   1.569   1.148  11.795 -2.7595 -1.3993 -0.4160
 4177TIP3    H233947   1.603   1.145  11.942 -0.3696  1.7804 -0.8024
 4178TIP3   OH233948   0.956   1.482  16.526  0.2522 -0.2886  0.0898
 4178TIP3    H133949   0.865   1.466  16.501  0.0125 -0.0728  0.7961
 4178TIP3    H233950   0.952   1.557  16.585  1.0023  0.3440 -0.6399
 4179TIP3   OH233951   2.005   6.336   3.310  0.4293  0.4015 -0.3657
 4179TIP3    H133952   1.954   6.274   3.257 -0.4397  0.5611  0.2662
 4179TIP3    H233953   1.981   6.422   3.276 -0.6054  0.5421  0.6658
 4180TIP3   OH233954   4.266   6.668   1.504 -0.0266 -0.0372  0.4916
 4180TIP3    H133955   4.358   6.668   1.478 -0.4755  1.7660 -1.3761
 4180TIP3    H233956   4.249   6.578   1.532  2.4853 -0.2162  1.6862
 4181TIP3   OH233957   5.874   2.594  16.441 -0.5039  0.1694 -1.1948
 4181TIP3    H133958   5.932   2.535  16.393  0.5091 -0.9193  1.1905
 4181TIP3    H233959   5.931   2.639  16.503 -1.8765  0.6927 -0.2507
 4182TIP3   OH233960   6.699   6.581   5.406  0.6223  0.3311 -0.2343
 4182TIP3    H133961   6.641   6.579   5.331  0.7191  0.1433 -0.3066
 4182TIP3    H233962   6.643   6.560   5.481  0.7323 -0.5972 -0.3979
 4183TIP3   OH233963   4.173   5.935   5.367  0.3512 -0.0061  0.6357
 4183TIP3    H133964   4.160   6.023   5.402  0.3483  0.1668  0.2135
 4183TIP3    H233965   4.088   5.892   5.377 -0.2381  0.6928 -0.9417
 4184TIP3   OH233966   2.285   2.801   3.796 -0.4734 -0.3116 -0.5292
 4184TIP3    H133967   2.240   2.718   3.811  2.2684 -1.5692  1.5677
 4184TIP3    H233968   2.357   2.779   3.738  0.1268  0.6468 -0.1688
 4185TIP3   OH233969   5.031   0.942   1.459 -0.1853 -0.2992  0.1353
 4185TIP3    H133970   5.005   0.855   1.428  1.4218 -1.1273  1.0263
 4185TIP3    H233971   5.098   0.970   1.397  0.0684 -0.1511  0.4799
 4186TIP3   OH233972   0.325   1.956  15.219 -0.5512 -0.1924 -0.4803
 4186TIP3    H133973   0.408   2.003  15.209  0.0035 -1.3705 -1.6606
 4186TIP3    H233974   0.296   1.976  15.309 -0.1447  2.0400 -0.7942
 4187TIP3   OH233975   6.499   6.575   1.632 -0.3184  0.4365  0.1665
 4187TIP3    H133976   6.503   6.643   1.699 -1.4884  0.4054  0.2882
 4187TIP3    H233977   6.538   6.498   1.674 -2.4153 -0.0249  1.4035
 4188TIP3   OH233978   3.677   4.607  15.050 -0.0567  0.4841 -1.0200
 4188TIP3    H133979   3.635   4.692  15.038  2.5079  1.6471 -2.5723
 4188TIP3    H233980   3.680   4.595  15.145 -2.2904  1.0834 -0.8170
 4189TIP3   OH233981   4.951   5.278   3.374 -0.4723  0.2669  0.0461
 4189TIP3    H133982   4.869   5.269   3.422 -0.4133  0.8519  0.2672
 4189TIP3    H233983   5.011   5.318   3.437  0.2697 -1.0111  0.1877
 4190TIP3   OH233984   4.091   1.008   0.457 -0.5265  0.3951 -0.1329
 4190TIP3    H133985   4.127   0.924   0.484 -0.9525  0.9790  2.5162
 4190TIP3    H233986   4.097   1.063   0.535  0.3153  3.0624 -1.9353
 4191TIP3   OH233987   6.515   0.888   2.641  0.1664  0.2251  0.2433
 4191TIP3    H133988   6.601   0.866   2.677 -0.4036 -1.2215  0.7853
 4191TIP3    H233989   6.474   0.804   2.624 -2.0537  0.8117  2.1972
 4192TIP3   OH233990   2.690   2.038   4.579  0.2025 -0.4044 -0.4342
 4192TIP3    H133991   2.647   2.070   4.658  1.1510 -2.7171  1.0997
 4192TIP3    H233992   2.769   2.091   4.572  0.9704 -1.2715  1.1820
 4193TIP3   OH233993   2.913   3.068  15.633 -0.4203  0.4146  0.2300
 4193TIP3    H133994   2.959   3.005  15.689 -0.6704 -1.2309 -1.3220
 4193TIP3    H233995   2.823   3.067  15.665 -0.3799  0.1258  0.3446
 4194TIP3   OH233996   1.480   1.569   6.318 -0.0711 -0.3402  0.4704
 4194TIP3    H133997   1.472   1.551   6.412 -2.4780 -0.9317  0.2197
 4194TIP3    H233998   1.405   1.626   6.298  0.9469  0.5814 -0.9267
 4195TIP3   OH233999   5.871   4.250  15.231  0.3718 -0.4847  0.2621
 4195TIP3    H134000   5.929   4.325  15.221 -2.9554  2.2876 -0.4373
 4195TIP3    H234001   5.872   4.207  15.146  1.8951 -0.9720  0.4965
 4196TIP3   OH234002   0.323   3.355  12.288  0.5085  0.1207  0.0664
 4196TIP3    H134003   0.324   3.451  12.296  0.0678  0.0592  1.0207
 4196TIP3    H234004   0.292   3.324  12.374  1.3890 -0.9093  0.0295
 4197TIP3   OH234005   4.160   3.482   5.014  0.1795 -0.3207 -0.2740
 4197TIP3    H134006   4.122   3.560   4.973  1.4649  0.4816  0.0017
 4197TIP3    H234007   4.249   3.508   5.037 -0.2828 -0.8822  2.5632
 4198TIP3   OH234008   5.196   3.914   2.530 -0.3413  0.3085  0.2671
 4198TIP3    H134009   5.243   3.965   2.465 -1.1712  1.6635  0.6987
 4198TIP3    H234010   5.242   3.931   2.612  0.0100 -0.4958  0.2530
 4199TIP3   OH234011   1.274   4.852  13.119 -0.1626 -0.3667  0.1001
 4199TIP3    H134012   1.194   4.855  13.067  0.0145 -2.0114 -0.3149
 4199TIP3    H234013   1.339   4.812  13.061  0.3559 -1.1284  1.1711
 4200TIP3   OH234014   6.265   6.746   6.377 -0.0491 -0.5252  0.1877
 4200TIP3    H134015   6.184   6.694   6.384 -1.3729  1.1202 -1.7452
 4200TIP3    H234016   6.329   6.685   6.340 -0.6032 -1.6289  0.9568
 4201TIP3   OH234017   3.373   0.335   5.032  0.6171 -0.1929  0.2889
 4201TIP3    H134018   3.313   0.262   5.014  1.6811 -1.3130  1.1603
 4201TIP3    H234019   3.374   0.343   5.127  2.3229 -0.6155  0.3319
 4202TIP3   OH234020   2.013   1.402  14.715 -0.3707  0.0771  0.1036
 4202TIP3    H134021   2.025   1.484  14.762  2.2397  0.2691 -0.7374
 4202TIP3    H234022   1.967   1.426  14.635 -0.7411  0.4949  0.4389
 4203TIP3   OH234023   6.090   3.515  17.097 -0.1753 -0.2984 -0.2384
 4203TIP3    H134024   6.030   3.584  17.069  1.5625  0.9153 -1.1634
 4203TIP3    H234025   6.106   3.464  17.017  0.0678 -0.5769 -0.0131
 4204TIP3   OH234026   0.585   2.011  11.847 -0.0981 -0.1121  0.0834
 4204TIP3    H134027   0.521   2.010  11.918 -0.3337 -0.6033 -0.1317
 4204TIP3    H234028   0.533   1.992  11.768  0.0881  0.8240 -0.2835
 4205TIP3   OH234029   0.653   1.670  11.988  0.3793 -0.1443  0.1570
 4205TIP3    H134030   0.725   1.651  11.927 -0.8396 -0.8089 -1.1267
 4205TIP3    H234031   0.691   1.731  12.052  2.3286 -1.1724  0.0515
 4206TIP3   OH234032   5.726   5.461  11.125 -0.6875 -0.3781  0.0663
 4206TIP3    H134033   5.772   5.543  11.144 -2.7232  0.1923  3.4555
 4206TIP3    H234034   5.794   5.394  11.129  0.3088  0.6418  2.7423
 4207TIP3   OH234035   1.386   0.273  13.973  0.1171 -0.2204  0.0333
 4207TIP3    H134036   1.300   0.281  14.014  0.7255 -0.0381  1.2966
 4207TIP3    H234037   1.441   0.337  14.018  0.2021  1.8988 -2.8127
 4208TIP3   OH234038   0.521   6.431  12.961  0.0290 -0.3615 -0.3602
 4208TIP3    H134039   0.526   6.418  13.056 -1.9905 -1.1635 -0.2986
 4208TIP3    H234040   0.603   6.473  12.938  1.3341 -1.7184  1.4868
 4209TIP3   OH234041   6.408   0.654   1.505 -0.0584 -0.4827 -0.1363
 4209TIP3    H134042   6.438   0.601   1.432 -2.7328 -1.4460 -0.6515
 4209TIP3    H234043   6.465   0.732   1.504  1.9982 -1.9108 -1.2107
 4210TIP3   OH234044   3.376   2.188  14.727 -0.1790 -0.3611  0.1572
 4210TIP3    H134045   3.304   2.137  14.766  1.3417 -1.0718  2.2102
 4210TIP3    H234046   3.385   2.151  14.639 -1.0139 -1.6602  0.5757
 4211TIP3   OH234047   0.419   5.007   2.266  0.0007 -0.8791 -0.7247
 4211TIP3    H134048   0.336   5.023   2.220 -1.8591 -2.2591  1.9238
 4211TIP3    H234049   0.451   4.924   2.230  0.2264 -0.3792 -1.7056
 4212TIP3   OH234050   6.165   0.278   0.884  0.2858 -0.2978 -0.0402
 4212TIP3    H134051   6.077   0.245   0.867  0.7700 -0.8413 -1.6366
 4212TIP3    H234052   6.222   0.201   0.880  1.0444  0.2801 -0.7906
 4213TIP3   OH234053   4.347   4.706   2.871  0.4073 -0.3519 -0.4319
 4213TIP3    H134054   4.289   4.755   2.930 -0.4548 -0.9707 -0.7408
 4213TIP3    H234055   4.340   4.753   2.787 -0.6529 -1.1405 -0.8092
 4214TIP3   OH234056   0.308   6.773  12.294  0.1853 -0.3594 -0.3931
 4214TIP3    H134057   0.271   6.745  12.378  0.8390 -0.0767 -0.0021
 4214TIP3    H234058   0.262   6.720  12.229  0.5832 -1.5334  0.2409
 4215TIP3   OH234059   3.929   5.838  11.218  0.2637  0.0446 -0.2389
 4215TIP3    H134060   4.003   5.898  11.205 -0.7728  1.0214 -2.0008
 4215TIP3    H234061   3.962   5.753  11.189  1.1036  0.1692  0.3071
 4216TIP3   OH234062   2.165   0.680  13.792 -0.2922 -0.2223  0.0286
 4216TIP3    H134063   2.152   0.603  13.737  0.7468 -1.5497  1.5744
 4216TIP3    H234064   2.259   0.683  13.809 -0.0691  2.2825 -1.1945
 4217TIP3   OH234065   6.489   3.875   5.702 -0.2893  0.1004  0.3331
 4217TIP3    H134066   6.538   3.865   5.621  0.7961 -1.3435  1.1155
 4217TIP3    H234067   6.544   3.932   5.756 -0.4967  0.1854  0.4582
 4218TIP3   OH234068   0.127   5.040  12.450  0.2316 -0.1929 -0.5052
 4218TIP3    H134069   0.199   5.021  12.390  1.2088  0.3445  0.4561
 4218TIP3    H234070   0.168   5.041  12.537 -0.5278  2.0130 -0.0987
 4219TIP3   OH234071   0.746   1.040  16.012  0.0341  0.5500 -0.6468
 4219TIP3    H134072   0.816   1.074  16.068  0.4155 -1.9957  0.5553
 4219TIP3    H234073   0.707   1.118  15.973  0.2141  2.4589  2.6028
 4220TIP3   OH234074   1.128   5.443   5.310  0.1029  0.1394  0.8354
 4220TIP3    H134075   1.049   5.389   5.305  0.2769 -0.2305  1.8079
 4220TIP3    H234076   1.193   5.394   5.259 -0.0317 -0.0355  0.8278
 4221TIP3   OH234077   1.662   5.488  11.218  0.1834  0.1461 -0.0686
 4221TIP3    H134078   1.756   5.500  11.204  0.2084 -2.6852 -3.9786
 4221TIP3    H234079   1.656   5.411  11.274  0.2622 -0.7884 -1.3157
 4222TIP3   OH234080   0.748   4.631  16.987  0.2832  0.2194  0.0078
 4222TIP3    H134081   0.678   4.635  16.923  0.2912  2.0752  0.0558
 4222TIP3    H234082   0.712   4.578  17.059 -0.8245  0.6165 -0.2367
 4223TIP3   OH234083   0.073   0.464   2.867 -0.0573  0.1764 -0.0833
 4223TIP3    H134084   0.125   0.401   2.816 -0.0348 -0.0304  0.1894
 4223TIP3    H234085   0.135   0.533   2.890  0.0584  0.0074  0.1108
 4224TIP3   OH234086   1.894   5.731  15.376 -0.7545 -0.5672 -0.4691
 4224TIP3    H134087   1.881   5.651  15.325 -0.8242 -0.7158 -0.2207
 4224TIP3    H234088   1.900   5.800  15.311 -0.9062 -0.7476 -0.6770
 4225TIP3   OH234089   0.850   1.221  14.302  0.2917 -0.0947 -0.6936
 4225TIP3    H134090   0.797   1.301  14.295  0.2971 -0.1671 -1.6447
 4225TIP3    H234091   0.834   1.190  14.391 -2.9035 -1.2482 -1.5366
 4226TIP3   OH234092   2.416   1.327  15.879  0.0155  0.0570 -0.4821
 4226TIP3    H134093   2.467   1.357  15.955  1.3490  0.9519 -1.6796
 4226TIP3    H234094   2.364   1.254  15.913  1.3651 -0.2601  1.0464
 4227TIP3   OH234095   2.681   1.022  12.692 -0.1075 -0.3521 -0.4318
 4227TIP3    H134096   2.653   0.974  12.770 -2.5588  1.7302  0.0858
 4227TIP3    H234097   2.663   0.961  12.620 -0.1372 -1.3823  0.4199
 4228TIP3   OH234098   6.185   3.261   4.220 -0.6356 -0.6739 -0.3104
 4228TIP3    H134099   6.151   3.189   4.272  1.3798 -1.3116  0.2073
 4228TIP3    H234100   6.217   3.220   4.140 -0.1892 -0.2488 -0.3565
 4229TIP3   OH234101   0.389   4.768  11.530  0.1114 -0.3831  0.0772
 4229TIP3    H134102   0.449   4.741  11.461  1.0630  4.1913 -1.2668
 4229TIP3    H234103   0.304   4.776  11.487  0.3362  0.8171 -0.1786
 4230TIP3   OH234104   6.486   2.257  14.355 -0.2079 -0.2840  0.4545
 4230TIP3    H134105   6.463   2.304  14.275 -1.2730 -0.4730  0.6361
 4230TIP3    H234106   6.524   2.324  14.412  0.0974 -0.0479 -0.0202
 4231TIP3   OH234107   3.058   5.912  12.324  0.1025 -0.5044  0.4025
 4231TIP3    H134108   2.983   5.853  12.322 -0.0498 -0.2983 -0.4539
 4231TIP3    H234109   3.115   5.882  12.253  0.0954  0.2601  0.0520
 4232TIP3   OH234110   2.951   6.715   2.992 -0.0921 -0.0785 -0.3759
 4232TIP3    H134111   2.861   6.718   2.960 -0.4632  0.5668  0.7007
 4232TIP3    H234112   2.950   6.766   3.073  1.1790 -0.3115 -0.1932
 4233TIP3   OH234113   1.546   2.599   4.569  0.1897  0.4013 -0.1785
 4233TIP3    H134114   1.505   2.570   4.650  1.0096 -0.1789  0.0435
 4233TIP3    H234115   1.479   2.587   4.502  0.1757 -1.0991  0.0754
 4234TIP3   OH234116   3.762   2.409  12.019  0.1954 -0.1986 -0.0704
 4234TIP3    H134117   3.731   2.326  12.056 -1.1397 -0.4602 -1.6609
 4234TIP3    H234118   3.759   2.395  11.924  0.7059  1.4136 -0.3424
 4235TIP3   OH234119   6.320   6.756  13.799  0.1044 -0.7120 -0.5093
 4235TIP3    H134120   6.328   6.800  13.883 -1.0300 -3.0736  0.9419
 4235TIP3    H234121   6.232   6.776  13.769  0.4831  0.0701 -1.1230
 4236TIP3   OH234122   3.719   6.335   3.865  0.2973  0.1358 -0.0412
 4236TIP3    H134123   3.640   6.282   3.857 -1.3432  2.1060  2.2375
 4236TIP3    H234124   3.777   6.283   3.921 -0.5519 -0.0508  0.6746
 4237TIP3   OH234125   5.307   6.439   1.132 -0.4614  0.0820 -0.1113
 4237TIP3    H134126   5.324   6.448   1.226 -1.5117 -0.6092  0.1763
 4237TIP3    H234127   5.230   6.494   1.116  0.1555  0.7768 -0.7283
 4238TIP3   OH234128   4.670   5.810   0.228 -0.0641  0.0610 -0.1577
 4238TIP3    H134129   4.675   5.761   0.146 -0.6614 -0.2007 -0.0429
 4238TIP3    H234130   4.604   5.764   0.280  0.8461 -0.2257  0.7784
 4239TIP3   OH234131   2.083   6.432  15.117  0.0283 -0.5643 -0.1807
 4239TIP3    H134132   2.127   6.511  15.088 -1.3346 -0.0003 -0.7964
 4239TIP3    H234133   2.091   6.371  15.044 -0.7847 -0.2136 -0.5754
 4240TIP3   OH234134   4.387   6.599  14.594 -0.1431  0.4000  0.2999
 4240TIP3    H134135   4.300   6.562  14.610  0.0063 -1.1953 -2.0986
 4240TIP3    H234136   4.439   6.525  14.562  0.6351  2.2830 -3.3216
 4241TIP3   OH234137   0.524   0.321  13.567  0.2049 -0.2749 -0.0601
 4241TIP3    H134138   0.550   0.389  13.505  2.6913 -1.3924 -0.3615
 4241TIP3    H234139   0.458   0.363  13.622  1.3303  2.2684 -0.4862
 4242TIP3   OH234140   1.539   5.389  17.143  0.0144 -0.3056 -0.2962
 4242TIP3    H134141   1.513   5.389  17.235  1.4655 -0.8685  0.1433
 4242TIP3    H234142   1.505   5.307  17.108 -1.0630  0.1848 -0.4427
 4243TIP3   OH234143   1.091   6.071   1.082  0.0972 -0.3279  0.4688
 4243TIP3    H134144   1.135   5.987   1.094 -0.6107 -0.8710 -0.5208
 4243TIP3    H234145   1.097   6.114   1.167  0.5178 -1.3550  0.9807
 4244TIP3   OH234146   3.798   0.928   0.114  0.3256 -0.4315  0.4185
 4244TIP3    H134147   3.727   0.993   0.118  0.1089 -0.6673  0.4648
 4244TIP3    H234148   3.872   0.975   0.077  0.2535 -0.0798  0.7150
 4245TIP3   OH234149   6.654   1.742   4.747 -0.1221  0.1533 -0.2466
 4245TIP3    H134150   6.671   1.819   4.692  0.0125  3.5487  3.9659
 4245TIP3    H234151   6.726   1.741   4.809 -1.1156 -2.3194  0.9853
 4246TIP3   OH234152   1.635   5.999   3.675  0.2822 -0.7654  0.2184
 4246TIP3    H134153   1.607   5.935   3.610  0.4282  0.7173 -1.3802
 4246TIP3    H234154   1.730   6.008   3.660  0.3836 -0.6626  0.8841
 4247TIP3   OH234155   6.002   6.749  11.503 -0.0475  0.3828 -0.3384
 4247TIP3    H134156   6.030   6.693  11.575  0.8860 -1.3974 -1.9706
 4247TIP3    H234157   6.072   6.815  11.495  0.6241 -0.3416 -0.5508
 4248TIP3   OH234158   3.005   4.084  14.974 -0.7228  0.0485  0.0337
 4248TIP3    H134159   3.066   4.153  15.000  0.1221 -0.9355  0.7149
 4248TIP3    H234160   3.036   4.006  15.019 -2.1333 -0.6174 -0.0880
 4249TIP3   OH234161   5.701   4.857  12.184  0.4692  0.3806 -0.1198
 4249TIP3    H134162   5.621   4.805  12.193  1.6653 -1.7811 -1.1575
 4249TIP3    H234163   5.735   4.864  12.273 -0.5370  0.8309  0.2522
 4250TIP3   OH234164   4.215   1.671  11.195 -0.1951 -0.1973  0.2091
 4250TIP3    H134165   4.161   1.659  11.116 -0.6393 -0.0375  0.4857
 4250TIP3    H234166   4.300   1.633  11.172 -0.2366  0.0910 -0.4431
 4251TIP3   OH234167   0.942   4.997  14.214 -0.0397 -1.0611 -0.5589
 4251TIP3    H134168   0.854   4.958  14.215 -1.6616  2.2042  1.8012
 4251TIP3    H234169   0.979   4.975  14.300 -0.7397  1.7461  0.5673
 4252TIP3   OH234170   3.917   1.262   4.551 -0.8317  0.1631  0.5214
 4252TIP3    H134171   3.890   1.171   4.553 -0.9547  0.1831  0.0128
 4252TIP3    H234172   3.945   1.277   4.461 -2.0390  0.9688  0.2511
 4253TIP3   OH234173   2.737   4.119   0.564 -0.4704 -0.1053  0.2974
 4253TIP3    H134174   2.756   4.177   0.490  0.7969  1.8393  2.0238
 4253TIP3    H234175   2.738   4.031   0.527  0.3786  0.7777 -1.9255
 4254TIP3   OH234176   3.827   1.954   5.224  0.5723 -0.6694 -0.2890
 4254TIP3    H134177   3.904   1.980   5.274  0.4621 -1.1265  0.1225
 4254TIP3    H234178   3.859   1.943   5.134  1.0256 -1.0237 -0.0885
 4255TIP3   OH234179   3.592   5.906   5.474 -0.1710 -0.8380  0.0209
 4255TIP3    H134180   3.523   5.919   5.538  1.8928 -0.0140  2.2255
 4255TIP3    H234181   3.663   5.864   5.523  1.3049 -0.7080 -1.8642
 4256TIP3   OH234182   4.099   0.098  12.487 -0.6387 -0.2314  0.3384
 4256TIP3    H134183   4.150   0.019  12.469  1.5946  0.9770  0.9478
 4256TIP3    H234184   4.023   0.068  12.537 -0.8298 -2.1728 -1.0392
 4257TIP3   OH234185   6.301   2.382  16.506 -0.2226 -0.7339  0.5651
 4257TIP3    H134186   6.288   2.465  16.552 -0.8517  0.1715 -1.1628
 4257TIP3    H234187   6.232   2.325  16.539 -1.1312  0.1418  0.2138
 4258TIP3   OH234188   4.949   4.227   4.145 -0.0291  0.1763  0.0765
 4258TIP3    H134189   4.919   4.183   4.065  1.5163  0.0647 -0.4739
 4258TIP3    H234190   4.986   4.310   4.115  1.2628 -0.2000  0.5740
 4259TIP3   OH234191   2.642   4.646   5.794 -1.0304  0.2696 -0.0909
 4259TIP3    H134192   2.697   4.596   5.854  0.3372  0.7613 -0.8950
 4259TIP3    H234193   2.591   4.704   5.850  0.9708  1.4611  0.5767
 4260TIP3   OH234194   4.231   5.543   5.490 -0.3854  0.2904 -0.7482
 4260TIP3    H134195   4.151   5.580   5.527 -0.5454 -1.1755  0.4478
 4260TIP3    H234196   4.267   5.488   5.559  0.7507 -0.4295 -1.8562
 4261TIP3   OH234197   2.447   4.683   5.151  0.3154 -0.0780 -0.0403
 4261TIP3    H134198   2.363   4.727   5.158 -0.4139 -0.5349 -3.8159
 4261TIP3    H234199   2.426   4.590   5.144  1.4877 -0.6388  2.6476
 4262TIP3   OH234200   0.221   0.508   3.743  0.2136  0.0517  0.6314
 4262TIP3    H134201   0.153   0.461   3.694  0.1888  1.2243 -0.5233
 4262TIP3    H234202   0.299   0.501   3.688  1.0465 -1.2051  1.9068
 4263TIP3   OH234203   6.021   6.618   6.424 -0.4672 -0.1252  0.4869
 4263TIP3    H134204   5.985   6.533   6.448  2.1382 -1.4768  0.0313
 4263TIP3    H234205   5.960   6.682   6.462 -0.7041 -2.1381  3.9456
 4264TIP3   OH234206   5.701   5.542   4.113  0.3327  0.1120 -0.2247
 4264TIP3    H134207   5.755   5.470   4.079 -0.2906 -1.2123  1.3967
 4264TIP3    H234208   5.630   5.497   4.159 -0.8926  1.8088 -0.4118
 4265TIP3   OH234209   2.316   6.061   5.568  0.2675 -0.3868 -0.3901
 4265TIP3    H134210   2.286   5.970   5.560 -0.7466 -0.2499  1.2635
 4265TIP3    H234211   2.237   6.113   5.555  0.0598  0.0665  2.1999
 4266TIP3   OH234212   0.427   0.105   6.316  0.5921  0.2096  0.4881
 4266TIP3    H134213   0.401   0.190   6.351  2.1278  0.1360  1.9296
 4266TIP3    H234214   0.521   0.113   6.300  0.5110 -0.8065 -0.6493
 4267TIP3   OH234215   4.922   1.463  14.285 -0.0310  0.2902 -0.0498
 4267TIP3    H134216   4.892   1.391  14.341 -1.7378 -0.0907 -1.3651
 4267TIP3    H234217   4.930   1.538  14.345  0.9150 -0.7350  1.1771
 4268TIP3   OH234218   0.504   3.958   4.704  0.1299  0.6744  0.3341
 4268TIP3    H134219   0.498   4.053   4.697 -0.1985  0.5330 -4.3153
 4268TIP3    H234220   0.598   3.939   4.701  0.1532  0.8267  0.0789
 4269TIP3   OH234221   2.903   3.831  14.579 -0.0613 -0.2684  0.3426
 4269TIP3    H134222   2.920   3.738  14.567  1.8688  0.2137 -1.1504
 4269TIP3    H234223   2.977   3.862  14.631  1.9411  1.2125 -3.0565
 4270TIP3   OH234224   5.442   3.727  14.963 -0.5881  0.3547  0.5025
 4270TIP3    H134225   5.490   3.810  14.965 -2.5517  1.5788 -0.5383
 4270TIP3    H234226   5.456   3.694  14.874 -1.5375  0.6862  0.2126
 4271TIP3   OH234227   2.255   5.844   4.289  0.0455  0.1486  0.1581
 4271TIP3    H134228   2.218   5.905   4.352  0.1236  1.1330 -0.7206
 4271TIP3    H234229   2.321   5.895   4.242  0.7365 -0.8638 -0.0080
 4272TIP3   OH234230   2.645   4.304   1.626 -0.0530  0.1090 -0.0572
 4272TIP3    H134231   2.577   4.368   1.645  1.5348  1.0523  2.9681
 4272TIP3    H234232   2.693   4.341   1.551 -0.0252  1.7760  0.7521
 4273TIP3   OH234233   2.538   3.164  15.007  0.0914  0.4667  0.3515
 4273TIP3    H134234   2.580   3.223  15.070 -0.1597  1.8702 -0.7468
 4273TIP3    H234235   2.448   3.195  15.001  0.4017  1.1423 -1.5453
 4274TIP3   OH234236   4.203   3.912   0.688  0.1236 -0.2656  0.6333
 4274TIP3    H134237   4.167   3.830   0.723 -1.7501  0.5783  0.7767
 4274TIP3    H234238   4.208   3.897   0.594 -2.2520  0.1372  0.3877
 4275TIP3   OH234239   5.384   5.952  12.064  0.6468  0.4316  0.8475
 4275TIP3    H134240   5.391   5.899  11.985  1.2914  2.7399 -0.7520
 4275TIP3    H234241   5.326   6.025  12.040  0.9405  1.2566  2.4620
 4276TIP3   OH234242   1.405   3.842   1.053  0.0517  0.7842  0.1332
 4276TIP3    H134243   1.367   3.881   0.974  0.6998 -0.9778 -1.1224
 4276TIP3    H234244   1.340   3.776   1.080  1.6437 -1.6326 -1.5215
 4277TIP3   OH234245   4.855   6.303  10.503 -0.7081 -0.2655  0.2115
 4277TIP3    H134246   4.890   6.387  10.533  0.3210 -1.0117  1.2096
 4277TIP3    H234247   4.774   6.292  10.552 -0.2784 -0.3439  0.9315
 4278TIP3   OH234248   2.478   3.850   2.846 -0.2751  0.0495  0.1657
 4278TIP3    H134249   2.456   3.781   2.783  0.9826 -0.6745  0.4814
 4278TIP3    H234250   2.395   3.892   2.865 -0.8293 -0.3191 -1.2716
 4279TIP3   OH234251   3.916   6.610   4.315 -0.3092 -0.1231 -0.0698
 4279TIP3    H134252   3.956   6.612   4.401 -0.1488 -1.4265 -0.0892
 4279TIP3    H234253   3.931   6.521   4.284  1.7104  0.9191 -2.4302
 4280TIP3   OH234254   1.552   6.052   5.063 -0.1381 -0.0691 -0.3983
 4280TIP3    H134255   1.537   5.988   4.993  2.1611 -0.3907 -0.6772
 4280TIP3    H234256   1.556   6.000   5.143  1.2460 -0.2691 -0.5671
 4281TIP3   OH234257   5.618   1.619   6.355 -0.2525 -0.2601 -0.3951
 4281TIP3    H134258   5.707   1.589   6.374 -1.3048 -1.6707  3.0436
 4281TIP3    H234259   5.594   1.574   6.274  1.8097 -0.5612 -0.8939
 4282TIP3   OH234260   6.439   5.751   5.268 -0.5725 -0.7412  0.0106
 4282TIP3    H134261   6.514   5.765   5.327 -0.1548  0.6760 -0.8133
 4282TIP3    H234262   6.436   5.656   5.257  2.1187 -0.7860 -1.1498
 4283TIP3   OH234263   1.881   4.952  15.052  0.2133  0.5041 -0.6756
 4283TIP3    H134264   1.976   4.961  15.046  0.2382  2.0380  1.1716
 4283TIP3    H234265   1.848   5.041  15.045 -0.7976  0.4655  2.2185
 4284TIP3   OH234266   1.390   3.722  11.854  0.2398  0.0666 -0.0708
 4284TIP3    H134267   1.327   3.725  11.782  1.1725 -0.9905 -0.9721
 4284TIP3    H234268   1.369   3.641  11.901  0.2375  0.2680  0.2779
 4285TIP3   OH234269   6.626   3.062  15.416 -0.1172  0.7692  0.2260
 4285TIP3    H134270   6.712   3.035  15.385 -0.8967 -0.3195 -1.1181
 4285TIP3    H234271   6.591   3.116  15.344  0.2620  3.0405  1.6533
 4286TIP3   OH234272   3.070   5.045  15.857 -0.3699 -0.0357  0.5350
 4286TIP3    H134273   3.161   5.040  15.886 -0.1713  0.9553  0.1391
 4286TIP3    H234274   3.045   4.955  15.837  0.0518 -0.5022  2.0366
 4287TIP3   OH234275   3.850   5.126   1.557 -0.4839 -0.0485  0.2267
 4287TIP3    H134276   3.755   5.140   1.554 -0.3547  0.8330 -2.4872
 4287TIP3    H234277   3.882   5.198   1.612 -1.4794 -1.7540  3.2849
 4288TIP3   OH234278   2.606   6.465   2.862 -0.3377  0.8563  0.0785
 4288TIP3    H134279   2.677   6.498   2.807  0.7654  0.7487  1.3762
 4288TIP3    H234280   2.650   6.406   2.924 -1.5621  0.8316  0.9488
 4289TIP3   OH234281   1.134   6.428  12.674 -0.4549 -0.5266  0.4670
 4289TIP3    H134282   1.177   6.346  12.650  0.2519 -0.1250  0.3269
 4289TIP3    H234283   1.159   6.489  12.604 -0.0289  0.1180  1.1694
 4290TIP3   OH234284   3.514   4.326  14.573 -0.4727 -0.1487 -0.1929
 4290TIP3    H134285   3.597   4.335  14.526 -0.3724 -0.3997 -0.0663
 4290TIP3    H234286   3.490   4.234  14.562  0.4247 -0.6552  1.6755
 4291TIP3   OH234287   4.271   4.835  15.894  0.2120 -0.3437 -0.3741
 4291TIP3    H134288   4.354   4.810  15.935 -0.0892 -0.5106  0.1380
 4291TIP3    H234289   4.235   4.903  15.951 -0.5115 -1.0242 -0.0000
 4292TIP3   OH234290   1.955   2.913   2.526  0.2335  0.0859 -0.4268
 4292TIP3    H134291   1.881   2.857   2.549  0.0594 -0.2451 -1.7158
 4292TIP3    H234292   1.916   3.000   2.516  0.2206  0.1300 -0.0036
 4293TIP3   OH234293   2.033   0.754   4.034 -0.5317  0.0362  0.0196
 4293TIP3    H134294   2.001   0.730   3.947 -2.5678 -0.4667  0.8498
 4293TIP3    H234295   2.032   0.672   4.084 -1.4622  0.6768  1.1052
 4294TIP3   OH234296   1.341   2.054  12.324 -0.1859 -0.0137  0.2006
 4294TIP3    H134297   1.371   2.135  12.365  1.7886 -0.4065 -0.3568
 4294TIP3    H234298   1.265   2.081  12.271 -0.2723  1.2362  0.9177
 4295TIP3   OH234299   0.745   1.207  13.716 -0.0435 -0.7118 -0.0949
 4295TIP3    H134300   0.787   1.250  13.642  1.3486 -0.8901  0.5578
 4295TIP3    H234301   0.785   1.247  13.793 -3.4743  1.5436  0.7396
 4296TIP3   OH234302   1.853   4.651  15.116 -0.2546 -0.0620 -0.7209
 4296TIP3    H134303   1.803   4.732  15.119 -0.0297  0.0612  1.3639
 4296TIP3    H234304   1.929   4.668  15.173 -0.8766 -2.1041  0.8532
 4297TIP3   OH234305   6.287   2.569   1.370 -0.3432 -0.0766 -0.4137
 4297TIP3    H134306   6.226   2.611   1.430 -0.3362 -1.8674  0.9343
 4297TIP3    H234307   6.370   2.567   1.418  0.6110  1.5794 -1.8952
 4298TIP3   OH234308   3.382   1.402  13.171 -0.0070 -0.3272  0.5236
 4298TIP3    H134309   3.454   1.359  13.126 -0.5045  1.3619 -2.0691
 4298TIP3    H234310   3.423   1.442  13.248  1.5592 -0.4577 -0.2056
 4299TIP3   OH234311   6.298   1.170   2.850  0.3556  0.5168  0.4847
 4299TIP3    H134312   6.355   1.172   2.773  0.9552  1.8484  0.9271
 4299TIP3    H234313   6.247   1.251   2.844 -0.1816  0.2334  1.0700
 4300TIP3   OH234314   1.379   4.916   4.700 -0.3085 -0.0497 -0.2342
 4300TIP3    H134315   1.353   4.851   4.634  1.8623 -0.8139 -0.4231
 4300TIP3    H234316   1.392   4.997   4.651  2.0402 -0.8001 -0.9534
 4301TIP3   OH234317   6.163   0.833   1.461  0.4832  0.5354  0.3148
 4301TIP3    H134318   6.242   0.832   1.408  0.7905 -0.4029  0.7704
 4301TIP3    H234319   6.107   0.765   1.421 -0.3638  1.5917 -0.3766
 4302TIP3   OH234320   2.453   5.188   3.824  0.3123  0.0597  0.2684
 4302TIP3    H134321   2.424   5.255   3.762 -0.5744 -1.4274 -1.0018
 4302TIP3    H234322   2.432   5.224   3.910 -0.6817  1.1497 -0.3963
 4303TIP3   OH234323   3.139   0.328   6.003 -0.2827  0.2372 -0.0688
 4303TIP3    H134324   3.174   0.296   6.086 -0.0361  0.2673 -0.1606
 4303TIP3    H234325   3.216   0.339   5.947 -0.6330 -2.2072 -1.1629
 4304TIP3   OH234326   0.819   4.997   1.686 -0.0223  0.3541  0.0706
 4304TIP3    H134327   0.766   5.051   1.628  0.1195 -0.6884 -1.0536
 4304TIP3    H234328   0.789   4.907   1.669 -0.1199  0.0339  1.7592
 4305TIP3   OH234329   5.705   3.350   5.945  0.4096  0.3754  0.4532
 4305TIP3    H134330   5.714   3.276   6.005 -3.4494  1.2135  2.3681
 4305TIP3    H234331   5.738   3.426   5.994  2.0566  0.3680 -0.5653
 4306TIP3   OH234332   4.293   2.493   0.701 -0.3610  0.1913 -0.7012
 4306TIP3    H134333   4.269   2.458   0.615  1.1395 -1.2251 -0.5933
 4306TIP3    H234334   4.365   2.553   0.683  0.1227 -0.2942 -0.4452
 4307TIP3   OH234335   6.514   6.514  11.238  0.2468  0.0364 -0.2323
 4307TIP3    H134336   6.476   6.602  11.228 -0.2905  0.0463  1.5048
 4307TIP3    H234337   6.600   6.529  11.277  0.4559 -0.1692 -0.6165
 4308TIP3   OH234338   6.660   4.092   6.011  0.1766  0.0034  0.1710
 4308TIP3    H134339   6.698   4.107   5.924 -0.2681  0.9709  0.1371
 4308TIP3    H234340   6.627   4.177   6.038 -0.0520 -0.3776  1.1250
 4309TIP3   OH234341   0.055   0.599   2.575 -0.0064  0.1791 -0.2793
 4309TIP3    H134342   0.126   0.647   2.617 -0.8075  0.1511  1.1729
 4309TIP3    H234343   0.096   0.517   2.545  0.7406  0.5215 -0.2239
 4310TIP3   OH234344   1.634   4.526  12.923 -0.5149  0.3012 -0.2689
 4310TIP3    H134345   1.673   4.593  12.980 -0.9197  0.4669 -0.1799
 4310TIP3    H234346   1.658   4.554  12.834 -2.9614  2.1588 -0.4720
 4311TIP3   OH234347   1.754   4.732   3.708 -0.1087 -0.4760 -0.4492
 4311TIP3    H134348   1.819   4.798   3.731  0.3039 -0.6183 -1.1813
 4311TIP3    H234349   1.749   4.735   3.613  0.1678 -1.7327 -0.5258
 4312TIP3   OH234350   0.299   5.088  16.562 -0.0517 -0.5902  0.3912
 4312TIP3    H134351   0.305   5.031  16.639 -1.3058 -0.5255  0.5589
 4312TIP3    H234352   0.279   5.028  16.490  2.8831 -0.8910 -0.2683
 4313TIP3   OH234353   5.605   4.920   5.100  0.0051  0.0621 -0.6211
 4313TIP3    H134354   5.598   4.845   5.041 -4.5032 -0.2807 -0.0279
 4313TIP3    H234355   5.591   4.883   5.187 -0.5718  1.3739 -0.1309
 4314TIP3   OH234356   3.806   0.866   1.220  0.5765  0.3928 -0.1521
 4314TIP3    H134357   3.834   0.925   1.149  0.0159  1.7777  0.7370
 4314TIP3    H234358   3.736   0.914   1.264  0.5223 -0.7007  0.9864
 4315TIP3   OH234359   4.748   0.394  13.326 -0.0212  0.1463 -0.0256
 4315TIP3    H134360   4.758   0.471  13.271  0.7106  1.1271  1.4196
 4315TIP3    H234361   4.827   0.342  13.310  0.2036  0.4435  0.1262
 4316TIP3   OH234362   4.438   4.387  13.837 -0.4655 -0.2139  0.2449
 4316TIP3    H134363   4.394   4.426  13.913 -0.7686  1.1671 -0.6060
 4316TIP3    H234364   4.520   4.352  13.872 -0.7596  0.0770  1.2706
 4317TIP3   OH234365   0.042   4.629  15.040  0.1594 -0.1299 -0.2998
 4317TIP3    H134366   0.056   4.553  14.984  0.5286 -1.1650  1.1241
 4317TIP3    H234367  -0.045   4.661  15.016 -0.6861 -1.9696  0.1045
 4318TIP3   OH234368   0.298   6.338   0.317 -0.7280 -0.3846 -0.1702
 4318TIP3    H134369   0.353   6.262   0.300  0.8506  0.8599 -0.8218
 4318TIP3    H234370   0.262   6.363   0.232 -2.0677 -0.9616  0.1888
 4319TIP3   OH234371   4.867   4.092  12.915  0.2821  0.2322 -0.2995
 4319TIP3    H134372   4.892   4.034  12.987 -0.6278  1.1173  0.7727
 4319TIP3    H234373   4.914   4.058  12.839  0.3159 -1.4696  0.4378
 4320TIP3   OH234374   2.764   6.520  12.076 -0.1593  0.0975  0.1662
 4320TIP3    H134375   2.757   6.604  12.120  1.8522  0.7738 -0.7186
 4320TIP3    H234376   2.826   6.534  12.005 -0.8971 -1.7674 -0.9492
 4321TIP3   OH234377   6.318   5.618   5.558 -0.2454  0.6681  0.2679
 4321TIP3    H134378   6.377   5.566   5.503  0.7824 -0.3989  2.2563
 4321TIP3    H234379   6.254   5.555   5.590  0.2315  0.8532  1.6525
 4322TIP3   OH234380   4.169   0.189   2.036 -0.4283  0.0552 -0.0335
 4322TIP3    H134381   4.173   0.246   2.113 -0.0081  1.9899 -1.4228
 4322TIP3    H234382   4.078   0.159   2.033 -2.2769  4.7813 -1.9695
 4323TIP3   OH234383   2.396   1.178   4.250 -0.0789  0.6305 -0.2228
 4323TIP3    H134384   2.334   1.107   4.233 -0.1662  0.7512 -0.4162
 4323TIP3    H234385   2.384   1.238   4.176 -0.5099  1.2060  0.3009
 4324TIP3   OH234386   6.099   4.466   2.471 -0.7209  0.0272  0.0922
 4324TIP3    H134387   6.191   4.449   2.492  0.2980 -1.5928 -4.4591
 4324TIP3    H234388   6.102   4.543   2.415 -2.1464 -0.0007 -0.0398
 4325TIP3   OH234389   6.192   1.718  12.088 -0.4790  0.5304  0.6111
 4325TIP3    H134390   6.131   1.775  12.135 -0.7134  0.3989  0.4720
 4325TIP3    H234391   6.203   1.643  12.146 -0.8168  0.3393  0.4379
 4326TIP3   OH234392   4.195   1.022  13.759 -0.6747 -0.1509 -0.0612
 4326TIP3    H134393   4.231   0.968  13.688 -0.6286 -0.5765  0.2822
 4326TIP3    H234394   4.184   0.961  13.832 -0.9675  0.2304  0.2160
 4327TIP3   OH234395   4.296   5.855   6.758 -0.6970  0.5082  0.2059
 4327TIP3    H134396   4.282   5.910   6.682 -2.1390  0.4764  0.4213
 4327TIP3    H234397   4.247   5.775   6.740  1.8549 -1.0178 -0.3718
 4328TIP3   OH234398   1.246   0.794   2.706  0.0322 -0.0936  0.5781
 4328TIP3    H134399   1.311   0.838   2.650  0.4975  0.2851  1.3871
 4328TIP3    H234400   1.277   0.704   2.712  0.0786 -0.0922  0.3632
 4329TIP3   OH234401   6.146   3.097   4.013 -0.1722  0.0410 -0.8170
 4329TIP3    H134402   6.165   3.032   4.080 -0.5380 -0.0123 -0.7635
 4329TIP3    H234403   6.162   3.052   3.930  0.2174  0.0876 -0.7707
 4330TIP3   OH234404   6.265   1.526  14.713  0.2181 -0.1423 -0.5515
 4330TIP3    H134405   6.331   1.539  14.645 -0.8561 -0.3695 -1.6751
 4330TIP3    H234406   6.190   1.487  14.667 -0.4105 -0.6357  0.8290
 4331TIP3   OH234407   1.564   2.621   3.082  0.3438 -0.1705  0.0662
 4331TIP3    H134408   1.490   2.675   3.053  1.3807  1.0343 -0.4605
 4331TIP3    H234409   1.586   2.655   3.169  0.0108 -0.8163  0.4063
 4332TIP3   OH234410   4.607   3.170  12.332 -0.2657 -0.2195  0.3358
 4332TIP3    H134411   4.583   3.160  12.424 -0.0822  1.3286  0.5859
 4332TIP3    H234412   4.702   3.156  12.330 -0.5955 -2.9585 -0.1040
 4333TIP3   OH234413   2.038   1.051   3.315  0.5111 -0.0558  0.1070
 4333TIP3    H134414   1.999   0.964   3.308 -0.3334  0.2802  0.5289
 4333TIP3    H234415   2.007   1.085   3.399 -1.3621  1.6896 -1.2012
 4334TIP3   OH234416   2.940   2.392   3.567  0.1086  0.2333 -0.6570
 4334TIP3    H134417   2.881   2.340   3.621  0.9737 -0.2417 -0.1362
 4334TIP3    H234418   3.027   2.375   3.603  0.6870  0.1164 -2.0201
 4335TIP3   OH234419   0.196   2.426   3.949  0.0607  0.5425  0.2058
 4335TIP3    H134420   0.289   2.416   3.970  0.3274  2.4178  0.1301
 4335TIP3    H234421   0.154   2.434   4.035 -0.2943 -1.7966  0.3149
 4336TIP3   OH234422   3.761   4.385  16.273 -0.4193 -0.5263 -0.3793
 4336TIP3    H134423   3.745   4.336  16.192 -0.7459  1.3814 -1.5178
 4336TIP3    H234424   3.680   4.433  16.289 -0.3399 -0.8293  1.0746
 4337TIP3   OH234425   0.630   0.179   3.124 -0.4559 -0.0585 -0.0663
 4337TIP3    H134426   0.534   0.180   3.120 -0.6576 -3.3382  0.9290
 4337TIP3    H234427   0.651   0.111   3.188  2.5496 -0.3708 -1.2005
 4338TIP3   OH234428   4.006   1.240   2.189 -0.4673 -0.0628 -0.4933
 4338TIP3    H134429   4.073   1.267   2.125  1.2860 -2.7456  0.0355
 4338TIP3    H234430   3.987   1.150   2.165 -0.1802 -0.9674  2.4051
 4339TIP3   OH234431   4.975   2.222   2.999  0.3779 -0.4313 -0.0435
 4339TIP3    H134432   4.963   2.317   2.996  1.3182 -0.3331 -1.5494
 4339TIP3    H234433   5.061   2.209   3.039  0.6093 -0.6012 -0.5808
 4340TIP3   OH234434   2.331   2.207  14.305  0.6223 -0.2894  0.2946
 4340TIP3    H134435   2.378   2.197  14.222  0.2947 -2.0356  0.2761
 4340TIP3    H234436   2.391   2.257  14.360  0.0873  2.6217 -1.5188
 4341TIP3   OH234437   4.430   1.466  14.868 -0.7216  0.3229 -0.5066
 4341TIP3    H134438   4.440   1.465  14.964 -3.2097 -0.1228 -0.1780
 4341TIP3    H234439   4.485   1.539  14.839  0.8592 -0.1375  1.1286
 4342TIP3   OH234440   4.526   6.204  10.972 -0.1603 -0.7714 -0.2528
 4342TIP3    H134441   4.455   6.148  10.940 -0.8435  0.6176 -1.2606
 4342TIP3    H234442   4.605   6.152  10.959 -1.0167 -2.8508  2.0138
 4343TIP3   OH234443   1.770   6.164   2.187 -0.0704  0.3520  0.1709
 4343TIP3    H134444   1.851   6.122   2.159 -0.3134 -1.6303  2.1993
 4343TIP3    H234445   1.720   6.095   2.228 -1.7877  2.0495  1.0856
 4344TIP3   OH234446   3.844   5.930   3.411 -0.3978  0.3934  0.1582
 4344TIP3    H134447   3.928   5.947   3.453  0.4048  0.3024 -1.3296
 4344TIP3    H234448   3.858   5.953   3.319 -2.0229  0.4310 -0.1133
 4345TIP3   OH234449   4.122   4.816  14.257  0.3243 -0.7657  0.5367
 4345TIP3    H134450   4.183   4.795  14.187 -0.3767  3.3640 -1.6845
 4345TIP3    H234451   4.040   4.775  14.231 -0.1172  1.2787 -1.6701
 4346TIP3   OH234452   3.334   4.503  13.245  0.3981 -0.2121  0.1691
 4346TIP3    H134453   3.430   4.504  13.240  0.3870 -1.7808 -1.8475
 4346TIP3    H234454   3.314   4.540  13.330  2.7585  1.0617  0.2579
 4347TIP3   OH234455   4.251   0.779   6.014 -0.2501  0.1534  0.0234
 4347TIP3    H134456   4.258   0.874   6.025 -0.4808  0.1871 -0.1209
 4347TIP3    H234457   4.239   0.746   6.103  1.4104  0.1133  0.2763
 4348TIP3   OH234458   5.206   5.181  13.914 -0.4346 -0.1529 -0.0956
 4348TIP3    H134459   5.249   5.134  13.985 -1.4004 -1.5081 -0.3695
 4348TIP3    H234460   5.188   5.113  13.848 -1.9959  0.5664 -0.4506
 4349TIP3   OH234461   3.388   3.987   2.475 -0.2762 -0.4951  0.1024
 4349TIP3    H134462   3.463   3.975   2.532  0.1907 -1.3423 -0.6618
 4349TIP3    H234463   3.417   3.953   2.390 -1.2280 -0.0350 -0.4242
 4350TIP3   OH234464   1.410   3.714   2.107  0.5032  0.6916  0.6149
 4350TIP3    H134465   1.425   3.807   2.119  0.9631  0.7740 -0.4171
 4350TIP3    H234466   1.321   3.698   2.140  0.6701  1.3545  1.3986
 4351TIP3   OH234467   5.288   4.201   5.496  0.0768 -0.1034 -0.0579
 4351TIP3    H134468   5.241   4.262   5.553 -0.7067  0.0999 -0.9019
 4351TIP3    H234469   5.249   4.116   5.515  1.2920 -0.4131  1.2505
 4352TIP3   OH234470   3.149   2.863  12.239 -0.0425  0.6569 -0.5044
 4352TIP3    H134471   3.198   2.785  12.264 -2.2563 -0.3011  1.1160
 4352TIP3    H234472   3.111   2.841  12.154  0.7069  0.6608 -0.8495
 4353TIP3   OH234473   0.765   1.323   6.278 -0.3146 -0.1871  0.2898
 4353TIP3    H134474   0.773   1.229   6.295  0.3006 -0.4637 -1.4078
 4353TIP3    H234475   0.824   1.364   6.342 -1.0960 -0.8860  1.4925
 4354TIP3   OH234476   5.955   2.401   1.171 -0.2947 -0.1178 -0.5378
 4354TIP3    H134477   5.866   2.385   1.140 -0.1716 -0.6058 -0.6592
 4354TIP3    H234478   5.997   2.314   1.169  0.1393  0.0822 -0.3506
 4355TIP3   OH234479   2.361   2.682  11.221  0.5508 -0.1781 -0.2374
 4355TIP3    H134480   2.404   2.742  11.281 -0.3638  1.2036 -0.9220
 4355TIP3    H234481   2.327   2.738  11.151  0.3292 -1.5756 -1.2972
 4356TIP3   OH234482   4.505   6.453   5.356 -0.0132  0.0274  0.8442
 4356TIP3    H134483   4.422   6.499   5.346 -1.0793 -1.6377  1.4133
 4356TIP3    H234484   4.515   6.403   5.275  0.9260  0.9335  0.3896
 4357TIP3   OH234485   6.131   6.397  14.240  0.1039 -0.9269 -0.4951
 4357TIP3    H134486   6.132   6.376  14.334 -0.9719  3.0767  0.5781
 4357TIP3    H234487   6.210   6.355  14.206  1.5538 -0.9929  2.5909
 4358TIP3   OH234488   1.804   2.449  12.564 -0.1590 -0.3428  0.1299
 4358TIP3    H134489   1.762   2.487  12.486 -0.6791  0.5366  0.8268
 4358TIP3    H234490   1.836   2.525  12.613  1.6399 -0.9507 -0.0157
 4359TIP3   OH234491   5.957   4.847  15.774  0.2465 -0.3491 -0.5511
 4359TIP3    H134492   5.969   4.826  15.866  0.6562 -0.5312 -0.6452
 4359TIP3    H234493   5.972   4.765  15.728  4.5088  0.5137 -1.1456
 4360TIP3   OH234494   5.203   0.271   1.119  0.5381  0.1100  0.0742
 4360TIP3    H134495   5.174   0.190   1.162  1.9136 -1.0413 -1.0484
 4360TIP3    H234496   5.143   0.281   1.046  1.6662 -1.1665 -1.0810
 4361TIP3   OH234497   3.752   3.098   2.755 -0.0028  0.0835 -0.3260
 4361TIP3    H134498   3.767   3.174   2.811 -2.3840  0.1959  0.2953
 4361TIP3    H234499   3.815   3.033   2.785  0.0079  0.7741  1.2702
 4362TIP3   OH234500   2.349   2.298  15.372 -0.4633 -0.6143  0.1153
 4362TIP3    H134501   2.440   2.279  15.394  0.3753  0.0752 -2.4312
 4362TIP3    H234502   2.321   2.362  15.437  1.7153  1.1121 -0.5472
 4363TIP3   OH234503   1.613   2.014  15.021  0.1621  0.4670  0.2174
 4363TIP3    H134504   1.687   1.954  15.027 -0.4321 -0.4198 -0.9558
 4363TIP3    H234505   1.544   1.971  15.072  0.0213  0.6130  0.1469
 4364TIP3   OH234506   6.344   4.407   1.812 -0.2842 -0.2712  0.4313
 4364TIP3    H134507   6.326   4.313   1.807  0.3862 -0.3578 -0.5789
 4364TIP3    H234508   6.264   4.445   1.849 -0.7536 -1.1734  0.3666
 4365TIP3   OH234509   2.243   2.460   4.463  0.4049 -0.1677  0.1780
 4365TIP3    H134510   2.329   2.450   4.423  0.8042 -0.5440  1.0918
 4365TIP3    H234511   2.258   2.524   4.534  0.2601 -1.2540  1.2186
 4366TIP3   OH234512   5.027   0.791   2.622  0.0296  0.3045  0.5603
 4366TIP3    H134513   4.943   0.746   2.610 -0.5494  1.1528  1.2536
 4366TIP3    H234514   5.083   0.726   2.665 -0.1680 -0.3734 -0.1858
 4367TIP3   OH234515   2.796   6.484   0.397  0.2115 -0.3487 -0.4219
 4367TIP3    H134516   2.720   6.425   0.396 -0.8252  0.9485 -1.3147
 4367TIP3    H234517   2.801   6.517   0.308  1.0220  0.5971 -0.0361
 4368TIP3   OH234518   6.529   4.677  12.733  0.5726 -0.0555  0.2523
 4368TIP3    H134519   6.460   4.691  12.798  0.7651 -0.0364  0.4511
 4368TIP3    H234520   6.600   4.736  12.759  0.0735  1.0768 -0.8192
 4369TIP3   OH234521   1.817   2.811  13.462  0.4445  0.0178 -0.0484
 4369TIP3    H134522   1.833   2.906  13.457  0.9559  0.0559  1.6863
 4369TIP3    H234523   1.727   2.804  13.496  0.0564 -0.1481 -1.0713
 4370TIP3   OH234524   2.501   4.801   4.294 -0.3920 -0.2155  0.3897
 4370TIP3    H134525   2.564   4.747   4.343 -1.0326 -0.6707  0.7194
 4370TIP3    H234526   2.470   4.864   4.359  1.4487  1.5671 -0.3390
 4371TIP3   OH234527   1.358   6.562  11.799 -0.5455  0.4695 -0.6499
 4371TIP3    H134528   1.297   6.557  11.725  0.0828 -0.6548 -1.1190
 4371TIP3    H234529   1.418   6.488  11.786 -0.1283  0.5319  0.7341
 4372TIP3   OH234530   2.538   4.368   3.649  0.0067 -0.4954 -0.6407
 4372TIP3    H134531   2.530   4.333   3.738 -0.0292 -0.8005 -0.7599
 4372TIP3    H234532   2.469   4.324   3.600 -0.0704 -0.2125 -0.7849
 4373TIP3   OH234533   6.449   0.038  11.814  0.0908  0.4254  0.0232
 4373TIP3    H134534   6.361   0.068  11.793  0.8624  1.8079 -1.4046
 4373TIP3    H234535   6.463   0.065  11.905 -1.1715 -0.4484  0.5194
 4374TIP3   OH234536   1.880   3.337   0.784  0.4538 -0.1634 -0.0174
 4374TIP3    H134537   1.826   3.351   0.706  0.0024 -1.7059 -0.0166
 4374TIP3    H234538   1.820   3.353   0.857 -0.4536 -3.0783 -0.0057
 4375TIP3   OH234539   6.222   2.871   5.580  0.6441  0.9532 -0.0076
 4375TIP3    H134540   6.153   2.844   5.521 -1.1652  1.9511  1.5478
 4375TIP3    H234541   6.298   2.886   5.524 -0.7907  1.2273 -1.9583
 4376TIP3   OH234542   0.403   0.835   0.573  0.3282  0.1130 -0.7274
 4376TIP3    H134543   0.351   0.813   0.496  0.7663 -0.7407 -0.7975
 4376TIP3    H234544   0.462   0.904   0.543 -0.7659  1.1239 -0.6335
 4377TIP3   OH234545   2.046   3.454   4.807 -0.8752  0.2294 -0.0576
 4377TIP3    H134546   2.001   3.372   4.827 -1.3373  0.8319  1.5808
 4377TIP3    H234547   1.997   3.521   4.855  0.0067  1.3385 -0.6441
 4378TIP3   OH234548   2.771   4.591  12.454  0.1894  0.1509  0.4678
 4378TIP3    H134549   2.791   4.503  12.424 -0.8814 -0.0292  0.2247
 4378TIP3    H234550   2.695   4.618  12.401  1.7028  2.0030 -0.8926
 4379TIP3   OH234551   0.909   4.136  12.313  0.3049  0.1083  0.3618
 4379TIP3    H134552   0.860   4.216  12.293 -0.8659 -0.3584  1.2769
 4379TIP3    H234553   1.000   4.157  12.291 -0.2092  1.1996 -0.7767
 4380TIP3   OH234554   3.980   3.094  12.659 -0.0503  0.1760 -0.2651
 4380TIP3    H134555   3.973   3.124  12.750 -0.7387 -0.6027 -0.0561
 4380TIP3    H234556   3.980   3.175  12.607  0.6079  0.6376  0.4320
 4381TIP3   OH234557   4.433   1.509   0.008 -0.8548 -0.5366 -0.4945
 4381TIP3    H134558   4.482   1.428   0.026  0.3571 -0.3958 -2.8219
 4381TIP3    H234559   4.476   1.547  -0.068 -2.0586  1.8009 -0.1053
 4382TIP3   OH234560   5.019   2.028   3.641  0.0287 -0.2857 -0.2036
 4382TIP3    H134561   4.958   2.099   3.658  1.3503  0.4619  1.7528
 4382TIP3    H234562   5.056   2.047   3.555 -0.1128  1.0480  0.0216
 4383TIP3   OH234563   1.953   0.084   2.872 -0.0222  0.0775 -0.1387
 4383TIP3    H134564   1.969   0.161   2.927  0.1516  0.7698 -1.1418
 4383TIP3    H234565   1.978   0.112   2.784 -2.3533 -0.2870 -0.9719
 4384TIP3   OH234566   0.897   5.627  15.745 -0.1991 -0.3706 -0.0160
 4384TIP3    H134567   0.941   5.671  15.817 -0.0064 -1.6046  0.6464
 4384TIP3    H234568   0.933   5.668  15.666  0.5243  0.1203  0.5600
 4385TIP3   OH234569   3.374   3.550  17.085  0.1231 -0.6175  0.1976
 4385TIP3    H134570   3.464   3.569  17.112  0.2613  0.9992 -1.2109
 4385TIP3    H234571   3.323   3.556  17.165  0.9765  0.7063  0.6779
 4386TIP3   OH234572   0.656   4.943   3.046  0.7345 -0.3946 -0.1106
 4386TIP3    H134573   0.677   4.947   3.139  2.1456  0.3327 -0.4398
 4386TIP3    H234574   0.739   4.956   3.001 -0.1308  0.7324 -1.4825
 4387TIP3   OH234575   3.524   0.140   3.481 -0.0202 -0.2024  0.6645
 4387TIP3    H134576   3.428   0.141   3.475  0.0048  1.5249  0.0881
 4387TIP3    H234577   3.552   0.088   3.405 -0.4862 -1.2840  1.2053
 4388TIP3   OH234578   5.444   6.354   0.184 -0.2668 -0.0730  0.0582
 4388TIP3    H134579   5.442   6.304   0.266  2.2461 -0.6796 -0.1739
 4388TIP3    H234580   5.516   6.415   0.195 -0.8220  0.8346 -1.1801
 4389TIP3   OH234581   2.436   1.967   2.949  0.2809  0.0186  0.2344
 4389TIP3    H134582   2.517   2.017   2.942  0.6026 -0.5395 -0.1233
 4389TIP3    H234583   2.416   1.966   3.043  0.9901 -0.3076  0.3911
 4390TIP3   OH234584   4.271   6.173  12.811  0.3662  0.0681 -0.2298
 4390TIP3    H134585   4.291   6.206  12.898  0.8303  0.5197 -0.5008
 4390TIP3    H234586   4.266   6.078  12.821  1.2000  0.0589  0.1271
 4391TIP3   OH234587   4.160   4.721  14.661  0.2679 -0.6651  0.0350
 4391TIP3    H134588   4.192   4.756  14.745  0.4587 -2.4488  0.7472
 4391TIP3    H234589   4.067   4.745  14.659  0.7779  1.4802 -0.4039
 4392TIP3   OH234590   3.109   4.146   0.773 -0.2326 -0.0516  0.3410
 4392TIP3    H134591   3.173   4.082   0.742  0.1617  0.9025 -0.8980
 4392TIP3    H234592   3.027   4.098   0.779 -0.0676 -0.5568 -1.1079
 4393TIP3   OH234593   3.757   4.094  14.660 -0.0351 -0.3769  0.0362
 4393TIP3    H134594   3.797   4.056  14.582  0.9718 -1.4967  1.0653
 4393TIP3    H234595   3.665   4.066  14.656 -0.4357  1.0093 -1.5972
 4394TIP3   OH234596   6.075   2.150   1.842  0.2577 -0.6894 -0.8492
 4394TIP3    H134597   6.021   2.191   1.909  2.5127  0.3256  0.4169
 4394TIP3    H234598   6.068   2.208   1.766 -2.0639 -1.6922 -1.4921
 4395TIP3   OH234599   5.633   5.759   5.923 -0.0214 -0.0843  0.3431
 4395TIP3    H134600   5.587   5.821   5.867 -0.3699  0.2129  0.9420
 4395TIP3    H234601   5.604   5.673   5.894  0.3760  0.0341 -0.4181
 4396TIP3   OH234602   4.304   1.142  16.286 -0.0183  0.3748  0.0232
 4396TIP3    H134603   4.364   1.216  16.290  0.8578 -0.3490  0.6649
 4396TIP3    H234604   4.323   1.099  16.202  0.2993  0.1997  0.1850
 4397TIP3   OH234605   5.652   0.922  16.521 -0.3778  0.2874 -0.1935
 4397TIP3    H134606   5.684   0.883  16.603 -1.6237  2.4987  1.4209
 4397TIP3    H234607   5.574   0.871  16.499  0.3430 -0.7554 -0.4341
 4398TIP3   OH234608   3.805   6.393   0.681  0.4024  0.2889 -0.4511
 4398TIP3    H134609   3.834   6.374   0.771  1.3941  1.1902 -0.5528
 4398TIP3    H234610   3.808   6.308   0.637  0.9615  0.0108  0.0969
 4399TIP3   OH234611   0.899   1.810   5.140 -0.2571 -0.4935 -0.0849
 4399TIP3    H134612   0.855   1.893   5.117  2.9383  1.2899 -0.3386
 4399TIP3    H234613   0.957   1.833   5.212  2.1553 -1.9577 -1.4216
 4400TIP3   OH234614   4.993   6.087  15.611 -0.2913  0.5050 -0.0405
 4400TIP3    H134615   4.982   6.045  15.525 -0.1983  0.6561 -0.1290
 4400TIP3    H234616   5.062   6.153  15.596  1.0350 -0.6883  0.5776
 4401TIP3   OH234617   3.729   6.666  14.790  0.4149 -0.8551 -0.1077
 4401TIP3    H134618   3.695   6.640  14.704  1.1406 -1.1700 -0.3108
 4401TIP3    H234619   3.698   6.755  14.803 -0.2840 -1.0529 -0.3855
 4402TIP3   OH234620   0.618   4.487   2.771  0.5392  0.3421  0.5088
 4402TIP3    H134621   0.666   4.567   2.792  1.7312 -0.4490  0.9092
 4402TIP3    H234622   0.546   4.485   2.835  0.7422  0.8899  0.7596
 4403TIP3   OH234623   5.404   1.180  10.968  0.4791  0.0954 -0.5505
 4403TIP3    H134624   5.380   1.255  10.914  1.1405  0.2835 -0.5949
 4403TIP3    H234625   5.389   1.104  10.912 -0.0993  0.2020 -0.5401
 4404TIP3   OH234626   0.657   0.011  13.049 -0.6774  0.0278 -0.5234
 4404TIP3    H134627   0.571  -0.020  13.077 -0.3842  0.9160  1.6372
 4404TIP3    H234628   0.639   0.075  12.980 -1.7882  0.2687 -0.0363
 4405TIP3   OH234629   5.717   1.389  13.615  0.4635  1.1938 -0.5037
 4405TIP3    H134630   5.747   1.357  13.701  0.4254  1.7789 -0.2715
 4405TIP3    H234631   5.793   1.434  13.579 -0.4455  3.8837  0.6646
 4406TIP3   OH234632   1.343   0.903  12.037  0.1646 -0.4522  0.0874
 4406TIP3    H134633   1.302   0.989  12.044  1.6546  0.4550 -1.4854
 4406TIP3    H234634   1.366   0.880  12.126 -1.1701  0.2978  0.6599
 4407TIP3   OH234635   3.321   1.027   6.500  0.4906 -0.0775 -0.3214
 4407TIP3    H134636   3.380   1.048   6.427 -0.1651 -0.0465 -0.8505
 4407TIP3    H234637   3.251   0.976   6.460 -0.3066  0.6439  0.1355
 4408TIP3   OH234638   6.117   4.204  13.164  0.2223 -0.2560 -0.1122
 4408TIP3    H134639   6.126   4.168  13.076  0.3398 -0.2682 -0.0942
 4408TIP3    H234640   6.042   4.157  13.201  1.2837 -1.5588  0.4464
 4409TIP3   OH234641   2.761   3.362   3.269 -0.6494 -0.0608  0.0309
 4409TIP3    H134642   2.798   3.419   3.336  0.3097  2.1592 -2.2113
 4409TIP3    H234643   2.703   3.302   3.317  0.5748  0.8476  2.8628
 4410TIP3   OH234644   6.651   2.981   1.404 -0.2383  0.0603 -0.5191
 4410TIP3    H134645   6.575   2.960   1.459  0.6947 -0.1880  0.7207
 4410TIP3    H234646   6.622   2.964   1.314 -1.8193  0.5263 -0.1196
 4411TIP3   OH234647   5.034   3.859   0.965 -0.1201  0.3980  0.6060
 4411TIP3    H134648   5.096   3.931   0.953  2.0077 -1.4494 -0.0426
 4411TIP3    H234649   5.002   3.870   1.055  0.7922  1.6584  0.8015
 4412TIP3   OH234650   2.179   0.882  11.314  0.0642 -0.2571 -0.3753
 4412TIP3    H134651   2.188   0.807  11.255 -3.2554 -0.7479 -0.4392
 4412TIP3    H234652   2.195   0.845  11.401  1.0205 -0.4076 -0.5962
 4413TIP3   OH234653   2.931   3.768  16.744  0.3997  0.3379  0.5486
 4413TIP3    H134654   2.900   3.842  16.691 -0.6879 -0.7389 -0.3861
 4413TIP3    H234655   3.026   3.776  16.744  0.4956  0.1327 -2.0192
 4414TIP3   OH234656   6.655   1.977   5.382 -0.2089 -0.0798  0.3300
 4414TIP3    H134657   6.701   2.027   5.449 -0.2964 -1.1857  1.2414
 4414TIP3    H234658   6.575   2.027   5.365  1.4969  2.2159 -1.7364
 4415TIP3   OH234659   6.252   4.602  15.584  0.4558 -0.1617  0.1104
 4415TIP3    H134660   6.158   4.615  15.582  0.2039 -1.8447 -0.5462
 4415TIP3    H234661   6.275   4.604  15.677 -0.3717 -0.6727  0.3281
 4416TIP3   OH234662   5.706   2.114  17.034  0.7166  0.4025  0.6682
 4416TIP3    H134663   5.614   2.102  17.012  1.0004 -1.2187  0.2531
 4416TIP3    H234664   5.712   2.205  17.064 -1.3446  0.0502  2.3481
 4417TIP3   OH234665   2.767   6.077   4.509  0.4919  0.1519  0.1589
 4417TIP3    H134666   2.759   6.104   4.418  0.9974 -1.5376 -0.4112
 4417TIP3    H234667   2.740   5.985   4.510  2.6031 -0.5184  1.2873
 4418TIP3   OH234668   1.203   1.876  13.495  0.0789 -0.5407  0.6191
 4418TIP3    H134669   1.233   1.905  13.409  2.3011 -0.3648  1.4037
 4418TIP3    H234670   1.179   1.784  13.482  0.7692 -0.6272 -0.1059
 4419TIP3   OH234671   1.645   0.809  14.345 -0.1339 -0.1792  0.0184
 4419TIP3    H134672   1.732   0.811  14.305 -0.4407  0.9590 -0.6370
 4419TIP3    H234673   1.586   0.784  14.273 -0.4695  0.0589  0.2107
 4420TIP3   OH234674   0.882   4.501  11.426  0.0111  0.3150 -0.1825
 4420TIP3    H134675   0.834   4.578  11.456 -0.4753  0.1367 -0.4928
 4420TIP3    H234676   0.846   4.429  11.479  1.3629  0.4843  1.0337
 4421TIP3   OH234677   2.021   2.116  12.819  0.0554 -0.5866 -0.0890
 4421TIP3    H134678   2.091   2.172  12.852  0.7248 -0.2188 -2.0073
 4421TIP3    H234679   2.020   2.041  12.879  0.5569  0.4525  1.2797
 4422TIP3   OH234680   5.075   4.898   4.386  0.3136 -0.4398  0.1533
 4422TIP3    H134681   5.157   4.867   4.424 -1.3762 -2.5916  2.3965
 4422TIP3    H234682   5.024   4.929   4.460 -0.4968  2.1292 -1.3423
 4423TIP3   OH234683   2.977   6.044  17.139  0.1497  0.4018  0.3950
 4423TIP3    H134684   2.985   6.042  17.044 -1.3134 -0.6010  0.2532
 4423TIP3    H234685   3.061   6.013  17.172  0.9857  1.6035 -0.5268
 4424TIP3   OH234686   3.241   2.465   2.865  0.2617  0.6632 -0.0827
 4424TIP3    H134687   3.329   2.435   2.842 -0.0901 -0.2081 -0.3490
 4424TIP3    H234688   3.188   2.385   2.864 -0.7566  1.3190 -0.9632
 4425TIP3   OH234689   2.368   5.189   5.579  0.3450  0.5341  0.5595
 4425TIP3    H134690   2.383   5.272   5.533  0.2060 -0.0481 -0.5848
 4425TIP3    H234691   2.399   5.122   5.517 -3.0412 -0.5032 -0.2015
 4426TIP3   OH234692   5.388   6.591   3.406  0.2384  0.2462  0.1016
 4426TIP3    H134693   5.314   6.639   3.369 -0.6506 -1.4813 -0.4622
 4426TIP3    H234694   5.464   6.648   3.392 -0.5840  0.9743 -1.5755
 4427TIP3   OH234695   5.182   5.856   4.601 -0.0521 -0.4724  0.2206
 4427TIP3    H134696   5.205   5.792   4.534  0.1135 -0.9405  0.7197
 4427TIP3    H234697   5.223   5.823   4.681 -0.5332 -0.1015  0.6267
 4428TIP3   OH234698   3.053   0.104   6.686  0.2655 -0.1584 -0.0132
 4428TIP3    H134699   3.043   0.039   6.755 -0.1005  1.3242  1.3701
 4428TIP3    H234700   3.108   0.172   6.725 -0.4228  0.9848 -0.9849
 4429TIP3   OH234701   5.034   0.781  12.041  0.1973 -0.4170 -0.3270
 4429TIP3    H134702   4.983   0.851  12.082 -0.1878  0.6698 -2.5528
 4429TIP3    H234703   4.974   0.707  12.036 -0.2908 -0.0124 -0.4853
 4430TIP3   OH234704   1.668   2.271   3.404  0.1092 -0.3386  0.2075
 4430TIP3    H134705   1.633   2.311   3.484  2.3380 -2.0453  2.1934
 4430TIP3    H234706   1.743   2.326   3.381  0.0631 -0.4152 -0.1261
 4431TIP3   OH234707   6.473   4.400  12.685  0.3614  0.2719  0.2127
 4431TIP3    H134708   6.445   4.370  12.772  2.6136  0.1913  0.9713
 4431TIP3    H234709   6.494   4.493  12.698 -0.1657  0.5021 -0.5005
 4432TIP3   OH234710   2.486   2.916  14.829  0.2625 -0.1835 -0.0985
 4432TIP3    H134711   2.406   2.964  14.849  0.2883 -0.3076  0.3082
 4432TIP3    H234712   2.540   2.926  14.907  0.7295  0.0685 -0.4486
 4433TIP3   OH234713   6.017   6.171  13.864 -0.5293  0.0740  0.4413
 4433TIP3    H134714   6.068   6.096  13.894  0.2906  0.2859 -0.3839
 4433TIP3    H234715   5.942   6.133  13.818  0.5892 -0.2577 -1.1559
 4434TIP3   OH234716   2.522   5.448   1.431 -0.5096 -0.6358  0.0021
 4434TIP3    H134717   2.596   5.422   1.486  0.8767  1.3814 -0.7716
 4434TIP3    H234718   2.471   5.368   1.419  0.5138 -1.6908  2.0898
 4435TIP3   OH234719   5.954   2.715   4.636  0.3050  0.1050 -0.1364
 4435TIP3    H134720   5.862   2.739   4.624 -0.2928 -1.5596  0.7904
 4435TIP3    H234721   5.978   2.671   4.555  0.3958  0.8045 -0.4988
 4436TIP3   OH234722   2.182   4.125   0.807  0.2171  0.2340 -0.3771
 4436TIP3    H134723   2.276   4.141   0.802  0.5648 -1.7763 -1.4808
 4436TIP3    H234724   2.175   4.038   0.847 -1.2964  1.2062  1.6340
 4437TIP3   OH234725   2.456   0.478  13.385 -0.1882  0.0737 -0.0407
 4437TIP3    H134726   2.504   0.555  13.355 -2.5145  0.3721 -3.5322
 4437TIP3    H234727   2.476   0.410  13.320 -1.2192 -1.0575  0.7773
 4438TIP3   OH234728   3.384   0.729   0.614 -0.7512 -0.1352  0.0491
 4438TIP3    H134729   3.479   0.732   0.629 -0.7247 -1.7203  0.4780
 4438TIP3    H234730   3.348   0.794   0.674  0.2372  3.1424 -2.6511
 4439TIP3   OH234731   5.116   4.965  11.245 -0.3124 -0.4089 -0.0458
 4439TIP3    H134732   5.056   5.003  11.181  2.3244  0.1274 -2.4309
 4439TIP3    H234733   5.202   4.969  11.202  1.0963 -3.3742  2.1405
 4440TIP3   OH234734   2.282   6.379   5.474  0.3363  0.4765  1.0215
 4440TIP3    H134735   2.252   6.457   5.427  0.0084  0.5305  1.3139
 4440TIP3    H234736   2.320   6.414   5.555 -1.3366  0.2520  1.9539
 4441TIP3   OH234737   6.451   3.513   0.897 -0.3448 -0.0122 -0.4315
 4441TIP3    H134738   6.426   3.480   0.811  0.6607 -1.5278 -0.1805
 4441TIP3    H234739   6.391   3.470   0.958 -0.8513  0.8170 -0.3270
 4442TIP3   OH234740   4.337   4.235   4.098  0.0612 -0.4619 -0.3047
 4442TIP3    H134741   4.415   4.207   4.145 -0.7129 -1.2438  0.5588
 4442TIP3    H234742   4.369   4.264   4.013  1.3180 -0.4525  0.1541
 4443TIP3   OH234743   5.505   1.364   1.864 -0.2217  0.0690 -0.2427
 4443TIP3    H134744   5.414   1.383   1.844 -0.0848 -0.2356 -1.2020
 4443TIP3    H234745   5.504   1.275   1.901 -0.2686 -0.1083 -0.6646
 4444TIP3   OH234746   3.461   5.123   2.052 -0.5651 -0.7302 -0.6368
 4444TIP3    H134747   3.410   5.190   2.007  0.3082  0.0481 -0.4877
 4444TIP3    H234748   3.529   5.171   2.099 -0.0145 -1.7067 -0.3960
 4445TIP3   OH234749   1.447   0.765  11.429  0.0997  0.2964 -0.1838
 4445TIP3    H134750   1.463   0.774  11.335  1.9244  3.5044  0.3009
 4445TIP3    H234751   1.384   0.835  11.449 -0.5671 -0.5957  0.9612
 4446TIP3   OH234752   5.293   3.397  16.233 -0.3738 -0.7022 -0.1362
 4446TIP3    H134753   5.275   3.468  16.295 -3.5441 -1.5168  0.0600
 4446TIP3    H234754   5.243   3.323  16.268  1.0898 -2.4187 -1.5096
 4447TIP3   OH234755   3.015   3.325   5.586 -0.4356  0.0886 -0.1300
 4447TIP3    H134756   3.004   3.356   5.676 -1.6406 -0.2058 -0.1594
 4447TIP3    H234757   3.044   3.235   5.595  2.7330  1.0171 -0.0468
 4448TIP3   OH234758   4.332   4.065   6.069  0.5599 -0.4488 -0.1146
 4448TIP3    H134759   4.302   4.026   6.151  2.8212  1.6329  1.8840
 4448TIP3    H234760   4.255   4.111   6.035 -0.7883 -2.4773  0.0328
 4449TIP3   OH234761   4.081   2.715  16.503  0.3496  0.4162 -0.2286
 4449TIP3    H134762   4.144   2.718  16.430  3.2407  1.9496  2.1015
 4449TIP3    H234763   4.068   2.622  16.519  0.8824  0.0561 -1.6860
 4450TIP3   OH234764   6.400   4.782  13.010  0.7149 -0.5169 -0.5315
 4450TIP3    H134765   6.439   4.778  13.097 -1.4090  2.9770  0.7701
 4450TIP3    H234766   6.326   4.721  13.014  2.2384 -2.4895 -0.9465
 4451TIP3   OH234767   3.387   1.491   1.455  0.7845 -0.4084  0.7376
 4451TIP3    H134768   3.331   1.466   1.529  0.4329 -1.7199  0.0481
 4451TIP3    H234769   3.456   1.425   1.454 -0.0096 -1.2513 -0.9724
 4452TIP3   OH234770   3.450   1.054  16.277  0.5886 -0.1968 -0.1890
 4452TIP3    H134771   3.474   1.132  16.227 -0.2258  0.3302  0.2163
 4452TIP3    H234772   3.357   1.066  16.296  0.6523 -0.8738  0.5801
 4453TIP3   OH234773   5.876   0.126  16.213 -0.3205 -0.0079  0.2104
 4453TIP3    H134774   5.819   0.049  16.201 -0.5168  0.1095  0.3901
 4453TIP3    H234775   5.888   0.160  16.124 -0.3687 -0.1500  0.1483
 4454TIP3   OH234776   3.456   5.084  13.725  0.6152 -0.2293 -0.3854
 4454TIP3    H134777   3.460   5.171  13.685  2.0249 -0.4351 -0.7468
 4454TIP3    H234778   3.363   5.063  13.728  0.2144  1.4450  0.0516
 4455TIP3   OH234779   5.033   4.477  16.953  0.3667  0.3381  0.2680
 4455TIP3    H134780   4.960   4.508  17.007 -0.2625 -0.6759  0.0307
 4455TIP3    H234781   5.009   4.502  16.864 -0.5595 -1.4883 -0.0397
 4456TIP3   OH234782   0.571   4.196  11.972  0.0464 -0.1188 -0.1724
 4456TIP3    H134783   0.519   4.122  12.003  1.3133 -0.7434  0.5168
 4456TIP3    H234784   0.645   4.200  12.032  1.0773  0.4150 -1.4471
 4457TIP3   OH234785   1.541   2.657  15.044 -0.1807  0.3593  0.2517
 4457TIP3    H134786   1.456   2.647  15.002 -0.5699  1.4993  0.7247
 4457TIP3    H234787   1.524   2.645  15.138  0.1940  0.4872  0.3390
 4458TIP3   OH234788   4.773   3.930   5.672  0.4971 -0.3991 -0.0878
 4458TIP3    H134789   4.736   3.881   5.598  0.8065  1.1779 -1.3546
 4458TIP3    H234790   4.697   3.970   5.715  0.4105 -0.2861 -0.3429
 4459TIP3   OH234791   0.322   1.088  12.400 -0.7623  0.3507  0.2905
 4459TIP3    H134792   0.384   1.034  12.351  0.1149  0.1323  1.5986
 4459TIP3    H234793   0.246   1.094  12.342  0.9627  1.8501 -2.0431
 4460TIP3   OH234794   4.194   1.525  16.636  0.2116  0.2722 -0.4640
 4460TIP3    H134795   4.111   1.569  16.618  0.3484  1.1358  0.8735
 4460TIP3    H234796   4.169   1.444  16.681  0.0894  0.8514  0.5499
 4461TIP3   OH234797   1.597   2.003   3.361 -0.6877 -0.3367  0.8350
 4461TIP3    H134798   1.607   2.098   3.363 -0.1871 -0.3876  1.1807
 4461TIP3    H234799   1.656   1.972   3.430 -0.7252 -0.9060  0.6160
 4462TIP3   OH234800   0.768   1.267  12.467 -0.2192 -0.6028  0.4530
 4462TIP3    H134801   0.863   1.277  12.458 -0.0999 -1.4033  0.7596
 4462TIP3    H234802   0.742   1.219  12.388 -0.8625  2.3576 -1.2818
 4463TIP3   OH234803   3.982   4.446   3.568  0.3567  0.2085 -0.1258
 4463TIP3    H134804   4.061   4.484   3.607  1.0958  0.4015 -1.7285
 4463TIP3    H234805   3.943   4.518   3.518  0.6005 -0.5432 -1.4446
 4464TIP3   OH234806   0.733   4.761  12.804  0.3864 -0.3676  0.1984
 4464TIP3    H134807   0.770   4.751  12.892  1.4290 -0.4989 -0.2380
 4464TIP3    H234808   0.802   4.804  12.754 -1.3219  2.6136  0.1972
 4465TIP3   OH234809   2.966   5.554   0.760 -0.4876 -0.1331  0.1039
 4465TIP3    H134810   2.987   5.515   0.845 -2.2070 -0.3774  0.4370
 4465TIP3    H234811   3.052   5.566   0.718  0.3247 -0.8658  1.4776
 4466TIP3   OH234812   4.998   0.762  12.738  0.1985 -0.1195 -0.0563
 4466TIP3    H134813   4.943   0.711  12.797 -1.6526  1.1447 -0.5838
 4466TIP3    H234814   5.015   0.844  12.785  2.3546 -0.7785  0.4115
 4467TIP3   OH234815   3.725   3.017  14.565  0.7002  0.0147 -0.8491
 4467TIP3    H134816   3.635   3.045  14.547  0.7459  1.1779  0.6136
 4467TIP3    H234817   3.759   2.992  14.479 -1.2056 -1.0676 -1.3423
 4468TIP3   OH234818   2.000   2.918  11.331 -0.0139  0.6235 -0.5726
 4468TIP3    H134819   2.002   2.823  11.342 -0.7696  0.5468 -1.0315
 4468TIP3    H234820   1.907   2.940  11.332  0.1918  1.5480  1.0174
 4469TIP3   OH234821   0.412   2.455   0.860 -0.4818 -0.3732 -0.0177
 4469TIP3    H134822   0.400   2.523   0.794  2.5942 -0.3348 -0.6942
 4469TIP3    H234823   0.416   2.373   0.810  1.5010 -0.3803  0.0775
 4470TIP3   OH234824   4.043   3.863   4.673 -0.2075  0.2082 -0.5600
 4470TIP3    H134825   4.039   3.958   4.684  0.1867  0.1758 -0.0947
 4470TIP3    H234826   3.951   3.837   4.664 -0.2639  0.7192 -1.5411
 4471TIP3   OH234827   6.749   4.455  12.999  0.7698 -0.2094 -0.0654
 4471TIP3    H134828   6.693   4.530  13.019 -0.7808 -1.1392 -0.6677
 4471TIP3    H234829   6.811   4.487  12.934  0.0316  0.5153 -0.4269
 4472TIP3   OH234830   5.567   5.976  11.230 -0.1857 -0.0237  0.6616
 4472TIP3    H134831   5.635   6.043  11.243 -0.6866  0.7286 -0.3880
 4472TIP3    H234832   5.495   6.004  11.286 -1.2903  1.6774 -1.4670
 4473TIP3   OH234833   3.205   1.558  15.029  0.1102 -0.3163  0.7441
 4473TIP3    H134834   3.130   1.612  15.054 -0.0857 -0.3458  0.2184
 4473TIP3    H234835   3.183   1.470  15.060 -0.8268 -0.6882 -0.8698
 4474TIP3   OH234836   1.125   6.194  14.203  0.9083 -0.0998 -0.2033
 4474TIP3    H134837   1.049   6.137  14.206  1.2962 -0.6116 -0.0414
 4474TIP3    H234838   1.132   6.219  14.111  0.0086  0.6946 -0.0752
 4475TIP3   OH234839   1.669   4.803  13.339  0.0363 -0.3369 -0.3187
 4475TIP3    H134840   1.757   4.839  13.330  1.2934 -2.6666  1.4560
 4475TIP3    H234841   1.678   4.713  13.309 -2.1440 -0.2269 -1.4544
 4476TIP3   OH234842   0.429   2.302   4.996 -0.3017 -0.2474 -0.3474
 4476TIP3    H134843   0.495   2.327   5.061 -1.9657  0.9643  0.9405
 4476TIP3    H234844   0.356   2.362   5.010 -1.6716 -1.4566 -1.8146
 4477TIP3   OH234845   0.298   3.270   4.711  0.5285  0.2625  0.4764
 4477TIP3    H134846   0.331   3.347   4.664  2.6858 -0.7006  0.2855
 4477TIP3    H234847   0.228   3.237   4.656  3.0823 -0.9371 -2.3647
 4478TIP3   OH234848   4.346   5.654  16.425  0.3063 -0.6815 -0.1533
 4478TIP3    H134849   4.403   5.661  16.348  0.6186 -1.5650 -0.0124
 4478TIP3    H234850   4.310   5.565  16.420 -1.3677 -0.0367 -0.4450
 4479TIP3   OH234851   0.580   6.470   2.370  0.6125  0.3222 -0.7404
 4479TIP3    H134852   0.674   6.490   2.361  0.8695 -0.8164 -0.7032
 4479TIP3    H234853   0.577   6.394   2.428 -0.5434  2.5358  2.4013
 4480TIP3   OH234854   6.576   3.100  12.873  0.2286  0.5712 -0.2442
 4480TIP3    H134855   6.501   3.043  12.890  0.1600  0.7379  0.0118
 4480TIP3    H234856   6.651   3.040  12.869  0.0639  0.3858 -0.6607
 4481TIP3   OH234857   3.919   2.448  14.818  0.3169 -0.4055 -0.0238
 4481TIP3    H134858   3.914   2.482  14.908  0.2049  1.3783 -0.6741
 4481TIP3    H234859   3.828   2.428  14.795  0.2239  0.1035 -0.0970
 4482TIP3   OH234860   0.838   2.312  11.812  0.5406 -0.1679  0.0045
 4482TIP3    H134861   0.784   2.319  11.734  1.4776  0.0278 -0.6534
 4482TIP3    H234862   0.804   2.377  11.872  1.2770  1.3632 -1.1744
 4483TIP3   OH234863   4.234   4.177  17.184  0.3522  0.2958 -0.1217
 4483TIP3    H134864   4.277   4.129  17.113 -0.9768 -2.0279  0.5778
 4483TIP3    H234865   4.152   4.209  17.145 -1.5945 -3.0451  0.8012
 4484TIP3   OH234866   2.795   0.298  14.820  0.1670 -0.4920 -0.0249
 4484TIP3    H134867   2.864   0.244  14.783 -0.0923 -1.0851  0.3415
 4484TIP3    H234868   2.809   0.294  14.914 -0.0528 -0.1855  0.0241
 4485TIP3   OH234869   5.555   3.414  15.332 -0.3693 -0.5715 -0.3192
 4485TIP3    H134870   5.587   3.482  15.391 -1.3756 -1.3149  1.1484
 4485TIP3    H234871   5.628   3.399  15.272  0.7399  0.1753  0.7803
 4486TIP3   OH234872   3.726   1.992  11.133 -0.4517  0.8975  0.0705
 4486TIP3    H134873   3.657   2.046  11.095 -1.2794  0.2445  0.6022
 4486TIP3    H234874   3.782   1.968  11.059 -0.5324  1.8029 -0.2921
 4487TIP3   OH234875   0.634   5.685  11.548  0.5290 -0.8382 -0.4211
 4487TIP3    H134876   0.692   5.660  11.476  1.7668  1.6689 -0.3935
 4487TIP3    H234877   0.547   5.684  11.510  1.0992 -0.1988 -1.8067
 4488TIP3   OH234878   4.284   5.521  14.692  0.2976 -0.2696 -0.1283
 4488TIP3    H134879   4.226   5.597  14.699 -0.4391 -0.7676 -0.6035
 4488TIP3    H234880   4.229   5.447  14.720  1.5362 -0.4279  2.1205
 4489TIP3   OH234881   5.632   0.553  17.104 -0.2031  0.0293 -0.7817
 4489TIP3    H134882   5.646   0.625  17.166  0.1764 -0.3916 -0.3744
 4489TIP3    H234883   5.542   0.566  17.072  0.5302  1.8886 -2.2934
 4490TIP3   OH234884   6.171   6.148  15.280  0.1090  0.2339  0.1832
 4490TIP3    H134885   6.141   6.068  15.236 -0.6482  0.4180  0.3383
 4490TIP3    H234886   6.234   6.117  15.345  0.1046 -0.1973 -0.0120
 4491TIP3   OH234887   3.828   4.999  11.894 -0.6925 -0.2355  0.8691
 4491TIP3    H134888   3.732   5.001  11.897 -0.8390 -2.6374  0.2083
 4491TIP3    H234889   3.848   4.976  11.803  0.4689 -0.4935  1.1747
 4492TIP3   OH234890   5.944   1.912   1.820 -0.1285  1.1180 -0.1070
 4492TIP3    H134891   5.894   1.939   1.743  2.2203  0.0257 -2.1070
 4492TIP3    H234892   6.015   1.975   1.826  1.3865 -0.4704 -0.6417
 4493TIP3   OH234893   2.853   1.722   5.659  0.2855 -0.1578  0.4902
 4493TIP3    H134894   2.785   1.788   5.672  1.6772  1.3950  0.2576
 4493TIP3    H234895   2.816   1.662   5.594 -1.7126 -0.6676  2.0021
 4494TIP3   OH234896   5.947   2.912   2.051 -0.0504 -0.9348 -0.3070
 4494TIP3    H134897   6.032   2.880   2.082 -1.0256 -1.3920  2.1082
 4494TIP3    H234898   5.953   3.007   2.059 -0.2682 -1.0411  1.3744
 4495TIP3   OH234899   1.839   3.246  11.213  0.1211 -0.1113  0.0531
 4495TIP3    H134900   1.850   3.248  11.118 -1.3036  0.4417 -0.1168
 4495TIP3    H234901   1.798   3.162  11.231 -1.0744  0.4363 -0.0156
 4496TIP3   OH234902   1.122   5.155  15.071  0.4815 -0.0639  0.1978
 4496TIP3    H134903   1.056   5.155  15.001  0.4911 -1.0717  0.1646
 4496TIP3    H234904   1.081   5.105  15.142  0.8884  0.0252  0.4962
 4497TIP3   OH234905   5.059   3.743   1.744 -0.6832  1.0483  0.4833
 4497TIP3    H134906   5.075   3.649   1.750 -1.9415  0.8277  0.4918
 4497TIP3    H234907   5.147   3.782   1.745 -0.0316 -0.2140 -1.4500
 4498TIP3   OH234908   2.830   0.780  11.200 -0.1326  1.0039 -0.1256
 4498TIP3    H134909   2.903   0.832  11.232  0.2272  0.2561  0.3083
 4498TIP3    H234910   2.870   0.720  11.136  0.2272 -1.3635  2.1361
 4499TIP3   OH234911   5.177   0.053   0.080  0.1145 -0.2579  0.5976
 4499TIP3    H134912   5.263   0.036   0.118  2.1448  0.3357 -3.2027
 4499TIP3    H234913   5.180   0.145   0.054  0.2548 -1.2144 -3.5034
 4500TIP3   OH234914   0.701   5.623   4.211  0.2581 -0.5579  0.3163
 4500TIP3    H134915   0.638   5.631   4.139  0.0189  0.9261  0.6722
 4500TIP3    H234916   0.770   5.567   4.175 -1.1025 -2.0285 -0.1591
 4501TIP3   OH234917   3.042   1.883   1.216  0.3449  0.1581  0.5150
 4501TIP3    H134918   3.105   1.897   1.287  0.7779  2.2241 -0.2390
 4501TIP3    H234919   2.966   1.935   1.241  0.6490  1.2160 -0.7002
 4502TIP3   OH234920   3.839   3.329   0.376  0.1220  0.0968 -0.0696
 4502TIP3    H134921   3.793   3.299   0.455  0.0780 -1.8910 -0.8028
 4502TIP3    H234922   3.909   3.385   0.409 -1.1381  0.9752  1.2338
 4503TIP3   OH234923   0.358   6.380   4.973  0.3437  0.5959  0.2232
 4503TIP3    H134924   0.437   6.349   4.928  1.3933  1.1309  1.6234
 4503TIP3    H234925   0.331   6.306   5.027  1.2074  1.1016  1.4109
 4504TIP3   OH234926   5.320   0.129   3.213  0.3834 -0.0419  0.2584
 4504TIP3    H134927   5.276   0.052   3.248  0.9109 -0.4861 -0.0493
 4504TIP3    H234928   5.313   0.119   3.118 -0.2386  0.6909  0.2153
 4505TIP3   OH234929   2.571   6.520  16.951  0.1795  0.8983 -0.3239
 4505TIP3    H134930   2.553   6.611  16.926  0.4276  1.1301  0.3125
 4505TIP3    H234931   2.663   6.507  16.930  0.1502  0.8029 -0.3917
 4506TIP3   OH234932   3.089   2.960   2.097  0.0591  0.4808  0.1571
 4506TIP3    H134933   3.138   2.878   2.099 -0.4918  0.1596  0.8463
 4506TIP3    H234934   3.154   3.027   2.076  0.6316 -0.0418  0.2508
 4507TIP3   OH234935   3.710   4.878  16.041  0.0378 -0.4706  0.5748
 4507TIP3    H134936   3.767   4.818  15.993 -2.2054 -2.0526 -0.2390
 4507TIP3    H234937   3.708   4.957  15.988 -0.2008 -1.1899 -0.5303
 4508TIP3   OH234938   6.170   4.144   5.127 -0.4642 -0.2682 -0.1965
 4508TIP3    H134939   6.214   4.121   5.045  0.8543 -1.0191  0.6847
 4508TIP3    H234940   6.139   4.060   5.162  0.3393 -0.1671  0.8043
 4509TIP3   OH234941   1.372   1.298   4.197 -0.4733  0.3435  0.1456
 4509TIP3    H134942   1.339   1.379   4.235  0.8138  1.0607 -0.2207
 4509TIP3    H234943   1.324   1.288   4.115 -0.1862  1.0881 -0.1192
 4510TIP3   OH234944   4.310   2.340  14.066 -0.9389 -0.7976 -0.3446
 4510TIP3    H134945   4.289   2.250  14.042 -0.6057 -0.4139 -2.2311
 4510TIP3    H234946   4.362   2.373  13.993 -3.1204  1.6794 -0.9523
 4511TIP3   OH234947   4.528   3.850   1.388  0.2750 -0.2022  0.2972
 4511TIP3    H134948   4.468   3.802   1.446 -2.1730  2.5893  0.2758
 4511TIP3    H234949   4.523   3.940   1.418  2.9674  0.4976 -1.0678
 4512TIP3   OH234950   5.716   5.795  16.982  0.2697  0.3066  0.1096
 4512TIP3    H134951   5.666   5.754  17.053  0.6509  1.5285  1.1258
 4512TIP3    H234952   5.766   5.864  17.025  1.4098  0.3250 -1.1855
 4513TIP3   OH234953   1.833   0.105   3.417 -0.4250  0.3369 -0.5260
 4513TIP3    H134954   1.847   0.131   3.508  0.2897 -1.6240 -0.0390
 4513TIP3    H234955   1.739   0.117   3.403 -0.5588  0.5546  0.5069
 4514TIP3   OH234956   5.693   2.584   5.108 -0.5780 -0.0007 -0.1362
 4514TIP3    H134957   5.756   2.570   5.038  1.9260  2.8898  1.3043
 4514TIP3    H234958   5.747   2.598   5.186 -3.0862  0.6111  1.6042
 4515TIP3   OH234959   2.940   5.005   1.183 -0.0446  0.1310 -0.1304
 4515TIP3    H134960   2.997   4.968   1.115 -1.0055 -0.9477 -0.3883
 4515TIP3    H234961   2.853   5.004   1.144 -0.3393  1.2141  0.4683
 4516TIP3   OH234962   2.372   2.854  14.460 -0.3812 -0.0074 -0.0191
 4516TIP3    H134963   2.332   2.917  14.400 -2.0090 -0.4059  0.5741
 4516TIP3    H234964   2.297   2.817  14.508  0.9285  2.0909  4.1000
 4517TIP3   OH234965   6.263   6.653   4.207 -0.0595 -0.2356  0.7139
 4517TIP3    H134966   6.231   6.570   4.242 -0.5286 -1.0088 -1.4054
 4517TIP3    H234967   6.356   6.638   4.189 -0.3569 -0.6710 -0.5789
 4518TIP3   OH234968   4.631   3.238   5.864  0.2644 -0.3325 -0.6426
 4518TIP3    H134969   4.626   3.220   5.770  1.3560  2.4211 -1.3130
 4518TIP3    H234970   4.545   3.273   5.887 -0.0301 -1.0828 -0.5622
 4519TIP3   OH234971   3.888   3.469   4.399  0.3895  0.5206 -0.6246
 4519TIP3    H134972   3.854   3.380   4.390 -1.1532  0.9088  0.9403
 4519TIP3    H234973   3.940   3.482   4.319 -0.9843 -1.0538 -1.8637
 4520TIP3   OH234974   4.659   3.926   5.432 -0.0311  0.6450  0.2324
 4520TIP3    H134975   4.659   3.831   5.436  0.4837  0.5869 -0.8031
 4520TIP3    H234976   4.597   3.948   5.363 -0.0692  1.0589  0.3927
 4521TIP3   OH234977   2.756   2.214  16.317  0.6446  0.5022 -0.2901
 4521TIP3    H134978   2.785   2.163  16.242  0.4419  2.5135 -1.8305
 4521TIP3    H234979   2.769   2.157  16.392  2.5703 -0.9383 -1.6422
 4522TIP3   OH234980   3.147   6.136   0.888  0.2989 -0.2669 -0.3624
 4522TIP3    H134981   3.122   6.116   0.798  3.0192 -2.0003 -0.8590
 4522TIP3    H234982   3.115   6.062   0.939  2.3764 -1.5059 -0.7008
 4523TIP3   OH234983   5.984   2.777  15.866  0.3600 -0.1033 -0.4102
 4523TIP3    H134984   5.959   2.860  15.824  0.5293  1.3138  2.0652
 4523TIP3    H234985   5.917   2.763  15.933  2.2517  0.0318  1.6313
 4524TIP3   OH234986   4.130   3.775  16.542 -0.0783  0.1540  0.4050
 4524TIP3    H134987   4.110   3.828  16.620  0.6893 -1.1189  1.5008
 4524TIP3    H234988   4.054   3.719  16.531 -0.5289  0.8798 -0.2528
 4525TIP3   OH234989   1.468   4.304   3.658  0.6152  0.5649  0.3183
 4525TIP3    H134990   1.535   4.245   3.692  0.7013  0.7236  0.4281
 4525TIP3    H234991   1.389   4.282   3.707 -0.0451 -1.2729 -1.4809
 4526TIP3   OH234992   5.880   1.256  16.293 -0.1907  0.0157 -0.1893
 4526TIP3    H134993   5.933   1.186  16.330 -0.6376 -0.1643  0.1163
 4526TIP3    H234994   5.790   1.233  16.315 -0.2799  1.2218  0.8332
 4527TIP3   OH234995   3.051   5.224   2.079 -0.3133 -0.1695 -0.2716
 4527TIP3    H134996   3.032   5.174   2.158  0.7275 -0.1108  0.0319
 4527TIP3    H234997   2.981   5.201   2.018 -0.4952 -1.0899  0.2701
 4528TIP3   OH234998   0.098   5.214   0.088  0.2762 -0.1951 -0.5480
 4528TIP3    H134999   0.127   5.235  -0.001 -0.1846  2.3565 -0.1818
 4528TIP3    H235000   0.113   5.294   0.137 -1.4518 -0.8535  1.1682
 4529TIP3   OH235001   6.546   5.637   4.570  0.1820  0.1945 -0.5270
 4529TIP3    H135002   6.629   5.655   4.526 -0.5732  1.5451 -1.4948
 4529TIP3    H235003   6.504   5.723   4.578  0.2328  0.0593  2.8659
 4530TIP3   OH235004   0.522   6.317  13.363 -0.5094  0.4526 -0.4095
 4530TIP3    H135005   0.533   6.401  13.318 -0.0326  0.7010  0.1643
 4530TIP3    H235006   0.494   6.341  13.451 -1.5559 -0.0338 -0.5839
 4531TIP3   OH235007   3.318   3.736   5.687  0.5899 -0.0001 -0.2210
 4531TIP3    H135008   3.362   3.794   5.749  0.3917 -0.1931  0.1064
 4531TIP3    H235009   3.225   3.751   5.702  0.5103 -1.1317  0.5911
 4532TIP3   OH235010   2.573   6.406  14.730  0.5052  0.1371  0.0525
 4532TIP3    H135011   2.577   6.410  14.634  1.1492 -0.2687  0.0552
 4532TIP3    H235012   2.526   6.486  14.755 -0.9846 -0.4716 -0.6674
 4533TIP3   OH235013   3.203   2.713   0.847 -0.2286  0.0931  0.1620
 4533TIP3    H135014   3.273   2.673   0.899  0.6792 -0.8099 -1.6522
 4533TIP3    H235015   3.181   2.647   0.782 -1.7746  0.9277 -0.2085
 4534TIP3   OH235016   2.696   3.356  10.559  0.2775 -0.0288  0.1690
 4534TIP3    H135017   2.779   3.362  10.513 -0.5458  1.2030 -1.2749
 4534TIP3    H235018   2.713   3.392  10.646  0.9395  1.5511 -0.5867
 4535TIP3   OH235019   6.412   2.226   3.956  0.4104 -0.0278  0.3890
 4535TIP3    H135020   6.405   2.143   3.909  0.0142 -0.6040  1.4415
 4535TIP3    H235021   6.506   2.239   3.967  0.4758 -1.6252  2.3698
 4536TIP3   OH235022   4.708   2.246  15.735  0.5228 -0.3700 -0.5615
 4536TIP3    H135023   4.692   2.178  15.669  1.8737 -0.9400 -0.3186
 4536TIP3    H235024   4.685   2.328  15.690 -0.4591 -0.9005 -1.0763
 4537TIP3   OH235025   0.395   1.779  11.931 -0.3778  0.2778  0.2991
 4537TIP3    H135026   0.479   1.739  11.953 -0.3693 -0.1603 -0.4557
 4537TIP3    H235027   0.378   1.750  11.841 -1.7193 -0.3230  0.7060
 4538TIP3   OH235028   2.186   0.169   2.636 -0.0361 -0.4048 -0.4131
 4538TIP3    H135029   2.212   0.255   2.671 -0.5776 -0.2553 -0.3772
 4538TIP3    H235030   2.117   0.189   2.573 -0.3892 -0.8482 -0.1638
 4539TIP3   OH235031   3.865   4.639   5.046 -0.3279 -0.1142 -0.3635
 4539TIP3    H135032   3.881   4.636   5.141  0.5091  3.0987 -0.2951
 4539TIP3    H235033   3.773   4.664   5.038 -0.4994 -0.7482 -0.4291
 4540TIP3   OH235034   2.886   5.320  16.905  0.1174  0.1979  0.0561
 4540TIP3    H135035   2.794   5.294  16.899  0.3303 -0.7909  0.7746
 4540TIP3    H235036   2.912   5.293  16.993  1.4582 -0.7250 -0.6110
 4541TIP3   OH235037   2.222   2.315  10.511  0.2034 -0.3763 -1.3254
 4541TIP3    H135038   2.198   2.376  10.441  0.2639  0.8997 -0.2646
 4541TIP3    H235039   2.267   2.369  10.576 -3.3054 -0.6415  1.5946
 4542TIP3   OH235040   3.933   1.683  11.700  0.2737  0.4380 -0.9499
 4542TIP3    H135041   3.944   1.600  11.654  2.7215  0.8453 -1.2673
 4542TIP3    H235042   4.022   1.719  11.704 -0.4016  2.0517  1.0332
 4543TIP3   OH235043   2.499   1.737   3.777  0.0247 -0.2014 -0.0301
 4543TIP3    H135044   2.465   1.826   3.790 -0.5460 -0.1199 -1.7435
 4543TIP3    H235045   2.555   1.721   3.852 -0.0373  1.5352  0.4285
 4544TIP3   OH235046   3.413   6.419  14.710 -0.0244  0.0318  0.4242
 4544TIP3    H135047   3.324   6.396  14.683 -0.2009  1.5977 -0.4341
 4544TIP3    H235048   3.460   6.436  14.629 -0.0475  3.0082  0.9254
 4545TIP3   OH235049   3.144   1.124   4.484 -1.2269 -0.3523  0.0135
 4545TIP3    H135050   3.233   1.141   4.453 -1.5667 -1.7535 -1.9709
 4545TIP3    H235051   3.122   1.200   4.538  0.9928  0.2396  0.1735
 4546TIP3   OH235052   4.895   3.408  13.728  0.1216  0.3718  0.2766
 4546TIP3    H135053   4.879   3.399  13.822 -1.0292 -1.2025 -0.0244
 4546TIP3    H235054   4.986   3.437  13.722  0.9288 -1.5513  1.8460
 4547TIP3   OH235055   5.194   4.386   2.782 -0.1332  0.6161 -0.5652
 4547TIP3    H135056   5.286   4.404   2.761 -0.1536  2.1030  0.4526
 4547TIP3    H235057   5.190   4.391   2.877 -1.4922  1.7526 -0.6587
 4548TIP3   OH235058   3.674   6.619   0.647  0.5192 -0.4478  0.0691
 4548TIP3    H135059   3.579   6.607   0.639  0.5971 -0.9666 -0.1534
 4548TIP3    H235060   3.708   6.530   0.654  0.9354 -0.2410  0.7982
 4549TIP3   OH235061   3.915   0.380   4.236  0.1460 -0.0612 -0.4851
 4549TIP3    H135062   3.960   0.306   4.195 -1.5525  0.1566 -3.0288
 4549TIP3    H235063   3.854   0.410   4.168 -0.7816  2.2781  1.2712
 4550TIP3   OH235064   3.023   5.456  15.883  0.3723  0.0511 -0.2908
 4550TIP3    H135065   3.007   5.535  15.935  1.0974 -0.8995  1.4586
 4550TIP3    H235066   2.935   5.421  15.866  0.0344  1.2811 -1.2167
 4551TIP3   OH235067   1.269   5.268  12.651  0.3041 -0.4224 -0.3556
 4551TIP3    H135068   1.253   5.273  12.556 -0.2713  1.0614 -0.2075
 4551TIP3    H235069   1.193   5.312  12.690  0.0592 -1.8472  0.8512
 4552TIP3   OH235070   6.302   0.612  13.390 -0.1135  0.1615 -0.2280
 4552TIP3    H135071   6.352   0.641  13.466 -0.5603 -0.9758  0.5117
 4552TIP3    H235072   6.359   0.549  13.346 -0.9522 -1.2932  0.7308
 4553TIP3   OH235073   6.705   4.009   0.640 -0.1648  0.4184 -0.4504
 4553TIP3    H135074   6.631   3.991   0.580  0.2155 -0.0957 -0.7739
 4553TIP3    H235075   6.687   3.955   0.717 -0.4304  0.7511 -0.2741
 4554TIP3   OH235076   6.255   2.191  14.648 -0.1728 -0.1049 -0.7506
 4554TIP3    H135077   6.208   2.204  14.731  0.1760 -1.9008 -0.2305
 4554TIP3    H235078   6.307   2.271  14.638 -0.5132  0.3184  0.5604
 4555TIP3   OH235079   5.383   0.716   5.518  0.1262  0.2592  0.3412
 4555TIP3    H135080   5.362   0.808   5.534 -1.5146  0.5736 -2.8161
 4555TIP3    H235081   5.457   0.718   5.457  1.4435 -0.6520  1.7982
 4556TIP3   OH235082   6.748   5.493   0.911 -0.7796  0.3381 -0.9031
 4556TIP3    H135083   6.829   5.495   0.962 -2.0241  1.0104  1.1844
 4556TIP3    H235084   6.693   5.560   0.951 -3.3917 -1.9275 -0.4071
 4557TIP3   OH235085   1.221   2.530   4.597 -0.2186  0.0309 -0.0814
 4557TIP3    H135086   1.248   2.562   4.510  1.9926 -0.5196  0.3312
 4557TIP3    H235087   1.173   2.449   4.578 -0.2746  0.2272 -0.8300
 4558TIP3   OH235088   4.084   0.279   6.222 -0.4228 -0.6310 -0.1701
 4558TIP3    H135089   4.111   0.278   6.314 -0.4409 -0.7590 -0.1658
 4558TIP3    H235090   3.990   0.295   6.225 -0.1401  1.2573 -0.2365
 4559TIP3   OH235091   6.644   0.688  13.747 -0.1236 -0.2073 -0.0800
 4559TIP3    H135092   6.723   0.638  13.766  0.4256  0.5730 -0.2447
 4559TIP3    H235093   6.652   0.767  13.801 -0.6558  0.0067 -0.3054
 4560TIP3   OH235094   3.973   2.680  10.829  0.1774 -0.7279 -0.4501
 4560TIP3    H135095   3.893   2.700  10.781  0.1088 -0.9318 -0.4197
 4560TIP3    H235096   4.031   2.754  10.810  0.3248 -1.0395 -1.2422
 4561TIP3   OH235097   1.825   1.032   6.223 -0.3072  0.0424 -0.2242
 4561TIP3    H135098   1.734   1.003   6.224 -0.1481 -0.5102  1.7319
 4561TIP3    H235099   1.857   1.017   6.312  0.9758  2.5981 -0.1555
 4562TIP3   OH235100   6.755   0.591  15.306  0.9627  0.6401  0.1237
 4562TIP3    H135101   6.730   0.502  15.330  0.5663  0.6539 -0.2363
 4562TIP3    H235102   6.749   0.593  15.211  4.4215  0.0008 -0.2573
 4563TIP3   OH235103   6.710   2.614   0.591 -0.1934 -0.0070  0.1664
 4563TIP3    H135104   6.735   2.601   0.683  1.1232 -2.0039 -0.4179
 4563TIP3    H235105   6.778   2.570   0.541  0.0271  2.4480 -1.8896
 4564TIP3   OH235106   6.795   1.247  16.917  0.3563 -0.3549 -0.2551
 4564TIP3    H135107   6.776   1.179  16.853  0.8793 -0.7665  0.0119
 4564TIP3    H235108   6.712   1.290  16.933 -0.3117 -1.9010  0.6758
 4565TIP3   OH235109   3.866   1.714  13.087 -0.0326  0.1073  0.0573
 4565TIP3    H135110   3.804   1.755  13.026  0.0408 -1.6872 -1.3368
 4565TIP3    H235111   3.952   1.746  13.059  0.0408 -1.0336 -1.1389
 4566TIP3   OH235112   5.339   5.218   5.715 -0.0527 -0.1446 -0.4679
 4566TIP3    H135113   5.250   5.215   5.749 -0.1770  1.0951 -0.6542
 4566TIP3    H235114   5.356   5.311   5.698  0.9714 -0.4462 -1.2238
 4567TIP3   OH235115   0.105   0.247   4.638  0.0881 -0.4610 -0.2182
 4567TIP3    H135116   0.031   0.188   4.655 -2.1921  1.8421 -1.3742
 4567TIP3    H235117   0.099   0.314   4.706  1.8490 -0.8097  0.3240
 4568TIP3   OH235118   5.995   1.863   2.373 -0.0801 -0.3355  0.2331
 4568TIP3    H135119   6.037   1.874   2.459 -0.4987 -0.0150  0.3974
 4568TIP3    H235120   6.055   1.806   2.325 -0.0155 -0.8228  0.8684
 4569TIP3   OH235121   2.844   3.468   0.117 -0.0338  0.0776  0.8292
 4569TIP3    H135122   2.884   3.442   0.200  3.6913 -0.5408 -0.9650
 4569TIP3    H235123   2.807   3.386   0.083 -2.4279  0.5119  2.1720
 4570TIP3   OH235124   3.163   0.125  13.866  0.4589 -0.0625  0.2091
 4570TIP3    H135125   3.075   0.087  13.858  1.0602 -1.5172  0.2118
 4570TIP3    H235126   3.206   0.104  13.783  0.6791  1.0411  0.0210
 4571TIP3   OH235127   5.044   4.930  11.518 -0.5400 -0.8544  0.1059
 4571TIP3    H135128   5.088   4.917  11.434 -0.2074  1.4806 -0.1303
 4571TIP3    H235129   5.113   4.960  11.577 -1.4522  1.2438  0.1695
 4572TIP3   OH235130   1.943   1.721  11.389 -0.3883 -0.2385  0.7298
 4572TIP3    H135131   1.998   1.728  11.467  0.2169 -1.2119  0.4107
 4572TIP3    H235132   1.964   1.635  11.352 -2.7919 -1.0565  1.0846
 4573TIP3   OH235133   4.265   4.959   0.318  0.2236  0.2345 -0.0384
 4573TIP3    H135134   4.176   4.926   0.333  0.1393  0.1471 -0.7011
 4573TIP3    H235135   4.318   4.920   0.387 -0.3011  0.4909  0.5208
 4574TIP3   OH235136   2.493   1.954  12.625 -0.0153 -0.0647 -0.2170
 4574TIP3    H135137   2.423   2.002  12.581  0.0349  0.1183 -0.0983
 4574TIP3    H235138   2.561   2.019  12.641  0.8165 -0.5459 -1.6475
 4575TIP3   OH235139   3.527   4.055  15.048 -0.0190 -0.0728  0.2115
 4575TIP3    H135140   3.561   3.966  15.041  1.3706  0.5376 -1.4366
 4575TIP3    H235141   3.605   4.109  15.062 -0.6200  1.0914 -0.7846
 4576TIP3   OH235142   2.083   5.991   5.058  0.0032  0.0000 -0.2396
 4576TIP3    H135143   2.003   5.979   5.007 -0.8291  0.3567  0.9441
 4576TIP3    H235144   2.106   6.083   5.044 -0.1988  0.0850 -0.0306
 4577TIP3   OH235145   1.083   2.537  11.882 -0.4614 -0.0928 -0.8332
 4577TIP3    H135146   1.156   2.494  11.926  0.7428  2.4336 -0.1329
 4577TIP3    H235147   1.109   2.540  11.790  0.9369  1.7051 -0.4513
 4578TIP3   OH235148   2.361   0.019   0.710  0.0639 -0.2505  0.2932
 4578TIP3    H135149   2.422  -0.053   0.696 -0.4417 -0.3823 -1.3931
 4578TIP3    H235150   2.381   0.050   0.798  0.2379 -2.4926  1.1183
 4579TIP3   OH235151   5.435   5.656  14.158 -0.4067 -0.1943  0.0135
 4579TIP3    H135152   5.378   5.653  14.081  0.4278  1.9224 -0.7582
 4579TIP3    H235153   5.504   5.592  14.139  0.0984  0.6951 -1.3010
 4580TIP3   OH235154   1.209   4.483  14.853 -0.3878  0.1368  0.2309
 4580TIP3    H135155   1.217   4.574  14.881  1.9121  0.0198  0.1310
 4580TIP3    H235156   1.116   4.473  14.832 -0.6131  2.6094 -0.3057
 4581TIP3   OH235157   3.985   2.179   5.318 -0.0625  0.0788  0.6132
 4581TIP3    H135158   4.057   2.236   5.291 -0.2693 -0.8735 -2.4042
 4581TIP3    H235159   4.014   2.139   5.400  3.0293 -0.4571 -0.5951
 4582TIP3   OH235160   0.207   5.899   5.365 -0.0999 -0.1722 -0.6913
 4582TIP3    H135161   0.227   5.806   5.358  1.3252  0.1122 -0.7936
 4582TIP3    H235162   0.292   5.940   5.383 -0.7368  1.0816 -0.4353
 4583TIP3   OH235163   6.465   2.506  12.263 -0.0612  0.2159  0.3955
 4583TIP3    H135164   6.520   2.521  12.186  0.3050 -2.4464  0.0283
 4583TIP3    H235165   6.527   2.501  12.336 -0.1164  0.0406  0.4304
 4584TIP3   OH235166   2.879   1.556  13.434 -0.8145 -0.4991 -0.3704
 4584TIP3    H135167   2.866   1.480  13.490  0.3579 -0.4600 -0.0193
 4584TIP3    H235168   2.896   1.520  13.347  3.1814 -0.8960  0.3981
 4585TIP3   OH235169   1.146   0.281   6.188 -0.7541 -0.4152 -0.6233
 4585TIP3    H135170   1.197   0.229   6.126  0.0483 -1.5992  0.9420
 4585TIP3    H235171   1.057   0.245   6.181 -1.2215  0.9716 -2.6317
 4586TIP3   OH235172   1.725   2.750  12.398 -0.4212 -0.3150  0.0915
 4586TIP3    H135173   1.755   2.838  12.374 -1.1459 -0.3219 -0.8840
 4586TIP3    H235174   1.691   2.760  12.487  1.6590 -0.1361  0.9251
 4587TIP3   OH235175   6.801   5.552  15.225 -0.3957 -0.1711 -0.2512
 4587TIP3    H135176   6.876   5.493  15.219  0.5905  0.8643  1.2366
 4587TIP3    H235177   6.839   5.638  15.244 -1.8626  0.7360 -1.1560
 4588TIP3   OH235178   3.421   3.370  12.096 -0.2278  0.0244  0.1761
 4588TIP3    H135179   3.357   3.301  12.080 -0.0373  0.1466 -1.2907
 4588TIP3    H235180   3.465   3.382  12.012  2.5072 -0.7787  1.3794
 4589TIP3   OH235181   1.611   6.456  13.111 -0.6028 -0.2117  0.5948
 4589TIP3    H135182   1.563   6.375  13.090  1.4503 -1.2530 -0.3912
 4589TIP3    H235183   1.695   6.426  13.145 -0.3461  1.5492  1.6092
 4590TIP3   OH235184   2.916   4.722  12.243 -0.3239  0.1804 -0.4447
 4590TIP3    H135185   2.894   4.716  12.336  0.6106  0.0438 -0.2221
 4590TIP3    H235186   2.895   4.812  12.219  0.1390  0.4362  0.0910
 4591TIP3   OH235187   3.284   2.759   1.781  0.0170 -0.4856 -0.3934
 4591TIP3    H135188   3.259   2.741   1.690 -0.5488  1.7939 -0.7394
 4591TIP3    H235189   3.352   2.826   1.774 -1.4455  1.2083  0.9028
 4592TIP3   OH235190   3.893   2.439   2.825  0.6198  0.1654 -0.1915
 4592TIP3    H135191   3.927   2.457   2.913  0.5633  1.7671 -0.4658
 4592TIP3    H235192   3.964   2.466   2.767  0.7939 -1.2181 -0.6579
 4593TIP3   OH235193   3.181   4.902   0.391 -0.1898 -0.8111 -0.5243
 4593TIP3    H135194   3.183   4.884   0.485  1.1038  2.7254  0.3060
 4593TIP3    H235195   3.088   4.912   0.371 -0.4357  0.3586  0.9355
 4594TIP3   OH235196   6.400   6.551  10.539  0.4334  0.0723 -0.2345
 4594TIP3    H135197   6.455   6.488  10.494  0.8893 -0.6977  1.3204
 4594TIP3    H235198   6.422   6.540  10.632 -1.5867  0.4742  0.3417
 4595TIP3   OH235199   5.883   4.160  12.433 -0.0723 -0.1330  0.3645
 4595TIP3    H135200   5.815   4.096  12.456  0.7590 -0.6903  1.3305
 4595TIP3    H235201   5.895   4.211  12.512  1.5651 -0.9103  0.6530
 4596TIP3   OH235202   5.913   3.233   3.014 -0.7611  0.2625  0.0163
 4596TIP3    H135203   5.853   3.307   2.999 -0.5628  0.2256 -1.0368
 4596TIP3    H235204   5.862   3.156   2.987 -1.0045 -0.0112  1.2113
 4597TIP3   OH235205   3.103   2.932   2.743 -0.4146  0.3906 -0.1216
 4597TIP3    H135206   3.067   2.846   2.767 -1.0914  0.2770 -1.4438
 4597TIP3    H235207   3.039   2.994   2.776  0.2739  0.4248  1.1901
 4598TIP3   OH235208   0.007   5.779  12.784  0.1798  0.3838 -0.5191
 4598TIP3    H135209  -0.052   5.791  12.858 -0.9599  1.4084 -1.5543
 4598TIP3    H235210   0.089   5.750  12.824 -0.1643  1.6354  1.2230
 4599TIP3   OH235211   3.101   1.734  11.783  0.4022  0.6473 -0.1713
 4599TIP3    H135212   3.119   1.823  11.755  1.6374  0.5405  0.2149
 4599TIP3    H235213   3.181   1.685  11.761 -0.2902 -0.3920 -0.4798
 4600TIP3   OH235214   0.887   3.559  15.990 -0.2393 -0.0229 -0.0153
 4600TIP3    H135215   0.969   3.587  15.948  0.7555 -1.5700  0.8227
 4600TIP3    H235216   0.841   3.641  16.009  0.9281  0.8587 -0.8401
 4601TIP3   OH235217   4.186   0.696   3.499 -0.2201  0.2967 -0.0038
 4601TIP3    H135218   4.143   0.615   3.528  1.5098 -0.6734 -0.0032
 4601TIP3    H235219   4.148   0.714   3.414  0.1118 -1.1599 -0.4935
 4602TIP3   OH235220   0.938   3.503   4.299 -0.3235 -0.0458 -0.5261
 4602TIP3    H135221   0.887   3.583   4.287 -1.8631 -1.0237 -0.7212
 4602TIP3    H235222   1.029   3.534   4.304 -0.6998  1.5548 -2.3301
 4603TIP3   OH235223   4.184   3.037   5.941 -0.0796  0.2216 -0.5260
 4603TIP3    H135224   4.127   3.038   6.018 -2.0900  2.4070 -1.8929
 4603TIP3    H235225   4.131   2.996   5.872  0.4778  1.0760 -1.5071
 4604TIP3   OH235226   2.080   4.446  15.378 -0.9654  0.3323 -0.6132
 4604TIP3    H135227   2.119   4.484  15.457 -3.8404  1.8331  0.2014
 4604TIP3    H235228   2.147   4.459  15.310  1.1183  0.0372  1.2460
 4605TIP3   OH235229   5.841   3.767   4.357  0.2538  0.2462  0.3355
 4605TIP3    H135230   5.839   3.848   4.306  0.9382  0.2988  0.3716
 4605TIP3    H235231   5.862   3.698   4.293  0.7167  0.2561  0.4695
 4606TIP3   OH235232   3.161   5.662   4.072  0.1185  0.1887  0.2429
 4606TIP3    H135233   3.255   5.663   4.091  0.5175  0.2735 -1.5736
 4606TIP3    H235234   3.128   5.742   4.113  1.0812  0.8174 -0.1599
 4607TIP3   OH235235   4.407   0.890  16.833 -0.7092 -0.6679  0.6605
 4607TIP3    H135236   4.404   0.845  16.749 -2.3318  0.0523  0.2972
 4607TIP3    H235237   4.468   0.963  16.820 -0.0311 -1.2538  0.4941
 4608TIP3   OH235238   4.714   4.547   2.764  0.1132 -0.4655  0.4751
 4608TIP3    H135239   4.620   4.559   2.756  0.3250  0.4112 -1.1493
 4608TIP3    H235240   4.725   4.495   2.844 -1.7527 -0.8994  0.4938
 4609TIP3   OH235241   3.994   1.708  15.652 -0.1295 -0.3314 -0.1909
 4609TIP3    H135242   3.960   1.697  15.741  0.3016  3.4118  0.5798
 4609TIP3    H235243   3.968   1.796  15.626  2.7023  0.0075 -2.4216
 4610TIP3   OH235244   0.846   2.221   2.619 -0.0738  0.2336 -0.1806
 4610TIP3    H135245   0.871   2.129   2.620  2.7506  0.8187 -2.8470
 4610TIP3    H235246   0.779   2.228   2.687 -1.2308 -3.9669 -0.5807
 4611TIP3   OH235247   5.525   5.943  14.318 -0.2103 -0.2215 -0.0790
 4611TIP3    H135248   5.621   5.937  14.314 -0.2486 -0.5485 -0.6039
 4611TIP3    H235249   5.504   6.016  14.259 -0.3345 -0.6613 -0.5837
 4612TIP3   OH235250   2.964   1.880   2.485 -0.3898  1.1014 -0.4518
 4612TIP3    H135251   2.999   1.930   2.559  1.0143  2.0533 -1.7046
 4612TIP3    H235252   2.964   1.941   2.412  1.3889 -0.6710 -2.0522
 4613TIP3   OH235253   4.239   1.268  13.545  0.0111 -0.8798 -0.6814
 4613TIP3    H135254   4.253   1.193  13.603 -2.1234 -0.0901  0.9720
 4613TIP3    H235255   4.147   1.291  13.556  0.5665  1.9603 -1.1830
 4614TIP3   OH235256   0.120   0.456  11.690  0.1493  0.1969  0.0417
 4614TIP3    H135257   0.150   0.429  11.777  0.7786 -0.8146 -0.4759
 4614TIP3    H235258   0.173   0.533  11.669  0.2737  0.2052  0.3798
 4615TIP3   OH235259   3.329   4.678   2.341 -0.1584 -0.2452 -0.1526
 4615TIP3    H135260   3.286   4.731   2.274 -0.9007 -1.4184 -0.6513
 4615TIP3    H235261   3.280   4.695   2.421  3.1946  4.3827  1.2975
 4616TIP3   OH235262   1.876   0.367   5.397 -0.7240  0.0982  0.1041
 4616TIP3    H135263   1.919   0.311   5.462 -0.0026  0.4917 -0.0309
 4616TIP3    H235264   1.839   0.439   5.449 -2.2324 -0.8269  0.3611
 4617TIP3   OH235265   0.839   4.953   2.427  0.0110  0.3585  0.7412
 4617TIP3    H135266   0.879   5.040   2.437 -1.4297  1.2656 -0.8261
 4617TIP3    H235267   0.745   4.970   2.431 -0.3804 -0.7455 -2.0575
 4618TIP3   OH235268   6.687   5.627   2.153 -0.6705 -0.2867 -0.0276
 4618TIP3    H135269   6.767   5.633   2.206 -0.9948  0.1143  0.4286
 4618TIP3    H235270   6.664   5.717   2.133 -0.3900 -0.4517 -1.1206
 4619TIP3   OH235271   4.227   3.404  11.914  0.2872 -0.0792 -0.8438
 4619TIP3    H135272   4.209   3.463  11.841 -0.4946 -0.1316 -0.7063
 4619TIP3    H235273   4.320   3.416  11.934 -0.2417  2.5566  0.4422
 4620TIP3   OH235274   0.619   4.669   2.445 -0.2311 -0.3061  0.0486
 4620TIP3    H135275   0.673   4.742   2.476 -1.1954  0.2469  0.4734
 4620TIP3    H235276   0.529   4.695   2.466 -0.6487 -1.3183 -0.4151
 4621TIP3   OH235277   1.632   4.692   2.807  0.1748 -0.1370  0.8934
 4621TIP3    H135278   1.725   4.693   2.788  0.3372  1.9873  1.5543
 4621TIP3    H235279   1.624   4.729   2.895 -1.1740 -2.1179  1.6940
 4622TIP3   OH235280   3.143   6.611   0.187 -0.4496  0.2379  0.0833
 4622TIP3    H135281   3.052   6.621   0.160 -0.3551  0.7336 -0.0849
 4622TIP3    H235282   3.142   6.546   0.256 -0.8076 -0.4821 -0.5921
 4623TIP3   OH235283   4.433   5.372  15.562  0.5160 -1.0257  0.0570
 4623TIP3    H135284   4.524   5.352  15.543  0.1539 -1.1288 -1.7345
 4623TIP3    H235285   4.427   5.369  15.658  2.2390 -1.5856  0.1766
 4624TIP3   OH235286   6.175   5.762   4.986 -0.0171  0.0551 -0.1512
 4624TIP3    H135287   6.179   5.668   4.967  0.3504  0.2755 -1.2362
 4624TIP3    H235288   6.151   5.802   4.902 -1.0951  0.8579  0.5158
 4625TIP3   OH235289   2.795   5.760  12.334  0.2358  0.8170  0.4882
 4625TIP3    H135290   2.746   5.682  12.308 -0.9678  0.7026  2.8722
 4625TIP3    H235291   2.729   5.822  12.365  1.3484  1.9236  0.7316
 4626TIP3   OH235292   2.681   3.718   4.295  0.0373 -0.0821 -0.7991
 4626TIP3    H135293   2.588   3.742   4.290 -0.3740 -1.1962  0.5943
 4626TIP3    H235294   2.728   3.795   4.264 -1.3252  0.9291 -0.4375
 4627TIP3   OH235295   5.578   5.244   6.398  0.2026  0.1996  0.0855
 4627TIP3    H135296   5.558   5.246   6.492  0.0847 -0.4503  0.0804
 4627TIP3    H235297   5.514   5.304   6.359  0.9871  1.3669  0.5334
 4628TIP3   OH235298   4.075   3.485   1.800 -0.5361  0.1878 -0.6956
 4628TIP3    H135299   4.107   3.530   1.722 -3.2136  0.2360 -1.8630
 4628TIP3    H235300   4.051   3.555   1.860  0.8919  0.1574 -0.0499
 4629TIP3   OH235301   5.717   5.591  15.499 -0.1060 -0.8569  0.0845
 4629TIP3    H135302   5.689   5.601  15.590 -0.7937  0.0564 -0.2135
 4629TIP3    H235303   5.699   5.499  15.478 -0.8936 -0.8167  0.5538
 4630TIP3   OH235304   2.386   2.434  11.083 -0.0429 -0.0495 -0.5692
 4630TIP3    H135305   2.367   2.514  11.132 -1.5135 -0.8865  0.3007
 4630TIP3    H235306   2.458   2.393  11.131 -0.8913 -0.4241  0.4347
 4631TIP3   OH235307   4.660   4.379  16.174  0.4459  0.2460 -0.9960
 4631TIP3    H135308   4.727   4.446  16.189  0.3406  0.0006  0.7363
 4631TIP3    H235309   4.706   4.296  16.187  0.2395 -0.0026 -1.7641
 4632TIP3   OH235310   3.608   0.496   2.955  0.9159  0.0521 -0.5158
 4632TIP3    H135311   3.611   0.538   3.041 -1.3269 -0.5171 -0.1083
 4632TIP3    H235312   3.617   0.568   2.893 -1.8363  1.1293  0.1857
 4633TIP3   OH235313   4.686   1.186   0.258 -0.7963  0.2751  0.0375
 4633TIP3    H135314   4.742   1.116   0.292 -0.4569  0.4142 -0.2263
 4633TIP3    H235315   4.649   1.226   0.336  0.3958  0.9349  0.2903
 4634TIP3   OH235316   0.976   3.198  16.072  0.2322 -0.0579 -0.1566
 4634TIP3    H135317   0.970   3.237  16.160  1.4535 -0.1494 -0.0152
 4634TIP3    H235318   0.890   3.214  16.033  0.1064  1.1778  0.5664
 4635TIP3   OH235319   0.816   0.464   2.466  0.1570  0.1001  0.0768
 4635TIP3    H135320   0.751   0.394   2.464  0.9971 -0.7027 -2.4981
 4635TIP3    H235321   0.900   0.419   2.470  0.6590  1.1080  2.2786
 4636TIP3   OH235322   5.345   3.743   6.712  0.2443 -0.4732 -0.4561
 4636TIP3    H135323   5.375   3.817   6.658 -1.9321 -0.8231 -2.3242
 4636TIP3    H235324   5.275   3.780   6.766 -0.6458 -1.0390 -1.1807
 4637TIP3   OH235325   5.208   5.483  13.421  0.1766  0.1360  0.1426
 4637TIP3    H135326   5.159   5.471  13.340  1.2884  0.6643 -0.6366
 4637TIP3    H235327   5.169   5.420  13.482 -0.9149 -0.0175 -0.6798
 4638TIP3   OH235328   2.134   1.901  11.471  0.1067  0.6774 -0.1482
 4638TIP3    H135329   2.229   1.907  11.463  0.3007 -1.7791 -0.2502
 4638TIP3    H235330   2.101   1.921  11.383  0.5752  0.5885 -0.3430
 4639TIP3   OH235331   1.926   2.497  11.965 -0.3409 -0.0775 -0.1940
 4639TIP3    H135332   1.887   2.500  11.878 -0.1766 -0.5867 -0.2907
 4639TIP3    H235333   1.913   2.407  11.994  0.7572 -0.2686 -0.2351
 4640TIP3   OH235334   5.923   3.709  12.214  0.0261 -0.3805 -0.1415
 4640TIP3    H135335   5.961   3.661  12.288  2.4178 -0.9888 -1.6514
 4640TIP3    H235336   5.952   3.799  12.226  1.5499 -0.7259 -0.9562
 4641TIP3   OH235337   4.613   3.508   3.186  0.5136 -0.0809  0.7859
 4641TIP3    H135338   4.676   3.472   3.123 -1.6209  0.3862 -1.7401
 4641TIP3    H235339   4.639   3.600   3.196  1.1694 -0.2839  1.0634
 4642TIP3   OH235340   3.219   4.223  15.410  0.7032  0.3780  0.0557
 4642TIP3    H135341   3.251   4.141  15.446  3.8943  0.8847 -1.2711
 4642TIP3    H235342   3.229   4.213  15.315 -0.1978  1.8101 -0.2262
 4643TIP3   OH235343   1.892   1.548  13.023  0.0968 -0.0912  0.2771
 4643TIP3    H135344   1.918   1.509  13.106  1.2814 -0.5948 -0.2986
 4643TIP3    H235345   1.797   1.561  13.030 -0.0806 -1.6250  1.0947
 4644TIP3   OH235346   3.362   5.235  15.501  0.0632 -0.2548  0.6898
 4644TIP3    H135347   3.358   5.142  15.527 -0.3567 -0.4495 -0.0547
 4644TIP3    H235348   3.313   5.281  15.570  0.8289 -0.5016  1.4138
 4645TIP3   OH235349   1.479   3.442  15.409  0.1163  0.0483 -1.0119
 4645TIP3    H135350   1.506   3.488  15.330 -2.4392  1.4058 -1.2274
 4645TIP3    H235351   1.525   3.486  15.480  2.0824 -0.8893 -1.6372
 4646TIP3   OH235352   1.716   2.305   4.681  0.0859 -0.1937  0.3550
 4646TIP3    H135353   1.650   2.373   4.696 -0.3744 -0.3608 -0.7986
 4646TIP3    H235354   1.735   2.270   4.768 -0.8349  0.3358  0.7812
 4647TIP3   OH235355   6.236   0.677  15.780  0.1728  0.3328  1.0211
 4647TIP3    H135356   6.189   0.624  15.845 -1.0525 -0.2233 -0.2723
 4647TIP3    H235357   6.219   0.768  15.807 -0.0572  0.1149  1.6425
 4648TIP3   OH235358   3.110   1.000  16.908  0.3530  0.1490  0.0440
 4648TIP3    H135359   3.103   1.000  17.003  1.9952  0.5739  0.2053
 4648TIP3    H235360   3.167   0.925  16.889 -0.6322 -0.4340 -0.6867
 4649TIP3   OH235361   1.688   0.185   6.052 -0.1532 -0.3144 -0.0157
 4649TIP3    H135362   1.771   0.138   6.058  0.3352  0.5561  0.3985
 4649TIP3    H235363   1.625   0.130   6.098  0.5093 -0.3550  0.8800
 4650TIP3   OH235364   3.421   6.621   4.320 -0.1100  0.9500  0.1932
 4650TIP3    H135365   3.395   6.570   4.397  0.5194  1.7860  0.9733
 4650TIP3    H235366   3.439   6.555   4.253 -2.6636  0.2619  0.0669
 4651TIP3   OH235367   0.092   1.954   3.917  0.2823  0.2137  0.1512
 4651TIP3    H135368   0.000   1.929   3.931  0.4199  0.3562  1.4064
 4651TIP3    H235369   0.113   2.008   3.992  1.6967 -0.6329  0.3904
 4652TIP3   OH235370   6.702   1.680  10.400  0.2149 -0.4455 -0.2899
 4652TIP3    H135371   6.635   1.660  10.466 -1.0080  0.3268 -1.2599
 4652TIP3    H235372   6.733   1.767  10.425  0.9242 -0.8291  0.1956
 4653TIP3   OH235373   6.752   3.957  13.570 -0.1123 -0.0607 -0.1637
 4653TIP3    H135374   6.735   4.043  13.530 -0.6378  0.0316  0.2478
 4653TIP3    H235375   6.822   3.973  13.632  0.3612 -0.1012 -0.6813
 4654TIP3   OH235376   5.851   1.439  14.378  0.6115  0.5737  0.2530
 4654TIP3    H135377   5.764   1.413  14.407 -0.3028  2.4276 -0.6300
 4654TIP3    H235378   5.895   1.468  14.458  0.2280  0.1449  0.6242
 4655TIP3   OH235379   3.799   5.524   2.015 -0.3574  0.1703  0.0186
 4655TIP3    H135380   3.846   5.538   2.098 -2.4556  0.1646  1.2776
 4655TIP3    H235381   3.821   5.434   1.990  1.0961  0.5103  0.0128
 4656TIP3   OH235382   4.090   1.288  11.943  0.1452 -0.5597 -0.2669
 4656TIP3    H135383   4.184   1.286  11.961  0.3871 -1.1707 -1.5180
 4656TIP3    H235384   4.076   1.372  11.898  0.4450 -1.2878 -1.7804
 4657TIP3   OH235385   1.413   2.112  11.524  0.1690  0.1145 -0.1860
 4657TIP3    H135386   1.433   2.197  11.485  1.1421  0.5797  1.2528
 4657TIP3    H235387   1.440   2.048  11.459  2.6454  0.8489  0.0419
 4658TIP3   OH235388   6.652   4.332   0.131  0.2232 -0.2277 -0.0554
 4658TIP3    H135389   6.715   4.260   0.123  1.2891  0.5869  0.6911
 4658TIP3    H235390   6.666   4.366   0.219 -2.0853 -0.7435  0.5729
 4659TIP3   OH235391   2.259   0.363   3.351  0.2133 -0.3151 -0.6995
 4659TIP3    H135392   2.258   0.360   3.256 -1.1422 -1.9374 -0.6811
 4659TIP3    H235393   2.197   0.432   3.374 -0.5639 -0.9052 -0.9983
 4660TIP3   OH235394   0.791   4.141   1.287 -0.5324  0.1667 -0.1051
 4660TIP3    H135395   0.774   4.182   1.202 -0.8387 -1.2546 -0.7639
 4660TIP3    H235396   0.850   4.068   1.266  0.7597  0.8044  1.1605
 4661TIP3   OH235397   6.547   5.729   2.735  0.6003 -0.2547  0.0778
 4661TIP3    H135398   6.600   5.694   2.807  0.6548 -0.0164  0.1525
 4661TIP3    H235399   6.578   5.682   2.657 -0.4606 -1.5957  0.4227
 4662TIP3   OH235400   3.119   5.562  13.248 -0.2680  0.0672 -0.2658
 4662TIP3    H135401   3.145   5.490  13.190 -0.6950 -2.6569  2.6337
 4662TIP3    H235402   3.030   5.541  13.275 -0.7229  2.1860  0.0713
 4663TIP3   OH235403   4.229   5.922   2.976  0.3691 -0.0615  0.1464
 4663TIP3    H135404   4.266   5.834   2.968  2.1444  0.4509  1.9593
 4663TIP3    H235405   4.233   5.942   3.069  0.7299  2.2382 -0.2958
 4664TIP3   OH235406   6.577   0.751  17.142  0.2943 -0.4198 -0.4929
 4664TIP3    H135407   6.603   0.659  17.135 -1.6678 -1.0252 -0.5131
 4664TIP3    H235408   6.550   0.775  17.053 -0.8620 -0.3910 -0.1484
 4665TIP3   OH235409   2.934   0.350   3.728  0.1416  0.3233  0.5596
 4665TIP3    H135410   2.928   0.315   3.639 -0.1809  0.6747  0.4380
 4665TIP3    H235411   3.025   0.337   3.753  0.4692  1.0477 -0.1780
 4666TIP3   OH235412   4.469   0.650   3.451  0.4539 -0.3841 -0.3243
 4666TIP3    H135413   4.476   0.605   3.535 -0.3042 -0.5035 -0.3182
 4666TIP3    H235414   4.376   0.646   3.429  0.6111 -0.1684 -1.0680
 4667TIP3   OH235415   3.845   5.994  15.188 -1.0874  0.8160  0.1969
 4667TIP3    H135416   3.777   5.995  15.121 -0.2687  1.3301 -0.6614
 4667TIP3    H235417   3.825   5.918  15.242 -0.3220 -1.2139 -2.1967
 4668TIP3   OH235418   1.397   2.976  17.029 -0.3675  0.2636 -0.4490
 4668TIP3    H135419   1.458   2.968  17.102 -1.7781 -0.4325  0.7301
 4668TIP3    H235420   1.423   2.908  16.968 -1.6182 -2.0193  1.3840
 4669TIP3   OH235421   1.177   5.939   1.807 -0.1576 -0.1672 -0.2203
 4669TIP3    H135422   1.089   5.951   1.771 -0.4610 -1.5257 -0.0199
 4669TIP3    H235423   1.172   5.853   1.851  1.2454 -0.2227 -0.1460
 4670TIP3   OH235424   3.281   2.153   0.964  0.3386  0.6026 -0.4115
 4670TIP3    H135425   3.349   2.175   1.028  1.1013  1.1265 -1.3675
 4670TIP3    H235426   3.325   2.161   0.879 -0.7957  0.4693 -1.0310
 4671TIP3   OH235427   4.294   0.387   2.443 -0.8919 -0.2237 -0.4370
 4671TIP3    H135428   4.277   0.294   2.458  2.4488 -1.0429 -0.9790
 4671TIP3    H235429   4.364   0.409   2.504  0.2104  1.2242 -2.1175
 4672TIP3   OH235430   4.096   6.434   5.866  0.1985 -0.0524  0.0592
 4672TIP3    H135431   4.182   6.423   5.825  0.2685 -0.2459  0.2553
 4672TIP3    H235432   4.092   6.365   5.933  0.0746  0.2404  0.3590
 4673TIP3   OH235433   1.006   4.787  12.253  0.0479  0.3135  0.2353
 4673TIP3    H135434   0.961   4.791  12.338 -1.9585 -0.1905 -0.7344
 4673TIP3    H235435   0.941   4.819  12.190  1.4448  0.5694 -1.1397
 4674TIP3   OH235436   2.163   2.715   4.594  0.0078 -0.0356  0.4419
 4674TIP3    H135437   2.214   2.756   4.524  2.1022 -2.9222  0.1078
 4674TIP3    H235438   2.072   2.722   4.563  0.7722 -0.5117 -2.2249
 4675TIP3   OH235439   5.661   4.415   5.020  0.3330  0.1972 -0.1776
 4675TIP3    H135440   5.629   4.439   5.107 -0.8329  0.6137 -0.6911
 4675TIP3    H235441   5.729   4.351   5.036 -1.0372 -1.0439  0.9965
 4676TIP3   OH235442   6.239   1.515  12.319 -0.0054 -0.0012  0.2931
 4676TIP3    H135443   6.239   1.553  12.407  0.0653  0.7030 -0.0064
 4676TIP3    H235444   6.245   1.421  12.334 -1.3681  0.0098  1.0868
 4677TIP3   OH235445   3.086   3.948   2.533 -0.0306 -0.0882  0.2162
 4677TIP3    H135446   3.053   3.866   2.498 -0.5633 -0.3901  1.3767
 4677TIP3    H235447   3.166   3.966   2.483 -1.6173  0.3872 -2.2968
 4678TIP3   OH235448   3.645   0.721   0.678  0.7106  0.0267 -0.0048
 4678TIP3    H135449   3.704   0.648   0.661  0.0835 -0.3910 -0.4160
 4678TIP3    H235450   3.699   0.784   0.727  1.1721 -0.8292  0.6222
 4679TIP3   OH235451   3.581   4.466   5.214 -0.1353 -0.1693 -0.0009
 4679TIP3    H135452   3.558   4.475   5.121 -2.2170 -4.6019 -0.1787
 4679TIP3    H235453   3.517   4.520   5.260 -1.8048 -1.1351 -1.0846
 4680TIP3   OH235454   4.221   1.535  11.799 -0.2014  0.5428 -0.3753
 4680TIP3    H135455   4.252   1.617  11.761  0.7876 -0.0571 -0.9061
 4680TIP3    H235456   4.206   1.477  11.725  2.0776 -0.7523  0.0878
 4681TIP3   OH235457   2.297   6.709   5.872 -1.0529  0.1721  0.1680
 4681TIP3    H135458   2.274   6.789   5.919 -0.3603 -0.4774  1.6612
 4681TIP3    H235459   2.388   6.692   5.896 -0.9194 -0.6107 -0.8121
 4682TIP3   OH235460   1.416   1.036  14.569  0.8449 -0.2692  0.3472
 4682TIP3    H135461   1.380   0.953  14.537  2.3132 -0.4526 -0.9733
 4682TIP3    H235462   1.486   1.010  14.628  2.1088 -0.0438 -0.9875
 4683TIP3   OH235463   2.467   0.601  15.955  0.1486  1.0114  0.5021
 4683TIP3    H135464   2.531   0.545  15.999 -1.5882 -1.7161 -0.1844
 4683TIP3    H235465   2.389   0.598  16.011 -1.4241 -0.8972 -1.6102
 4684TIP3   OH235466   5.851   5.947  16.480 -0.3039 -0.3433 -0.0139
 4684TIP3    H135467   5.830   6.024  16.427  0.6056 -0.4732 -0.5857
 4684TIP3    H235468   5.765   5.911  16.505 -0.8697 -1.4492 -3.0939
 4685TIP3   OH235469   0.411   2.994   6.205 -0.1423 -0.3719  0.0228
 4685TIP3    H135470   0.497   2.982   6.245 -0.9833 -2.7968  1.2773
 4685TIP3    H235471   0.362   3.045   6.269 -0.3386 -0.9956  0.3722
 4686TIP3   OH235472   6.091   0.883   2.749  0.4598 -0.1920  0.4570
 4686TIP3    H135473   6.107   0.905   2.658  1.9440  0.2587  0.8026
 4686TIP3    H235474   6.096   0.787   2.752 -3.3987 -0.5912 -0.5618
 4687TIP3   OH235475   0.777   2.513   1.740  0.0040 -0.2355  0.5360
 4687TIP3    H135476   0.690   2.474   1.739  0.4772 -1.3828  1.2135
 4687TIP3    H235477   0.810   2.499   1.651 -0.4171  0.0071  0.3394
 4688TIP3   OH235478   3.242   1.389   3.495  0.0911  0.1309 -0.0459
 4688TIP3    H135479   3.336   1.395   3.480 -0.1664  0.6792 -1.7095
 4688TIP3    H235480   3.206   1.469   3.455 -0.8711  1.2650  2.8515
 4689TIP3   OH235481   2.077   1.425   4.379 -0.0382  0.1684 -0.8894
 4689TIP3    H135482   2.036   1.377   4.451  0.0709  0.0624 -0.8983
 4689TIP3    H235483   2.079   1.363   4.306  3.5793 -1.2065  0.1636
 4690TIP3   OH235484   5.665   3.258   0.192 -0.2294 -0.3506 -0.1989
 4690TIP3    H135485   5.668   3.169   0.158 -0.1313 -1.1817  1.8662
 4690TIP3    H235486   5.756   3.284   0.201 -0.2584  0.0465 -0.9495
 4691TIP3   OH235487   1.385   5.210  16.447  0.1475  0.1016 -0.2608
 4691TIP3    H135488   1.385   5.256  16.531 -2.8859  0.3481 -0.2806
 4691TIP3    H235489   1.359   5.121  16.469 -2.0591  0.5023 -0.9827
 4692TIP3   OH235490   5.503   2.230  12.679  0.4655  0.1378  0.4847
 4692TIP3    H135491   5.584   2.271  12.708  0.6075 -0.0143  0.3035
 4692TIP3    H235492   5.525   2.189  12.595  0.4396 -0.6547  0.8503
 4693TIP3   OH235493   1.065   3.477  12.790  0.1811  1.0131  0.0411
 4693TIP3    H135494   0.994   3.476  12.726 -0.4901 -2.1648  0.6624
 4693TIP3    H235495   1.135   3.426  12.748 -0.5805 -1.8674  1.9764
 4694TIP3   OH235496   4.493   1.161  16.862 -0.0957 -0.9329 -0.1466
 4694TIP3    H135497   4.586   1.156  16.884 -0.6983  0.7070  3.4195
 4694TIP3    H235498   4.452   1.204  16.938 -3.2713  1.7733 -3.0596
 4695TIP3   OH235499   6.124   2.832  11.672 -0.0454 -0.0677  0.3997
 4695TIP3    H135500   6.149   2.848  11.763 -0.4325  0.8421  0.3636
 4695TIP3    H235501   6.187   2.768  11.640  2.1545  1.9614  0.3631
 4696TIP3   OH235502   4.898   3.559  10.851 -0.5668  1.0685 -0.0813
 4696TIP3    H135503   4.964   3.568  10.782  0.9786 -2.3317  0.7154
 4696TIP3    H235504   4.940   3.596  10.929  0.6794 -1.2894  0.4767
 4697TIP3   OH235505   2.337   5.302   1.982  0.0458  0.0397  0.4319
 4697TIP3    H135506   2.292   5.363   2.040 -1.8609 -1.0375  0.1705
 4697TIP3    H235507   2.268   5.267   1.925  1.5065 -0.4743 -1.1211
 4698TIP3   OH235508   2.608   0.176  11.339  0.3212  0.4606 -0.4797
 4698TIP3    H135509   2.606   0.242  11.269 -0.2588  0.2455 -0.6755
 4698TIP3    H235510   2.701   0.159  11.353  0.4448 -0.2661 -1.9564
 4699TIP3   OH235511   4.987   2.495   5.911  0.2767 -0.0106 -0.3140
 4699TIP3    H135512   5.000   2.425   5.974  0.5925  1.6113  1.5328
 4699TIP3    H235513   4.892   2.503   5.903  0.0319  2.1247  2.9238
 4700TIP3   OH235514   2.017   6.645   0.091 -0.2226 -0.0296  0.2088
 4700TIP3    H135515   1.995   6.654   0.184 -0.9534 -0.3862  0.0791
 4700TIP3    H235516   2.080   6.573   0.088 -1.4994 -1.1976  0.2696
 4701TIP3   OH235517   6.082   6.714  16.083  0.6962  0.1995 -0.1205
 4701TIP3    H135518   6.059   6.693  15.992  0.3345 -1.3135  0.2947
 4701TIP3    H235519   6.000   6.709  16.131  0.9719  0.4711  0.3929
 4702TIP3   OH235520   2.937   5.212   6.418 -0.0247  0.5465  0.3799
 4702TIP3    H135521   2.901   5.164   6.343 -0.4844  1.9486 -0.3221
 4702TIP3    H235522   2.868   5.207   6.485  0.5672 -1.0960  0.9256
 4703TIP3   OH235523   0.146   1.012   4.186 -0.2486 -0.8849 -0.2843
 4703TIP3    H135524   0.231   1.003   4.142  1.9138 -1.3409  3.5228
 4703TIP3    H235525   0.119   1.102   4.166  1.4566 -0.5036 -1.0993
 4704TIP3   OH235526   2.799   0.164   1.176  0.1680  0.5410 -0.1725
 4704TIP3    H135527   2.723   0.209   1.213 -0.5142 -0.1031 -0.7542
 4704TIP3    H235528   2.776   0.150   1.084  0.3991 -0.8838 -0.0448
 4705TIP3   OH235529   6.673   4.862   0.527 -0.5597  1.0491 -0.2754
 4705TIP3    H135530   6.740   4.808   0.571 -0.8727  1.4787  0.7693
 4705TIP3    H235531   6.620   4.897   0.599 -0.9054  2.0420 -0.9943
 4706TIP3   OH235532   2.096   5.880   3.092  0.2580 -0.0285 -0.1072
 4706TIP3    H135533   2.150   5.954   3.064 -1.1631  0.9511 -0.3584
 4706TIP3    H235534   2.054   5.910   3.172  0.1770 -0.8249  0.1561
 4707TIP3   OH235535   3.744   0.150   0.091 -0.3295  0.5762 -0.0597
 4707TIP3    H135536   3.701   0.195   0.018 -2.2600  1.3330  1.4494
 4707TIP3    H235537   3.833   0.133   0.060 -1.6974 -1.2341 -3.4243
 4708TIP3   OH235538   6.521   0.801  16.030  0.3388 -0.3246  0.5212
 4708TIP3    H135539   6.497   0.760  15.947 -0.4311  2.2104 -0.6172
 4708TIP3    H235540   6.449   0.780  16.089  0.1692 -0.9298  0.1121
 4709TIP3   OH235541   2.234   5.809   2.365  0.2178 -0.2250  0.3491
 4709TIP3    H135542   2.311   5.760   2.335  1.3336  1.2292  0.7016
 4709TIP3    H235543   2.270   5.877   2.422 -1.1935  1.3949 -0.6003
 4710TIP3   OH235544   2.180   6.612  14.391  0.1661 -0.0149 -0.1745
 4710TIP3    H135545   2.087   6.602  14.371 -0.0498 -2.9986  1.7007
 4710TIP3    H235546   2.213   6.523  14.401  2.8118  0.9690  0.9899
 4711TIP3   OH235547   3.813   2.037   0.264  0.1714  0.6294 -0.2877
 4711TIP3    H135548   3.882   1.973   0.246 -1.0853 -0.4643 -1.4345
 4711TIP3    H235549   3.860   2.120   0.276  1.7519 -0.2896  0.1188
 4712TIP3   OH235550   3.426   6.077  11.517  0.3113 -0.5117 -0.0071
 4712TIP3    H135551   3.361   6.009  11.536 -0.3877 -0.5084 -2.0780
 4712TIP3    H235552   3.403   6.107  11.429  1.9046  0.9335  0.0235
 4713TIP3   OH235553   2.809   1.655  13.671 -0.3253  0.0005  0.8163
 4713TIP3    H135554   2.848   1.590  13.729 -0.1538 -0.4684  0.1798
 4713TIP3    H235555   2.845   1.636  13.585 -1.7995 -0.3254  0.2385
 4714TIP3   OH235556   3.937   6.232   2.978  0.0086  0.1162 -0.0977
 4714TIP3    H135557   3.969   6.263   3.063 -1.3256 -1.6401  1.1386
 4714TIP3    H235558   3.881   6.303   2.947  1.0544  1.0721  0.1353
 4715TIP3   OH235559   2.118   6.658  11.543  0.7104  0.4022  0.4821
 4715TIP3    H135560   2.201   6.688  11.580  0.9726 -0.4673  0.6229
 4715TIP3    H235561   2.137   6.570  11.510 -0.0181  0.4052  0.0306
 4716TIP3   OH235562   2.751   1.292  16.413 -0.7735  0.0990 -0.9041
 4716TIP3    H135563   2.727   1.382  16.435  0.7819 -0.1448  2.2705
 4716TIP3    H235564   2.675   1.240  16.438 -0.8257  0.3155 -0.6072
 4717TIP3   OH235565   3.118   6.596  13.697  0.7106 -0.5088 -0.6094
 4717TIP3    H135566   3.074   6.643  13.626  1.0462  1.1179  0.2245
 4717TIP3    H235567   3.047   6.554  13.745  0.2213  0.6646 -0.2936
 4718TIP3   OH235568   1.390   4.940  11.317 -0.6226 -0.0592 -0.3849
 4718TIP3    H135569   1.340   4.995  11.256 -1.3198  0.6343  0.7688
 4718TIP3    H235570   1.463   4.994  11.344 -1.6447  0.5855  1.2239
 4719TIP3   OH235571   0.113   1.529  10.478 -0.2148  0.0044 -0.1175
 4719TIP3    H135572   0.185   1.592  10.478 -0.5079  0.4296 -2.3422
 4719TIP3    H235573   0.041   1.575  10.434 -0.6559 -1.6240 -1.1962
 4720TIP3   OH235574   1.369   4.058   6.510 -0.4055 -0.2454  0.9775
 4720TIP3    H135575   1.375   3.962   6.514 -2.6897 -0.4944  0.1044
 4720TIP3    H235576   1.278   4.077   6.534 -0.1779  1.6590  0.4498
 4721TIP3   OH235577   5.153   4.889  14.050 -0.5164 -0.1658 -0.0678
 4721TIP3    H135578   5.239   4.922  14.026 -1.2041  1.7149 -0.1601
 4721TIP3    H235579   5.152   4.892  14.146 -0.3420 -0.5800 -0.0521
 4722TIP3   OH235580   1.445   6.538  14.581 -0.2293 -0.4512 -0.1109
 4722TIP3    H135581   1.370   6.597  14.590 -1.0831 -1.6453  1.0522
 4722TIP3    H235582   1.439   6.505  14.491 -1.5166 -1.0424  0.1760
 4723TIP3   OH235583   5.154   2.289   5.749 -0.4139  0.5704  0.3301
 4723TIP3    H135584   5.098   2.334   5.813 -0.0799 -1.0265  1.8415
 4723TIP3    H235585   5.095   2.227   5.705 -0.0256 -0.7439  1.5592
 4724TIP3   OH235586   1.835   4.417   3.021 -0.1889 -0.4378 -0.8345
 4724TIP3    H135587   1.846   4.343   2.961  2.8097 -1.7065  1.0234
 4724TIP3    H235588   1.921   4.427   3.062 -0.7367  3.5270 -0.2674
 4725TIP3   OH235589   1.786   3.599   0.710  0.1202  0.2125  0.3319
 4725TIP3    H135590   1.693   3.582   0.701  0.1727  0.3757 -0.6306
 4725TIP3    H235591   1.829   3.529   0.660  0.4993  0.3680  0.4322
 4726TIP3   OH235592   0.610   2.679   3.400  0.0704 -0.0804  0.0166
 4726TIP3    H135593   0.568   2.665   3.316  2.2242 -0.8965 -0.9988
 4726TIP3    H235594   0.575   2.763   3.431 -0.1232  0.6795 -2.1081
 4727TIP3   OH235595   0.172   1.337   0.106  0.0546 -0.6889 -0.1147
 4727TIP3    H135596   0.174   1.425   0.070 -1.9852 -0.7705 -0.5474
 4727TIP3    H235597   0.115   1.343   0.183 -0.2009 -1.6301 -0.2143
 4728TIP3   OH235598   4.048   0.386   3.358  0.5037  0.4044 -0.8600
 4728TIP3    H135599   3.979   0.436   3.402  1.7460  2.1624 -0.8397
 4728TIP3    H235600   4.107   0.360   3.428  1.3539  1.3683 -1.2013
 4729TIP3   OH235601   1.606   1.182   3.665  0.0906 -0.1752 -0.4536
 4729TIP3    H135602   1.663   1.199   3.740 -0.9952  0.8937  0.1677
 4729TIP3    H235603   1.571   1.268   3.642 -1.9028 -0.9136 -0.2942
 4730TIP3   OH235604   5.301   0.770   0.924  0.3274  0.9972  0.4406
 4730TIP3    H135605   5.321   0.808   1.010  0.8479 -1.0201  1.2622
 4730TIP3    H235606   5.387   0.759   0.883  0.3105 -0.4205  0.7457
 4731TIP3   OH235607   5.539   5.968  13.346  0.4010  0.1939 -0.0063
 4731TIP3    H135608   5.478   5.967  13.419  0.8252  1.5231  0.4038
 4731TIP3    H235609   5.556   5.876  13.326 -1.1579 -0.1906  0.3396
 4732TIP3   OH235610   5.852   4.964   1.481 -0.2437 -0.1805 -0.5049
 4732TIP3    H135611   5.914   5.034   1.499  0.4084 -0.7117 -0.6320
 4732TIP3    H235612   5.786   5.003   1.424  0.0853  0.3405 -0.5324
 4733TIP3   OH235613   1.119   4.519  17.150 -0.1704  0.1943  0.0779
 4733TIP3    H135614   1.033   4.518  17.191  0.5102 -0.2272  1.5620
 4733TIP3    H235615   1.177   4.558  17.216  1.5404 -3.1819  0.8093
 4734TIP3   OH235616   2.868   2.419   0.451  0.7563 -0.5233 -0.4905
 4734TIP3    H135617   2.873   2.504   0.407  0.3591 -0.8983 -1.2790
 4734TIP3    H235618   2.930   2.426   0.524  1.1846  0.2215 -0.9144
 4735TIP3   OH235619   3.358   1.735   3.661  0.4962 -0.9350 -0.2366
 4735TIP3    H135620   3.364   1.667   3.729 -0.2819  1.3879  2.3403
 4735TIP3    H235621   3.442   1.780   3.665  0.5213 -0.9075 -0.9896
 4736TIP3   OH235622   2.220   5.240  16.415  0.3768 -0.5609  0.4229
 4736TIP3    H135623   2.125   5.227  16.415  0.3962 -0.7541 -0.0839
 4736TIP3    H235624   2.254   5.172  16.473 -0.0111  1.4869  3.2148
 4737TIP3   OH235625   4.398   3.920  11.864 -0.1126 -0.4053 -0.2721
 4737TIP3    H135626   4.322   3.879  11.905 -0.5509 -2.5044 -2.9664
 4737TIP3    H235627   4.473   3.875  11.903 -0.3765 -0.4206  0.2265
 4738TIP3   OH235628   6.633   5.897  12.554  0.3441 -0.4081 -0.4986
 4738TIP3    H135629   6.713   5.947  12.536  0.6112 -0.2645  0.9577
 4738TIP3    H235630   6.649   5.857  12.639 -2.1121  1.6614  1.0743
 4739TIP3   OH235631   5.786   0.889  11.228 -0.5019  0.2090  0.3238
 4739TIP3    H135632   5.812   0.803  11.261 -0.8694 -0.1196 -0.2257
 4739TIP3    H235633   5.842   0.903  11.152 -0.0138  0.7376  0.7672
 4740TIP3   OH235634   3.471   2.260   1.113 -0.1769  0.2500  0.3632
 4740TIP3    H135635   3.454   2.325   1.181  1.6567  0.3015  0.8307
 4740TIP3    H235636   3.540   2.299   1.059  0.3040 -0.8999  0.1075
 4741TIP3   OH235637   5.892   4.506  11.792  0.1322  0.2086 -0.4562
 4741TIP3    H135638   5.882   4.462  11.876 -2.9122 -0.0813 -0.8554
 4741TIP3    H235639   5.881   4.436  11.727 -0.0808  0.8183 -1.0848
 4742TIP3   OH235640   0.438   0.171   2.081  0.1563  0.3436 -0.2100
 4742TIP3    H135641   0.364   0.231   2.087 -0.5582 -0.5257 -0.2584
 4742TIP3    H235642   0.423   0.122   2.001  1.7149  1.3587 -1.1813
 4743TIP3   OH235643   1.598   5.585   6.069  0.1820  0.0766  0.0021
 4743TIP3    H135644   1.601   5.584   6.165  0.7421  1.6735  0.0245
 4743TIP3    H235645   1.523   5.529   6.047 -1.6398  1.7797  1.4737
 4744TIP3   OH235646   0.272   0.423  13.696 -0.3840 -0.3926 -0.5748
 4744TIP3    H135647   0.222   0.351  13.658 -0.1502  0.4807 -2.6958
 4744TIP3    H235648   0.222   0.502  13.675 -0.3038  0.1513  1.1295
 4745TIP3   OH235649   2.951   6.147   2.458 -0.0852 -0.2199  0.7103
 4745TIP3    H135650   2.885   6.079   2.459 -0.9238  0.5505  2.1829
 4745TIP3    H235651   2.998   6.135   2.375 -3.1952  0.3132 -1.2779
 4746TIP3   OH235652   3.962   0.327   1.536  0.1146 -0.7307 -0.0985
 4746TIP3    H135653   3.999   0.241   1.513  1.9421  0.1005 -0.4095
 4746TIP3    H235654   3.997   0.346   1.623  0.1851 -0.0613 -0.2678
 4747TIP3   OH235655   0.478   0.106   4.185  0.0389  0.7513  0.3409
 4747TIP3    H135656   0.450   0.046   4.116 -0.7337  1.9317 -0.4154
 4747TIP3    H235657   0.456   0.193   4.151  2.0017  1.5524  0.9848
 4748TIP3   OH235658   3.945   1.117  15.755 -0.0004  0.6958  0.0450
 4748TIP3    H135659   3.876   1.084  15.813 -0.5390 -0.6789 -1.3011
 4748TIP3    H235660   3.953   1.210  15.778 -1.7256  0.7009  0.7999
 4749TIP3   OH235661   0.054   2.229  11.650  0.0937 -0.2754  0.6049
 4749TIP3    H135662   0.136   2.279  11.659 -0.1914  0.3837 -0.2967
 4749TIP3    H235663   0.076   2.158  11.589 -0.2421  0.5071 -0.4685
 4750TIP3   OH235664   0.299   2.942  14.484 -0.3187  0.1953 -0.3181
 4750TIP3    H135665   0.242   2.971  14.413 -0.5029  1.7915  0.4441
 4750TIP3    H235666   0.316   2.849  14.465  0.3032  0.7609 -2.8646
 4751TIP3   OH235667   6.500   3.805   1.907  0.2886  0.5410 -0.4161
 4751TIP3    H135668   6.416   3.806   1.952  0.5860  0.2663  0.1511
 4751TIP3    H235669   6.478   3.818   1.814 -0.3946  0.2034 -0.3034
 4752TIP3   OH235670   1.366   3.048   5.913 -0.1579  0.2266  0.1688
 4752TIP3    H135671   1.277   3.053   5.879 -0.2169  1.4894  0.4453
 4752TIP3    H235672   1.356   3.040   6.008  0.0013  0.9209  0.2548
 4753TIP3   OH235673   3.493   1.223   5.111  0.6970 -0.3610 -0.3547
 4753TIP3    H135674   3.538   1.239   5.029 -1.5507  1.2626 -1.3857
 4753TIP3    H235675   3.499   1.306   5.159  0.4759 -0.7209  0.3143
 4754TIP3   OH235676   3.617   0.628   1.612  0.4036 -0.0399  0.2209
 4754TIP3    H135677   3.672   0.613   1.535  1.2802 -1.4768  1.0806
 4754TIP3    H235678   3.527   0.626   1.578  0.8219  0.6805 -0.9551
 4755TIP3   OH235679   1.146   3.277  12.004 -0.2510  0.0370 -0.2947
 4755TIP3    H135680   1.198   3.204  12.035 -0.5263 -0.2422 -0.4867
 4755TIP3    H235681   1.080   3.238  11.947 -2.0774  0.1063  1.6505
 4756TIP3   OH235682   1.099   4.414  16.759 -0.1228  0.4729  0.3691
 4756TIP3    H135683   1.112   4.502  16.794  0.0904  0.8438 -0.6070
 4756TIP3    H235684   1.060   4.365  16.831  3.0765  0.3567  2.1895
 4757TIP3   OH235685   1.334   1.096   2.264  0.4328 -1.0735 -0.0201
 4757TIP3    H135686   1.341   1.182   2.305 -1.3613 -0.2084 -1.3705
 4757TIP3    H235687   1.295   1.113   2.178 -0.0444 -3.2366 -0.3087
 4758TIP3   OH235688   4.347   2.959   5.651  0.3491 -0.0549 -0.7926
 4758TIP3    H135689   4.282   2.895   5.624  2.3072 -2.3272 -0.4403
 4758TIP3    H235690   4.366   2.938   5.743  2.2691 -0.1304 -1.1627
 4759TIP3   OH235691   2.949   5.154   1.614 -0.8194  0.4027  1.0927
 4759TIP3    H135692   2.879   5.090   1.619  0.4670 -1.3140 -1.2995
 4759TIP3    H235693   3.016   5.113   1.560  0.5021  3.3903  0.2474
 4760TIP3   OH235694   0.621   4.162   4.918  0.4342  0.4396 -0.3402
 4760TIP3    H135695   0.528   4.172   4.900 -0.0170  0.2308  1.6354
 4760TIP3    H235696   0.625   4.094   4.986  1.9903  0.7331 -0.0995
 4761TIP3   OH235697   4.814   5.759   4.761  0.3887 -0.0285 -0.5780
 4761TIP3    H135698   4.770   5.826   4.812 -1.6586 -2.0173  0.4315
 4761TIP3    H235699   4.899   5.748   4.804 -0.5268 -0.3068  1.2441
 4762TIP3   OH235700   2.842   1.839  12.254 -0.0165  0.4783 -0.2645
 4762TIP3    H135701   2.834   1.854  12.348 -0.2873 -0.4905 -0.1161
 4762TIP3    H235702   2.810   1.749  12.241 -1.3263  1.0647 -1.4773
 4763TIP3   OH235703   2.192   6.301  15.596 -0.0890  0.1976  0.3172
 4763TIP3    H135704   2.244   6.371  15.634 -1.2925  1.0928  0.3650
 4763TIP3    H235705   2.218   6.299  15.504 -0.4741  1.1028  0.1857
 4764TIP3   OH235706   3.810   0.263  10.923  0.3905 -0.1633  0.0126
 4764TIP3    H135707   3.783   0.253  11.014  0.9680  1.1854  0.3570
 4764TIP3    H235708   3.898   0.224  10.919  0.1559 -0.6887 -0.0978
 4765TIP3   OH235709   4.092   0.680   0.764  0.1480 -0.1768  0.1035
 4765TIP3    H135710   4.085   0.768   0.801 -2.3472 -0.2558  0.0280
 4765TIP3    H235711   4.155   0.635   0.821  2.1480  1.8396 -0.3818
 4766TIP3   OH235712   1.218   2.505  12.689 -0.1368  0.2938 -0.6310
 4766TIP3    H135713   1.258   2.419  12.678 -0.6361 -0.8706  4.4993
 4766TIP3    H235714   1.124   2.490  12.681 -0.1470  1.0943 -2.7258
 4767TIP3   OH235715   1.887   6.542  11.821  0.5272  0.0249 -0.6696
 4767TIP3    H135716   1.888   6.505  11.733 -0.8472 -1.5483 -0.0971
 4767TIP3    H235717   1.794   6.551  11.842  0.8259  2.2605 -0.0920
 4768TIP3   OH235718   3.024   3.949   3.676  0.3431  0.7375  0.2835
 4768TIP3    H135719   3.019   4.000   3.756  2.1778 -0.0373  0.9530
 4768TIP3    H235720   2.939   3.905   3.670  0.0026  1.1917  1.5279
 4769TIP3   OH235721   4.560   6.760   5.824  0.4835  0.3551  0.1786
 4769TIP3    H135722   4.650   6.727   5.824  0.9694  1.6307  0.6263
 4769TIP3    H235723   4.524   6.732   5.740  0.9178 -1.1307  0.4577
 4770TIP3   OH235724   3.474   4.153   3.692  0.4639  0.4345 -0.0366
 4770TIP3    H135725   3.542   4.086   3.694  0.3088  0.2768  0.0669
 4770TIP3    H235726   3.447   4.156   3.601  0.5195  0.4026 -0.0543
 4771TIP3   OH235727   1.226   3.405  13.892 -0.5118 -0.1492  0.3010
 4771TIP3    H135728   1.176   3.474  13.848 -0.8991 -0.3138  0.4739
 4771TIP3    H235729   1.169   3.376  13.963 -0.9903 -1.6480 -0.6548
 4772TIP3   OH235730   4.773   4.756   5.667 -0.1978  0.3517  0.8511
 4772TIP3    H135731   4.692   4.784   5.624 -1.6090 -0.7557  2.6023
 4772TIP3    H235732   4.748   4.744   5.759  1.3548 -2.2490  1.0341
 4773TIP3   OH235733   5.304   1.786  11.602  0.0291 -0.2073  0.4310
 4773TIP3    H135734   5.283   1.880  11.597  0.0876  0.0626  3.5591
 4773TIP3    H235735   5.227   1.747  11.643  0.6362 -1.2898  0.5530
 4774TIP3   OH235736   2.214   4.752   0.005 -0.4609  0.7760  0.1296
 4774TIP3    H135737   2.148   4.821   0.008  0.3677  1.5621  1.6954
 4774TIP3    H235738   2.239   4.739   0.097  0.9715 -0.0641 -0.3457
 4775TIP3   OH235739   1.309   3.323   2.780  0.2420  0.0973  0.3946
 4775TIP3    H135740   1.312   3.302   2.686  0.1896 -0.9997  0.6273
 4775TIP3    H235741   1.391   3.369   2.796  0.0385  0.7183 -0.2864
 4776TIP3   OH235742   6.377   4.542   5.396  0.1017 -0.1831 -0.1867
 4776TIP3    H135743   6.336   4.511   5.315  0.0438  1.0793 -0.6624
 4776TIP3    H235744   6.304   4.574   5.449  0.1034 -1.2832  0.5259
 4777TIP3   OH235745   2.048   5.554  14.645  0.3000  0.6509 -0.2434
 4777TIP3    H135746   2.037   5.481  14.585  0.3554  0.3154  0.1516
 4777TIP3    H235747   1.979   5.542  14.711  0.8657  0.4567  0.3190
 4778TIP3   OH235748   3.165   4.589   0.111 -0.0006 -0.3995 -0.4135
 4778TIP3    H135749   3.117   4.507   0.110 -0.8854  0.0690  0.7358
 4778TIP3    H235750   3.179   4.607   0.204  0.5391  0.5427 -0.6655
 4779TIP3   OH235751   5.399   2.157  11.156 -0.7518 -0.3604  0.4008
 4779TIP3    H135752   5.464   2.221  11.130 -0.1050 -1.1971 -0.0882
 4779TIP3    H235753   5.387   2.173  11.250  2.6686 -2.2825  1.3546
 4780TIP3   OH235754   6.537   5.454  11.821 -0.0833 -0.3429 -0.6619
 4780TIP3    H135755   6.504   5.526  11.768 -0.3779 -0.1579 -0.2272
 4780TIP3    H235756   6.514   5.476  11.911  1.4017 -0.1092 -0.3052
 4781TIP3   OH235757   4.097   0.128  15.496 -0.1347 -0.0711  0.4342
 4781TIP3    H135758   4.025   0.182  15.463 -0.4031  1.3371  3.0576
 4781TIP3    H235759   4.054   0.060  15.547  0.3611 -0.0530  0.8765
 4782TIP3   OH235760   5.832   2.589   0.450  1.0115 -0.1695 -0.1102
 4782TIP3    H135761   5.903   2.543   0.404  2.1012  0.3232  0.9995
 4782TIP3    H235762   5.788   2.520   0.500  1.8886 -0.2304  0.6187
 4783TIP3   OH235763   4.980   0.522  12.402 -0.5898 -0.0406  0.0237
 4783TIP3    H135764   4.985   0.507  12.496  0.3241 -0.1691 -0.0361
 4783TIP3    H235765   4.922   0.598  12.393 -0.0494  0.4772  0.7517
 4784TIP3   OH235766   3.924   5.471   3.711  0.2869 -0.2812  0.0708
 4784TIP3    H135767   3.964   5.424   3.784 -2.4829 -2.1732  0.5520
 4784TIP3    H235768   3.858   5.527   3.751  1.0800  1.3718 -0.8067
 4785TIP3   OH235769   4.046   5.718   6.390  0.4106 -0.2967 -0.0984
 4785TIP3    H135770   4.023   5.705   6.298 -0.4689  0.6116 -0.0240
 4785TIP3    H235771   4.110   5.650   6.408  0.2996 -0.7436 -1.2743
 4786TIP3   OH235772   1.286   2.805   2.414  0.7059 -0.5552  0.3429
 4786TIP3    H135773   1.196   2.801   2.445  0.9541  0.4935  1.2411
 4786TIP3    H235774   1.293   2.890   2.370  0.5083 -1.7670 -2.2667
 4787TIP3   OH235775   1.150   1.987   4.913 -0.3270  0.1332  0.4136
 4787TIP3    H135776   1.147   1.961   4.821 -1.1503  0.2938  0.3822
 4787TIP3    H235777   1.163   1.905   4.961 -3.4409 -0.5402  0.3565
 4788TIP3   OH235778   2.346   3.853  16.888  0.3159  0.4160 -0.7357
 4788TIP3    H135779   2.259   3.890  16.906 -0.0547 -0.0679 -1.4563
 4788TIP3    H235780   2.327   3.773  16.839  1.1749  0.2509 -0.8023
 4789TIP3   OH235781   5.325   6.113  10.576 -0.6426  0.4717  0.4356
 4789TIP3    H135782   5.247   6.098  10.524 -0.3163 -0.7532  0.2676
 4789TIP3    H235783   5.364   6.193  10.539 -0.6127 -0.1714 -0.9588
 4790TIP3   OH235784   2.177   1.418   5.442 -0.1147 -0.3802 -0.3469
 4790TIP3    H135785   2.121   1.412   5.365 -1.1956  0.3215  0.3562
 4790TIP3    H235786   2.151   1.500   5.484 -0.6461 -1.4646  1.5641
 4791TIP3   OH235787   0.155   6.235   1.350  0.1640  0.8060  0.3550
 4791TIP3    H135788   0.116   6.312   1.308 -1.8720  0.1732  0.9893
 4791TIP3    H235789   0.227   6.271   1.402 -1.3325  2.4773  1.4015
 4792TIP3   OH235790   3.885   0.704   4.620  0.5636 -0.0040 -0.1483
 4792TIP3    H135791   3.824   0.652   4.566 -0.5548  0.0398  1.0208
 4792TIP3    H235792   3.969   0.660   4.609 -0.3704 -2.2318  0.9552
 4793TIP3   OH235793   4.342   3.975   0.193  0.1411 -0.2261 -0.5786
 4793TIP3    H135794   4.279   4.026   0.143  0.2331 -0.4769 -0.9576
 4793TIP3    H235795   4.427   3.996   0.154  0.2934  0.1012 -0.0802
 4794TIP3   OH235796   4.003   0.693  15.919  0.5328  0.3441  0.4760
 4794TIP3    H135797   3.948   0.688  15.998  0.8819 -3.3053  0.6578
 4794TIP3    H235798   3.943   0.678  15.847  0.7566 -0.1639  0.3901
 4795TIP3   OH235799   0.921   3.820   3.275 -0.6743 -0.5126 -0.0955
 4795TIP3    H135800   0.896   3.769   3.352  4.8068 -0.9708  1.7398
 4795TIP3    H235801   0.928   3.910   3.306  0.8371 -0.5747 -0.1946
 4796TIP3   OH235802   2.967   4.615  11.972 -0.0798  0.1322 -0.8212
 4796TIP3    H135803   3.062   4.621  11.978 -0.0693 -1.0472  0.8196
 4796TIP3    H235804   2.935   4.659  12.051 -0.9546  1.0192 -1.6313
 4797TIP3   OH235805   0.818   3.771   6.547 -0.1681 -0.4145  0.6052
 4797TIP3    H135806   0.823   3.850   6.493 -2.1930 -0.9102 -0.3813
 4797TIP3    H235807   0.892   3.779   6.608  0.7001  1.3715 -0.6054
 4798TIP3   OH235808   4.061   3.256  14.744 -0.0552 -0.0846  0.1332
 4798TIP3    H135809   4.095   3.247  14.833  1.6415  0.1318 -0.4696
 4798TIP3    H235810   3.966   3.251  14.755  0.1498 -1.0916  1.8282
 4799TIP3   OH235811   6.667   0.927  15.082 -0.2897  0.2229  0.2808
 4799TIP3    H135812   6.623   0.943  15.165 -0.0810  0.4953  0.3398
 4799TIP3    H235813   6.644   0.837  15.059 -1.4295  0.5735 -0.0246
 4800TIP3   OH235814   4.256   0.029  14.007  0.3833 -0.2112 -0.2175
 4800TIP3    H135815   4.259   0.069  13.920 -0.1996  0.3070 -0.0071
 4800TIP3    H235816   4.192  -0.042  13.998  3.3579 -2.9906 -1.3322
 4801TIP3   OH235817   5.771   1.809  14.409  0.1070  0.4025 -0.7457
 4801TIP3    H135818   5.800   1.890  14.451 -2.1582  1.0740 -0.3505
 4801TIP3    H235819   5.710   1.770  14.471  1.4666 -1.8967 -0.7350
 4802TIP3   OH235820   2.690   5.482  11.576 -0.3796 -0.0113  0.1182
 4802TIP3    H135821   2.770   5.440  11.545 -0.1170  0.1005  0.6250
 4802TIP3    H235822   2.628   5.471  11.505 -0.7423 -2.4116  0.7368
 4803TIP3   OH235823   2.422   3.845   4.256 -0.0337  0.3275  0.1566
 4803TIP3    H135824   2.385   3.924   4.216  0.2316  0.2980 -0.1486
 4803TIP3    H235825   2.361   3.775   4.230 -1.3303  0.7033  1.9780
 4804TIP3   OH235826   2.627   1.695   5.310  0.3312  0.0480  0.4988
 4804TIP3    H135827   2.657   1.652   5.390 -1.5897  1.8357  2.2796
 4804TIP3    H235828   2.696   1.759   5.290  0.7004 -0.2336  0.8538
 4805TIP3   OH235829   2.877   4.636   2.191 -0.2751 -0.4511  0.2419
 4805TIP3    H135830   2.876   4.540   2.191 -1.1772 -0.4898 -1.3605
 4805TIP3    H235831   2.835   4.661   2.273 -0.0888 -1.4152  0.6482
 4806TIP3   OH235832   6.253   0.221   5.797  0.1889  0.1017  0.0951
 4806TIP3    H135833   6.325   0.159   5.790 -1.0875 -1.2954 -2.7891
 4806TIP3    H235834   6.175   0.166   5.806 -0.7305  1.4386  0.5879
 4807TIP3   OH235835   0.677   5.156   1.512  0.1045  0.2096 -0.1560
 4807TIP3    H135836   0.647   5.088   1.451  2.7622 -1.6020  0.4086
 4807TIP3    H235837   0.714   5.224   1.456 -0.0392 -0.1171 -0.6578
 4808TIP3   OH235838   6.285   6.205  11.595  0.1547 -0.1349 -0.4325
 4808TIP3    H135839   6.236   6.134  11.554  1.6868 -0.7941 -1.2091
 4808TIP3    H235840   6.233   6.283  11.576 -1.5725 -1.0127  0.4669
 4809TIP3   OH235841   5.307   0.580   6.305 -0.2607 -0.1048 -0.0068
 4809TIP3    H135842   5.302   0.486   6.292 -3.0308 -0.1942  0.9370
 4809TIP3    H235843   5.215   0.609   6.306  0.3000  2.0934  2.9693
 4810TIP3   OH235844   3.533   3.309   4.181  0.8072 -0.1417  0.1858
 4810TIP3    H135845   3.513   3.310   4.088 -0.0097 -0.0159  0.3572
 4810TIP3    H235846   3.479   3.379   4.218  1.7265  0.3560  0.6378
 4811TIP3   OH235847   2.329   3.420  15.307  0.0520  0.5069  0.1683
 4811TIP3    H135848   2.279   3.378  15.376  0.7626 -1.3662 -0.3825
 4811TIP3    H235849   2.419   3.390  15.321  0.0858 -0.6207 -1.9914
 4812TIP3   OH235850   6.089   2.644   2.702 -0.0864 -0.3442 -0.2642
 4812TIP3    H135851   6.086   2.576   2.635 -2.0656  0.7358 -1.3336
 4812TIP3    H235852   6.138   2.715   2.661 -0.8384  0.1127 -0.3743
 4813TIP3   OH235853   1.611   0.999   0.622  0.5755  0.0364  0.2819
 4813TIP3    H135854   1.669   0.936   0.666  1.0481  0.6281  0.5168
 4813TIP3    H235855   1.563   1.041   0.693 -1.4649 -1.6597  0.0174
 4814TIP3   OH235856   1.523   2.321   5.858 -0.0304 -0.1811 -0.1232
 4814TIP3    H135857   1.591   2.372   5.813  0.6838 -0.9208  0.0966
 4814TIP3    H235858   1.480   2.385   5.914  0.1934  0.3935 -0.5851
 4815TIP3   OH235859   3.897   6.704  15.470 -0.6228  0.1909  0.1766
 4815TIP3    H135860   3.881   6.615  15.439 -0.5615  0.3578 -0.3398
 4815TIP3    H235861   3.861   6.761  15.402  1.1826  0.5780 -0.5350
 4816TIP3   OH235862   1.653   5.185  16.444 -0.3922  0.1362 -0.4851
 4816TIP3    H135863   1.670   5.156  16.354 -1.3761  0.8190 -0.9179
 4816TIP3    H235864   1.559   5.203  16.446  0.1207  3.5804 -0.4116
 4817TIP3   OH235865   0.710   5.618  16.277  0.1477 -0.2165 -0.0559
 4817TIP3    H135866   0.690   5.524  16.281  0.6266 -0.3404 -0.4430
 4817TIP3    H235867   0.758   5.636  16.357 -0.7333 -0.1023  0.4604
 4818TIP3   OH235868   2.058   1.123  11.209 -0.4071 -0.4783 -0.5369
 4818TIP3    H135869   2.106   1.045  11.237  0.8847  0.6566  0.6308
 4818TIP3    H235870   2.127   1.187  11.187 -1.4077  0.5616 -0.7455
 4819TIP3   OH235871   6.135   3.845  16.963  0.0175  0.6132  0.0354
 4819TIP3    H135872   6.194   3.788  16.914  1.4080 -0.1218  2.3764
 4819TIP3    H235873   6.049   3.806  16.953  0.8270 -1.5284  0.9562
 4820TIP3   OH235874   1.731   2.035   3.646  0.2674  0.0769 -0.0504
 4820TIP3    H135875   1.699   2.044   3.736 -0.5220  0.6247 -0.3762
 4820TIP3    H235876   1.819   2.071   3.648  0.2817  0.0287  0.5128
 4821TIP3   OH235877   3.622   3.183  16.104 -0.5134  0.1763  0.0708
 4821TIP3    H135878   3.689   3.207  16.040 -0.5644 -3.0491 -1.3725
 4821TIP3    H235879   3.541   3.222  16.070 -0.1759  0.2507 -0.6679
 4822TIP3   OH235880   5.184   0.667  16.893 -0.1221  0.0051  0.1487
 4822TIP3    H135881   5.195   0.589  16.838 -0.5791  0.3622 -0.4637
 4822TIP3    H235882   5.097   0.700  16.870 -0.1177  0.4432  0.7370
 4823TIP3   OH235883   1.654   2.500   0.559  0.0337 -0.6369  0.4032
 4823TIP3    H135884   1.651   2.552   0.639 -0.4109 -0.0139 -0.0114
 4823TIP3    H235885   1.730   2.533   0.511 -0.4925 -0.0560 -0.0556
 4824TIP3   OH235886   5.498   3.266   1.997  0.0798  0.1556  0.3281
 4824TIP3    H135887   5.543   3.293   2.076  0.3642 -1.1818  0.6484
 4824TIP3    H235888   5.415   3.229   2.027 -0.2065  0.4494 -0.0755
 4825TIP3   OH235889   5.099   1.026  10.977 -0.3489  0.5948 -0.8474
 4825TIP3    H135890   5.182   0.979  10.982 -1.8156 -2.2449 -1.0536
 4825TIP3    H235891   5.099   1.067  10.890  0.5046 -0.0619 -1.1633
 4826TIP3   OH235892   1.104   1.139   1.494  0.3682  0.1538  0.0325
 4826TIP3    H135893   1.198   1.123   1.504  0.3864  0.6878  0.7332
 4826TIP3    H235894   1.063   1.055   1.516  0.6732 -0.0594 -0.2016
 4827TIP3   OH235895   5.982   5.806  11.198  0.1747  0.1634  0.0900
 4827TIP3    H135896   6.012   5.725  11.240 -3.3677 -1.0528  0.6572
 4827TIP3    H235897   6.058   5.864  11.201  2.2534 -2.3890  1.6005
 4828TIP3   OH235898   1.470   0.506  12.720  0.3078  0.1236 -0.4712
 4828TIP3    H135899   1.516   0.513  12.803  0.6625 -0.4580 -0.6145
 4828TIP3    H235900   1.454   0.412  12.709  0.3526  0.1866 -1.1066
 4829TIP3   OH235901   5.908   3.237  12.305  0.5277  0.3638  0.4769
 4829TIP3    H135902   6.003   3.241  12.308  0.5610 -0.4827  2.2406
 4829TIP3    H235903   5.881   3.315  12.257  2.1123  0.2987 -0.5834
 4830TIP3   OH235904   3.025   3.399  10.867  0.8539  0.2057 -0.1195
 4830TIP3    H135905   3.067   3.474  10.825  3.3198 -0.3232  1.2363
 4830TIP3    H235906   3.057   3.323  10.817  1.8219 -0.2302  1.1285
 4831TIP3   OH235907   6.522   1.804  14.538 -0.6610 -0.6263  0.3651
 4831TIP3    H135908   6.429   1.824  14.550 -0.7684 -0.6306 -0.4042
 4831TIP3    H235909   6.566   1.888  14.550 -0.8460 -0.4602 -0.0997
 4832TIP3   OH235910   0.039   0.226   4.347 -0.2088 -0.4365 -0.7515
 4832TIP3    H135911   0.019   0.133   4.351 -1.8889 -0.0838 -0.4367
 4832TIP3    H235912   0.077   0.246   4.432 -1.3812 -0.5196 -0.1901
 4833TIP3   OH235913   3.413   6.116  17.071  0.0311 -0.2803  0.4972
 4833TIP3    H135914   3.420   6.181  17.141 -0.9349 -0.7171  1.0138
 4833TIP3    H235915   3.496   6.067  17.076  1.4529  1.8404 -0.8964
 4834TIP3   OH235916   4.388   0.855  15.893  0.4316 -0.0852 -0.1317
 4834TIP3    H135917   4.400   0.912  15.968  0.0686  0.3800 -0.4213
 4834TIP3    H235918   4.318   0.795  15.919 -0.2333  0.5717 -0.3740
 4835TIP3   OH235919   6.178   6.548   4.602  0.0813  1.0243  0.2218
 4835TIP3    H135920   6.096   6.524   4.646 -0.2578  1.2265 -0.2857
 4835TIP3    H235921   6.164   6.522   4.511 -0.0531  2.5219 -0.2173
 4836TIP3   OH235922   2.721   3.060   4.215  0.2818 -0.3283  0.1952
 4836TIP3    H135923   2.712   2.981   4.269  0.3696  0.2491  1.0669
 4836TIP3    H235924   2.632   3.078   4.184 -0.1040  0.3115  1.5749
 4837TIP3   OH235925   4.198   0.844   4.016 -0.3658  0.1329 -0.0743
 4837TIP3    H135926   4.122   0.862   3.961 -0.2378  1.4474  0.1541
 4837TIP3    H235927   4.162   0.803   4.094 -1.0727  2.1334  0.7211
 4838TIP3   OH235928   1.257   0.260  15.903  1.0001  0.0134  0.2146
 4838TIP3    H135929   1.328   0.210  15.862 -0.2276  0.8533 -3.1886
 4838TIP3    H235930   1.191   0.194  15.925  1.0133 -0.3118 -0.6758
 4839TIP3   OH235931   4.195   1.136   4.231  0.2013  0.6233  0.1513
 4839TIP3    H135932   4.132   1.182   4.176  1.9038  2.3708 -0.4096
 4839TIP3    H235933   4.239   1.076   4.172 -1.4390 -1.2601  0.7183
 4840TIP3   OH235934   6.755   1.698  12.249  0.3106 -0.3272 -0.2770
 4840TIP3    H135935   6.841   1.701  12.291 -1.0281  1.3627  2.5792
 4840TIP3    H235936   6.775   1.699  12.155  3.4391 -3.3945  0.1556
 4841TIP3   OH235937   4.607   5.338  12.149 -0.3581 -0.2420 -0.0860
 4841TIP3    H135938   4.540   5.406  12.136  0.8796  0.7913 -1.4069
 4841TIP3    H235939   4.623   5.303  12.061  1.3911  0.1020  0.0552
 4842TIP3   OH235940   0.954   2.309   2.105 -0.6479  0.3867  0.1986
 4842TIP3    H135941   0.966   2.230   2.051  1.1459  0.8967 -0.2308
 4842TIP3    H235942   0.885   2.285   2.167 -0.5507 -1.3221 -0.2896
 4843TIP3   OH235943   3.107   3.412  14.437  0.1523 -0.3834 -0.0144
 4843TIP3    H135944   3.079   3.373  14.354 -2.9372 -1.2042  1.2619
 4843TIP3    H235945   3.165   3.347  14.476  0.3692 -0.6841 -0.8220
 4844TIP3   OH235946   3.119   5.105  11.847  0.6028 -0.1692  0.6129
 4844TIP3    H135947   3.131   5.195  11.878  1.1555 -0.6906  2.0063
 4844TIP3    H235948   3.133   5.051  11.925 -0.1271 -1.4473 -0.1068
 4845TIP3   OH235949   0.855   6.773   1.107  0.2130  0.3597 -0.6148
 4845TIP3    H135950   0.838   6.867   1.096  0.1348  0.4277  0.0391
 4845TIP3    H235951   0.857   6.739   1.018 -1.6741  0.6447 -0.8061
 4846TIP3   OH235952   4.811   1.945  14.885 -0.2208  0.0904  0.4676
 4846TIP3    H135953   4.865   1.919  14.960 -0.0544 -0.4477  0.1745
 4846TIP3    H235954   4.760   2.020  14.916  0.6619  0.5796  0.7668
 4847TIP3   OH235955   3.975   1.347  13.617  0.1997  0.5404 -0.5239
 4847TIP3    H135956   3.914   1.312  13.682  0.0704  0.2152 -0.8150
 4847TIP3    H235957   3.948   1.438  13.605 -0.3475  0.3489 -0.7806
 4848TIP3   OH235958   0.879   3.210   4.700  0.2627  0.1026  0.4505
 4848TIP3    H135959   0.925   3.154   4.639 -2.3545 -3.2241  1.2194
 4848TIP3    H235960   0.848   3.284   4.647 -0.1299 -1.5587 -1.7614
 4849TIP3   OH235961   4.131   5.317  14.479  0.1187 -0.6558 -0.1978
 4849TIP3    H135962   4.159   5.228  14.457 -1.0536 -0.7632 -1.3427
 4849TIP3    H235963   4.096   5.310  14.568  0.9083 -1.1323  0.0832
 4850TIP3   OH235964   0.249   6.064   0.634  0.6616 -0.4425 -0.2772
 4850TIP3    H135965   0.159   6.040   0.614  1.2389 -2.1501 -1.0418
 4850TIP3    H235966   0.252   6.159   0.627 -1.6561 -0.0694  2.2844
 4851TIP3   OH235967   0.619   3.017  15.354 -0.0223  0.7934  0.3826
 4851TIP3    H135968   0.667   3.082  15.304  1.4670 -1.4139 -1.2485
 4851TIP3    H235969   0.679   2.990  15.423 -0.1443  0.3236  0.3113
 4852TIP3   OH235970   5.168   0.178  12.533  0.1520  1.0665 -0.1527
 4852TIP3    H135971   5.232   0.126  12.485 -0.0801  0.9589 -0.3428
 4852TIP3    H235972   5.148   0.127  12.611 -1.1027  0.2051 -0.9894
 4853TIP3   OH235973   5.566   4.742   4.665  0.9046 -0.6169  0.0064
 4853TIP3    H135974   5.606   4.742   4.752 -0.8418  0.9331  0.8906
 4853TIP3    H235975   5.505   4.668   4.666 -0.6762  0.6272  0.9561
 4854TIP3   OH235976   5.512   0.676   0.776  0.5822  0.0007 -0.2264
 4854TIP3    H135977   5.459   0.670   0.696  0.3679  3.5447 -0.5212
 4854TIP3    H235978   5.603   0.672   0.745  0.5117 -1.0598 -0.3222
 4855TIP3   OH235979   5.149   2.903  10.874  0.0500  0.0046 -0.2094
 4855TIP3    H135980   5.104   2.886  10.956  2.3842  1.1107  1.4296
 4855TIP3    H235981   5.240   2.875  10.890  0.8465  1.3248 -1.9899
 4856TIP3   OH235982   0.842   5.038   0.498 -0.9892 -0.0489 -0.1085
 4856TIP3    H135983   0.822   5.074   0.412 -0.6575  3.3585  1.0972
 4856TIP3    H235984   0.935   5.016   0.493 -0.3871  2.2228 -0.0566
 4857TIP3   OH235985   2.016   6.228   0.242 -0.0550  0.2803  0.3061
 4857TIP3    H135986   2.044   6.139   0.263 -2.0392  0.1400  2.7403
 4857TIP3    H235987   1.930   6.218   0.201 -0.0136  1.0425  0.0146
 4858TIP3   OH235988   4.338   6.779  15.375 -0.4700  0.2065  0.2351
 4858TIP3    H135989   4.331   6.700  15.428  0.1522  0.4342  0.6698
 4858TIP3    H235990   4.279   6.841  15.416  0.5736  0.6317  1.1393
 4859TIP3   OH235991   6.216   5.170   2.101 -0.2965  0.8638  0.3663
 4859TIP3    H135992   6.245   5.227   2.030  0.2726  1.3987  1.0172
 4859TIP3    H235993   6.121   5.164   2.090 -0.1139  0.0485 -1.0854
 4860TIP3   OH235994   5.542   6.621  15.560  0.0810  0.1187 -0.1537
 4860TIP3    H135995   5.608   6.685  15.534 -0.7441  0.8824 -0.4337
 4860TIP3    H235996   5.592   6.550  15.600  0.9749  1.3113  0.9625
 4861TIP3   OH235997   6.133   4.364  12.739 -0.6210 -0.0890  0.2476
 4861TIP3    H135998   6.169   4.374  12.651 -0.2786  0.3971  0.4381
 4861TIP3    H235999   6.084   4.282  12.736 -2.2847  0.8965 -0.9620
 4862TIP3   OH236000   0.427   2.055  14.162 -0.4658 -0.6565  0.3222
 4862TIP3    H136001   0.516   2.073  14.194  0.3953 -2.0016 -1.1433
 4862TIP3    H236002   0.386   2.006  14.233  0.2510 -0.7118  0.7165
 4863TIP3   OH236003   4.583   3.513   0.874 -0.1353 -0.0739 -0.6567
 4863TIP3    H136004   4.664   3.468   0.850 -0.8850 -1.5558 -0.4567
 4863TIP3    H236005   4.520   3.488   0.806 -1.1218 -0.9855  0.5611
 4864TIP3   OH236006   6.290   0.693  12.032  0.0117  0.2036 -0.0222
 4864TIP3    H136007   6.288   0.786  12.053 -0.4630 -0.0312  1.0236
 4864TIP3    H236008   6.220   0.682  11.967  2.3923  1.1807 -2.9880
 4865TIP3   OH236009   6.046   5.753   4.745  0.1945 -0.1891  0.2729
 4865TIP3    H136010   6.038   5.660   4.721  0.0489 -0.4727  1.3685
 4865TIP3    H236011   5.962   5.791   4.719 -0.1584 -0.5995  0.8042
 4866TIP3   OH236012   6.258   2.057   2.981 -0.6950  0.1683 -0.5679
 4866TIP3    H136013   6.218   2.144   2.980 -1.7638 -0.2963  0.0399
 4866TIP3    H236014   6.341   2.068   2.934 -0.6731  1.5763 -0.2451
 4867TIP3   OH236015   2.044   6.453  16.055 -0.1242  0.2698  0.3042
 4867TIP3    H136016   1.987   6.377  16.042 -1.8388  1.4776  0.4353
 4867TIP3    H236017   2.113   6.422  16.113 -1.5242 -0.8584  1.4399
 4868TIP3   OH236018   4.509   1.409  12.965  0.2297 -0.1241  0.1612
 4868TIP3    H136019   4.584   1.453  12.926 -0.1738  2.0022  1.5876
 4868TIP3    H236020   4.462   1.370  12.891  0.1417  2.6612 -1.3569
 4869TIP3   OH236021   5.474   0.218  10.357  0.2235  0.0119  0.0873
 4869TIP3    H136022   5.482   0.258  10.444  1.1434  0.5709 -0.2440
 4869TIP3    H236023   5.473   0.292  10.296  1.3244 -0.4256 -0.4900
 4870TIP3   OH236024   0.355   0.813   3.937 -0.2033 -0.0281 -0.4633
 4870TIP3    H136025   0.260   0.810   3.932 -0.3295 -1.9299  1.7026
 4870TIP3    H236026   0.380   0.883   3.877 -2.8302 -0.5961 -2.3884
 4871TIP3   OH236027   5.966   2.635  12.297  0.2942  0.7009  0.3237
 4871TIP3    H136028   5.958   2.633  12.202 -1.5724  0.2616  0.4470
 4871TIP3    H236029   6.048   2.589  12.315  1.4307  2.0472 -1.1081
 4872TIP3   OH236030   4.752   6.755  14.579 -0.3489 -0.1894 -0.6096
 4872TIP3    H136031   4.797   6.699  14.517 -1.3526 -2.7262  0.8179
 4872TIP3    H236032   4.659   6.740  14.562 -0.6636 -1.3280  1.6984
 4873TIP3   OH236033   4.135   6.792   3.457  0.1154 -0.4695 -0.2253
 4873TIP3    H136034   4.185   6.824   3.532 -1.2540  2.2380 -0.3368
 4873TIP3    H236035   4.058   6.849   3.454 -2.5081 -3.7524 -0.6844
 4874TIP3   OH236036   4.892   5.428  13.781  0.2956  0.8076  0.0861
 4874TIP3    H136037   4.888   5.448  13.874 -0.3656  1.8256 -0.1465
 4874TIP3    H236038   4.804   5.448  13.748  0.3357 -0.1438 -0.6419
 4875TIP3   OH236039   4.590   0.919  11.689  0.8618 -0.2697  0.6275
 4875TIP3    H136040   4.532   0.917  11.765  0.7001  0.7157  0.5446
 4875TIP3    H236041   4.556   0.850  11.631 -1.3749  1.3935 -0.2055
 4876TIP3   OH236042   0.224   0.827   0.026 -0.2763  0.0984 -0.0443
 4876TIP3    H136043   0.172   0.853   0.102 -1.1338  0.4090 -0.7176
 4876TIP3    H236044   0.245   0.910  -0.017 -0.2675 -0.1127 -0.4442
 4877TIP3   OH236045   0.761   0.465   3.047 -0.0006  0.0722 -0.3774
 4877TIP3    H136046   0.743   0.445   2.956 -0.6154  0.4982 -0.3576
 4877TIP3    H236047   0.686   0.429   3.095 -0.4286  1.1695 -0.2029
 4878TIP3   OH236048   3.050   2.487  13.425 -0.3980 -0.5144 -0.4507
 4878TIP3    H136049   3.139   2.501  13.458 -0.2307  0.6026 -1.3301
 4878TIP3    H236050   3.061   2.441  13.342 -0.4813  1.2887 -1.5265
 4879TIP3   OH236051   6.769   3.435  12.601 -0.4407 -0.1399 -0.2479
 4879TIP3    H136052   6.717   3.401  12.674  0.3632  0.8344  0.8098
 4879TIP3    H236053   6.830   3.496  12.641  1.3558 -1.0339 -1.5099
 4880TIP3   OH236054   3.663   6.263   3.405 -0.2950  0.0881 -0.0693
 4880TIP3    H136055   3.594   6.271   3.471 -0.0043  0.1632  0.2232
 4880TIP3    H236056   3.740   6.234   3.453  0.1991  1.1529 -0.1956
 4881TIP3   OH236057   4.410   4.470  15.488 -0.1902  0.0327  0.0352
 4881TIP3    H136058   4.486   4.497  15.539 -0.4093  0.5705  0.0803
 4881TIP3    H236059   4.342   4.534  15.509 -1.0231 -1.0865  0.8553
 4882TIP3   OH236060   5.208   2.967   2.528 -0.0343  0.1732  0.0048
 4882TIP3    H136061   5.175   2.883   2.561  0.0905 -0.2758 -0.9814
 4882TIP3    H236062   5.292   2.979   2.571  0.2733 -0.5586 -0.3796
 4883TIP3   OH236063   3.588   5.764  13.407 -0.3256 -0.4833  0.3304
 4883TIP3    H136064   3.618   5.692  13.351  2.3014  0.6723  0.1196
 4883TIP3    H236065   3.587   5.728  13.495 -1.6316 -1.4762 -0.0537
 4884TIP3   OH236066   0.240   2.324   2.003  0.6791 -0.0519  0.1273
 4884TIP3    H136067   0.314   2.309   1.944  0.4801  0.2830 -0.2103
 4884TIP3    H236068   0.257   2.267   2.078  0.7312 -0.7656 -0.4275
 4885TIP3   OH236069   0.168   5.261  11.863  0.1370  0.0653  0.4691
 4885TIP3    H136070   0.183   5.318  11.787  2.9215 -0.4224  0.5463
 4885TIP3    H236071   0.177   5.172  11.829 -0.5248 -0.2315  1.0432
 4886TIP3   OH236072   4.707   2.815  16.495  0.3923 -0.0978 -0.3846
 4886TIP3    H136073   4.652   2.883  16.533  0.7449 -0.2096  0.3324
 4886TIP3    H236074   4.696   2.826  16.400  0.0107  0.5931 -0.2673
 4887TIP3   OH236075   3.884   3.537   4.790 -0.1903  0.6191 -0.3790
 4887TIP3    H136076   3.955   3.506   4.734 -0.2841  2.8899 -1.9013
 4887TIP3    H236077   3.916   3.618   4.828 -1.2532  0.6491  0.5159
 4888TIP3   OH236078   1.712   4.185   3.286 -0.0626 -0.4146 -0.0544
 4888TIP3    H136079   1.747   4.268   3.317 -1.3066  0.3349 -0.5832
 4888TIP3    H236080   1.715   4.191   3.190 -0.7885 -0.6885 -0.1034
 4889TIP3   OH236081   1.397   0.756   5.583 -0.0277  0.4428  0.0913
 4889TIP3    H136082   1.323   0.703   5.553 -0.2617  1.8941 -2.1492
 4889TIP3    H236083   1.360   0.812   5.652 -0.8785  0.6517 -0.5085
 4890TIP3   OH236084   1.871   6.100   0.882 -0.5464 -0.0683 -0.0438
 4890TIP3    H136085   1.822   6.029   0.922 -1.3021 -0.7664 -2.0669
 4890TIP3    H236086   1.940   6.056   0.831  0.6681  0.7960  0.7850
 4891TIP3   OH236087   4.282   1.949  11.914 -0.0003 -0.0886  0.0595
 4891TIP3    H136088   4.277   1.899  11.833  0.4731 -0.0974  0.0279
 4891TIP3    H236089   4.224   1.903  11.975 -0.5964  0.1020 -0.3667
 4892TIP3   OH236090   4.643   1.635  11.298 -0.4578 -0.1086 -0.5992
 4892TIP3    H136091   4.727   1.673  11.273 -0.2476  0.1611  0.4879
 4892TIP3    H236092   4.651   1.542  11.276  1.3239 -0.7548  2.3197
 4893TIP3   OH236093   2.068   0.355  15.211 -0.2028 -0.5689 -0.4002
 4893TIP3    H136094   2.088   0.290  15.278  0.1187  1.6943  1.8331
 4893TIP3    H236095   2.148   0.359  15.157  1.0296  0.1781  1.3860
 4894TIP3   OH236096   2.797   0.418  16.504  0.4762 -0.1810 -0.2666
 4894TIP3    H136097   2.870   0.462  16.547  1.2791 -1.7979  0.0736
 4894TIP3    H236098   2.837   0.346  16.455 -0.5622  0.6632 -2.5358
 4895TIP3   OH236099   1.231   4.586  11.938  0.3350  0.4453 -0.0125
 4895TIP3    H136100   1.268   4.598  11.851 -0.2601  1.4948 -0.1448
 4895TIP3    H236101   1.136   4.578  11.923  0.4105 -1.4741  0.3739
 4896TIP3   OH236102   2.247   1.474  13.192  0.0481  0.3675 -0.0374
 4896TIP3    H136103   2.277   1.390  13.157  2.5448  1.4888 -0.8356
 4896TIP3    H236104   2.246   1.462  13.287  1.1575 -0.3306 -0.1055
 4897TIP3   OH236105   3.832   2.487  15.102 -0.1759  0.1108  0.0976
 4897TIP3    H136106   3.853   2.581  15.106  1.2249 -0.1678  0.0854
 4897TIP3    H236107   3.759   2.476  15.162  0.9326  0.8968  1.6791
 4898TIP3   OH236108   6.684   4.475  16.958  0.5375  0.6939 -0.1081
 4898TIP3    H136109   6.648   4.391  16.984  0.4711  0.8845  0.4189
 4898TIP3    H236110   6.687   4.471  16.862 -1.0366  0.7445 -0.1740
 4899TIP3   OH236111   1.857   0.973  13.610 -0.5827 -0.2225  0.2721
 4899TIP3    H136112   1.833   0.918  13.684 -1.0621 -2.8221 -1.6847
 4899TIP3    H236113   1.949   0.952  13.593 -0.7826 -0.4847 -0.5259
 4900TIP3   OH236114   5.868   2.027  14.527  0.0595 -0.0037 -0.3501
 4900TIP3    H136115   5.832   2.060  14.609 -0.8680  0.5357 -0.9531
 4900TIP3    H236116   5.951   1.987  14.552 -0.1434  0.2604  0.8285
 4901TIP3   OH236117   2.692   1.757   4.916  0.7684 -0.0818 -0.1707
 4901TIP3    H136118   2.711   1.766   5.009 -0.7601 -2.4104  0.4246
 4901TIP3    H236119   2.676   1.847   4.886  0.9793  0.6708  1.8654
 4902TIP3   OH236120   5.715   0.111   4.117  0.4836 -0.4243 -0.3281
 4902TIP3    H136121   5.767   0.159   4.182 -1.6383  0.7113  0.6715
 4902TIP3    H236122   5.732   0.019   4.136 -0.3996 -0.1548  2.2313
 4903TIP3   OH236123   1.095   6.435   0.153 -0.0701  0.2725  0.0208
 4903TIP3    H136124   1.116   6.483   0.232  2.1333 -0.6628  0.0749
 4903TIP3    H236125   1.156   6.361   0.152  0.6559  0.7640 -3.0055
 4904TIP3   OH236126   5.921   3.826   0.540 -0.1398  0.5054 -0.3946
 4904TIP3    H136127   5.982   3.762   0.503  1.0486  0.2306  1.8020
 4904TIP3    H236128   5.955   3.911   0.513  1.5163  0.3719  1.0631
 4905TIP3   OH236129   5.228   3.632  16.432  0.3134 -0.1596 -0.3300
 4905TIP3    H136130   5.230   3.727  16.436 -0.6800 -0.1300 -0.3500
 4905TIP3    H236131   5.286   3.603  16.503 -0.6661  0.4494  0.7484
 4906TIP3   OH236132   0.209   2.808   0.695  0.2471  0.6867 -0.1913
 4906TIP3    H136133   0.275   2.741   0.676  0.1195  0.3998  0.3565
 4906TIP3    H236134   0.133   2.759   0.726 -0.5053  0.9581 -1.5297
 4907TIP3   OH236135   5.448   3.274   0.023  0.2465 -0.0843  0.2072
 4907TIP3    H136136   5.518   3.240   0.079  0.9851 -0.2388 -0.7824
 4907TIP3    H236137   5.397   3.197  -0.002  1.6623 -0.4718 -1.6821
 4908TIP3   OH236138   1.722   3.443  12.574 -0.3871  0.1753  0.7151
 4908TIP3    H136139   1.752   3.528  12.605  0.3368  0.4192 -0.5742
 4908TIP3    H236140   1.740   3.383  12.647  0.8716  0.7954  0.9493
 4909TIP3   OH236141   2.679   3.996  14.416 -0.3615  0.1755  0.0222
 4909TIP3    H136142   2.710   3.972  14.503  0.4485  1.4912  0.1339
 4909TIP3    H236143   2.648   3.915  14.377  0.2173 -0.6053  1.1593
 4910TIP3   OH236144   4.601   2.964  13.967  0.1905 -0.1521 -0.2089
 4910TIP3    H136145   4.656   2.890  13.994  0.8595  0.4951  0.2134
 4910TIP3    H236146   4.512   2.927  13.962  0.1342 -0.4909  2.1587
 4911TIP3   OH236147   2.706   6.029   3.192 -0.1806 -0.2948 -0.8616
 4911TIP3    H136148   2.640   5.990   3.249  0.8376 -3.8335 -1.8324
 4911TIP3    H236149   2.728   5.959   3.130  1.8953  1.9299 -2.8542
 4912TIP3   OH236150   1.920   1.421   3.460 -0.3197 -0.0415  0.0999
 4912TIP3    H136151   1.995   1.469   3.495  1.3939 -2.3338 -0.2272
 4912TIP3    H236152   1.929   1.427   3.365  0.6827 -2.0040  0.0231
 4913TIP3   OH236153   6.689   2.673   2.908 -0.0777 -0.6805  0.4274
 4913TIP3    H136154   6.654   2.585   2.893 -0.1652 -0.2852 -2.1677
 4913TIP3    H236155   6.675   2.689   3.001 -2.5989 -2.3331  0.4332
 4914TIP3   OH236156   3.687   2.081   2.738  0.3765 -0.0192  0.2750
 4914TIP3    H136157   3.782   2.092   2.732  0.4744 -1.0496 -0.3280
 4914TIP3    H236158   3.672   2.051   2.828  0.7431 -0.8039  0.0874
 4915TIP3   OH236159   6.569   6.278  14.848  0.2071  0.3038 -0.6058
 4915TIP3    H136160   6.593   6.186  14.864 -2.2539 -0.1006  1.2444
 4915TIP3    H236161   6.489   6.273  14.797 -0.2526  1.4065 -0.0150
 4916TIP3   OH236162   1.236   5.203   0.638  0.2935  0.2499 -0.0660
 4916TIP3    H136163   1.288   5.235   0.712 -0.2134 -0.1419  0.4720
 4916TIP3    H236164   1.173   5.273   0.622 -0.7227 -0.3841  1.0184
 4917TIP3   OH236165   4.545   0.221   4.689  0.0651  0.3318  0.5147
 4917TIP3    H136166   4.509   0.139   4.654 -0.6673  1.3402 -1.1628
 4917TIP3    H236167   4.640   0.207   4.688 -0.0888 -1.3352  2.4522
 4918TIP3   OH236168   1.538   1.326   3.288 -0.1875  0.1384  0.0674
 4918TIP3    H136169   1.562   1.397   3.347 -0.1252  0.6517 -0.5771
 4918TIP3    H236170   1.605   1.327   3.220 -1.1780  0.6338 -0.9411
 4919TIP3   OH236171   0.828   2.554   2.429  0.2917 -0.1715 -0.2695
 4919TIP3    H136172   0.872   2.542   2.513 -1.9024 -2.4959  0.7089
 4919TIP3    H236173   0.787   2.470   2.411 -3.0826  1.4978 -1.3826
 4920TIP3   OH236174   3.993   3.418  11.355  0.0167  0.0554 -0.1641
 4920TIP3    H136175   4.038   3.502  11.360 -1.7534  1.1795 -1.5733
 4920TIP3    H236176   4.063   3.354  11.346  1.3832  1.4868 -0.2176
 4921TIP3   OH236177   5.426   5.425  12.364  0.7925  0.6477  0.6785
 4921TIP3    H136178   5.473   5.420  12.280 -1.6401  0.8219 -0.8126
 4921TIP3    H236179   5.373   5.345  12.366 -0.1711  1.2885  1.3841
 4922TIP3   OH236180   4.657   0.102  15.191  0.3668 -0.2889 -0.5928
 4922TIP3    H136181   4.582   0.158  15.174 -0.2011 -1.0620 -0.7105
 4922TIP3    H236182   4.733   0.159  15.181 -0.1736  0.3491 -1.1276
 4923TIP3   OH236183   4.131   3.060   2.864 -0.4626  0.0207  0.1045
 4923TIP3    H136184   4.212   3.025   2.826 -0.5123  0.4930 -0.4386
 4923TIP3    H236185   4.139   3.042   2.957  0.7073  0.9116  0.1958
 4924TIP3   OH236186   6.086   2.207  11.206 -0.0998  0.3488  0.2834
 4924TIP3    H136187   6.150   2.226  11.275 -2.4152 -1.8676  3.3019
 4924TIP3    H236188   6.133   2.151  11.144  1.6821  1.2449  0.7708
 4925TIP3   OH236189   2.215   0.985   4.258 -0.0080  0.0267 -0.3283
 4925TIP3    H136190   2.163   0.976   4.178  0.1836  0.0820 -0.4590
 4925TIP3    H236191   2.156   0.957   4.328  0.1577 -1.0342 -0.5974
 4926TIP3   OH236192   6.312   5.521   0.085  0.5671  0.0225  0.1620
 4926TIP3    H136193   6.340   5.431   0.070 -1.3880 -0.7791  0.9653
 4926TIP3    H236194   6.339   5.568   0.007 -0.5006 -1.7991 -1.3956
 4927TIP3   OH236195   2.818   1.855   1.448 -0.0843 -0.2160 -0.3134
 4927TIP3    H136196   2.785   1.919   1.384 -0.0502  0.6705  0.5311
 4927TIP3    H236197   2.820   1.772   1.400 -2.8940 -0.2074 -0.6493
 4928TIP3   OH236198   3.778   3.039  14.286  0.0008 -0.2026  0.1004
 4928TIP3    H136199   3.774   3.134  14.282 -0.9491 -0.2716 -1.1160
 4928TIP3    H236200   3.837   3.014  14.214 -0.4606 -0.5553 -0.1663
 4929TIP3   OH236201   2.643   2.633   2.331 -0.2786  0.3074  1.0760
 4929TIP3    H136202   2.705   2.658   2.399 -0.6545  1.3139  1.0623
 4929TIP3    H236203   2.573   2.587   2.379  0.5400 -1.0038  1.0642
 4930TIP3   OH236204   6.429   5.167  14.248  0.6053  0.3136  0.1858
 4930TIP3    H136205   6.499   5.108  14.220  0.2505 -0.7620  1.4920
 4930TIP3    H236206   6.377   5.181  14.169  2.2051  1.0642 -0.7903
 4931TIP3   OH236207   1.214   1.986   2.119 -0.1923 -0.6127  0.7396
 4931TIP3    H136208   1.192   2.000   2.212 -0.1967 -0.9565  0.7941
 4931TIP3    H236209   1.179   2.063   2.074 -2.5521 -1.6371  0.6774
 4932TIP3   OH236210   6.535   2.617   3.245 -0.2673  0.4301  0.5255
 4932TIP3    H136211   6.543   2.643   3.337  0.9446  0.7852  0.3408
 4932TIP3    H236212   6.453   2.657   3.216 -0.6400  0.3487  1.4335
 4933TIP3   OH236213   6.387   5.029  12.859  0.0397 -0.2839  0.7160
 4933TIP3    H136214   6.391   4.945  12.905 -2.4234 -1.5388 -1.0953
 4933TIP3    H236215   6.323   5.080  12.909  1.2986  0.4304  1.6326
 4934TIP3   OH236216   0.493   3.605  12.490  0.0933  0.1563 -0.0980
 4934TIP3    H136217   0.571   3.614  12.435 -0.1060 -0.2352 -0.4452
 4934TIP3    H236218   0.430   3.667  12.453 -0.6820 -1.3796 -1.4464
 4935TIP3   OH236219   2.774   1.347  11.815 -0.2851  0.0535 -0.4994
 4935TIP3    H136220   2.744   1.406  11.884 -0.3372  0.2495 -0.6896
 4935TIP3    H236221   2.801   1.405  11.744 -0.9004 -0.1677 -0.9199
 4936TIP3   OH236222   3.624   1.510   1.969  0.5472 -0.1913 -0.2191
 4936TIP3    H136223   3.647   1.503   2.061 -2.6343  0.5088  0.7514
 4936TIP3    H236224   3.675   1.442   1.926  2.4211 -0.2732  1.9673
 4937TIP3   OH236225   4.348   2.149  14.385 -0.6006 -0.4119 -0.5430
 4937TIP3    H136226   4.349   2.141  14.481 -1.5495  1.0428 -0.3757
 4937TIP3    H236227   4.341   2.243  14.369 -0.0571 -0.5982 -2.0648
 4938TIP3   OH236228   3.257   4.934  12.925  0.2338 -0.5245 -0.5217
 4938TIP3    H136229   3.200   5.010  12.914  1.9789  0.8915 -0.1481
 4938TIP3    H236230   3.265   4.924  13.019  0.8174 -0.5372 -0.5718
 4939TIP3   OH236231   6.351   0.209   6.098  0.3190  0.2667  0.1190
 4939TIP3    H136232   6.418   0.157   6.055  1.1499 -0.2365  1.9297
 4939TIP3    H236233   6.273   0.152   6.098  0.5347 -0.0312 -0.0294
 4940TIP3   OH236234   1.823   5.600   1.585  0.1019  0.4152  0.0119
 4940TIP3    H136235   1.790   5.674   1.535  0.1490 -0.3472 -1.1968
 4940TIP3    H236236   1.918   5.602   1.571  0.4663  1.6773  2.1876
 4941TIP3   OH236237   3.824   0.354  14.373  0.2441 -0.2873 -0.0760
 4941TIP3    H136238   3.882   0.347  14.297  0.5837 -0.7039  0.2169
 4941TIP3    H236239   3.849   0.436  14.415  2.5596 -1.7560  1.6102
 4942TIP3   OH236240   5.170   5.490  13.136  0.2276 -0.8575  0.2490
 4942TIP3    H136241   5.239   5.557  13.133  1.0889 -1.7446 -0.1593
 4942TIP3    H236242   5.137   5.487  13.046 -0.4604 -0.3390  0.4722
 4943TIP3   OH236243   2.801   0.631   1.185  0.0600 -0.2622 -0.5331
 4943TIP3    H136244   2.839   0.602   1.103 -0.5874  3.3687 -2.2998
 4943TIP3    H236245   2.876   0.637   1.245  1.2555  0.8203 -2.0625
 4944TIP3   OH236246   3.439   0.895   3.771 -0.1262  0.1083 -0.5749
 4944TIP3    H136247   3.441   0.803   3.746  0.8854 -0.6679  2.0446
 4944TIP3    H236248   3.347   0.913   3.789 -0.0364 -1.2494  1.5546
 4945TIP3   OH236249   0.173   0.024   1.043 -0.4173  0.3378 -0.0767
 4945TIP3    H136250   0.215  -0.051   1.002  0.8013  2.2475 -2.6507
 4945TIP3    H236251   0.095   0.040   0.990 -0.6038  0.9435  0.3659
 4946TIP3   OH236252   3.499   4.409   0.691 -0.4145 -0.0227 -0.3843
 4946TIP3    H136253   3.569   4.452   0.643 -1.2399  0.2792 -1.3703
 4946TIP3    H236254   3.507   4.442   0.780 -0.6419  1.7659 -0.9674
 4947TIP3   OH236255   3.187   6.166  14.175  0.2801  0.4739 -0.7573
 4947TIP3    H136256   3.204   6.107  14.103  1.9313  0.5018 -0.4166
 4947TIP3    H236257   3.132   6.115  14.235  3.2369 -1.4965  0.4709
 4948TIP3   OH236258   3.572   6.454  15.519 -0.2882  0.0107  0.6365
 4948TIP3    H136259   3.662   6.459  15.485  0.3135  0.9762  2.2833
 4948TIP3    H236260   3.573   6.507  15.598 -2.1201 -0.6746  1.1650
 4949TIP3   OH236261   6.334   5.277  11.456  0.3572  0.6041 -0.0237
 4949TIP3    H136262   6.264   5.304  11.516  0.7143  2.9476 -0.5576
 4949TIP3    H236263   6.317   5.185  11.439 -2.3169  0.9645  0.2652
 4950TIP3   OH236264   6.030   5.291   0.142  0.1680 -0.0395 -0.6617
 4950TIP3    H136265   6.109   5.318   0.190 -0.7517  1.7489 -0.0760
 4950TIP3    H236266   6.061   5.276   0.053  1.0988  1.1989 -0.5819
 4951TIP3   OH236267   6.012   5.280   0.965 -0.0851 -0.8137  0.6311
 4951TIP3    H136268   5.919   5.296   0.982  0.2705  0.1293  1.8463
 4951TIP3    H236269   6.038   5.346   0.902  0.2003  0.2369  1.8090
 4952TIP3   OH236270   2.734   6.655   5.316  0.0096  0.1173  0.2976
 4952TIP3    H136271   2.654   6.604   5.326 -1.5652  2.5529  1.0977
 4952TIP3    H236272   2.751   6.654   5.222 -0.1586 -1.5288  0.2594
 4953TIP3   OH236273   3.285   1.535   3.854  0.1437 -0.0263  0.0021
 4953TIP3    H136274   3.265   1.623   3.889  0.9943  0.0238  0.3794
 4953TIP3    H236275   3.200   1.501   3.828 -0.1257  1.1931 -0.8169
 4954TIP3   OH236276   1.811   5.484  17.171  0.6488  0.1797  0.1993
 4954TIP3    H136277   1.839   5.393  17.169 -1.2378 -0.4313 -1.4901
 4954TIP3    H236278   1.716   5.480  17.174  0.3558  2.0152 -2.8029
 4955TIP3   OH236279   5.510   5.721  16.311  0.1311 -0.5791  0.1199
 4955TIP3    H136280   5.539   5.630  16.320  1.5930 -0.1486  0.0389
 4955TIP3    H236281   5.522   5.760  16.397 -2.9752 -1.0725  0.9011
 4956TIP3   OH236282   4.801   0.991   0.476 -0.0354  0.3352  0.3059
 4956TIP3    H136283   4.745   1.049   0.528 -1.3053 -0.8551  0.3269
 4956TIP3    H236284   4.740   0.932   0.433  1.1949 -0.6375 -0.1484
 4957TIP3   OH236285   5.192   0.297  11.213 -0.1471  0.2734 -0.2970
 4957TIP3    H136286   5.285   0.295  11.188 -0.0453  0.9587 -0.0107
 4957TIP3    H236287   5.150   0.234  11.155  0.4989 -0.0391 -0.4342
 4958TIP3   OH236288   1.178   4.665   3.041 -0.0432  0.1051 -0.1019
 4958TIP3    H136289   1.239   4.595   3.065  1.7697  1.5503 -0.1991
 4958TIP3    H236290   1.114   4.667   3.111  0.9024 -0.5161  0.8046
 4959TIP3   OH236291   4.108   4.259  11.369 -0.0031  0.0041 -0.2786
 4959TIP3    H136292   4.118   4.347  11.407 -0.9792 -0.2227  0.5471
 4959TIP3    H236293   4.044   4.270  11.299 -1.1702 -0.2654  0.7076
 4960TIP3   OH236294   0.501   0.137  14.528 -0.4092  0.1895  0.5187
 4960TIP3    H136295   0.594   0.160  14.524 -0.6408  1.2527  0.9692
 4960TIP3    H236296   0.497   0.048  14.493  0.9207 -0.2795  1.4681
 4961TIP3   OH236297   1.998   4.894  12.921 -0.5395  0.0790  0.1137
 4961TIP3    H136298   2.013   4.989  12.915  0.3538 -0.0707 -0.2305
 4961TIP3    H236299   1.944   4.873  12.845  0.0269  0.1730 -0.3182
 4962TIP3   OH236300   6.274   2.852   6.666  0.3476 -0.7226 -0.4871
 4962TIP3    H136301   6.312   2.886   6.747  0.8671 -1.8058 -0.2494
 4962TIP3    H236302   6.321   2.897   6.596 -0.1673  0.2894 -0.1963
 4963TIP3   OH236303   1.596   0.076   0.272 -0.2438 -0.4553  0.3020
 4963TIP3    H136304   1.584   0.017   0.197 -0.0873  1.2471 -1.1322
 4963TIP3    H236305   1.673   0.128   0.249 -2.0863  2.3718  0.0254
 4964TIP3   OH236306   1.980   0.158  12.639  0.3105  0.0647  0.3577
 4964TIP3    H136307   2.017   0.071  12.651  2.2085  0.6956 -0.5169
 4964TIP3    H236308   1.920   0.170  12.713  0.4990 -1.7059  0.8338
 4965TIP3   OH236309   6.712   3.018  12.262  0.3988 -0.4312 -0.0392
 4965TIP3    H136310   6.664   2.965  12.199  1.2783  0.9041 -1.9100
 4965TIP3    H236311   6.700   3.108  12.232  0.2367  0.3477  2.1566
 4966TIP3   OH236312   2.854   1.290  12.093 -0.4869  0.0654  0.1077
 4966TIP3    H136313   2.823   1.312  12.005  0.3413  0.0365 -0.1995
 4966TIP3    H236314   2.949   1.282  12.084 -0.6235 -3.8950  0.0823
 4967TIP3   OH236315   0.558   3.090  11.559 -0.1700 -0.2295  0.5759
 4967TIP3    H136316   0.629   3.027  11.549 -0.0228 -0.1606  1.1659
 4967TIP3    H236317   0.481   3.035  11.578 -0.2298 -0.2886  0.1714
 4968TIP3   OH236318   0.125   4.396  13.838 -0.4508  0.8501 -0.6144
 4968TIP3    H136319   0.206   4.353  13.810 -0.1479  2.2032 -1.9036
 4968TIP3    H236320   0.147   4.489  13.842 -1.3575  1.0228  1.1884
 4969TIP3   OH236321   5.461   4.153  12.198  0.1439 -0.1388 -0.0511
 4969TIP3    H136322   5.388   4.100  12.166 -2.1837  2.8738 -0.1593
 4969TIP3    H236323   5.529   4.143  12.131 -0.7756 -1.7067 -0.8018
 4970TIP3   OH236324   2.675   0.014   3.644 -0.9697 -0.4906 -0.4142
 4970TIP3    H136325   2.640  -0.027   3.723 -0.3560 -2.3121 -1.0419
 4970TIP3    H236326   2.756  -0.033   3.626 -0.1290  1.1439 -1.0970
 4971TIP3   OH236327   4.520   4.979   2.347  0.0336 -0.2498 -0.2714
 4971TIP3    H136328   4.591   4.915   2.350  0.6058  0.4058  0.4014
 4971TIP3    H236329   4.558   5.059   2.381 -0.9954  0.1532 -0.0265
 4972TIP3   OH236330   0.242   2.987  14.780  0.1996 -0.6959 -0.6242
 4972TIP3    H136331   0.159   2.944  14.800 -0.6144  0.6047 -1.0532
 4972TIP3    H236332   0.255   2.972  14.686  0.0548 -0.2498 -0.7167
 4973TIP3   OH236333   5.094   3.457   3.033  0.4239  0.0523 -0.1253
 4973TIP3    H136334   5.091   3.452   3.128  1.1977  1.0088 -0.0341
 4973TIP3    H236335   5.141   3.538   3.015  2.6091 -1.3886 -1.3263
 4974TIP3   OH236336   1.348   0.323  15.032 -0.2887  0.0557 -0.1520
 4974TIP3    H136337   1.289   0.292  15.100 -1.5915  2.7635  0.0776
 4974TIP3    H236338   1.426   0.354  15.080 -0.9492  1.3811  0.1330
 4975TIP3   OH236339   6.619   4.552   4.842  0.8514  0.6234 -0.1424
 4975TIP3    H136340   6.592   4.594   4.761  0.0861  1.2421  0.4208
 4975TIP3    H236341   6.548   4.491   4.862  1.4985 -0.2434 -0.4446
 4976TIP3   OH236342   2.049   3.409   3.357 -0.0986 -0.0016  0.2981
 4976TIP3    H136343   2.082   3.407   3.447  0.1068  0.4820  0.2365
 4976TIP3    H236344   2.128   3.411   3.302 -0.2038 -1.2143  0.0681
 4977TIP3   OH236345   6.454   1.340  10.954  0.1759  0.5823 -0.0663
 4977TIP3    H136346   6.371   1.376  10.923 -0.3135  1.6155  2.1973
 4977TIP3    H236347   6.429   1.276  11.021  1.1866 -0.1912 -0.3948
 4978TIP3   OH236348   0.450   1.749   1.535 -0.2701 -0.0523 -0.1033
 4978TIP3    H136349   0.383   1.721   1.598 -1.2080  2.3021  0.0269
 4978TIP3    H236350   0.503   1.811   1.584  1.7645 -1.4924 -0.3725
 4979TIP3   OH236351   5.123   0.517   2.101 -0.2274  0.3270 -0.2163
 4979TIP3    H136352   5.137   0.495   2.193  0.8699  1.2450 -0.1339
 4979TIP3    H236353   5.031   0.498   2.085 -0.3102 -0.3096  0.9364
 4980TIP3   OH236354   2.330   2.722   5.558 -0.4975  0.7044  0.2101
 4980TIP3    H136355   2.343   2.813   5.584  3.7665  0.5668 -0.5513
 4980TIP3    H236356   2.317   2.726   5.463 -0.7639  0.5407  0.2396
 4981TIP3   OH236357   1.201   6.330  16.927 -0.6298  0.5159  0.4175
 4981TIP3    H136358   1.194   6.422  16.953  2.0494  0.5927  1.1939
 4981TIP3    H236359   1.170   6.281  17.003 -0.8236  0.7879  0.5144
 4982TIP3   OH236360   5.956   1.710   1.561  0.1477  0.2762 -0.9231
 4982TIP3    H136361   6.021   1.781   1.562  1.2038 -0.6499 -1.9335
 4982TIP3    H236362   5.988   1.648   1.627 -0.7758  0.6907 -0.0417
 4983TIP3   OH236363   4.006   4.364   5.333  0.0744 -0.3393  0.9719
 4983TIP3    H136364   4.016   4.457   5.313  2.2761 -0.8660 -0.7942
 4983TIP3    H236365   3.917   4.342   5.307  0.4700  0.6814 -1.4982
 4984TIP3   OH236366   0.547   4.957  15.520 -0.3773  0.0814  0.5752
 4984TIP3    H136367   0.602   4.972  15.596  0.2215  0.0319  0.1628
 4984TIP3    H236368   0.607   4.923  15.453 -0.7882  0.6025 -0.0793
 4985TIP3   OH236369   0.578   3.010   6.415 -0.1958  0.1286 -0.1562
 4985TIP3    H136370   0.656   3.066   6.410  0.4787 -0.7578  0.1245
 4985TIP3    H236371   0.517   3.058   6.471 -0.3260  1.3738 -1.3330
 4986TIP3   OH236372   6.034   2.882   1.489  0.3400 -1.1011  0.3349
 4986TIP3    H136373   6.095   2.858   1.560  1.1822 -1.2795 -0.4296
 4986TIP3    H236374   5.983   2.802   1.475  0.9751 -1.4510 -0.0462
 4987TIP3   OH236375   3.701   2.161   0.653 -0.2103  0.0444 -0.1958
 4987TIP3    H136376   3.665   2.122   0.732  1.1120 -0.1313  0.3560
 4987TIP3    H236377   3.712   2.087   0.593  0.6856 -0.1775  0.2207
 4988TIP3   OH236378   4.951   0.195  16.728 -0.3744  0.1299 -0.1610
 4988TIP3    H136379   4.901   0.127  16.774  1.7831 -2.1477 -0.9595
 4988TIP3    H236380   5.042   0.175  16.747  0.3994  2.1017 -1.4639
 4989TIP3   OH236381   5.478   3.412  11.729 -0.2565 -0.3811  0.1592
 4989TIP3    H136382   5.442   3.465  11.800 -1.4960 -0.6874 -0.2050
 4989TIP3    H236383   5.559   3.376  11.764  0.2115  1.1024  0.6926
 4990TIP3   OH236384   5.770   2.187  11.494  0.1523 -0.2373  0.6063
 4990TIP3    H136385   5.755   2.108  11.442  0.4558 -0.3277  0.6537
 4990TIP3    H236386   5.748   2.160  11.584 -0.7406  0.0255  0.4778
 4991TIP3   OH236387   3.140   3.025  11.056  0.4400 -0.5079  0.4438
 4991TIP3    H136388   3.074   3.092  11.076  1.5639  0.3952  1.2360
 4991TIP3    H236389   3.158   2.983  11.140  0.2844 -1.3283  0.0823
 4992TIP3   OH236390   0.911   4.661   1.031 -0.2032  0.1748 -0.0373
 4992TIP3    H136391   0.994   4.696   1.064  0.5793 -1.3366 -0.3008
 4992TIP3    H236392   0.916   4.567   1.049 -1.8084  0.0343 -0.1953
 4993TIP3   OH236393   2.693   4.117  14.691  0.0927 -0.1833  0.0043
 4993TIP3    H136394   2.660   4.171  14.619 -0.5980 -1.5131 -0.7149
 4993TIP3    H236395   2.784   4.144  14.702 -0.2899  1.2641 -0.1777
 4994TIP3   OH236396   1.966   3.872  14.752 -0.1244  0.0224 -0.1609
 4994TIP3    H136397   1.885   3.914  14.723 -0.5477 -0.0626  0.8561
 4994TIP3    H236398   2.004   3.934  14.814  0.5501  0.0161 -0.5625
 4995TIP3   OH236399   0.635   6.038  15.587 -0.0865 -0.0590  0.1159
 4995TIP3    H136400   0.667   6.120  15.549  2.4756 -0.8500  0.3916
 4995TIP3    H236401   0.706   5.975  15.573 -2.1961 -2.4791 -0.6974
 4996TIP3   OH236402   2.472   4.764  14.195 -0.0139  0.5034  0.4878
 4996TIP3    H136403   2.479   4.765  14.099  0.6091 -0.8132  0.5060
 4996TIP3    H236404   2.378   4.772  14.212 -0.1837  0.1771 -0.2526
 4997TIP3   OH236405   5.673   3.142  10.181  1.5484 -0.9178  0.0625
 4997TIP3    H136406   5.636   3.112  10.098  1.2565  0.1987 -0.2192
 4997TIP3    H236407   5.608   3.114  10.247  1.2521 -0.8537 -0.1982
 4998TIP3   OH236408   3.058   3.677  12.847 -0.2122 -0.0071 -0.2726
 4998TIP3    H136409   3.103   3.707  12.768 -0.8809  0.3371 -0.5321
 4998TIP3    H236410   2.993   3.614  12.815 -0.1244 -0.2686  0.0623
 4999TIP3   OH236411   0.627   5.224  15.288  0.1688  0.0693 -0.1992
 4999TIP3    H136412   0.609   5.181  15.372  0.2765 -0.9734 -0.6873
 4999TIP3    H236413   0.609   5.156  15.222  2.8622 -0.1171 -0.8857
 5000TIP3   OH236414   1.446   4.462   3.074 -0.3563  0.3859 -0.0173
 5000TIP3    H136415   1.464   4.552   3.101 -0.7476  1.1793 -2.2037
 5000TIP3    H236416   1.506   4.446   3.001 -0.7967 -0.8744 -0.1298
 5001TIP3   OH236417   1.285   2.927  11.832  0.6136 -0.7384 -0.1355
 5001TIP3    H136418   1.238   2.889  11.906  0.7664 -2.6031 -0.9271
 5001TIP3    H236419   1.271   2.865  11.760  1.1667  0.5802 -1.4412
 5002TIP3   OH236420   2.419   2.845  12.703 -0.4715  0.1539 -0.4515
 5002TIP3    H136421   2.354   2.800  12.757  1.4321 -1.1811  0.8511
 5002TIP3    H236422   2.367   2.902  12.646 -2.9756 -2.5968 -1.2025
 5003TIP3   OH236423   5.324   2.614  14.681 -0.0747 -0.1258  0.1213
 5003TIP3    H136424   5.322   2.630  14.775 -1.9633 -0.1953  0.1395
 5003TIP3    H236425   5.373   2.687  14.645 -0.4522  0.6118  1.0545
 5004TIP3   OH236426   3.053   1.246  14.699 -0.5589 -0.0775 -0.4957
 5004TIP3    H136427   2.962   1.223  14.679 -0.8118  0.8207 -0.4030
 5004TIP3    H236428   3.060   1.233  14.794 -0.9557  1.0455 -0.2986
 5005TIP3   OH236429   4.272   1.183  15.072 -0.4288 -0.5218  0.2254
 5005TIP3    H136430   4.226   1.201  15.154 -0.7925 -0.6393  0.0530
 5005TIP3    H236431   4.249   1.093  15.051 -0.8995 -0.2764 -0.3546
 5006TIP3   OH236432   4.164   5.042  14.407  0.1134  0.8397 -0.1761
 5006TIP3    H136433   4.152   4.949  14.392  3.5161  0.1541  0.5563
 5006TIP3    H236434   4.174   5.080  14.320 -1.3554  0.5743 -0.4769
 5007TIP3   OH236435   4.304   6.550   4.620  0.3093  0.0031  0.1446
 5007TIP3    H136436   4.283   6.463   4.588  1.7152 -1.0334  1.8472
 5007TIP3    H236437   4.389   6.571   4.581  0.3347  0.2768  0.3356
 5008TIP3   OH236438   2.151   3.382   3.613  0.7259 -0.0446 -0.0334
 5008TIP3    H136439   2.194   3.297   3.620  0.9734  0.1031  0.2883
 5008TIP3    H236440   2.078   3.378   3.675  0.6232 -0.0861 -0.1547
 5009TIP3   OH236441   4.066   5.611  11.172 -0.3081 -0.4607 -0.7889
 5009TIP3    H136442   4.160   5.611  11.156 -0.4569 -0.0809 -1.7583
 5009TIP3    H236443   4.051   5.537  11.231  0.4780 -1.1232 -1.3937
 5010TIP3   OH236444   2.749   5.242   5.996 -0.4214  0.3679 -0.2554
 5010TIP3    H136445   2.705   5.251   5.912 -0.4699  0.5174 -0.2154
 5010TIP3    H236446   2.712   5.164   6.035  0.7886 -0.6695 -1.0920
 5011TIP3   OH236447   5.389   5.892   2.132  0.1665  0.6818 -0.0228
 5011TIP3    H136448   5.428   5.970   2.094  1.6078 -0.7571 -1.6966
 5011TIP3    H236449   5.458   5.826   2.127 -1.9388 -1.5767 -1.7702
 5012TIP3   OH236450   4.406   1.226  15.671 -0.5934 -0.3732  0.9167
 5012TIP3    H136451   4.452   1.212  15.753 -1.7569 -0.4178  1.5871
 5012TIP3    H236452   4.407   1.140  15.628 -0.3307 -0.4466  1.0696
 5013TIP3   OH236453   0.150   4.590   0.821 -0.1010  0.1775 -0.0086
 5013TIP3    H136454   0.061   4.590   0.855  0.1210  0.6025  0.6026
 5013TIP3    H236455   0.199   4.646   0.882  0.0828  1.8601 -1.6194
 5014TIP3   OH236456   1.075   1.886  16.542 -0.0021  0.0271  0.3436
 5014TIP3    H136457   1.049   1.969  16.502  0.3075 -0.5069 -0.9970
 5014TIP3    H236458   1.157   1.862  16.498  0.4377 -0.5070  1.4174
 5015TIP3   OH236459   0.373   4.070  14.326  0.0576  0.1789 -0.7052
 5015TIP3    H136460   0.383   3.976  14.308 -2.0478  0.4065 -3.9601
 5015TIP3    H236461   0.287   4.078  14.366  0.8108  0.6602  0.8949
 5016TIP3   OH236462   6.462   3.944   2.354  0.2826  0.9988  0.1058
 5016TIP3    H136463   6.492   3.890   2.427 -1.1894  0.0052  0.0224
 5016TIP3    H236464   6.464   4.034   2.388  0.1817  0.6123  1.1696
 5017TIP3   OH236465   2.251   1.307  16.815  0.0696  0.1269 -0.1384
 5017TIP3    H136466   2.200   1.259  16.880 -0.3336  1.3312  0.4825
 5017TIP3    H236467   2.341   1.276  16.827  0.0293  0.4153  1.1154
 5018TIP3   OH236468   1.777   1.934  16.041  0.2640 -0.2605 -0.4417
 5018TIP3    H136469   1.857   1.945  16.092 -0.2199 -0.6663  0.4227
 5018TIP3    H236470   1.743   2.023  16.030 -1.0612 -0.3405  2.3230
 5019TIP3   OH236471   5.658   4.638  13.619  0.7879  0.3945 -0.4375
 5019TIP3    H136472   5.701   4.687  13.549  0.2736 -0.7789 -1.6219
 5019TIP3    H236473   5.568   4.627  13.589 -0.0836  1.7507  1.4401
 5020TIP3   OH236474   1.138   1.689   5.948  0.1002  0.2098 -0.1104
 5020TIP3    H136475   1.173   1.674   6.036  0.5371 -1.8711 -0.5883
 5020TIP3    H236476   1.072   1.622   5.936  0.2162  0.3070 -1.4636
 5021TIP3   OH236477   3.668   6.414  11.219  0.0285 -0.0628 -0.0178
 5021TIP3    H136478   3.736   6.474  11.250  0.9833 -1.4196  0.6371
 5021TIP3    H236479   3.712   6.361  11.152 -0.7809 -0.0554 -0.5573
 5022TIP3   OH236480   0.589   2.050   1.999  0.1703 -0.2114 -0.0022
 5022TIP3    H136481   0.663   1.990   1.988 -0.0610 -0.1976 -2.0873
 5022TIP3    H236482   0.579   2.059   2.094  3.8422  1.0263  0.4500
 5023TIP3   OH236483   5.045   6.480  11.736 -0.2450  0.4309 -0.0043
 5023TIP3    H136484   5.017   6.569  11.758 -0.8146  0.3080 -0.2106
 5023TIP3    H236485   5.055   6.482  11.640 -1.2436 -0.0018 -0.1182
 5024TIP3   OH236486   0.040   1.448  16.588 -0.0203 -0.3953  0.6987
 5024TIP3    H136487   0.054   1.486  16.502  0.1505 -1.8927  0.0468
 5024TIP3    H236488  -0.038   1.393  16.578  0.8334 -1.7281  1.0936
 5025TIP3   OH236489   4.636   3.817  11.911  0.1334  0.2668  0.4249
 5025TIP3    H136490   4.663   3.794  12.000  0.5748 -0.5088  0.0937
 5025TIP3    H236491   4.697   3.886  11.885  1.2302 -0.8290  0.0257
 5026TIP3   OH236492   1.427   4.439  12.673  0.0997 -0.0190  0.1037
 5026TIP3    H136493   1.513   4.478  12.657 -0.5610  0.9256 -1.3783
 5026TIP3    H236494   1.419   4.370  12.608 -1.2497  1.5967 -1.5610
 5027TIP3   OH236495   4.462   0.632  12.121  0.4173  0.4726  0.0504
 5027TIP3    H136496   4.376   0.606  12.152  0.1965  0.6157 -0.4213
 5027TIP3    H236497   4.489   0.702  12.180  0.1066  0.5872  0.0588
 5028TIP3   OH236498   6.445   1.941  16.104 -0.2356 -0.0022 -0.2094
 5028TIP3    H136499   6.454   1.935  16.009 -3.2582 -0.6534 -0.5457
 5028TIP3    H236500   6.468   2.032  16.124 -0.0788  0.2984 -1.6312
 5029TIP3   OH236501   6.662   3.151   3.396 -0.4527 -0.3940  0.5855
 5029TIP3    H136502   6.589   3.161   3.336 -0.1309  1.0571  0.3962
 5029TIP3    H236503   6.622   3.146   3.483 -0.7741  2.2960  0.6824
 5030TIP3   OH236504   6.075   1.454   3.772 -0.6036  0.2149  0.0841
 5030TIP3    H136505   6.099   1.382   3.715 -1.2529 -0.4240  0.6003
 5030TIP3    H236506   5.988   1.432   3.804  0.1756 -0.0456  2.2091
 5031TIP3   OH236507   2.135   2.235  11.383  0.1383 -0.2303 -0.2359
 5031TIP3    H136508   2.182   2.300  11.434 -3.3193  3.4238 -1.1651
 5031TIP3    H236509   2.190   2.219  11.306  1.2813  1.3365  0.2188
 5032TIP3   OH236510   3.791   3.826  10.639  0.0098 -0.0077 -0.4188
 5032TIP3    H136511   3.886   3.830  10.650  0.0344  2.0534 -0.9710
 5032TIP3    H236512   3.765   3.745  10.683  2.0934 -0.9989 -0.8960
 5033TIP3   OH236513   2.562   0.289   1.332 -0.1386 -0.3164  0.0281
 5033TIP3    H136514   2.566   0.370   1.384 -0.6659 -0.6858  0.6574
 5033TIP3    H236515   2.484   0.300   1.278 -0.6505 -0.7218  0.6689
 5034TIP3   OH236516   6.141   6.667  15.175 -0.0160 -0.7293 -0.3047
 5034TIP3    H136517   6.105   6.579  15.186 -0.5277 -0.3849  1.0375
 5034TIP3    H236518   6.111   6.715  15.253  1.4414  0.2275 -0.2897
 5035TIP3   OH236519   2.362   1.978   3.232  0.0604  0.1890 -0.5689
 5035TIP3    H136520   2.373   1.918   3.305  0.3064  0.3188 -0.4988
 5035TIP3    H236521   2.296   2.041   3.262 -0.5886 -0.3485 -0.8367
 5036TIP3   OH236522   0.988   4.788  12.993 -0.1304  0.0659  0.3537
 5036TIP3    H136523   0.942   4.788  13.077 -0.4476  1.0040  0.1887
 5036TIP3    H236524   0.998   4.881  12.971 -0.0772 -0.1665 -0.6556
 5037TIP3   OH236525   5.806   0.150   2.556 -0.7983 -0.2164  0.1112
 5037TIP3    H136526   5.806   0.170   2.650  0.3035  0.5216 -0.0240
 5037TIP3    H236527   5.756   0.220   2.516 -0.7146 -0.1707  0.0861
 5038TIP3   OH236528   3.800   0.793  13.308 -0.7277 -0.5174 -0.3561
 5038TIP3    H136529   3.806   0.718  13.367  0.9853  1.0826  1.6702
 5038TIP3    H236530   3.772   0.755  13.224  0.9143 -3.5566  0.3145
 5039TIP3   OH236531   3.360   6.011  10.931  0.2344  0.5309  0.0622
 5039TIP3    H136532   3.295   5.952  10.970 -0.6583  0.0242 -2.0468
 5039TIP3    H236533   3.320   6.039  10.848  3.0190 -0.4591 -1.7472
 5040TIP3   OH236534   0.545   4.150  13.287 -0.9039 -0.2282  0.2446
 5040TIP3    H136535   0.615   4.084  13.289  1.3792  2.0855  1.2134
 5040TIP3    H236536   0.541   4.177  13.195 -1.5330 -1.3239 -0.0726
 5041TIP3   OH236537   6.173   0.453   0.179 -0.0291 -0.1651  0.4806
 5041TIP3    H136538   6.188   0.426   0.270  0.0551 -1.6603  0.0423
 5041TIP3    H236539   6.176   0.549   0.182  2.2012 -0.2140  1.6890
 5042TIP3   OH236540   2.346   0.944  12.012  0.4969  0.1089  0.2936
 5042TIP3    H136541   2.288   0.883  12.059  2.0867  0.0080  2.2741
 5042TIP3    H236542   2.299   1.027  12.013 -1.1582 -0.7305 -1.3504
 5043TIP3   OH236543   0.590   3.114   1.918 -0.2506  0.1288  0.0572
 5043TIP3    H136544   0.544   3.046   1.868 -1.1035  0.4493  0.3840
 5043TIP3    H236545   0.648   3.155   1.854 -0.4651 -0.2401 -0.3844
 5044TIP3   OH236546   6.125   4.006  14.072 -0.7075  0.4582  0.1568
 5044TIP3    H136547   6.064   4.063  14.118  0.1445  0.5220  1.2424
 5044TIP3    H236548   6.208   4.054  14.073 -0.2017 -0.4017  0.2824
 5045TIP3   OH236549   6.585   2.514   0.948  0.5389 -0.2771  0.1178
 5045TIP3    H136550   6.543   2.597   0.972 -0.8804 -1.1617  0.8150
 5045TIP3    H236551   6.659   2.540   0.893 -0.3386  1.4084 -0.3456
 5046TIP3   OH236552   5.703   5.471  16.553 -0.6880  0.2005  0.5275
 5046TIP3    H136553   5.783   5.436  16.592 -1.0617  0.1013  1.2237
 5046TIP3    H236554   5.683   5.549  16.605 -0.9922  0.2829  0.2910
 5047TIP3   OH236555   2.323   0.023   3.214 -0.4111  0.2516 -0.1525
 5047TIP3    H136556   2.363   0.110   3.218 -0.1417  0.0969  1.2188
 5047TIP3    H236557   2.275   0.016   3.297  1.2241 -1.6583  0.6906
 5048TIP3   OH236558   5.243   0.680   1.929  0.1035 -0.0385 -0.4393
 5048TIP3    H136559   5.304   0.751   1.952 -0.9907  0.8557 -0.1986
 5048TIP3    H236560   5.211   0.648   2.013 -1.1796  0.7939 -0.5869
 5049TIP3   OH236561   0.580   6.719   5.594 -0.8998  0.7427  0.9742
 5049TIP3    H136562   0.663   6.673   5.576 -2.8394 -3.4082  1.4465
 5049TIP3    H236563   0.555   6.756   5.510 -0.5646 -1.7174 -0.3132
 5050TIP3   OH236564   2.065   4.677  13.244 -0.3309 -0.1606 -0.0179
 5050TIP3    H136565   2.128   4.654  13.312 -0.4033 -0.5498 -0.0815
 5050TIP3    H236566   2.117   4.687  13.165 -0.2917 -0.0341  0.0235
 5051TIP3   OH236567   2.726   5.688   0.499 -0.0608 -0.4831  0.6588
 5051TIP3    H136568   2.709   5.620   0.563 -0.8538 -0.0919  0.8746
 5051TIP3    H236569   2.681   5.765   0.533  0.1081 -0.0786 -0.0108
 5052TIP3   OH236570   1.887   6.420   4.770  0.5903  0.1388 -0.6251
 5052TIP3    H136571   1.807   6.389   4.811  0.9213  1.4973  1.1531
 5052TIP3    H236572   1.860   6.445   4.681 -0.7321 -0.3656 -0.3864
 5053TIP3   OH236573   5.824   3.953  15.795 -0.5534  0.2637  0.1230
 5053TIP3    H136574   5.836   3.925  15.886 -1.8560  0.3727  0.3389
 5053TIP3    H236575   5.778   3.880  15.753  0.3510  0.0631 -0.5539
 5054TIP3   OH236576   3.481   6.295  16.861 -0.4799  0.2927 -0.6689
 5054TIP3    H136577   3.432   6.338  16.931 -0.5706 -2.4257  1.0827
 5054TIP3    H236578   3.490   6.204  16.890  0.9689 -0.5691 -3.4380
 5055TIP3   OH236579   3.425   6.106   2.369  0.7554 -0.2030  0.1247
 5055TIP3    H136580   3.409   6.199   2.354  0.1171 -0.3703 -0.3107
 5055TIP3    H236581   3.398   6.091   2.460  0.6558 -0.0046  0.1281
 5056TIP3   OH236582   6.116   2.166  10.892  0.1866  0.4664  0.5234
 5056TIP3    H136583   6.160   2.132  10.970 -1.0496  2.1698  2.0687
 5056TIP3    H236584   6.057   2.096  10.864 -0.9459  0.5893  2.4705
 5057TIP3   OH236585   4.189   3.037  15.213  0.3818 -0.6053 -0.5988
 5057TIP3    H136586   4.188   2.971  15.282 -0.3745  0.4879  0.4814
 5057TIP3    H236587   4.103   3.078  15.219  0.6758  0.1662 -1.5471
 5058TIP3   OH236588   1.873   1.580   1.728  0.3394  0.3331 -0.1096
 5058TIP3    H136589   1.873   1.555   1.820  1.2370  1.5501  0.2612
 5058TIP3    H236590   1.955   1.629   1.717  0.6654 -0.5087 -1.7700
 5059TIP3   OH236591   6.287   3.345   6.692  0.1989  0.4030  0.0629
 5059TIP3    H136592   6.254   3.407   6.626 -0.1944  0.4243  0.2750
 5059TIP3    H236593   6.212   3.289   6.712 -0.1626  1.3844  1.6328
 5060TIP3   OH236594   3.525   5.748  11.449  0.0006  1.0089  0.2473
 5060TIP3    H136595   3.458   5.772  11.385  0.7655  2.6708  0.0190
 5060TIP3    H236596   3.575   5.678  11.405 -1.7410 -0.5331  0.5771
 5061TIP3   OH236597   4.982   4.226   3.375  1.1159  0.7242 -0.0274
 5061TIP3    H136598   5.058   4.204   3.429  1.1745 -1.2839 -0.8549
 5061TIP3    H236599   5.004   4.311   3.335  2.7633  0.3352  0.0153
 5062TIP3   OH236600   6.620   1.339   3.087 -0.4098  0.4745  0.7551
 5062TIP3    H136601   6.555   1.408   3.094 -1.5321 -0.6046  1.5263
 5062TIP3    H236602   6.694   1.369   3.139  0.2327  2.2265 -1.0572
 5063TIP3   OH236603   1.522   2.905   5.745  0.8162  0.0336  0.2843
 5063TIP3    H136604   1.481   2.966   5.806  1.4514  0.3544  0.3975
 5063TIP3    H236605   1.466   2.828   5.747  0.7530  0.0972  1.1582
 5064TIP3   OH236606   3.596   1.632  14.602 -1.0846 -0.4095  1.1618
 5064TIP3    H136607   3.528   1.668  14.546  2.1348  2.1511 -1.4948
 5064TIP3    H236608   3.626   1.706  14.655  0.5883 -1.0604  1.1819
 5065TIP3   OH236609   4.117   4.821   2.975 -0.5537  0.0855  0.4598
 5065TIP3    H136610   4.036   4.797   3.020 -0.7855  0.3297  0.1748
 5065TIP3    H236611   4.093   4.896   2.921  0.0654  0.7252  1.0404
 5066TIP3   OH236612   2.019   0.224  16.209 -0.5721 -0.3131  0.1591
 5066TIP3    H136613   2.033   0.315  16.184 -1.0791  0.1536  1.4809
 5066TIP3    H236614   1.925   0.216  16.220 -0.6342 -1.2813 -0.8972
 5067TIP3   OH236615   3.875   3.911  14.843 -0.9288  0.4725  0.4738
 5067TIP3    H136616   3.845   3.966  14.771  0.0100  1.9344  1.1671
 5067TIP3    H236617   3.839   3.824  14.823  0.3068  0.5097 -2.3918
 5068TIP3   OH236618   6.081   4.731   3.685  0.4006 -0.2840 -0.0947
 5068TIP3    H136619   6.121   4.705   3.602 -0.5356 -1.0270 -0.3400
 5068TIP3    H236620   6.138   4.695   3.752 -0.6371 -2.6899 -0.4300
 5069TIP3   OH236621   3.035   2.114  16.650  0.2433  0.0919  0.0479
 5069TIP3    H136622   3.113   2.062  16.635  1.0333  1.4169 -0.5664
 5069TIP3    H236623   2.966   2.049  16.668  1.1184 -1.1656 -0.9660
 5070TIP3   OH236624   5.649   0.508   3.978 -0.0225  0.3737 -0.2467
 5070TIP3    H136625   5.608   0.546   3.901  0.2925  1.6088  0.1637
 5070TIP3    H236626   5.598   0.429   3.997 -1.6010  1.3550 -0.2969
 5071TIP3   OH236627   2.964   6.000  15.921  0.0277  0.0903  0.1941
 5071TIP3    H136628   2.911   6.034  15.992 -1.2858  0.3335 -0.8660
 5071TIP3    H236629   2.999   6.079  15.878 -0.7752  0.0307 -0.5952
 5072TIP3   OH236630   6.377   4.251   2.415  0.0202 -0.9362 -0.2532
 5072TIP3    H136631   6.418   4.338   2.415 -1.7771 -0.0402  0.7380
 5072TIP3    H236632   6.353   4.236   2.324  2.8208 -1.6763 -0.9517
 5073TIP3   OH236633   5.262   6.257  13.007  0.3868 -0.7104  0.5579
 5073TIP3    H136634   5.211   6.179  13.028  1.3291 -1.2179  0.9770
 5073TIP3    H236635   5.353   6.230  13.014  0.7429  0.6152  1.4972
 5074TIP3   OH236636   5.071   2.219  15.228  0.4660 -0.1106  0.4742
 5074TIP3    H136637   5.045   2.191  15.316 -1.3642 -0.9214 -0.2812
 5074TIP3    H236638   5.122   2.146  15.194  0.2560 -0.2625  0.4801
 5075TIP3   OH236639   6.016   3.948  12.292  0.5913  0.2695  0.0086
 5075TIP3    H136640   6.104   3.943  12.329 -0.2676 -0.0562  2.1512
 5075TIP3    H236641   5.966   4.002  12.354 -1.2666 -1.4277  0.1378
 5076TIP3   OH236642   6.224   3.686   4.302  0.5166  0.1295 -0.3028
 5076TIP3    H136643   6.155   3.667   4.238  0.8659  0.9791 -0.9569
 5076TIP3    H236644   6.189   3.656   4.386 -0.9747  1.2728 -0.4846
 5077TIP3   OH236645   2.451   4.583   2.857  0.3344  0.0444 -0.1440
 5077TIP3    H136646   2.374   4.595   2.912 -0.4977 -0.1348 -1.2379
 5077TIP3    H236647   2.430   4.508   2.803 -0.1178  1.9123 -2.7432
 5078TIP3   OH236648   1.662   3.667   1.142 -0.0204 -0.4462  0.5520
 5078TIP3    H136649   1.611   3.621   1.208 -1.0069 -1.3474 -0.7852
 5078TIP3    H236650   1.600   3.726   1.100 -0.0196 -1.5090 -1.0468
 5079TIP3   OH236651   3.397   4.206   3.970 -0.0909 -0.1258  0.1180
 5079TIP3    H136652   3.407   4.111   3.958  1.0852  0.1609 -1.3289
 5079TIP3    H236653   3.393   4.242   3.882 -0.2395  1.2182  0.6457
 5080TIP3   OH236654   2.885   5.910   3.586  0.1424 -0.0867 -0.0779
 5080TIP3    H136655   2.971   5.867   3.582  0.2776  0.1696  0.0602
 5080TIP3    H236656   2.905   6.003   3.591 -0.1603  0.0724 -1.3827
 5081TIP3   OH236657   6.228   0.321   1.281  0.1877 -0.1908  0.0447
 5081TIP3    H136658   6.245   0.339   1.374  1.8941 -0.7098 -0.1399
 5081TIP3    H236659   6.294   0.372   1.234  0.6851 -1.5631 -0.7905
 5082TIP3   OH236660   3.134   1.646   6.685  0.2362  0.0175 -0.2941
 5082TIP3    H136661   3.080   1.655   6.607 -0.7381  0.7696  0.4298
 5082TIP3    H236662   3.224   1.641   6.652 -0.2986 -1.9975 -1.5634
 5083TIP3   OH236663   5.219   1.115  16.885  0.0625 -0.1152  0.6016
 5083TIP3    H136664   5.297   1.060  16.888  0.7129  0.6800 -1.0166
 5083TIP3    H236665   5.252   1.203  16.872 -1.1432  0.0258 -1.9717
 5084TIP3   OH236666   3.866   5.135   1.265 -0.3243  0.4816  0.2746
 5084TIP3    H136667   3.867   5.150   1.359  1.8578  1.1788  0.1880
 5084TIP3    H236668   3.853   5.222   1.227  0.0195  0.3870 -0.0697
 5085TIP3   OH236669   5.841   1.400   1.026 -0.1023  0.3915 -0.1470
 5085TIP3    H136670   5.834   1.330   0.961  1.1992 -0.6690  0.7939
 5085TIP3    H236671   5.874   1.475   0.977  1.1543 -0.4795 -0.6855
 5086TIP3   OH236672   5.031   1.017   1.875  0.0252 -0.4997 -0.7794
 5086TIP3    H136673   4.976   1.069   1.816 -3.6604 -1.6301  1.3248
 5086TIP3    H236674   5.073   0.953   1.819  0.8057  1.5863 -2.7528
 5087TIP3   OH236675   4.184   5.099  11.585  0.0473  0.1366 -0.5178
 5087TIP3    H136676   4.183   5.117  11.679 -1.1491  0.4364 -0.5689
 5087TIP3    H236677   4.267   5.135  11.555  0.0984  0.7320  0.3015
 5088TIP3   OH236678   2.780   5.426  15.077  0.0459  0.3461 -0.4564
 5088TIP3    H136679   2.745   5.382  14.999 -0.0378 -0.0821 -0.1807
 5088TIP3    H236680   2.875   5.412  15.071  0.2114  1.7180 -1.3318
 5089TIP3   OH236681   6.526   1.658  13.470  0.1159 -0.6436  0.3334
 5089TIP3    H136682   6.609   1.636  13.513  0.3426  0.9498  0.7627
 5089TIP3    H236683   6.508   1.583  13.413  1.8320 -1.0291  0.2521
 5090TIP3   OH236684   4.035   4.126   2.492 -0.4907 -0.2478 -0.2032
 5090TIP3    H136685   4.103   4.074   2.536 -0.4569 -0.1494 -0.1384
 5090TIP3    H236686   3.960   4.067   2.484 -1.0030  0.1732  1.2787
 5091TIP3   OH236687   3.006   4.588   1.830 -0.3413 -0.5887  0.5299
 5091TIP3    H136688   3.059   4.593   1.910 -1.9240  0.9430  1.5435
 5091TIP3    H236689   2.942   4.520   1.848  0.1236 -1.1792  0.0066
 5092TIP3   OH236690   5.125   1.939   0.543 -0.1361  0.1041  0.0725
 5092TIP3    H136691   5.145   1.945   0.449 -1.5413 -2.2320 -0.4671
 5092TIP3    H236692   5.185   1.872   0.575 -2.2809 -2.0092 -0.0954
 5093TIP3   OH236693   2.370   4.722   1.789 -0.4549 -0.4013 -0.0243
 5093TIP3    H136694   2.458   4.686   1.797 -0.2180  0.0323 -0.6281
 5093TIP3    H236695   2.363   4.785   1.861  0.3397  0.7924 -0.9576
 5094TIP3   OH236696   4.631   2.463   4.065 -0.5337  0.2284 -0.0482
 5094TIP3    H136697   4.545   2.423   4.081  0.3664 -2.3496 -1.2303
 5094TIP3    H236698   4.684   2.438   4.140  0.6345 -2.8420 -1.7226
 5095TIP3   OH236699   0.702   0.408   5.229 -0.0642  0.4086 -0.3622
 5095TIP3    H136700   0.760   0.440   5.298  2.2029  0.2913 -2.0950
 5095TIP3    H236701   0.716   0.313   5.227 -3.4469 -0.3313  1.8083
 5096TIP3   OH236702   4.499   2.317  10.200  0.3530  0.0702  0.0105
 5096TIP3    H136703   4.519   2.232  10.239 -0.9673 -0.1783  0.1874
 5096TIP3    H236704   4.542   2.315  10.115 -1.6069 -1.7622 -1.0332
 5097TIP3   OH236705   5.745   1.670  14.098 -0.0380  0.0006 -0.5375
 5097TIP3    H136706   5.678   1.605  14.075  0.5089 -0.1530 -1.7619
 5097TIP3    H236707   5.750   1.666  14.194 -1.6702 -0.0786 -0.4257
 5098TIP3   OH236708   1.579   5.165  15.575  0.1931 -0.4453  0.1977
 5098TIP3    H136709   1.546   5.096  15.633  0.6739 -0.2355  0.7317
 5098TIP3    H236710   1.574   5.245  15.627 -0.4598 -0.0488 -0.4537
 5099TIP3   OH236711   4.608   4.133   2.565  0.2154  0.2067  0.5837
 5099TIP3    H136712   4.551   4.056   2.563 -0.7133  0.9020 -0.5792
 5099TIP3    H236713   4.576   4.185   2.638  1.2624 -0.7839  1.7956
 5100TIP3   OH236714   0.272   3.623   0.015 -0.0298  0.4351 -0.1360
 5100TIP3    H136715   0.214   3.698   0.016  1.1664  1.3974  0.8095
 5100TIP3    H236716   0.360   3.661   0.006  0.6148 -0.8277  0.5421
 5101TIP3   OH236717   5.633   3.214  12.016 -0.6997  0.1953 -0.2068
 5101TIP3    H136718   5.682   3.252  11.944 -0.0886  0.4609  0.3368
 5101TIP3    H236719   5.667   3.125  12.025 -0.0125  0.5120  0.4309
 5102TIP3   OH236720   2.690   2.442  15.823 -0.4901 -0.2872  0.3996
 5102TIP3    H136721   2.626   2.418  15.890  0.5903 -1.4340  1.0622
 5102TIP3    H236722   2.757   2.492  15.869  0.8827 -2.1026  0.4865
 5103TIP3   OH236723   4.382   4.879   3.924  0.1488  0.6404 -0.3089
 5103TIP3    H136724   4.426   4.795   3.916 -0.1016  0.6549 -2.1875
 5103TIP3    H236725   4.448   4.937   3.963  0.1283 -0.5176  1.5793
 5104TIP3   OH236726   6.260   6.627  14.131 -0.4059 -0.1868 -0.0764
 5104TIP3    H136727   6.243   6.535  14.152 -2.7658  0.2846  0.4381
 5104TIP3    H236728   6.286   6.667  14.214  0.0132 -0.2547 -0.1723
 5105TIP3   OH236729   4.233   1.861  12.509 -0.5541  0.5014  0.2438
 5105TIP3    H136730   4.200   1.841  12.421 -1.5391  1.5070  0.3707
 5105TIP3    H236731   4.299   1.928  12.495  0.5163 -0.5428  0.1264
 5106TIP3   OH236732   6.641   4.415  11.937 -0.1930 -0.3355 -0.3844
 5106TIP3    H136733   6.594   4.438  11.857 -0.6299  0.4345  0.0746
 5106TIP3    H236734   6.733   4.422  11.914 -0.2052  3.5767  0.0802
 5107TIP3   OH236735   4.390   1.840  15.350  0.1328 -0.8398 -0.0636
 5107TIP3    H136736   4.457   1.780  15.318 -0.6497 -1.7171 -0.0828
 5107TIP3    H236737   4.338   1.788  15.411  1.9928  0.9235  3.3318
 5108TIP3   OH236738   3.218   5.754   0.815 -0.4848  0.0621 -0.0706
 5108TIP3    H136739   3.123   5.749   0.823 -0.8893  0.7269 -3.2900
 5108TIP3    H236740   3.251   5.687   0.876 -2.9684 -0.1763  1.1183
 5109TIP3   OH236741   4.959   0.294   2.364  0.1317  0.4507 -0.1334
 5109TIP3    H136742   5.026   0.272   2.428  0.2393  2.3508  0.4688
 5109TIP3    H236743   4.907   0.363   2.406 -0.5595  0.8792 -1.6150
 5110TIP3   OH236744   2.307   6.703   4.324  0.1536 -0.1354 -0.1279
 5110TIP3    H136745   2.355   6.786   4.315 -0.0861  0.1446  1.0557
 5110TIP3    H236746   2.239   6.708   4.257  0.6500  0.2591 -0.6150
 5111TIP3   OH236747   1.612   4.138   1.109 -0.1975  0.1081  0.3952
 5111TIP3    H136748   1.645   4.116   1.196 -0.2018  0.0611  0.3853
 5111TIP3    H236749   1.689   4.128   1.052 -0.5931 -1.6466  0.1034
 5112TIP3   OH236750   5.195   3.130   5.394 -0.3515  0.0416 -0.0850
 5112TIP3    H136751   5.284   3.130   5.429 -0.9851  0.4660  1.6233
 5112TIP3    H236752   5.154   3.052   5.431 -1.1507  0.7018  0.4672
 5113TIP3   OH236753   1.412   0.817  11.755 -0.0355 -0.1302 -0.0568
 5113TIP3    H136754   1.424   0.737  11.805  0.9063 -0.1505 -0.2964
 5113TIP3    H236755   1.416   0.887  11.820  1.5539 -0.1291 -0.1035
 5114TIP3   OH236756   4.501   1.449   5.025 -0.2659  0.1303  0.2744
 5114TIP3    H136757   4.487   1.478   4.935 -0.4532  2.0084  0.8549
 5114TIP3    H236758   4.431   1.493   5.075 -0.2164 -0.9429  1.3214
 5115TIP3   OH236759   0.477   5.513   3.467  0.3836 -0.1207  0.6290
 5115TIP3    H136760   0.445   5.482   3.552  1.2379  0.3463  1.1333
 5115TIP3    H236761   0.503   5.603   3.482  0.0093  0.1540 -0.2847
 5116TIP3   OH236762   0.356   1.705  16.897 -0.1270 -0.1135  0.3991
 5116TIP3    H136763   0.304   1.625  16.906  0.0166 -0.4343 -1.2679
 5116TIP3    H236764   0.322   1.747  16.818  1.2089  0.3618  0.0463
 5117TIP3   OH236765   6.193   0.724  13.691 -0.2055  0.2822  0.0318
 5117TIP3    H136766   6.244   0.779  13.750 -0.3533  0.3534  0.0906
 5117TIP3    H236767   6.250   0.649  13.673  0.4286  0.9547 -0.8818
 5118TIP3   OH236768   2.905   3.560  10.664  0.1394  0.2102 -0.1623
 5118TIP3    H136769   2.915   3.515  10.748  0.5054 -1.0839 -0.8682
 5118TIP3    H236770   2.859   3.641  10.685 -1.2320 -0.8442  1.0728
 5119TIP3   OH236771   3.821   3.785  12.442  0.1749 -0.2176  0.4572
 5119TIP3    H136772   3.865   3.710  12.482  0.9654  0.0314  0.0738
 5119TIP3    H236773   3.760   3.747  12.379  0.6860 -0.5348  0.1516
 5120TIP3   OH236774   6.458   3.823  11.899  0.0442  0.7419  0.5317
 5120TIP3    H136775   6.525   3.823  11.967 -0.7883  0.7013  1.3691
 5120TIP3    H236776   6.449   3.915  11.874 -1.0575  1.0352  1.9153
 5121TIP3   OH236777   4.413   4.998  11.877  0.4515 -0.9483  0.4593
 5121TIP3    H136778   4.319   5.005  11.861  0.6633 -0.3202 -0.5855
 5121TIP3    H236779   4.446   4.945  11.803  0.7987 -1.8952  1.2715
 5122TIP3   OH236780   1.887   4.815  14.808  0.2528  0.0733 -0.0170
 5122TIP3    H136781   1.958   4.869  14.773  0.3674 -0.0285  0.0587
 5122TIP3    H236782   1.882   4.839  14.901 -0.4192  0.7527 -0.2131
 5123TIP3   OH236783   1.678   0.291  11.727 -0.1673  0.3464  0.3107
 5123TIP3    H136784   1.610   0.301  11.660  0.9625  0.2525 -0.8870
 5123TIP3    H236785   1.666   0.367  11.784 -1.5510  0.0947  0.3983
 5124TIP3   OH236786   3.659   3.951   3.718 -0.3136  0.1288 -0.1383
 5124TIP3    H136787   3.646   3.858   3.702 -0.2456  0.1060 -0.0615
 5124TIP3    H236788   3.753   3.965   3.705 -0.5275  0.4421 -1.4737
 5125TIP3   OH236789   4.912   2.312   3.346  0.1323  0.0163  0.4294
 5125TIP3    H136790   4.863   2.236   3.315  1.3084 -1.0194  0.9930
 5125TIP3    H236791   5.002   2.279   3.357  0.1287  0.6749  3.4148
 5126TIP3   OH236792   3.908   4.102   3.954 -0.1450 -0.0125  0.0489
 5126TIP3    H136793   3.948   4.154   4.024  1.3262 -0.5060 -0.4046
 5126TIP3    H236794   3.908   4.160   3.878 -1.0532  0.2627  0.2494
 5127TIP3   OH236795   3.713   5.519  12.853  0.4545  0.6464  0.4904
 5127TIP3    H136796   3.659   5.550  12.926 -0.0081  0.8262  0.0784
 5127TIP3    H236797   3.650   5.500  12.783  0.9216  0.7653  0.0317
 5128TIP3   OH236798   1.409   2.386   2.837 -0.1632 -0.4088  0.9822
 5128TIP3    H136799   1.407   2.442   2.915 -2.0818 -1.1722  1.5402
 5128TIP3    H236800   1.370   2.440   2.768 -0.8203 -0.5929  1.2012
 5129TIP3   OH236801   4.201   4.538   4.566 -0.6316  0.4541  0.5426
 5129TIP3    H136802   4.201   4.499   4.479  3.0206 -0.9046  0.9932
 5129TIP3    H236803   4.146   4.479   4.618  0.8079 -1.4004  0.0771
 5130TIP3   OH236804   6.226   6.233   2.525 -0.0437 -0.2988 -0.1570
 5130TIP3    H136805   6.168   6.261   2.596  0.5221 -1.7800  0.9336
 5130TIP3    H236806   6.244   6.314   2.476 -0.2980  0.8141  1.4923
 5131TIP3   OH236807   4.560   4.996  15.103  0.7068  0.3332 -0.0709
 5131TIP3    H136808   4.488   5.036  15.054  0.4272  0.6225  0.5718
 5131TIP3    H236809   4.546   4.902  15.094  0.7389  0.3845 -0.6673
 5132TIP3   OH236810   0.811   0.279  14.519  0.0057 -0.1984 -0.3603
 5132TIP3    H136811   0.812   0.338  14.444  3.7001 -0.8205 -0.9998
 5132TIP3    H236812   0.819   0.337  14.595 -2.5801  0.3631 -0.4407
 5133TIP3   OH236813   2.083   4.157   4.381  0.8256  0.0574  0.0070
 5133TIP3    H136814   2.100   4.234   4.328 -0.4968  1.3972  1.4336
 5133TIP3    H236815   2.168   4.132   4.416  1.1779  1.2686  0.0583
 5134TIP3   OH236816   6.332   2.837  13.844 -0.4220  0.2947 -0.0795
 5134TIP3    H136817   6.291   2.819  13.929  0.6062  0.4073  0.4504
 5134TIP3    H236818   6.269   2.894  13.799 -1.7223 -1.0482 -0.0514
 5135TIP3   OH236819   5.644   4.136  16.429  0.2313  0.4049 -0.1284
 5135TIP3    H136820   5.633   4.194  16.354 -1.3220  0.0352 -0.2220
 5135TIP3    H236821   5.590   4.059  16.408  2.0687 -1.0104  0.0812
 5136TIP3   OH236822   0.458   4.100  16.583  0.2586  0.3646 -0.6847
 5136TIP3    H136823   0.410   4.032  16.630 -0.4182  0.9176 -0.5644
 5136TIP3    H236824   0.450   4.076  16.490  1.1242 -0.4186 -0.5770
 5137TIP3   OH236825   0.870   2.020  11.817  0.4379 -0.0043  0.0559
 5137TIP3    H136826   0.777   2.008  11.836  0.5508  0.7921  1.2132
 5137TIP3    H236827   0.890   2.108  11.849  1.3370  0.2839 -1.2450
 5138TIP3   OH236828   6.516   4.399  11.681 -0.0366  0.8990 -0.2111
 5138TIP3    H136829   6.428   4.379  11.711  0.2449 -2.0466 -1.0953
 5138TIP3    H236830   6.512   4.389  11.586  2.0721 -3.8688 -0.0807
 5139TIP3   OH236831   5.972   1.236  16.884 -0.1207 -0.0129 -0.7115
 5139TIP3    H136832   6.020   1.315  16.859  0.5060 -0.6902 -1.7063
 5139TIP3    H236833   5.974   1.237  16.980  1.2148  0.3931 -0.7119
 5140TIP3   OH236834   0.254   5.600   5.362  0.0061  0.4101 -0.1541
 5140TIP3    H136835   0.171   5.565   5.331  0.4100 -0.1008 -0.6949
 5140TIP3    H236836   0.304   5.522   5.389 -0.4894  0.8465  2.2314
 5141TIP3   OH236837   5.325   4.508  13.304  0.1292  0.5640 -0.0018
 5141TIP3    H136838   5.334   4.418  13.274  0.5525  0.8797 -0.8357
 5141TIP3    H236839   5.249   4.541  13.255 -0.1319  0.6151  0.4308
 5142TIP3   OH236840   4.811   2.648  11.092  0.2952  0.1158 -0.3431
 5142TIP3    H136841   4.902   2.635  11.066 -0.1489  0.5426 -2.3099
 5142TIP3    H236842   4.787   2.732  11.053 -0.2445  1.2968  2.3184
 5143TIP3   OH236843   6.633   1.267  16.490 -0.0346  0.5021  0.1868
 5143TIP3    H136844   6.573   1.234  16.557  0.8969  1.6295  1.6462
 5143TIP3    H236845   6.647   1.192  16.431 -1.4358 -0.3087  0.8394
 5144TIP3   OH236846   1.914   6.705   3.105 -0.5774  0.4025  0.0234
 5144TIP3    H136847   1.930   6.776   3.044 -2.3445 -0.0851 -1.0593
 5144TIP3    H236848   1.864   6.640   3.055 -1.1440 -0.4947  1.6743
 5145TIP3   OH236849   3.290   3.220   1.264  0.1454 -0.4116 -0.2238
 5145TIP3    H136850   3.363   3.157   1.264  1.0900  0.6156  0.9642
 5145TIP3    H236851   3.308   3.276   1.339 -0.1668  1.8267 -1.7164
 5146TIP3   OH236852   6.549   0.068   1.784  0.0042  0.3374  0.0577
 5146TIP3    H136853   6.597   0.058   1.866  2.3979 -1.7618 -1.4658
 5146TIP3    H236854   6.614   0.097   1.721 -0.9455 -1.4019 -1.8384
 5147TIP3   OH236855   1.912   4.384  16.423 -0.1248  0.5559  0.4851
 5147TIP3    H136856   1.849   4.393  16.351 -0.1653  2.6549  0.7391
 5147TIP3    H236857   1.950   4.297  16.410 -2.5475 -0.5186 -0.0919
 5148TIP3   OH236858   0.194   3.981  11.636  0.2026 -0.8402  0.0828
 5148TIP3    H136859   0.172   4.038  11.710 -1.7261  0.3219 -1.2998
 5148TIP3    H236860   0.276   4.018  11.602  0.1316 -0.2385  0.5448
 5149TIP3   OH236861   3.674   4.317   5.932 -0.2018 -0.5846 -0.4043
 5149TIP3    H136862   3.745   4.253   5.936  2.4476  1.9731 -2.3147
 5149TIP3    H236863   3.614   4.281   5.866  0.7616 -1.5241 -0.7968
 5150TIP3   OH236864   1.271   3.861   0.152  0.0521  0.0025  0.0828
 5150TIP3    H136865   1.273   3.931   0.216  0.1494 -0.2795  0.3913
 5150TIP3    H236866   1.258   3.781   0.203 -1.0655 -0.1073 -0.3526
 5151TIP3   OH236867   5.270   0.351  14.554 -0.0035 -0.1183 -0.0952
 5151TIP3    H136868   5.329   0.288  14.514 -1.2345 -1.0275 -0.5697
 5151TIP3    H236869   5.258   0.319  14.643  1.1339  0.7523  0.3956
 5152TIP3   OH236870   0.064   2.891  15.033 -0.1436 -0.1147 -0.4183
 5152TIP3    H136871  -0.029   2.887  15.054  0.1154 -2.5590  0.5227
 5152TIP3    H236872   0.106   2.924  15.112 -0.2039  1.9031 -1.1403
 5153TIP3   OH236873   4.131   0.554   6.209 -0.3610 -0.4587  0.0963
 5153TIP3    H136874   4.049   0.599   6.228 -0.0756 -0.6292  1.9039
 5153TIP3    H236875   4.112   0.461   6.224 -0.0550 -0.5902 -0.3095
 5154TIP3   OH236876   1.207   5.067   0.924  0.2530 -0.1364  0.6053
 5154TIP3    H136877   1.264   5.100   0.854  1.2381  1.7860  2.2181
 5154TIP3    H236878   1.158   4.996   0.883  1.1252  0.5956 -1.9032
 5155TIP3   OH236879   5.856   5.221   6.244  0.2331  0.0069  0.2250
 5155TIP3    H136880   5.807   5.142   6.265  1.1036 -0.8340 -0.8074
 5155TIP3    H236881   5.936   5.190   6.203  0.7272  1.4173  0.0620
 5156TIP3   OH236882   6.506   5.351   4.635  0.0855 -0.2392  0.5097
 5156TIP3    H136883   6.581   5.293   4.632  0.8683  0.6664  1.6931
 5156TIP3    H236884   6.542   5.439   4.626 -0.9231  0.1669  0.2079
 5157TIP3   OH236885   3.579   2.536   1.084  0.0028 -0.0904  0.0038
 5157TIP3    H136886   3.622   2.600   1.140  1.0412  0.7508 -1.6600
 5157TIP3    H236887   3.647   2.510   1.021 -1.4938  0.2147 -1.8393
 5158TIP3   OH236888   1.598   5.659   1.167 -0.5730  0.1427  0.3208
 5158TIP3    H136889   1.680   5.638   1.121  0.1179  2.5596  0.3067
 5158TIP3    H236890   1.622   5.732   1.224 -1.6225 -2.0679  3.8830
 5159TIP3   OH236891   6.641   0.459  12.012 -0.2750 -0.3011 -0.5022
 5159TIP3    H136892   6.668   0.399  11.944  2.2056 -0.8609  0.8526
 5159TIP3    H236893   6.682   0.543  11.988 -0.5353 -0.1450 -0.4069
 5160TIP3   OH236894   4.031   2.249  13.808  0.7537  0.1258  0.1003
 5160TIP3    H136895   4.126   2.236  13.818  0.7110 -0.1103  0.2018
 5160TIP3    H236896   3.998   2.250  13.898  0.6842  0.3960  0.0717
 5161TIP3   OH236897   3.256   1.839  11.423  0.3353  0.8762 -0.0538
 5161TIP3    H136898   3.213   1.894  11.488 -0.8889  0.6482 -0.6369
 5161TIP3    H236899   3.312   1.899  11.374 -0.8474  1.5959 -0.5620
 5162TIP3   OH236900   4.815   0.694   1.807 -0.3049 -0.2832  0.8052
 5162TIP3    H136901   4.908   0.701   1.785 -0.4457 -0.0942  0.2451
 5162TIP3    H236902   4.798   0.599   1.809 -0.7678 -0.3731 -2.1431
 5163TIP3   OH236903   3.309   0.585  11.126  0.0711  0.1346  0.3833
 5163TIP3    H136904   3.403   0.595  11.117  0.2475 -1.1285  0.6397
 5163TIP3    H236905   3.296   0.491  11.143 -1.2763  0.1790 -0.2629
 5164TIP3   OH236906   0.225   3.311  15.063 -0.5840  0.5400  0.0415
 5164TIP3    H136907   0.227   3.302  15.158 -0.1283  1.3235  0.1134
 5164TIP3    H236908   0.300   3.261  15.032 -2.5255 -2.4463 -0.1815
 5165TIP3   OH236909   6.800   5.883   5.195  0.2300  0.0667 -0.3020
 5165TIP3    H136910   6.729   5.899   5.258 -0.8003  0.8294 -1.6065
 5165TIP3    H236911   6.880   5.902   5.243 -0.4537 -0.4699  1.1101
 5166TIP3   OH236912   5.338   0.332  14.827 -0.1128 -0.2476  0.2393
 5166TIP3    H136913   5.391   0.409  14.847  0.3696 -0.1580 -1.2832
 5166TIP3    H236914   5.398   0.258  14.842 -0.2304 -0.2662  0.6202
 5167TIP3   OH236915   5.304   4.858  16.118 -0.1643  0.1484 -0.3260
 5167TIP3    H136916   5.325   4.767  16.140  2.8700  0.6598 -0.8094
 5167TIP3    H236917   5.387   4.904  16.122 -1.4407  2.7174 -1.2389
 5168TIP3   OH236918   5.664   5.025   0.954  0.1866  0.3076  0.2693
 5168TIP3    H136919   5.643   5.112   0.987  0.0926  0.0102  1.0072
 5168TIP3    H236920   5.670   5.037   0.859 -2.4886  0.6155  0.0436
 5169TIP3   OH236921   1.268   5.013  12.751 -0.4829 -0.2619 -0.5392
 5169TIP3    H136922   1.299   5.095  12.712  3.2490 -1.8415 -1.3491
 5169TIP3    H236923   1.287   4.947  12.684 -1.3582 -2.0666  0.9126
 5170TIP3   OH236924   6.402   0.010  12.394  0.4547  0.0830 -0.1030
 5170TIP3    H136925   6.410  -0.084  12.377  0.6412  0.2244 -0.8457
 5170TIP3    H236926   6.489   0.045  12.375  0.4735  0.3642  0.4821
 5171TIP3   OH236927   5.873   6.304  12.023  0.1815 -0.5738 -0.2905
 5171TIP3    H136928   5.818   6.235  12.060  0.6992 -0.7632  0.1370
 5171TIP3    H236929   5.907   6.266  11.941  0.1823 -0.6957 -0.2340
 5172TIP3   OH236930   3.422   0.045   5.679 -1.2234  0.5153 -0.4256
 5172TIP3    H136931   3.447   0.038   5.771 -1.5221 -0.5042 -0.4115
 5172TIP3    H236932   3.463   0.126   5.649  1.4244 -0.6471 -0.1869
 5173TIP3   OH236933   1.247   4.732  16.593  0.0829 -0.0337 -0.0118
 5173TIP3    H136934   1.323   4.678  16.574 -1.0520 -1.7032 -0.0460
 5173TIP3    H236935   1.174   4.685  16.553 -1.0533  1.2082  0.5307
 5174TIP3   OH236936   3.449   5.710  12.884  0.1788 -0.8359 -0.8144
 5174TIP3    H136937   3.370   5.759  12.908  0.1402 -1.4286  0.3726
 5174TIP3    H236938   3.416   5.631  12.842  0.0372 -1.6797  0.7859
 5175TIP3   OH236939   1.975   2.400  14.019 -0.7500 -0.5023 -0.0612
 5175TIP3    H136940   2.025   2.440  14.090 -2.1438  1.3838 -0.0676
 5175TIP3    H236941   1.966   2.469  13.953 -0.8131 -1.7267 -1.3973
 5176TIP3   OH236942   5.824   4.824   5.798  0.2009 -0.4676 -0.1422
 5176TIP3    H136943   5.800   4.777   5.719 -1.1908  0.5244 -0.3472
 5176TIP3    H236944   5.743   4.830   5.849  0.3240  1.5532 -0.0828
 5177TIP3   OH236945   0.889   5.310   0.197 -0.3743  0.0243  0.1272
 5177TIP3    H136946   0.852   5.364   0.127 -2.6515  0.8973  1.8828
 5177TIP3    H236947   0.824   5.240   0.211 -0.9440  0.9246  2.5282
 5178TIP3   OH236948   4.585   6.129  15.443  0.0799  0.2078 -0.1008
 5178TIP3    H136949   4.677   6.112  15.461  0.1161  0.4810 -0.0136
 5178TIP3    H236950   4.557   6.183  15.518  0.4950  2.2820 -1.3625
 5179TIP3   OH236951   3.735   1.717   1.393 -0.2711 -0.1199 -0.3321
 5179TIP3    H136952   3.642   1.695   1.404 -0.4336  1.7299  3.8066
 5179TIP3    H236953   3.734   1.809   1.364  0.2620  0.0397  0.1546
 5180TIP3   OH236954   3.580   5.201  12.132  0.5477  0.3326 -0.4431
 5180TIP3    H136955   3.575   5.296  12.125 -0.4530  0.3152 -0.1218
 5180TIP3    H236956   3.528   5.180  12.210 -0.9749 -0.6370 -1.6576
 5181TIP3   OH236957   4.501   1.297  16.043  0.2765  0.4333 -0.0194
 5181TIP3    H136958   4.577   1.353  16.024  0.3581  0.6252  0.8285
 5181TIP3    H236959   4.486   1.309  16.136  1.6034 -2.5453  0.6899
 5182TIP3   OH236960   4.703   6.027  12.192  0.1452 -0.0948 -0.9592
 5182TIP3    H136961   4.697   6.122  12.201 -1.9410 -0.1347 -1.4065
 5182TIP3    H236962   4.763   5.999  12.261 -1.4859  1.2855  1.1478
 5183TIP3   OH236963   5.853   1.031  13.148  0.2437 -0.0255 -0.1213
 5183TIP3    H136964   5.923   1.053  13.086  0.6558 -0.6166  0.1162
 5183TIP3    H236965   5.839   0.937  13.135 -0.0440 -0.0427  0.3038
 5184TIP3   OH236966   0.517   1.679   5.451  0.0216  0.2477  0.2524
 5184TIP3    H136967   0.449   1.741   5.476  0.1811 -0.0448  1.4656
 5184TIP3    H236968   0.470   1.605   5.413 -0.3454  0.0453  1.0833
 5185TIP3   OH236969   2.793   3.440   1.836 -0.2821 -0.0600 -0.2900
 5185TIP3    H136970   2.791   3.508   1.903  0.0165 -0.4854  0.1521
 5185TIP3    H236971   2.736   3.371   1.870  1.9304 -1.4517  0.8043
 5186TIP3   OH236972   3.304   3.081  15.703 -0.0459 -0.2983  0.3743
 5186TIP3    H136973   3.299   3.176  15.690 -1.8015 -0.2755  0.9662
 5186TIP3    H236974   3.297   3.044  15.615  2.9277  0.0992 -0.1460
 5187TIP3   OH236975   0.700   0.999   1.990 -0.1543  0.0532  0.0958
 5187TIP3    H136976   0.609   1.023   1.971 -0.4225  0.2598  1.5318
 5187TIP3    H236977   0.750   1.078   1.967 -0.3543  0.0062 -0.5173
 5188TIP3   OH236978   0.831   4.345  13.172  0.5963  0.4122 -0.5904
 5188TIP3    H136979   0.889   4.268  13.176 -0.3996 -0.4525 -1.9190
 5188TIP3    H236980   0.757   4.316  13.119 -1.5376  1.2001  1.7969
 5189TIP3   OH236981   6.608   0.228   3.841 -0.2735 -0.1457  0.0725
 5189TIP3    H136982   6.645   0.249   3.927 -1.2370 -1.1830  0.7677
 5189TIP3    H236983   6.520   0.265   3.844 -0.4853 -0.6185 -0.2813
 5190TIP3   OH236984   4.416   2.050   0.733 -0.1130  0.3980 -0.0565
 5190TIP3    H136985   4.507   2.027   0.753 -0.8363 -0.7571  2.2495
 5190TIP3    H236986   4.385   2.095   0.811 -1.7644  0.0145 -0.4527
 5191TIP3   OH236987   1.896   5.365  13.112 -0.3218  0.8955 -0.2167
 5191TIP3    H136988   1.844   5.291  13.145  1.6442 -0.1973  0.5771
 5191TIP3    H236989   1.879   5.436  13.175 -1.1071  0.6852 -0.1753
 5192TIP3   OH236990   0.597   2.988   5.977 -0.1542  0.0919 -0.2991
 5192TIP3    H136991   0.626   2.904   6.013  0.7914 -0.0224 -1.2866
 5192TIP3    H236992   0.677   3.040   5.969 -0.4893  0.4900 -1.2139
 5193TIP3   OH236993   4.082   3.732   4.901  0.6470 -0.4019 -0.2588
 5193TIP3    H136994   4.000   3.752   4.947  0.5541 -2.6090  0.6367
 5193TIP3    H236995   4.076   3.783   4.820 -1.3196 -0.0089  0.0754
 5194TIP3   OH236996   3.440   6.465  15.225  0.1799 -0.3369  0.4456
 5194TIP3    H136997   3.412   6.516  15.301 -0.9863 -0.6688  0.2582
 5194TIP3    H236998   3.476   6.531  15.165 -1.4175  0.3268  0.1581
 5195TIP3   OH236999   3.153   1.802   2.791 -0.8369  0.1802  0.5549
 5195TIP3    H137000   3.114   1.857   2.858  0.3539  0.6793  0.8775
 5195TIP3    H237001   3.245   1.793   2.818 -0.1777  0.8315 -1.2499
 5196TIP3   OH237002   0.614   3.551   2.076  0.0731  0.1010 -0.1079
 5196TIP3    H137003   0.525   3.556   2.040 -0.4899  0.0889  1.1916
 5196TIP3    H237004   0.641   3.643   2.084 -0.5909  0.2207  1.1988
 5197TIP3   OH237005   4.385   1.385   2.513  0.2898 -0.6427  0.2459
 5197TIP3    H137006   4.352   1.471   2.538 -0.2566 -0.3500 -1.3873
 5197TIP3    H237007   4.442   1.360   2.586  1.4129  1.6086  0.2362
 5198TIP3   OH237008   2.978   4.353   5.384  0.1001  0.4163 -0.2379
 5198TIP3    H137009   2.958   4.262   5.406  1.2724  0.4492  1.1246
 5198TIP3    H237010   2.923   4.373   5.309 -1.7052 -0.7857  0.7024
 5199TIP3   OH237011   4.501   4.570   3.344  0.3592 -0.7651  0.3951
 5199TIP3    H137012   4.445   4.576   3.267  0.5927  0.7789  0.3195
 5199TIP3    H237013   4.510   4.476   3.360  1.5604 -1.2157 -2.3798
 5200TIP3   OH237014   4.535   6.616   0.502 -0.1141  0.2644 -0.3821
 5200TIP3    H137015   4.555   6.695   0.452 -2.2008  0.1829 -1.4732
 5200TIP3    H237016   4.519   6.647   0.591  1.3627  0.7352 -0.2699
 5201TIP3   OH237017   2.172   0.510  15.719  0.4715 -0.2375 -0.2663
 5201TIP3    H137018   2.078   0.496  15.705 -0.1957  0.2665  2.8157
 5201TIP3    H237019   2.215   0.450  15.659 -1.8130 -0.5443 -1.7058
 5202TIP3   OH237020   0.415   3.395  17.169  0.0179  0.1367 -0.4546
 5202TIP3    H137021   0.481   3.452  17.131 -0.0192  0.5048  0.0279
 5202TIP3    H237022   0.333   3.443  17.160  0.1275  0.6155  0.8469
 5203TIP3   OH237023   0.427   6.361  15.367  0.2165  0.6785 -0.2879
 5203TIP3    H137024   0.500   6.371  15.306  0.5680 -0.6082 -0.1065
 5203TIP3    H237025   0.456   6.293  15.428  0.5422  2.9488  2.3131
 5204TIP3   OH237026   3.314   0.757   1.748  0.5709  1.1529 -0.3577
 5204TIP3    H137027   3.262   0.803   1.814 -0.0740 -2.4158  1.8663
 5204TIP3    H237028   3.253   0.694   1.709  1.6077  1.4819 -2.6646
 5205TIP3   OH237029   3.625   0.906   3.287 -0.1896  0.4207  0.1471
 5205TIP3    H137030   3.675   0.987   3.276 -0.7814  0.7248 -0.4453
 5205TIP3    H237031   3.576   0.897   3.204  0.9595 -1.3098 -0.4076
 5206TIP3   OH237032   6.165   3.228  12.288  0.3991 -0.4686  0.5120
 5206TIP3    H137033   6.130   3.220  12.199 -0.1987  2.3404  0.4284
 5206TIP3    H237034   6.247   3.276  12.278  1.3764 -1.8586  1.3447
 5207TIP3   OH237035   4.410   6.444   3.333  0.3315  0.6977 -0.1285
 5207TIP3    H137036   4.421   6.458   3.427  2.2290  1.9026 -0.4730
 5207TIP3    H237037   4.482   6.387   3.309 -0.7378 -0.4501 -0.7164
 5208TIP3   OH237038   6.015   4.233  16.751 -1.5266 -0.0468 -0.0506
 5208TIP3    H137039   6.006   4.202  16.661 -1.6101 -0.7285  0.1871
 5208TIP3    H237040   6.056   4.160  16.798 -1.0764  0.4628  0.3704
 5209TIP3   OH237041   4.995   5.031  10.740  0.3161 -0.3001  0.2212
 5209TIP3    H137042   5.035   4.999  10.659 -0.6223 -1.6592  0.2568
 5209TIP3    H237043   4.901   5.023  10.725  0.0994  0.6977  0.9626
 5210TIP3   OH237044   6.440   1.538   3.171  0.3493 -0.0771  0.3162
 5210TIP3    H137045   6.428   1.575   3.258  0.9707 -0.5373  0.6106
 5210TIP3    H237046   6.352   1.521   3.139 -0.0295  2.5494 -0.2556
 5211TIP3   OH237047   2.373   5.775   2.848 -0.1070 -0.1521 -0.2574
 5211TIP3    H137048   2.451   5.765   2.794  0.1930 -0.9548  0.3231
 5211TIP3    H237049   2.395   5.845   2.910  0.6399 -1.2582  0.7552
 5212TIP3   OH237050   5.045   4.340   2.541 -0.2379 -0.2208  0.5319
 5212TIP3    H137051   5.078   4.364   2.628 -0.4724  1.2712  0.2437
 5212TIP3    H237052   4.950   4.344   2.550 -0.2673 -0.4623  0.3173
 5213TIP3   OH237053   1.219   2.499  14.616  0.1151  0.3799  0.7866
 5213TIP3    H137054   1.272   2.539  14.548  0.7407 -0.1357  0.9653
 5213TIP3    H237055   1.278   2.487  14.690 -0.3960  0.3470  1.1983
 5214TIP3   OH237056   5.962   2.038   4.365 -0.1591  0.0589 -0.0470
 5214TIP3    H137057   5.992   2.030   4.274  0.8528  0.4057  0.2369
 5214TIP3    H237058   5.874   2.076   4.358  0.0995  0.5366 -0.8703
 5215TIP3   OH237059   2.453   4.994  11.984  0.2446 -0.4822 -0.0466
 5215TIP3    H137060   2.512   4.969  12.056  1.3870  1.2247 -0.3390
 5215TIP3    H237061   2.443   5.088  11.992 -3.0848 -0.7634  0.3893
 5216TIP3   OH237062   4.176   3.870   1.077 -0.6476 -0.1042 -0.2275
 5216TIP3    H137063   4.163   3.928   1.152 -1.5369  1.4332 -1.5336
 5216TIP3    H237064   4.107   3.893   1.016  0.6195 -0.6637 -1.9413
 5217TIP3   OH237065   0.140   3.383  15.981 -0.1393  0.4279 -0.3927
 5217TIP3    H137066   0.169   3.409  15.894  0.0548 -1.6338 -0.9932
 5217TIP3    H237067   0.131   3.466  16.029  3.3882  1.4511 -1.1882
 5218TIP3   OH237068   4.295   0.738  14.453  1.2887  0.6169  0.0094
 5218TIP3    H137069   4.249   0.673  14.400  2.2267 -0.0727  0.0205
 5218TIP3    H237070   4.300   0.816  14.398  0.4028  0.5983 -0.1108
 5219TIP3   OH237071   3.332   1.576  11.770  0.3847 -0.0757  0.7843
 5219TIP3    H137072   3.413   1.625  11.756 -0.3293  0.7871 -0.5536
 5219TIP3    H237073   3.344   1.534  11.855  1.5746  1.3650  1.3735
 5220TIP3   OH237074   4.677   4.698   2.090  0.2899  0.2566  0.0724
 5220TIP3    H137075   4.634   4.617   2.116  0.2870 -0.2874 -1.5504
 5220TIP3    H237076   4.751   4.670   2.036 -0.4679  1.3538 -1.6071
 5221TIP3   OH237077   3.861   3.877   1.542 -0.2084  0.4782  0.4623
 5221TIP3    H137078   3.822   3.904   1.625  1.6200 -2.6666  2.5628
 5221TIP3    H237079   3.794   3.823   1.501 -1.2693  2.3594 -0.4094
 5222TIP3   OH237080   5.654   2.338   2.442  0.6507  0.1320 -0.2885
 5222TIP3    H137081   5.575   2.302   2.482 -1.4662  1.4443 -2.9573
 5222TIP3    H237082   5.714   2.263   2.437  0.2488 -0.5593  3.1154
 5223TIP3   OH237083   2.976   4.316  10.685 -0.0361  0.1258  0.2429
 5223TIP3    H137084   3.000   4.333  10.776  0.4308  0.2957  0.0907
 5223TIP3    H237085   3.056   4.280  10.645 -0.3505 -0.3116 -0.0017
 5224TIP3   OH237086   5.928   3.815  15.260  0.1792  0.7018 -0.5754
 5224TIP3    H137087   5.934   3.780  15.171 -2.2701  0.8528 -0.8531
 5224TIP3    H237088   5.838   3.846  15.269  0.0541 -0.1150  2.2525
 5225TIP3   OH237089   1.631   0.684   2.195 -0.6167  0.2634  0.1164
 5225TIP3    H137090   1.685   0.666   2.118 -0.9804  0.0508 -0.0895
 5225TIP3    H237091   1.547   0.713   2.160 -1.5569 -1.9370  0.3842
 5226TIP3   OH237092   4.142   2.253  16.062  0.1513 -0.4917  0.0768
 5226TIP3    H137093   4.060   2.214  16.031 -0.9428  0.5818  1.4721
 5226TIP3    H237094   4.154   2.330  16.006 -0.0142 -0.4353  0.1165
 5227TIP3   OH237095   4.044   1.559   3.992  0.5790  0.0164  0.6894
 5227TIP3    H137096   3.975   1.613   3.954  1.9371  1.8834  0.6953
 5227TIP3    H237097   4.086   1.518   3.916  0.4306  0.1071  0.5577
 5228TIP3   OH237098   3.136   6.355   4.825  0.4653 -1.2881 -0.0376
 5228TIP3    H137099   3.230   6.365   4.837  1.3605 -3.8283 -3.3661
 5228TIP3    H237100   3.103   6.444   4.811  2.3830 -0.3709  0.9827
 5229TIP3   OH237101   5.939   4.473   0.401  0.0315 -0.3653 -0.1780
 5229TIP3    H137102   5.980   4.483   0.487 -0.8746  0.1681  0.2090
 5229TIP3    H237103   5.877   4.400   0.412  1.6948 -1.9895 -1.0952
 5230TIP3   OH237104   3.050   5.924   4.940 -0.2252 -0.3700  0.7185
 5230TIP3    H137105   3.004   6.001   4.908 -2.2845 -2.0683 -0.6750
 5230TIP3    H237106   3.139   5.933   4.905 -0.2970  1.5420  0.9461
 5231TIP3   OH237107   2.787   1.299  13.534  0.3114 -0.1236  0.0464
 5231TIP3    H137108   2.694   1.284  13.518 -0.2358  2.2566  0.5888
 5231TIP3    H237109   2.805   1.257  13.618 -0.6677  0.6435  0.6553
 5232TIP3   OH237110   2.196   6.346  13.178  0.2227  0.1674 -0.0318
 5232TIP3    H137111   2.195   6.300  13.094 -0.3047  0.9198 -0.4468
 5232TIP3    H237112   2.255   6.294  13.233 -0.8616 -1.3628 -0.2695
 5233TIP3   OH237113   0.669   0.311  11.886  0.3155 -0.1141 -0.0525
 5233TIP3    H137114   0.584   0.294  11.926 -0.1531 -0.7111 -1.2656
 5233TIP3    H237115   0.708   0.225  11.875  1.6486  0.2150  1.6193
 5234TIP3   OH237116   5.484   0.865   5.027 -0.3303  0.3232 -0.3198
 5234TIP3    H137117   5.439   0.941   5.063 -1.0905  0.4672 -1.5180
 5234TIP3    H237118   5.415   0.798   5.021  0.5445 -0.8805  1.7648
 5235TIP3   OH237119   1.537   2.681  11.758  0.0576  0.1955  0.1058
 5235TIP3    H137120   1.571   2.669  11.847 -1.6507  0.2910  0.8127
 5235TIP3    H237121   1.493   2.599  11.738 -2.1263  1.1843  0.5652
 5236TIP3   OH237122   2.711   2.325   4.480 -0.1666 -0.1333 -0.3652
 5236TIP3    H137123   2.771   2.367   4.418 -0.7771  0.0636 -0.8336
 5236TIP3    H237124   2.768   2.284   4.545  0.5642 -1.6014 -1.8648
 5237TIP3   OH237125   4.263   2.010   1.486 -0.6772  0.3440  0.3221
 5237TIP3    H137126   4.358   2.012   1.471 -0.5157 -1.0501  1.0143
 5237TIP3    H237127   4.251   2.054   1.570 -0.7464  1.1365 -0.0835
 5238TIP3   OH237128   3.970   1.982   0.615  0.1949  0.4463  0.4212
 5238TIP3    H137129   3.904   1.930   0.570  1.2235  0.1104 -0.7646
 5238TIP3    H237130   4.039   1.995   0.550 -0.2794  3.8642  0.4040
 5239TIP3   OH237131   1.196   3.519   4.621  0.5884 -0.2450 -0.0121
 5239TIP3    H137132   1.129   3.568   4.669  0.5289 -1.0712  0.7750
 5239TIP3    H237133   1.279   3.551   4.656  0.6007  0.3481 -0.5617
 5240TIP3   OH237134   4.772   2.072  11.370  0.1988  0.5100 -0.2193
 5240TIP3    H137135   4.684   2.110  11.372  0.1305  0.2991  1.2713
 5240TIP3    H237136   4.815   2.117  11.297 -0.2358  2.6551  0.7828
 5241TIP3   OH237137   4.526   1.969   1.363  0.1734  0.1749 -0.2630
 5241TIP3    H137138   4.522   2.034   1.294 -1.7827 -0.3292 -0.6884
 5241TIP3    H237139   4.610   1.985   1.406  0.0821  2.4755 -0.8059
 5242TIP3   OH237140   1.704   2.074   0.485  0.1058 -0.1226  0.3998
 5242TIP3    H137141   1.656   1.996   0.457 -0.3952  0.1606  0.4624
 5242TIP3    H237142   1.711   2.065   0.580 -0.4894  0.2074  0.4783
 5243TIP3   OH237143   3.797   6.581  12.895 -0.1136 -0.3185  0.0598
 5243TIP3    H137144   3.718   6.635  12.894  0.4287  0.5026  0.2214
 5243TIP3    H237145   3.784   6.518  12.824 -2.1859 -2.1242  1.8612
 5244TIP3   OH237146   5.037   1.405  15.853 -0.2139 -0.0007 -0.4756
 5244TIP3    H137147   5.062   1.403  15.760  2.9996  0.2532  0.2659
 5244TIP3    H237148   5.006   1.494  15.868  0.7065  0.4198 -0.9963
 5245TIP3   OH237149   0.401   5.756   3.740  0.4340 -0.3437  0.0214
 5245TIP3    H137150   0.449   5.769   3.658  1.7745  0.3091  0.8690
 5245TIP3    H237151   0.386   5.662   3.745  1.4974 -0.5533 -0.3730
 5246TIP3   OH237152   4.476   3.722   2.682 -0.5804  0.1383  0.2106
 5246TIP3    H137153   4.453   3.797   2.626  0.4978 -0.9129 -1.7511
 5246TIP3    H237154   4.561   3.745   2.718 -0.4538  0.0512 -0.0319
 5247TIP3   OH237155   0.231   0.371   6.093  0.0026 -0.1091 -0.0347
 5247TIP3    H137156   0.268   0.446   6.047 -0.3952  0.5082  0.6293
 5247TIP3    H237157   0.136   0.387   6.093 -0.0236 -0.2324  0.7567
 5248TIP3   OH237158   2.581   0.466   4.714 -0.3751 -0.5451  0.3388
 5248TIP3    H137159   2.671   0.434   4.702 -0.3490 -0.7336  0.9969
 5248TIP3    H237160   2.528   0.387   4.718 -0.6902 -0.4165 -0.8399
 5249TIP3   OH237161   3.228   3.399   6.692  0.4865  0.2675 -0.2637
 5249TIP3    H137162   3.228   3.431   6.601 -1.5802  2.2287  0.3514
 5249TIP3    H237163   3.321   3.393   6.714  1.0332  0.8240 -2.1447
 5250TIP3   OH237164   2.024   5.064  15.338 -0.4406 -0.6089  0.0247
 5250TIP3    H137165   1.934   5.095  15.345 -0.3660 -0.3569 -0.1180
 5250TIP3    H237166   2.062   5.081  15.424  0.1749  1.5338 -0.5972
 5251TIP3   OH237167   0.974   5.508  12.933 -0.0786 -0.1061  0.3749
 5251TIP3    H137168   0.902   5.554  12.889 -1.7595  0.0735  3.0704
 5251TIP3    H237169   1.047   5.514  12.872 -1.7822  1.4125 -1.6795
 5252TIP3   OH237170   5.217   4.754  16.761 -0.3320 -0.9460  0.2736
 5252TIP3    H137171   5.307   4.721  16.767  0.0273  0.1755  1.5509
 5252TIP3    H237172   5.191   4.769  16.852 -0.8513  1.1784 -0.1691
 5253TIP3   OH237173   6.710   6.738   2.253  0.2125  0.1636 -0.7952
 5253TIP3    H137174   6.798   6.755   2.286 -0.1486  0.8331 -0.1662
 5253TIP3    H237175   6.657   6.808   2.289 -0.7251 -0.6364 -0.5860
 5254TIP3   OH237176   4.921   5.922  13.235  0.1063 -0.6721  0.1284
 5254TIP3    H137177   4.829   5.942  13.217  0.1254  0.7715  1.4536
 5254TIP3    H237178   4.927   5.827  13.227 -1.3683 -0.7420 -0.4998
 5255TIP3   OH237179   0.967   4.209   5.725  0.2985  0.2049  0.0151
 5255TIP3    H137180   0.994   4.254   5.805 -3.0996  1.0959  0.8279
 5255TIP3    H237181   0.893   4.260   5.693  0.9351 -0.6851 -3.2271
 5256TIP3   OH237182   1.250   6.687  16.269 -0.2257  0.1075 -0.0795
 5256TIP3    H137183   1.292   6.691  16.355  1.5167 -1.0464 -0.8134
 5256TIP3    H237184   1.165   6.645  16.285  0.2188 -0.4075  1.0267
 5257TIP3   OH237185   0.630   6.588   4.793  0.0662  0.3335  0.1395
 5257TIP3    H137186   0.637   6.669   4.843  0.0381 -0.1570  0.9420
 5257TIP3    H237187   0.552   6.601   4.738 -0.2799  0.6249  0.6909
 5258TIP3   OH237188   0.993   2.173  15.670  0.6766  0.2646 -0.2398
 5258TIP3    H137189   1.021   2.141  15.585 -0.6747 -0.0330 -0.5967
 5258TIP3    H237190   1.002   2.268  15.664  1.1711  0.2055 -0.4908
 5259TIP3   OH237191   3.230   5.880  14.535  0.2135 -0.0409 -0.4614
 5259TIP3    H137192   3.280   5.799  14.527 -0.6013 -0.9602  2.4307
 5259TIP3    H237193   3.188   5.874  14.621 -3.0783  1.6653 -1.7540
 5260TIP3   OH237194   0.623   5.337   1.110  0.4884  0.4417 -0.0390
 5260TIP3    H137195   0.573   5.268   1.067 -1.0288  0.6784  1.2789
 5260TIP3    H237196   0.595   5.418   1.068  1.5793  0.3837 -0.9386
 5261TIP3   OH237197   2.588   2.225  11.479  0.0230  0.1384  0.3759
 5261TIP3    H137198   2.637   2.150  11.444 -0.4629 -0.1801  0.3656
 5261TIP3    H237199   2.624   2.238  11.567 -1.9228 -2.0479  1.6032
 5262TIP3   OH237200   0.653   6.614  14.323 -0.0389  0.4310  0.3606
 5262TIP3    H137201   0.715   6.687  14.331  1.0575 -0.5609  1.4037
 5262TIP3    H237202   0.666   6.564  14.404 -1.2237 -0.5757 -0.0498
 5263TIP3   OH237203   0.223   5.975   4.916 -0.1104 -0.3509 -0.0507
 5263TIP3    H137204   0.264   5.896   4.879  1.5235 -0.1489  1.2365
 5263TIP3    H237205   0.256   6.047   4.862  0.6628 -0.2699  0.5145
 5264TIP3   OH237206   3.839   4.799  17.074 -0.2507  0.0541  0.0274
 5264TIP3    H137207   3.842   4.733  17.144  1.7739  0.1761  0.1073
 5264TIP3    H237208   3.928   4.835  17.071 -1.1226  2.3396 -0.4608
 5265TIP3   OH237209   6.555   5.775  14.704  0.4450  0.0822 -0.3501
 5265TIP3    H137210   6.612   5.837  14.658 -0.8231  1.0847 -0.6411
 5265TIP3    H237211   6.612   5.701  14.726  1.9233  1.1707 -0.3442
 5266TIP3   OH237212   4.478   1.172  13.155  0.0201  0.2413  0.3498
 5266TIP3    H137213   4.395   1.220  13.150  0.7040  1.3649 -0.7752
 5266TIP3    H237214   4.530   1.207  13.083  2.6614  1.8396  2.8426
 5267TIP3   OH237215   6.771   4.682  12.088 -0.7367 -0.1800 -0.0966
 5267TIP3    H137216   6.816   4.617  12.034 -1.9255  0.1638 -1.5640
 5267TIP3    H237217   6.686   4.693  12.046 -2.0052 -0.4056  2.2711
 5268TIP3   OH237218   4.355   1.795  14.543 -0.5416 -0.2630 -0.3834
 5268TIP3    H137219   4.421   1.819  14.479  0.4792  0.0958  0.7531
 5268TIP3    H237220   4.403   1.745  14.609 -1.2585  0.5357  0.7897
 5269TIP3   OH237221   4.120   3.197   3.717 -0.4153 -0.0891  0.0176
 5269TIP3    H137222   4.127   3.109   3.753 -1.3678 -0.7500 -1.3005
 5269TIP3    H237223   4.026   3.214   3.714 -0.2516  0.8754  0.0158
 5270TIP3   OH237224   6.364   3.492   0.410  0.2625  0.2957 -0.1658
 5270TIP3    H137225   6.422   3.566   0.393  1.5002 -0.1823  1.6973
 5270TIP3    H237226   6.317   3.479   0.327  0.5131  2.6900 -0.7401
 5271TIP3   OH237227   5.862   2.483  11.260  0.2660 -0.1626  0.3802
 5271TIP3    H137228   5.917   2.452  11.188 -1.3694 -1.3723 -0.4299
 5271TIP3    H237229   5.849   2.576  11.243 -1.2829 -0.7033 -1.7938
 5272TIP3   OH237230   4.076   6.760   6.243  0.6733 -0.7354 -0.1664
 5272TIP3    H137231   4.125   6.774   6.324 -2.3956 -1.1118  1.9201
 5272TIP3    H237232   4.055   6.848   6.212  1.4198 -0.5936 -0.2748
 5273TIP3   OH237233   1.407   4.013   5.877  0.4302 -0.1046  0.8582
 5273TIP3    H137234   1.493   4.017   5.919  1.2148 -2.3044 -0.3663
 5273TIP3    H237235   1.363   4.093   5.904  2.8298  1.0427  1.6024
 5274TIP3   OH237236   0.867   6.536   3.943  0.2309 -0.1526 -0.1513
 5274TIP3    H137237   0.850   6.452   3.986 -0.4732  0.1531  0.1887
 5274TIP3    H237238   0.844   6.602   4.009  2.3614  0.3225  0.1744
 5275TIP3   OH237239   1.002   2.832   2.418  0.2851  0.1189 -0.2267
 5275TIP3    H137240   0.961   2.751   2.449  1.7530 -0.1074  1.2585
 5275TIP3    H237241   0.944   2.902   2.449  1.1089 -0.1744  2.2023
 5276TIP3   OH237242   4.230   6.265   2.911 -0.1076  0.1546 -0.0826
 5276TIP3    H137243   4.187   6.180   2.909 -0.8074  0.4686 -3.2234
 5276TIP3    H237244   4.236   6.287   3.004 -1.0161 -2.7280  0.7497
 5277TIP3   OH237245   2.916   3.469  16.975  0.2665 -0.5835  0.1821
 5277TIP3    H137246   2.842   3.528  16.965 -0.0877 -0.7987  1.3837
 5277TIP3    H237247   2.991   3.527  16.985  0.2758 -0.3665 -0.9360
 5278TIP3   OH237248   3.174   6.731   5.758  0.0336 -0.3171 -0.1677
 5278TIP3    H137249   3.143   6.802   5.813  0.1092 -0.0329 -0.4870
 5278TIP3    H237250   3.261   6.759   5.729  1.6060 -2.0508  2.4644
 5279TIP3   OH237251   1.588   6.535  16.011  0.2879 -0.7450  0.6712
 5279TIP3    H137252   1.671   6.582  16.002 -0.4235  0.9197  2.1401
 5279TIP3    H237253   1.614   6.445  16.028  1.8620 -0.1095  1.9662
 5280TIP3   OH237254   6.189   6.795  11.159  0.6887 -0.2181  0.1926
 5280TIP3    H137255   6.222   6.845  11.234  1.4351 -0.2184 -0.1246
 5280TIP3    H237256   6.250   6.816  11.088 -0.1790  0.0087 -0.4914
 5281TIP3   OH237257   0.554   4.550   5.426 -0.2601  0.1185 -0.1572
 5281TIP3    H137258   0.594   4.464   5.438  0.3658  0.3052 -0.8397
 5281TIP3    H237259   0.549   4.562   5.331 -0.6117  0.7171 -0.0749
 5282TIP3   OH237260   2.796   3.402   6.112 -0.1872  0.1699 -0.7998
 5282TIP3    H137261   2.885   3.367   6.113  0.4842  1.7674 -0.9267
 5282TIP3    H237262   2.802   3.479   6.055 -1.8178 -0.0817 -1.3403
 5283TIP3   OH237263   2.564   3.222  16.483 -0.7828  0.4701  0.5589
 5283TIP3    H137264   2.593   3.288  16.421 -2.7322  2.9525  2.1080
 5283TIP3    H237265   2.606   3.246  16.566 -0.9030 -0.7341  0.9962
 5284TIP3   OH237266   5.248   4.539  15.779 -0.1442 -0.0951  0.4490
 5284TIP3    H137267   5.237   4.462  15.835 -0.5401 -0.8168 -0.5982
 5284TIP3    H237268   5.307   4.510  15.710 -1.1031  0.2173 -0.5310
 5285TIP3   OH237269   4.874   6.132  12.840  0.1023  0.0122 -0.0553
 5285TIP3    H137270   4.917   6.196  12.784 -0.7888 -0.1366 -0.9190
 5285TIP3    H237271   4.788   6.120  12.802 -0.5376 -0.0898  1.3524
 5286TIP3   OH237272   3.088   2.994  17.027  0.0525 -0.2174 -0.2188
 5286TIP3    H137273   3.053   2.983  16.938  0.2508  0.3949 -0.3811
 5286TIP3    H237274   3.097   2.905  17.060  0.8917 -0.5034 -1.1725
 5287TIP3   OH237275   3.038   1.268   1.497  0.1355  0.4397 -0.4842
 5287TIP3    H137276   3.056   1.258   1.403  0.0570 -0.8117 -0.3839
 5287TIP3    H237277   3.122   1.294   1.534 -0.0713  1.9785 -1.0233
 5288TIP3   OH237278   1.786   0.208  12.834 -0.1194 -0.3808  0.2666
 5288TIP3    H137279   1.725   0.228  12.905  0.8600  3.0221  0.3416
 5288TIP3    H237280   1.768   0.275  12.767  0.7718 -1.8656 -1.5491
 5289TIP3   OH237281   0.176   6.527   0.937  0.3238  1.0860 -0.2707
 5289TIP3    H137282   0.105   6.505   0.997 -1.8682  0.7081 -2.7862
 5289TIP3    H237283   0.131   6.558   0.858  3.0353  2.2122 -1.5011
 5290TIP3   OH237284   2.936   2.434   3.014 -0.1850  0.2095 -0.4721
 5290TIP3    H137285   2.858   2.470   2.970 -0.7775 -1.0504 -0.5131
 5290TIP3    H237286   2.937   2.476   3.100 -2.0932 -1.2165  0.3062
 5291TIP3   OH237287   2.554   1.266   1.916 -0.1100 -0.0710  0.3740
 5291TIP3    H137288   2.640   1.292   1.948 -0.1858  0.0067  0.5176
 5291TIP3    H237289   2.522   1.343   1.868 -1.1255  0.8354  2.3674
 5292TIP3   OH237290   5.308   4.146  16.208 -0.0124 -0.3258 -0.9998
 5292TIP3    H137291   5.252   4.184  16.141  2.0663  1.2520 -1.9617
 5292TIP3    H237292   5.362   4.083  16.160 -0.0324 -0.8453 -0.3505
 5293TIP3   OH237293   5.794   3.104  14.876  0.0211  0.1723 -0.2010
 5293TIP3    H137294   5.720   3.080  14.820  0.4754 -0.4647 -0.5548
 5293TIP3    H237295   5.862   3.130  14.814  0.3109  0.0971  0.0836
 5294TIP3   OH237296   2.973   1.814  17.185  0.3085  0.0367 -0.0801
 5294TIP3    H137297   3.022   1.830  17.266  1.2206  0.3893 -0.6783
 5294TIP3    H237298   2.993   1.890  17.130 -1.7857  0.7365  0.0399
 5295TIP3   OH237299   0.601   6.267   3.879  0.3143  0.9486 -0.5517
 5295TIP3    H137300   0.653   6.189   3.860 -0.2101  0.6248 -0.6602
 5295TIP3    H237301   0.514   6.234   3.902 -0.3331  1.5475 -1.9832
 5296TIP3   OH237302   5.168   2.280   3.691 -0.2787  0.0085 -0.3809
 5296TIP3    H137303   5.223   2.327   3.628 -0.3735 -1.8538 -1.9432
 5296TIP3    H237304   5.079   2.294   3.661 -0.5944  1.5595  1.1289
 5297TIP3   OH237305   5.987   4.401  11.318 -0.0143 -0.1349  0.2085
 5297TIP3    H137306   5.945   4.373  11.236  1.3639  1.7554 -1.2482
 5297TIP3    H237307   5.929   4.468  11.353  0.8076  1.1771 -0.8446
 5298TIP3   OH237308   6.457   5.131   6.339 -0.4999  0.6677  0.3659
 5298TIP3    H137309   6.520   5.198   6.313  0.1935 -0.1720 -0.1793
 5298TIP3    H237310   6.374   5.178   6.347 -0.3569  1.3369 -1.5149
 5299TIP3   OH237311   3.978   2.395  13.572 -0.2291  0.0737  0.3207
 5299TIP3    H137312   4.032   2.474  13.581 -0.5043  0.3128 -0.0876
 5299TIP3    H237313   4.001   2.341  13.647 -0.3004  0.6984  0.7940
 5300TIP3   OH237314   6.710   1.442  11.012 -0.3768 -0.0974 -0.0452
 5300TIP3    H137315   6.710   1.456  11.107 -0.7995  0.0840 -0.0708
 5300TIP3    H237316   6.621   1.414  10.992 -0.6712  1.1544 -0.5749
 5301TIP3   OH237317   4.364   0.572   6.579 -0.1723 -0.2766  0.0322
 5301TIP3    H137318   4.446   0.617   6.598  0.2806 -1.7368  1.8551
 5301TIP3    H237319   4.391   0.493   6.532 -0.3234 -1.4495  1.8130
 5302TIP3   OH237320   1.499   3.664   4.304 -0.0964 -0.2820  0.3467
 5302TIP3    H137321   1.558   3.647   4.377 -0.3623 -0.5664  0.4989
 5302TIP3    H237322   1.477   3.757   4.312  0.0870 -0.2487  0.4687
 5303TIP3   OH237323   6.604   3.046   2.821  0.6348 -0.3432  0.1926
 5303TIP3    H137324   6.515   3.019   2.800  0.8572 -1.6537  0.8421
 5303TIP3    H237325   6.595   3.100   2.899  0.5202 -1.7824  1.2223
 5304TIP3   OH237326   1.960   5.182  16.490  0.6659  0.3068 -0.5548
 5304TIP3    H137327   1.930   5.091  16.494  1.6308 -0.0274 -0.6036
 5304TIP3    H237328   1.889   5.229  16.447  0.2730 -0.4749 -0.7796
 5305TIP3   OH237329   4.686   0.935  13.876  0.0877  0.2884 -0.4393
 5305TIP3    H137330   4.667   0.856  13.925 -2.0402  1.0422  0.0528
 5305TIP3    H237331   4.730   0.993  13.938 -0.3980  0.3296 -0.1338
 5306TIP3   OH237332   1.239   4.815   6.587 -0.0486 -0.2421 -0.1033
 5306TIP3    H137333   1.195   4.858   6.514  1.5438  1.2675 -0.2417
 5306TIP3    H237334   1.288   4.743   6.547  1.5028  1.0996 -0.7073
 5307TIP3   OH237335   4.654   5.130   1.864  0.2415 -0.1188  0.1009
 5307TIP3    H137336   4.621   5.044   1.891  0.2607 -0.8210 -1.9150
 5307TIP3    H237337   4.597   5.156   1.792 -0.0167  1.7809  0.9412
 5308TIP3   OH237338   3.259   1.109   1.277 -0.5764  0.7505  0.2706
 5308TIP3    H137339   3.332   1.059   1.242 -1.6418  0.2186 -1.3226
 5308TIP3    H237340   3.291   1.145   1.360  1.1575 -0.2027  0.0505
 5309TIP3   OH237341   0.639   5.558  16.754 -0.1204 -0.5768 -0.1319
 5309TIP3    H137342   0.592   5.624  16.703 -1.0043 -0.1986  1.1272
 5309TIP3    H237343   0.667   5.605  16.833 -0.7469 -1.6935  0.7725
 5310TIP3   OH237344   0.253   1.219   5.070 -0.0889  0.0909 -0.5859
 5310TIP3    H137345   0.271   1.148   5.008 -0.6254  0.5489 -1.2810
 5310TIP3    H237346   0.206   1.176   5.142 -0.3102 -0.2864 -0.9503
 5311TIP3   OH237347   4.674   5.225  13.620  0.8301  0.4408  0.3160
 5311TIP3    H137348   4.739   5.191  13.681  2.5610  0.3599 -1.4684
 5311TIP3    H237349   4.603   5.161  13.623  1.6166 -0.4301  1.0290
 5312TIP3   OH237350   5.172   3.557   3.846 -0.3114  0.2009  0.1778
 5312TIP3    H137351   5.126   3.640   3.861 -0.0732  0.9078 -2.5621
 5312TIP3    H237352   5.105   3.499   3.809 -0.0218 -0.2434  0.3362
 5313TIP3   OH237353   1.877   3.443  13.394 -0.4197 -0.0066  0.1838
 5313TIP3    H137354   1.792   3.398  13.393  0.5226 -1.9198  1.0314
 5313TIP3    H237355   1.865   3.517  13.453 -1.3469 -0.5749  0.7263
 5314TIP3   OH237356   5.825   2.572  11.568 -0.5928  0.1339 -0.2026
 5314TIP3    H137357   5.841   2.650  11.516 -0.7114  0.2002 -0.1392
 5314TIP3    H237358   5.896   2.512  11.544  0.4824  0.8766  1.0010
 5315TIP3   OH237359   2.085   4.506  15.922  0.4007  0.4461 -0.0550
 5315TIP3    H137360   2.128   4.520  15.837  1.5904  1.9741  0.7560
 5315TIP3    H237361   2.141   4.442  15.966 -0.9271 -1.3549 -0.8690
 5316TIP3   OH237362   3.998   6.647  13.596 -1.0221  0.4064 -0.1410
 5316TIP3    H137363   3.925   6.594  13.566  0.6637 -1.8433 -0.6104
 5316TIP3    H237364   4.072   6.619  13.541  1.0494 -0.2880  2.7110
 5317TIP3   OH237365   6.394   3.931  15.860  0.8753  0.5009 -0.1534
 5317TIP3    H137366   6.431   3.856  15.906 -1.0291  0.3499  1.2777
 5317TIP3    H237367   6.325   3.894  15.805 -1.3560  1.2480  1.9442
 5318TIP3   OH237368   1.280   4.681   0.258 -0.0823  0.0421  0.0673
 5318TIP3    H137369   1.318   4.639   0.180 -0.9739 -0.1544 -0.2689
 5318TIP3    H237370   1.304   4.623   0.330  0.1982 -0.1142 -0.1473
 5319TIP3   OH237371   2.750   1.819  12.796 -0.6329  0.0696  0.0120
 5319TIP3    H137372   2.833   1.809  12.749 -1.9006  0.3216 -2.4453
 5319TIP3    H237373   2.684   1.821  12.727 -2.9168 -2.0702  1.9541
 5320TIP3   OH237374   2.099   4.760  12.606 -0.1194 -0.1387  0.8262
 5320TIP3    H137375   2.113   4.694  12.674 -2.7252 -1.2489  0.3878
 5320TIP3    H237376   2.014   4.799  12.626 -0.9746 -0.4754 -1.6990
 5321TIP3   OH237377   6.022   2.458  15.219  0.0798  0.0908  0.3151
 5321TIP3    H137378   6.013   2.552  15.235 -0.1300  0.2846 -0.9069
 5321TIP3    H237379   6.030   2.420  15.307  0.9984  1.3248  0.8000
 5322TIP3   OH237380   2.207   2.419  12.050 -0.4010 -0.4398 -0.2891
 5322TIP3    H137381   2.217   2.452  11.961  0.1021 -0.4559 -0.2379
 5322TIP3    H237382   2.210   2.324  12.041  1.1722 -0.4332 -0.0886
 5323TIP3   OH237383   4.372   3.877  11.411 -0.4410 -0.0421 -0.1191
 5323TIP3    H137384   4.371   3.930  11.491 -0.9294 -2.0988  1.3226
 5323TIP3    H237385   4.310   3.920  11.353 -1.1620  0.7122  1.1739
 5324TIP3   OH237386   2.269   4.266   6.035  0.0258  0.0335  0.6251
 5324TIP3    H137387   2.217   4.344   6.053 -0.9871 -0.5170  0.1742
 5324TIP3    H237388   2.220   4.194   6.074  1.1285 -0.3545  1.3526
 5325TIP3   OH237389   4.518   0.567  15.046  0.2216  0.1958  0.3461
 5325TIP3    H137390   4.614   0.573  15.044  0.2842 -0.8376 -1.0058
 5325TIP3    H237391   4.489   0.646  15.000  0.4312  0.3382  0.4548
 5326TIP3   OH237392   1.288   0.110   6.028  0.0376  0.0864 -0.9599
 5326TIP3    H137393   1.314   0.030   6.074 -0.4975  1.0637  1.1368
 5326TIP3    H237394   1.194   0.100   6.013 -0.5920  1.3858  1.6887
 5327TIP3   OH237395   5.518   0.286  11.208 -0.6875 -0.3218  0.3628
 5327TIP3    H137396   5.595   0.240  11.174 -0.8040 -1.7447  1.8461
 5327TIP3    H237397   5.528   0.376  11.177  1.1543 -0.6524 -0.1645
 5328TIP3   OH237398   5.342   2.405   0.842 -0.1930 -0.0702 -0.0827
 5328TIP3    H137399   5.285   2.477   0.871 -0.4586 -0.4401  0.3203
 5328TIP3    H237400   5.409   2.448   0.790  0.2135  0.6015  0.9619
 5329TIP3   OH237401   3.784   3.622  13.989  0.2930  0.0870 -0.6361
 5329TIP3    H137402   3.867   3.610  13.942  0.8473  0.5270  0.1949
 5329TIP3    H237403   3.798   3.702  14.041 -0.6054  0.0871 -0.3834
 5330TIP3   OH237404   5.147   6.165   2.942  1.0332  0.1341 -0.2594
 5330TIP3    H137405   5.201   6.147   3.020  0.3498  1.0766  0.4573
 5330TIP3    H237406   5.157   6.259   2.928  0.0653  0.2097 -0.4801
 5331TIP3   OH237407   1.573   3.872  11.947 -0.1552 -0.8116 -0.1894
 5331TIP3    H137408   1.481   3.899  11.954 -0.4034 -1.5713 -0.4036
 5331TIP3    H237409   1.569   3.786  11.906  0.6568 -0.8739 -0.1439
 5332TIP3   OH237410   1.763   5.777  16.301 -0.1995 -0.0978 -0.2737
 5332TIP3    H137411   1.745   5.869  16.284 -0.9928 -0.3829 -1.0401
 5332TIP3    H237412   1.771   5.737  16.215  2.9555 -0.2791 -0.0382
 5333TIP3   OH237413   5.450   0.407   1.203  0.1830 -0.1017 -0.3789
 5333TIP3    H137414   5.456   0.456   1.121 -0.8941  0.3779 -0.1940
 5333TIP3    H237415   5.381   0.342   1.187 -0.7698  0.6662  0.4510
 5334TIP3   OH237416   2.889   3.221  16.863 -0.3455  0.3005 -0.3221
 5334TIP3    H137417   2.893   3.309  16.900 -1.0365 -0.2159  1.0243
 5334TIP3    H237418   2.978   3.205  16.830  0.1559  0.9694  0.6681
 5335TIP3   OH237419   1.234   3.496   4.332  0.5834 -0.7862  0.2975
 5335TIP3    H137420   1.310   3.552   4.347  0.2977 -0.7728  1.8673
 5335TIP3    H237421   1.198   3.481   4.419 -0.7373 -1.4716 -0.3403
 5336TIP3   OH237422   1.076   5.583  11.234  0.2353 -0.1402  0.0877
 5336TIP3    H137423   1.146   5.609  11.294  0.3311 -0.3719  0.0756
 5336TIP3    H237424   1.009   5.651  11.245  0.6695  0.3434 -0.2673
 5337TIP3   OH237425   1.033   6.691   0.566 -0.0704 -0.1974  0.1663
 5337TIP3    H137426   1.067   6.656   0.484 -2.2069 -1.4613 -0.2581
 5337TIP3    H237427   0.996   6.776   0.542 -1.4727 -0.9422 -0.4186
 5338TIP3   OH237428   3.643   1.907   0.517 -0.5053 -0.4159  0.1946
 5338TIP3    H137429   3.600   1.876   0.437 -1.9987  1.3763  0.2201
 5338TIP3    H237430   3.590   1.870   0.588  0.4796 -1.5366  0.3717
 5339TIP3   OH237431   3.555   6.171  14.803  0.1692  0.1100  0.3705
 5339TIP3    H137432   3.477   6.131  14.842 -0.2215 -0.3785 -0.8512
 5339TIP3    H237433   3.519   6.241  14.748  0.5271 -0.5392 -0.7112
 5340TIP3   OH237434   4.955   2.494   1.152  0.7987 -0.1753 -0.4380
 5340TIP3    H137435   4.977   2.465   1.063  3.3792 -0.8777  0.3291
 5340TIP3    H237436   5.039   2.519   1.190  0.2196 -2.3653  2.6411
 5341TIP3   OH237437   5.150   2.717  13.722  0.4037  0.0478 -0.8843
 5341TIP3    H137438   5.062   2.678  13.722 -0.4376  1.8257 -2.2102
 5341TIP3    H237439   5.183   2.702  13.811 -1.6571  0.1947 -0.0462
 5342TIP3   OH237440   0.381   2.131  16.273 -0.2162  0.1438 -0.3841
 5342TIP3    H137441   0.417   2.108  16.358  0.3877 -1.7498 -1.1035
 5342TIP3    H237442   0.325   2.058  16.249  1.2527 -0.4150 -2.4774
 5343TIP3   OH237443   2.329   2.720   5.290 -0.2078  0.1613  0.5648
 5343TIP3    H137444   2.325   2.641   5.237  0.0677  0.5841 -0.1010
 5343TIP3    H237445   2.397   2.773   5.248 -0.0384  0.5314  1.2997
 5344TIP3   OH237446   6.356   0.378   2.776 -0.5943 -0.2765 -0.5687
 5344TIP3    H137447   6.423   0.309   2.772  0.7920  0.7550  2.1575
 5344TIP3    H237448   6.273   0.330   2.776  0.3113 -1.9963  0.9658
 5345TIP3   OH237449   5.572   4.511   2.501  0.3279 -0.2684  0.4429
 5345TIP3    H137450   5.632   4.550   2.437 -1.2723  1.0530 -0.3381
 5345TIP3    H237451   5.600   4.546   2.585 -0.6058  2.0897 -0.1613
 5346TIP3   OH237452   6.600   0.184   2.725  0.7287 -0.0490 -0.3083
 5346TIP3    H137453   6.683   0.209   2.685 -0.1822  1.9634 -1.0746
 5346TIP3    H237454   6.619   0.180   2.819  1.1363  3.3217 -0.1170
 5347TIP3   OH237455   5.385   0.688  11.836  0.4112  0.1263  0.2365
 5347TIP3    H137456   5.435   0.768  11.851  1.5623 -0.5823  0.2651
 5347TIP3    H237457   5.312   0.694  11.898 -1.4463  2.6661 -1.9120
 5348TIP3   OH237458   5.407   2.911  13.136  0.0729  0.0180 -0.5629
 5348TIP3    H137459   5.498   2.923  13.165  0.1996 -1.6549 -0.1359
 5348TIP3    H237460   5.402   2.959  13.054  1.5308 -0.3330 -0.8956
 5349TIP3   OH237461   6.158   4.594  12.903 -0.0115 -0.7611 -0.1996
 5349TIP3    H137462   6.132   4.563  12.989  1.7350 -1.7079  0.0284
 5349TIP3    H237463   6.168   4.515  12.850  1.7715 -0.4477 -0.4093
 5350TIP3   OH237464   6.569   4.102   0.970  0.3246 -0.4198  0.0636
 5350TIP3    H137465   6.475   4.123   0.970  0.8780  2.8164 -2.1708
 5350TIP3    H237466   6.579   4.039   0.899  0.0678  0.9206 -1.2003
 5351TIP3   OH237467   3.309   4.652  11.395 -0.0381  0.4216  0.0948
 5351TIP3    H137468   3.367   4.594  11.445 -1.2926 -0.7267  0.2667
 5351TIP3    H237469   3.363   4.679  11.320  1.3224  0.8765  1.1955
 5352TIP3   OH237470   3.498   1.742   0.367  0.0038  0.1766  0.4055
 5352TIP3    H137471   3.463   1.713   0.452 -1.0445 -2.1919 -0.7276
 5352TIP3    H237472   3.477   1.670   0.307  2.2301  1.0082 -1.5215
 5353TIP3   OH237473   4.301   5.815  10.758  0.1518 -0.4220  0.6186
 5353TIP3    H137474   4.295   5.874  10.832  0.3762 -1.0920  1.1784
 5353TIP3    H237475   4.211   5.807  10.726  0.1416  0.3506  0.4159
 5354TIP3   OH237476   5.779   5.443   1.641  0.1930 -0.6605 -0.3782
 5354TIP3    H137477   5.746   5.409   1.724  0.1599  0.5649  0.1372
 5354TIP3    H237478   5.723   5.403   1.574 -1.5755  0.4277  0.3902
 5355TIP3   OH237479   6.255   1.672   0.694 -0.3909 -0.5700  0.6156
 5355TIP3    H137480   6.181   1.702   0.641 -0.8920 -1.0863  1.0110
 5355TIP3    H237481   6.256   1.732   0.769  0.4134  0.2566 -0.0378
 5356TIP3   OH237482   3.952   3.554  17.069  0.6118  0.0975  0.0258
 5356TIP3    H137483   3.972   3.460  17.074  1.6542  0.0769 -2.8430
 5356TIP3    H237484   3.897   3.570  17.146  1.0096 -2.6870  1.0268
 5357TIP3   OH237485   2.224   5.760   4.672 -0.2217  0.4228 -0.1419
 5357TIP3    H137486   2.194   5.849   4.689 -1.1467 -0.1589  1.3901
 5357TIP3    H237487   2.184   5.737   4.588 -1.5846  0.7573  0.4008
 5358TIP3   OH237488   1.059   6.025  14.449 -0.0366  0.1252 -0.7633
 5358TIP3    H137489   1.010   6.026  14.367  1.3564  0.1116 -1.6173
 5358TIP3    H237490   1.050   6.114  14.483 -1.6491 -0.1913 -0.2699
 5359TIP3   OH237491   5.083   3.577  12.213  0.1808 -0.7160  0.7117
 5359TIP3    H137492   5.004   3.547  12.168  0.0808 -2.6352  2.0603
 5359TIP3    H237493   5.057   3.586  12.305  1.0267  0.6638  0.8510
 5360TIP3   OH237494   2.484   6.413  11.690  0.6309  0.3405 -0.6096
 5360TIP3    H137495   2.449   6.434  11.777  0.9097 -0.9175 -0.1608
 5360TIP3    H237496   2.573   6.449  11.691  0.6086  0.3921 -0.3912
 5361TIP3   OH237497   5.010   6.349   6.066  0.6533 -0.2558  0.5136
 5361TIP3    H137498   5.004   6.274   6.006 -1.2877  1.2356 -1.2880
 5361TIP3    H237499   5.093   6.391   6.044  0.2848 -0.1286 -0.6879
 5362TIP3   OH237500   5.214   0.875   2.410  0.2036 -0.5487  0.5735
 5362TIP3    H137501   5.155   0.827   2.468 -2.6869  2.5989  0.5689
 5362TIP3    H237502   5.160   0.896   2.334  1.6969  1.3688 -0.0303
 5363TIP3   OH237503   2.102   4.040   3.748  0.0747 -0.1726 -0.4831
 5363TIP3    H137504   2.188   4.079   3.734  0.0548 -0.3588 -1.1482
 5363TIP3    H237505   2.089   3.982   3.673 -0.1068 -1.0894  0.2440
 5364TIP3   OH237506   4.927   1.774   3.654  0.3486  0.0048 -0.3820
 5364TIP3    H137507   4.882   1.775   3.738  0.5796  0.5284 -0.2546
 5364TIP3    H237508   4.977   1.856   3.653  1.0695 -0.4273 -0.6363
 5365TIP3   OH237509   0.775   0.233   1.116  0.2361  0.0460 -0.1112
 5365TIP3    H137510   0.795   0.283   1.196 -1.1806  0.3147  0.1064
 5365TIP3    H237511   0.683   0.254   1.098 -0.1946 -1.9620 -0.4076
 5366TIP3   OH237512   0.324   1.006  16.929 -0.5459 -0.4813  0.2504
 5366TIP3    H137513   0.264   1.080  16.927  1.2870  1.1145 -2.1769
 5366TIP3    H237514   0.381   1.024  17.004 -0.1959  0.5833 -0.2391
 5367TIP3   OH237515   4.060   2.858   0.806  0.3653  0.1360 -0.0390
 5367TIP3    H137516   3.997   2.820   0.868  0.3452 -0.3676 -0.3704
 5367TIP3    H237517   4.064   2.796   0.734  0.8020  0.4586 -0.2960
 5368TIP3   OH237518   1.971   1.725   0.291  0.2761 -0.0598  0.2925
 5368TIP3    H137519   1.913   1.649   0.282 -1.1600  0.8126  1.5226
 5368TIP3    H237520   1.958   1.753   0.382 -1.2629  3.1620 -0.7457
 5369TIP3   OH237521   0.516   3.354  15.461 -0.4480  0.2032 -0.3847
 5369TIP3    H137522   0.488   3.361  15.370  0.2298  0.3661 -0.5927
 5369TIP3    H237523   0.605   3.319  15.456  0.3243  1.9558  0.0916
 5370TIP3   OH237524   1.586   4.919  12.630 -0.4671  0.0347  0.3255
 5370TIP3    H137525   1.647   4.991  12.645 -1.4313  1.6122 -2.4985
 5370TIP3    H237526   1.510   4.941  12.684 -1.4228  2.2022 -1.6884
 5371TIP3   OH237527   4.404   4.050  11.626 -0.0680 -0.8762 -0.3275
 5371TIP3    H137528   4.312   4.069  11.647 -0.0347 -1.0731  0.0030
 5371TIP3    H237529   4.441   4.018  11.708  1.3463  2.8883  0.7144
 5372TIP3   OH237530   6.138   4.130  11.582  0.0902 -0.1436 -0.0428
 5372TIP3    H137531   6.139   4.128  11.487  0.3264 -1.0669 -0.0232
 5372TIP3    H237532   6.150   4.039  11.609  0.6584  0.1844  0.8688
 5373TIP3   OH237533   1.061   2.931  16.538 -0.4161  0.0343  0.3346
 5373TIP3    H137534   1.096   2.944  16.626 -0.9284  1.4909  0.3583
 5373TIP3    H237535   1.069   2.837  16.522  1.7979  0.0448  1.0258
 5374TIP3   OH237536   4.231   5.356   5.207  0.6628  0.4209 -0.6092
 5374TIP3    H137537   4.246   5.269   5.171  1.2932  0.4155 -0.3431
 5374TIP3    H237538   4.154   5.345   5.264 -0.7959  0.5801 -2.4332
 5375TIP3   OH237539   3.789   4.618   3.374  0.1387  0.3090  0.1700
 5375TIP3    H137540   3.717   4.629   3.312  0.1144  0.0169  0.1444
 5375TIP3    H237541   3.795   4.524   3.386 -0.7440  0.4130  1.6454
 5376TIP3   OH237542   0.349   3.541   3.959 -0.4864 -0.1906 -0.0045
 5376TIP3    H137543   0.346   3.446   3.964  0.2091 -0.1671  2.4916
 5376TIP3    H237544   0.355   3.569   4.050 -1.3330  2.2882 -0.6266
 5377TIP3   OH237545   4.268   4.163   0.387  0.1379 -0.4171  0.0370
 5377TIP3    H137546   4.208   4.213   0.332  1.0660 -0.2197 -0.8419
 5377TIP3    H237547   4.302   4.094   0.329  1.6550  0.2055  0.1292
 5378TIP3   OH237548   3.989   5.667   6.128  0.1187  0.2822  0.2540
 5378TIP3    H137549   3.935   5.588   6.129  1.6150 -0.7771  0.7848
 5378TIP3    H237550   3.958   5.717   6.053  0.1162 -1.5103 -0.9963
 5379TIP3   OH237551   1.780   6.203  12.132 -0.7622 -0.0257  0.3079
 5379TIP3    H137552   1.741   6.117  12.119 -1.3331  0.5341 -2.1555
 5379TIP3    H237553   1.874   6.189  12.119  0.0595 -1.1800  5.2747
 5380TIP3   OH237554   6.410   2.946   4.190  0.0585 -0.4109  0.0839
 5380TIP3    H137555   6.364   2.883   4.247 -1.5092 -0.2183 -0.9095
 5380TIP3    H237556   6.411   2.904   4.104 -0.9034  0.8125 -0.5688
 5381TIP3   OH237557   5.695   3.205   3.290  0.6104  0.4489  0.1996
 5381TIP3    H137558   5.688   3.110   3.297  0.9349  0.4148  0.0623
 5381TIP3    H237559   5.783   3.225   3.321 -0.1426  0.9036  2.1614
 5382TIP3   OH237560   5.231   4.189   1.339 -0.5475  0.0314  0.5023
 5382TIP3    H137561   5.186   4.273   1.349 -2.6243 -1.1151  1.3738
 5382TIP3    H237562   5.225   4.171   1.245 -2.6808 -0.4224  0.6625
 5383TIP3   OH237563   5.235   0.769  15.374  0.1998  0.0299  0.4129
 5383TIP3    H137564   5.151   0.751  15.417  1.6373 -0.3980  3.3137
 5383TIP3    H237565   5.251   0.691  15.321 -1.0585 -0.0415  0.0970
 5384TIP3   OH237566   5.555   0.442   0.362 -0.3327  0.2464  0.1622
 5384TIP3    H137567   5.648   0.430   0.340 -0.3872  0.1041  0.0061
 5384TIP3    H237568   5.528   0.359   0.400 -0.3184  0.3911  0.4983
 5385TIP3   OH237569   4.877   2.530  16.334  0.2028 -0.9331 -0.5869
 5385TIP3    H137570   4.846   2.508  16.422 -0.3395 -0.1862 -0.5852
 5385TIP3    H237571   4.851   2.455  16.281 -0.3690 -0.9422 -0.3062
 5386TIP3   OH237572   2.787   4.466  12.961 -0.3863  0.4329  0.0099
 5386TIP3    H137573   2.806   4.439  12.871  0.3055  0.4627  0.1372
 5386TIP3    H237574   2.709   4.416  12.986  0.4040 -0.8759 -0.0316
 5387TIP3   OH237575   5.874   4.405   2.899  0.7454  0.7287 -0.1096
 5387TIP3    H137576   5.824   4.351   2.960 -1.8616  2.2956 -0.7343
 5387TIP3    H237577   5.923   4.342   2.845 -2.1739 -1.0677 -0.8426
 5388TIP3   OH237578   0.297   2.654  11.804  0.3220 -0.1944 -0.2036
 5388TIP3    H137579   0.261   2.595  11.869 -0.9900  1.9952  1.1972
 5388TIP3    H237580   0.381   2.616  11.780  0.8926 -1.0977  2.8156
 5389TIP3   OH237581   3.366   2.883  13.112 -0.0048 -0.2019  0.6755
 5389TIP3    H137582   3.380   2.820  13.042 -1.0021 -0.4358  0.6721
 5389TIP3    H237583   3.292   2.936  13.083  0.4394  0.5816  0.9505
 5390TIP3   OH237584   0.679   6.484   6.183 -0.1447  0.4604 -0.2388
 5390TIP3    H137585   0.627   6.504   6.261 -0.6532 -0.4878 -0.3117
 5390TIP3    H237586   0.738   6.414   6.211 -0.0602  0.3874 -0.5939
 5391TIP3   OH237587   3.037   2.327  15.817  0.1155 -0.0703 -0.4125
 5391TIP3    H137588   2.994   2.412  15.811  0.2694  0.0675  0.2879
 5391TIP3    H237589   3.117   2.344  15.868  0.6352 -0.4539 -1.0825
 5392TIP3   OH237590   1.286   4.061   3.433  0.1518  0.6945 -0.2590
 5392TIP3    H137591   1.273   3.967   3.421  0.1556  0.6110  0.3923
 5392TIP3    H237592   1.326   4.090   3.350  1.2916 -0.0972 -0.0088
 5393TIP3   OH237593   5.217   5.131   5.241 -0.4274  0.2679 -0.2386
 5393TIP3    H137594   5.255   5.075   5.309  1.2947  0.1160 -1.2708
 5393TIP3    H237595   5.147   5.178   5.286  0.3159 -0.2145  1.5187
 5394TIP3   OH237596   0.136   1.956   1.813 -1.0905  0.0425 -0.2204
 5394TIP3    H137597   0.155   1.982   1.723  1.1826  3.1070  0.9632
 5394TIP3    H237598   0.221   1.933   1.851 -1.8112 -0.0400  1.4589
 5395TIP3   OH237599   0.132   4.444   1.286  0.2591  0.4901  0.4658
 5395TIP3    H137600   0.050   4.431   1.335 -1.7107  1.8025 -2.2212
 5395TIP3    H237601   0.165   4.356   1.271 -1.3032 -0.1623  0.6426
 5396TIP3   OH237602   6.534   5.953   3.950  0.0027  0.0613  0.6704
 5396TIP3    H137603   6.439   5.947   3.941  0.1755  0.0601 -1.7907
 5396TIP3    H237604   6.564   5.863   3.953  0.1035 -0.0751 -1.9718
 5397TIP3   OH237605   3.437   5.628   6.167 -0.6025 -0.7521 -0.0123
 5397TIP3    H137606   3.372   5.646   6.235  1.5027  1.1345  1.6292
 5397TIP3    H237607   3.491   5.558   6.203  1.7076  1.5281  1.2975
 5398TIP3   OH237608   1.217   5.716  12.477  0.2329 -0.2695  0.3517
 5398TIP3    H137609   1.210   5.773  12.553 -2.0162 -1.7253  1.3694
 5398TIP3    H237610   1.129   5.679  12.466  0.7591 -1.0183 -2.2629
 5399TIP3   OH237611   4.499   6.707  14.057 -0.0600 -0.3303 -0.8479
 5399TIP3    H137612   4.475   6.640  14.120 -0.7934 -0.1067 -0.8829
 5399TIP3    H237613   4.424   6.766  14.054  0.8023  0.8383 -0.3637
 5400TIP3   OH237614   4.472   2.277   0.202  0.4163  0.2288 -0.1328
 5400TIP3    H137615   4.419   2.220   0.257 -1.0237 -0.8762 -2.4999
 5400TIP3    H237616   4.432   2.363   0.211 -0.3230 -0.1106 -0.0876
 5401TIP3   OH237617   1.545   1.595   0.820 -0.3781  0.1526  0.1273
 5401TIP3    H137618   1.517   1.678   0.858  1.7250  0.7689  0.4637
 5401TIP3    H237619   1.508   1.595   0.732  0.3547  1.9347 -0.2373
 5402TIP3   OH237620   4.480   0.766  14.852  0.0967 -0.0338 -0.2297
 5402TIP3    H137621   4.441   0.850  14.826 -0.2554 -0.7266 -2.0975
 5402TIP3    H237622   4.465   0.709  14.776  0.7443 -1.6500  0.8265
 5403TIP3   OH237623   3.348   1.497  15.412 -0.4699  0.7342  0.0314
 5403TIP3    H137624   3.365   1.404  15.423  2.3600  0.8022 -2.3134
 5403TIP3    H237625   3.255   1.507  15.430 -0.8076 -2.4555  0.6893
 5404TIP3   OH237626   1.820   6.676   5.258  0.0606 -0.1123  0.0781
 5404TIP3    H137627   1.867   6.749   5.216 -1.5410  1.0989  0.2824
 5404TIP3    H237628   1.833   6.690   5.352  0.2852 -0.4772  0.1025
 5405TIP3   OH237629   3.491   2.762   5.309  0.0401  0.8436  0.2371
 5405TIP3    H137630   3.575   2.772   5.354  0.6425  2.3220 -1.0735
 5405TIP3    H237631   3.475   2.848   5.270 -0.6069 -0.2015 -2.0034
 5406TIP3   OH237632   6.471   2.121   0.642  0.1741  0.0004  0.1140
 5406TIP3    H137633   6.494   2.177   0.716  0.3080  0.8262 -0.5461
 5406TIP3    H237634   6.459   2.181   0.568 -0.7310 -0.7301 -0.3590
 5407TIP3   OH237635   5.265   3.021   3.110  0.2592 -0.0704 -0.7837
 5407TIP3    H137636   5.323   2.991   3.180  0.4097 -0.0607 -0.9038
 5407TIP3    H237637   5.314   3.091   3.067  0.6643 -0.8780 -1.6570
 5408TIP3   OH237638   5.617   0.526  14.867 -0.2469  0.7433 -0.3789
 5408TIP3    H137639   5.691   0.534  14.928 -1.4581 -0.4661  1.3264
 5408TIP3    H237640   5.657   0.496  14.785  1.2709  1.1315  0.1737
 5409TIP3   OH237641   4.056   5.527  13.231 -0.4004  0.0285  0.2023
 5409TIP3    H137642   4.018   5.611  13.207 -1.0346  0.0659  1.3004
 5409TIP3    H237643   4.073   5.484  13.147 -0.7524  0.9444 -0.3512
 5410TIP3   OH237644   4.177   2.102   3.258  0.3460  0.3716 -0.2982
 5410TIP3    H137645   4.158   2.012   3.285  0.5159  0.8163  1.3937
 5410TIP3    H237646   4.127   2.156   3.319 -1.5861  1.4581 -2.6687
 5411TIP3   OH237647   1.211   1.959   6.625  0.3895 -0.3590 -0.8467
 5411TIP3    H137648   1.273   2.029   6.605 -2.8256  2.5004 -1.7852
 5411TIP3    H237649   1.198   1.915   6.541  1.5672 -1.3999 -0.5043
 5412TIP3   OH237650   1.434   6.731  16.476  0.3012 -0.0002  0.3241
 5412TIP3    H137651   1.482   6.728  16.559 -0.5097 -1.2768  0.7759
 5412TIP3    H237652   1.501   6.722  16.409  0.6967 -2.5423  0.9528
 5413TIP3   OH237653   0.925   2.394   6.347  0.0217 -0.7111 -0.3201
 5413TIP3    H137654   0.903   2.487   6.348 -0.8844 -0.9218 -0.1714
 5413TIP3    H237655   0.876   2.357   6.420 -0.2684 -1.4436 -0.8788
 5414TIP3   OH237656   6.137   0.243  16.542  0.2684  0.0648  0.3440
 5414TIP3    H137657   6.056   0.294  16.534 -0.0096 -0.6245 -2.0494
 5414TIP3    H237658   6.196   0.283  16.478  0.5767 -1.6093 -0.4502
 5415TIP3   OH237659   5.090   3.239  16.342 -0.3919  0.4523  0.0463
 5415TIP3    H137660   5.060   3.173  16.278 -2.9644  1.2552  0.3198
 5415TIP3    H237661   5.097   3.191  16.424 -3.1323  0.6160  0.4424
 5416TIP3   OH237662   4.021   1.193   1.385  0.6633 -0.2667  0.3237
 5416TIP3    H137663   4.048   1.153   1.303 -1.4845 -1.5234  0.1463
 5416TIP3    H237664   4.030   1.287   1.370  0.5805 -0.4875 -1.2567
 5417TIP3   OH237665   0.761   5.173  11.307  0.5105  0.2238  0.1168
 5417TIP3    H137666   0.816   5.231  11.359 -1.7421  2.6558  0.0239
 5417TIP3    H237667   0.692   5.230  11.273 -1.4378 -2.3868 -0.6572
 5418TIP3   OH237668   3.392   5.968  14.914 -0.5704 -0.2906  0.3127
 5418TIP3    H137669   3.416   5.881  14.882  2.2977  0.5167 -0.0049
 5418TIP3    H237670   3.302   5.958  14.943 -0.7621 -3.0359 -0.8745
 5419TIP3   OH237671   0.768   6.254   0.656 -0.2070  0.0275  0.0461
 5419TIP3    H137672   0.754   6.229   0.747  1.2734 -1.6721 -0.1310
 5419TIP3    H237673   0.690   6.305   0.633 -0.2716  1.1675  2.4522
 5420TIP3   OH237674   6.463   2.811   2.973  0.0412 -0.0573 -0.1176
 5420TIP3    H137675   6.538   2.795   2.916  1.1535  0.7972  1.0551
 5420TIP3    H237676   6.404   2.866   2.922  0.6591  0.0644 -0.7067
 5421TIP3   OH237677   2.166   3.854   0.914 -0.1679 -0.0354 -0.2633
 5421TIP3    H137678   2.077   3.821   0.908 -0.3778  0.2440  0.9760
 5421TIP3    H237679   2.210   3.793   0.973  0.2075  0.3384 -0.1542
 5422TIP3   OH237680   3.717   2.908  11.629  0.0718 -0.2414 -0.3329
 5422TIP3    H137681   3.679   2.895  11.716  2.2480 -1.1271  0.5505
 5422TIP3    H237682   3.678   2.839  11.575  1.0032 -1.6573  0.7570
 5423TIP3   OH237683   4.200   0.693  10.638 -0.0247  0.4048 -0.3171
 5423TIP3    H137684   4.140   0.633  10.592 -1.3692  1.6320 -0.2389
 5423TIP3    H237685   4.217   0.763  10.575  1.4227  0.0419 -0.3583
 5424TIP3   OH237686   2.785   4.336  15.011 -0.1452  0.2549 -0.2811
 5424TIP3    H137687   2.831   4.263  14.969 -1.3126 -0.5179 -0.2881
 5424TIP3    H237688   2.853   4.400  15.030  0.5772  0.2656 -2.5458
 5425TIP3   OH237689   5.873   1.414   2.378  0.0777  0.1938 -0.4094
 5425TIP3    H137690   5.899   1.454   2.295 -1.5431  0.9321 -0.5946
 5425TIP3    H237691   5.778   1.418   2.378 -0.1339 -2.5382  0.1545
 5426TIP3   OH237692   1.531   3.540  16.594 -0.1258  0.3757 -0.1253
 5426TIP3    H137693   1.517   3.517  16.686 -0.8013 -1.7211 -0.6893
 5426TIP3    H237694   1.599   3.607  16.596  0.2044  0.0481  1.8741
 5427TIP3   OH237695   1.484   4.346  16.096  0.1889  0.0681 -0.1919
 5427TIP3    H137696   1.515   4.272  16.044 -2.9732 -0.6423 -1.3106
 5427TIP3    H237697   1.472   4.416  16.032 -0.5881  0.2580  0.1558
 5428TIP3   OH237698   0.086   1.050   4.800 -0.7510 -0.7009 -0.3117
 5428TIP3    H137699   0.113   1.001   4.878 -0.7433  2.3056  1.7686
 5428TIP3    H237700   0.164   1.054   4.745 -0.3816 -1.8029  0.1006
 5429TIP3   OH237701   0.462   6.143   4.616 -0.2247  0.6025 -0.0868
 5429TIP3    H137702   0.370   6.139   4.642  0.3593  0.0360  2.0879
 5429TIP3    H237703   0.495   6.054   4.629  0.4673  0.6095 -1.5955
 5430TIP3   OH237704   4.629   0.825  13.143  0.1747  0.4602 -0.4237
 5430TIP3    H137705   4.620   0.826  13.047  2.4108  1.0350 -0.6804
 5430TIP3    H237706   4.555   0.878  13.174 -0.1617  0.8966 -1.8710
 5431TIP3   OH237707   4.168   5.274  13.555  0.3904 -0.0849  0.2724
 5431TIP3    H137708   4.182   5.185  13.522  0.1188 -0.5111  1.2776
 5431TIP3    H237709   4.093   5.266  13.613 -0.2430  1.0060 -0.3760
 5432TIP3   OH237710   3.649   2.612   4.347  0.1420  0.6246  0.0310
 5432TIP3    H137711   3.620   2.667   4.274  0.5959  1.5354  0.5280
 5432TIP3    H237712   3.728   2.569   4.315  0.8364  1.6906  0.2697
 5433TIP3   OH237713   2.675   1.719  14.142 -0.2753  0.6464 -0.3300
 5433TIP3    H137714   2.702   1.810  14.137 -2.7339  1.4762  0.4286
 5433TIP3    H237715   2.736   1.680  14.206  0.9609  1.6432 -0.8544
 5434TIP3   OH237716   3.741   0.655  12.765  0.5366 -0.3385  0.3672
 5434TIP3    H137717   3.710   0.597  12.695  0.8334  0.4875 -0.4748
 5434TIP3    H237718   3.773   0.596  12.833  1.2428 -1.1807 -0.6522
 5435TIP3   OH237719   3.908   0.086   1.846  0.0498  0.1183  0.1081
 5435TIP3    H137720   3.854   0.014   1.878  0.8421  0.3516  2.1026
 5435TIP3    H237721   3.871   0.164   1.888  2.3847  0.1898  2.2861
 5436TIP3   OH237722   0.988   2.227  15.258  0.5797  0.0891  0.2523
 5436TIP3    H137723   1.038   2.210  15.178  0.1865  0.0249  0.0195
 5436TIP3    H237724   1.044   2.286  15.309  0.5714  0.6021 -0.3267
 5437TIP3   OH237725   5.153   1.210  14.988  0.4126 -0.0202 -0.3343
 5437TIP3    H137726   5.118   1.171  15.069  2.1231 -0.0396  0.4231
 5437TIP3    H237727   5.080   1.204  14.926 -1.0435  0.2346  1.2607
 5438TIP3   OH237728   4.851   5.180  15.299  0.0130 -0.0974  0.0340
 5438TIP3    H137729   4.886   5.222  15.221 -0.4602 -0.2717 -0.2720
 5438TIP3    H237730   4.896   5.095  15.302  1.9848  0.9079  1.3887
 5439TIP3   OH237731   2.322   5.780   3.276 -0.0654 -0.1661  0.0772
 5439TIP3    H137732   2.369   5.843   3.222 -1.0023 -0.8528 -1.6006
 5439TIP3    H237733   2.233   5.780   3.241 -0.8197 -0.3490  1.9039
 5440TIP3   OH237734   2.009   1.671  16.075 -0.5945 -0.1838  0.0911
 5440TIP3    H137735   2.031   1.704  16.162 -0.0052 -0.7500  0.1681
 5440TIP3    H237736   2.012   1.748  16.018  1.1696 -0.1459  0.1839
 5441TIP3   OH237737   0.569   6.278  11.794  0.0444 -0.0725 -0.0719
 5441TIP3    H137738   0.604   6.237  11.873 -0.8857 -0.1240  0.3412
 5441TIP3    H237739   0.603   6.226  11.722  0.9505  0.0015  0.2918
 5442TIP3   OH237740   2.148   6.742   2.462 -0.3379 -0.0491 -0.4406
 5442TIP3    H137741   2.162   6.795   2.540  0.7885 -0.1763 -0.5365
 5442TIP3    H237742   2.218   6.676   2.465 -1.1905 -0.9881 -0.7728
 5443TIP3   OH237743   1.504   1.918  11.364  0.0862 -0.2008  0.0843
 5443TIP3    H137744   1.469   1.909  11.275 -2.1968  0.3718  0.8842
 5443TIP3    H237745   1.588   1.872  11.360  0.3759  0.3841 -2.5375
 5444TIP3   OH237746   5.779   4.011   4.180 -0.0367 -0.8327  0.0129
 5444TIP3    H137747   5.806   4.089   4.229 -0.8964 -0.0815 -0.6636
 5444TIP3    H237748   5.728   4.046   4.107  0.3214 -1.9937 -0.8093
 5445TIP3   OH237749   6.220   0.440   1.557 -0.1063 -0.1321 -0.1063
 5445TIP3    H137750   6.264   0.524   1.541 -0.4568 -0.0924 -0.8583
 5445TIP3    H237751   6.140   0.464   1.603 -1.1852  0.1477 -2.0402
 5446TIP3   OH237752   0.144   3.757  16.851  0.2742 -0.1857  0.0746
 5446TIP3    H137753   0.050   3.759  16.873  0.3533 -0.2281  0.4242
 5446TIP3    H237754   0.177   3.677  16.894  0.4321 -0.2704 -0.2054
 5447TIP3   OH237755   1.904   1.309   0.827 -0.1515 -0.4474  0.0769
 5447TIP3    H137756   1.971   1.370   0.857 -0.9190  0.5364 -0.1598
 5447TIP3    H237757   1.945   1.223   0.834  1.1066  0.1300 -0.0140
 5448TIP3   OH237758   3.859   4.323  15.344 -0.6496 -0.3199  0.1321
 5448TIP3    H137759   3.954   4.336  15.337 -0.9276  1.3307 -1.0998
 5448TIP3    H237760   3.850   4.230  15.365  1.1664 -1.4265 -3.1812
 5449TIP3   OH237761   1.806   6.101   1.471  0.3713  0.5362 -0.2771
 5449TIP3    H137762   1.847   6.122   1.387  0.0659  1.7673 -0.1384
 5449TIP3    H237763   1.739   6.168   1.482  2.3392  2.2730  2.2940
 5450TIP3   OH237764   2.261   2.496  10.749  0.4754  0.8015 -0.1842
 5450TIP3    H137765   2.294   2.572  10.701  0.1080  0.8366 -0.3787
 5450TIP3    H237766   2.185   2.529  10.796  0.1013  0.4636 -0.5552
 5451TIP3   OH237767   0.995   0.365   3.486  0.2483  0.1617 -0.9831
 5451TIP3    H137768   0.952   0.317   3.414  0.1202 -1.5565  0.1725
 5451TIP3    H237769   1.063   0.305   3.517 -0.5429  0.2717  1.1508
 5452TIP3   OH237770   1.516   2.388  11.387 -0.7283 -0.3569 -0.4237
 5452TIP3    H137771   1.529   2.482  11.376  3.4150 -0.4383  1.7995
 5452TIP3    H237772   1.536   2.350  11.301  0.1619  0.6488 -0.6757
 5453TIP3   OH237773   3.903   4.356  15.641  0.4294  0.2175 -0.1967
 5453TIP3    H137774   3.979   4.364  15.583  2.1119 -0.8493  1.7540
 5453TIP3    H237775   3.871   4.267  15.624  0.7929 -0.0172  0.3109
 5454TIP3   OH237776   2.054   3.120   5.074  0.1300 -0.2632 -0.3677
 5454TIP3    H137777   2.140   3.077   5.068 -0.2473 -1.0994 -0.0018
 5454TIP3    H237778   2.074   3.213   5.077  1.0454 -0.4532 -0.1409
 5455TIP3   OH237779   1.041   3.022  12.633  0.1426  0.6117  0.0472
 5455TIP3    H137780   1.095   3.083  12.583  0.0739 -0.3019 -1.1861
 5455TIP3    H237781   1.077   2.936  12.612 -0.4093  0.1516  0.9465
 5456TIP3   OH237782   4.231   2.385   4.742 -0.4578  0.1384  0.3500
 5456TIP3    H137783   4.248   2.375   4.836  1.4544 -0.9388 -0.0597
 5456TIP3    H237784   4.285   2.317   4.701 -1.8789  0.0722 -1.4890
 5457TIP3   OH237785   3.429   6.228  13.280  0.0691  0.7816 -0.3742
 5457TIP3    H137786   3.387   6.313  13.263  0.0132  0.5973 -1.2270
 5457TIP3    H237787   3.499   6.248  13.341  0.5987  1.5975 -1.2151
 5458TIP3   OH237788   6.517   1.957  11.203 -0.3020  0.1271 -0.4347
 5458TIP3    H137789   6.538   1.896  11.273  0.7846  0.5880 -0.3444
 5458TIP3    H237790   6.421   1.965  11.206 -0.3500 -0.5937  0.3565
 5459TIP3   OH237791   1.102   6.435  14.384 -0.0334  0.4537  0.6483
 5459TIP3    H137792   1.121   6.347  14.349 -3.3615 -0.7806  1.5436
 5459TIP3    H237793   1.173   6.453  14.445  0.8054 -1.6034  0.3476
 5460TIP3   OH237794   3.732   0.029  14.450  0.0787 -0.1031  0.2129
 5460TIP3    H137795   3.760   0.024  14.359 -2.3460 -0.4720 -0.5945
 5460TIP3    H237796   3.787   0.097  14.489  1.5862 -0.3820 -1.3427
 5461TIP3   OH237797   0.136   2.531   3.530  0.2145  0.2624 -0.7422
 5461TIP3    H137798   0.202   2.594   3.501  0.5835  0.6777  0.8689
 5461TIP3    H237799   0.065   2.584   3.566  0.7315 -0.1675  1.0683
 5462TIP3   OH237800   4.111   2.550   5.991 -0.1495 -0.4521  0.0758
 5462TIP3    H137801   4.032   2.570   6.041  0.7077 -1.3932  1.8894
 5462TIP3    H237802   4.177   2.610   6.026  0.1919 -0.3238 -0.7704
 5463TIP3   OH237803   4.337   3.828  10.744 -0.0333  0.2223  0.2180
 5463TIP3    H137804   4.373   3.906  10.786  0.1460  0.1519  0.1931
 5463TIP3    H237805   4.410   3.792  10.694  0.0864 -0.3629  0.8048
 5464TIP3   OH237806   5.963   6.487   0.024  0.5117 -0.1802 -0.0418
 5464TIP3    H137807   5.961   6.416   0.088 -2.9633  0.9522  1.3816
 5464TIP3    H237808   5.949   6.444  -0.060 -0.7875 -1.3240  0.7054
 5465TIP3   OH237809   6.504   2.145  15.513 -0.3716 -0.1971  0.2922
 5465TIP3    H137810   6.442   2.137  15.586  1.6620  0.8290  2.2197
 5465TIP3    H237811   6.530   2.237  15.513 -2.5761  0.6708 -3.7999
 5466TIP3   OH237812   2.761   6.049   0.869  0.1383 -0.3670 -0.1303
 5466TIP3    H137813   2.776   5.955   0.867  0.1613 -0.3544 -0.5809
 5466TIP3    H237814   2.741   6.073   0.779 -0.0396  0.0334  0.0095
 5467TIP3   OH237815   5.926   3.753   6.272  0.1604  0.4851  0.3676
 5467TIP3    H137816   6.001   3.723   6.322 -0.8902 -0.9618  1.1333
 5467TIP3    H237817   5.892   3.827   6.323  1.6733  1.9150 -0.5770
 5468TIP3   OH237818   3.246   5.428  16.727 -0.2342 -0.0807  0.8840
 5468TIP3    H137819   3.230   5.409  16.819  0.5768 -0.7654  0.8970
 5468TIP3    H237820   3.333   5.391  16.709  0.8254  2.3843  0.5390
 5469TIP3   OH237821   5.537   6.078   5.052  0.2590 -0.2389  0.1715
 5469TIP3    H137822   5.571   5.991   5.074  1.2686 -0.5410 -2.2958
 5469TIP3    H237823   5.612   6.136   5.057  0.2951 -0.1313 -1.2894
 5470TIP3   OH237824   2.296   1.089  11.659 -0.4619 -0.1421  0.4591
 5470TIP3    H137825   2.295   1.122  11.569 -2.3799 -0.0208  0.4766
 5470TIP3    H237826   2.365   1.023  11.660  2.1735  2.4072 -0.0980
 5471TIP3   OH237827   4.842   3.773  16.838  0.4297  0.0284  0.0152
 5471TIP3    H137828   4.934   3.799  16.833  0.5717 -0.3638  0.5198
 5471TIP3    H237829   4.833   3.704  16.772  1.1150 -1.6911  1.6307
 5472TIP3   OH237830   5.534   5.669  12.131  0.5357  0.4793 -0.9711
 5472TIP3    H137831   5.452   5.623  12.113  2.6324 -4.4143  0.0777
 5472TIP3    H237832   5.525   5.698  12.222  0.9785 -3.3555  0.5000
 5473TIP3   OH237833   0.625   5.268  15.566  0.3389 -0.2738 -0.1633
 5473TIP3    H137834   0.620   5.180  15.603  1.1185 -0.5853 -0.7602
 5473TIP3    H237835   0.685   5.314  15.624  1.8697 -0.8768 -1.1885
 5474TIP3   OH237836   6.781   0.544   1.959  0.0998 -0.1773 -0.2275
 5474TIP3    H137837   6.774   0.500   2.044 -0.1218  1.2160  0.5031
 5474TIP3    H237838   6.792   0.473   1.896  0.8081 -1.2091  1.0241
 5475TIP3   OH237839   3.311   2.400  11.937  0.4051 -0.3611 -0.1823
 5475TIP3    H137840   3.260   2.320  11.923 -0.2358 -0.0438  0.2654
 5475TIP3    H237841   3.264   2.446  12.007 -1.3284  2.1225 -2.7893
 5476TIP3   OH237842   5.524   4.310  16.278 -0.1653  0.1861 -0.0915
 5476TIP3    H137843   5.457   4.243  16.267  1.5715 -1.4336 -1.6299
 5476TIP3    H237844   5.508   4.372  16.207  0.4759 -0.7104 -1.0518
 5477TIP3   OH237845   4.282   5.745   1.004  0.8448  0.0525  0.0602
 5477TIP3    H137846   4.220   5.703   1.064 -1.2330  4.1178  1.0899
 5477TIP3    H237847   4.356   5.771   1.060 -1.2755  4.2161  1.3003
 5478TIP3   OH237848   2.129   1.762  16.303 -0.1706  0.0666 -0.1822
 5478TIP3    H137849   2.198   1.828  16.313  1.2789 -1.0425 -2.0728
 5478TIP3    H237850   2.144   1.701  16.375  0.9805 -0.2494 -0.6637
 5479TIP3   OH237851   1.807   2.863  14.195 -0.5842  0.3551 -0.1158
 5479TIP3    H137852   1.715   2.864  14.222 -0.0748  1.0691  1.7650
 5479TIP3    H237853   1.852   2.813  14.263  0.6019  1.1111 -0.3062
 5480TIP3   OH237854   1.901   1.312  14.423  0.6146 -0.6034  0.3683
 5480TIP3    H137855   1.953   1.232  14.415  0.8798 -0.2588 -2.0101
 5480TIP3    H237856   1.811   1.281  14.432  1.0185 -1.1834  3.7772
 5481TIP3   OH237857   2.856   3.215   2.620  0.2492 -0.4638 -0.2230
 5481TIP3    H137858   2.849   3.164   2.539 -1.0475 -1.6010  0.5586
 5481TIP3    H237859   2.803   3.293   2.604 -0.4391 -0.9413 -0.2916
 5482TIP3   OH237860   4.995   0.072  14.049  0.1886  0.7753 -0.1424
 5482TIP3    H137861   4.914   0.039  14.089  1.2357 -1.2772  0.4370
 5482TIP3    H237862   4.975   0.075  13.955 -0.5270  0.1720 -0.0238
 5483TIP3   OH237863   3.798   1.794   5.551 -0.1766 -0.8547 -0.2246
 5483TIP3    H137864   3.760   1.879   5.529 -0.9305 -0.9890  0.4914
 5483TIP3    H237865   3.835   1.807   5.639 -1.4013 -1.5820  0.4317
 5484TIP3   OH237866   4.658   5.529   2.608  0.1979  0.2210 -0.3746
 5484TIP3    H137867   4.605   5.572   2.675 -0.7764 -1.2090 -0.1726
 5484TIP3    H237868   4.641   5.579   2.528 -0.9833  0.1621 -0.1728
 5485TIP3   OH237869   1.540   0.284  12.455 -0.5749  0.3034 -0.0948
 5485TIP3    H137870   1.513   0.296  12.546 -1.5705  0.3923 -0.3896
 5485TIP3    H237871   1.525   0.369  12.414  3.7202  1.5991  0.5208
 5486TIP3   OH237872   2.457   1.490  13.697 -0.4921 -0.0786  0.1454
 5486TIP3    H137873   2.536   1.472  13.748 -0.2449  1.9056  0.5480
 5486TIP3    H237874   2.441   1.584  13.710 -2.6909 -0.3445 -0.2592
 5487TIP3   OH237875   0.280   0.999  12.771 -0.4857  0.3228  0.4500
 5487TIP3    H137876   0.233   1.080  12.789 -0.7738 -0.1550  2.0387
 5487TIP3    H237877   0.288   0.956  12.857  0.0409 -1.1205 -0.2802
 5488TIP3   OH237878   3.926   0.136   6.441 -0.0851 -0.0029  0.0890
 5488TIP3    H137879   4.017   0.157   6.465 -0.2108  1.2091 -0.4129
 5488TIP3    H237880   3.874   0.203   6.486 -0.6443 -0.1220 -0.3812
 5489TIP3   OH237881   5.918   5.217  14.960  0.2022 -0.3946  0.3701
 5489TIP3    H137882   5.865   5.227  14.881  0.1899 -0.5069  0.3639
 5489TIP3    H237883   5.908   5.301  15.006 -0.1807 -0.5033  0.4894
 5490TIP3   OH237884   6.799   3.577   0.995  0.9308 -0.1811 -0.0464
 5490TIP3    H137885   6.747   3.592   1.074  0.7881  0.6442 -0.2901
 5490TIP3    H237886   6.881   3.541   1.028  0.4082 -1.0256  0.3804
 5491TIP3   OH237887   4.220   2.583  14.837 -0.3603  0.1173  0.2384
 5491TIP3    H137888   4.181   2.522  14.900 -0.4727 -1.4581 -1.2951
 5491TIP3    H237889   4.294   2.535  14.800 -2.0962 -0.2773 -3.0455
 5492TIP3   OH237890   1.938   4.602   5.219 -0.1089 -0.0093  0.0902
 5492TIP3    H137891   2.003   4.603   5.149 -1.0261  0.2090 -0.7927
 5492TIP3    H237892   1.988   4.592   5.300  0.9942  0.0473 -0.5783
 5493TIP3   OH237893   0.673   4.406  15.370 -1.2658  0.3081 -0.2542
 5493TIP3    H137894   0.708   4.319  15.350  0.4813  0.8923  0.0586
 5493TIP3    H237895   0.608   4.392  15.439  1.8415 -0.4181  2.7724
 5494TIP3   OH237896   0.455   3.102  16.713 -0.3732  0.2298  0.3637
 5494TIP3    H137897   0.501   3.157  16.777 -0.6003  0.5269  0.2746
 5494TIP3    H237898   0.415   3.164  16.652  0.5799 -0.0688 -0.5917
 5495TIP3   OH237899   4.499   2.617   2.128 -0.2101  0.5493  0.3557
 5495TIP3    H137900   4.571   2.677   2.149  0.3466 -0.0610  0.2209
 5495TIP3    H237901   4.423   2.655   2.172  0.3628  0.7610  1.1993
 5496TIP3   OH237902   5.869   6.450   4.353  0.0191 -0.6197  0.0436
 5496TIP3    H137903   5.834   6.419   4.437 -3.1378  0.3980 -0.7720
 5496TIP3    H237904   5.898   6.540   4.372  0.8027 -0.9240  0.3545
 5497TIP3   OH237905   0.047   2.312   5.192 -0.0007  0.5698 -0.5360
 5497TIP3    H137906   0.124   2.260   5.215  1.3090  1.5771 -2.3932
 5497TIP3    H237907   0.001   2.259   5.127  0.5582  1.0781 -1.3603
 5498TIP3   OH237908   4.576   5.005   4.070  0.5968 -0.2701 -0.6910
 5498TIP3    H137909   4.665   4.995   4.104  0.2541 -1.7692 -0.1527
 5498TIP3    H237910   4.520   4.972   4.139 -0.1391 -3.2211 -2.5201
 5499TIP3   OH237911   5.502   1.609  16.615 -0.0648  0.2343  0.4418
 5499TIP3    H137912   5.416   1.587  16.651 -0.1695  0.1090  0.1229
 5499TIP3    H237913   5.542   1.667  16.680 -0.0866 -0.3078  0.9529
 5500TIP3   OH237914   2.176   6.413   5.925  0.1137 -0.1362 -0.3998
 5500TIP3    H137915   2.189   6.507   5.932  0.3806 -0.1361 -0.8786
 5500TIP3    H237916   2.117   6.403   5.850  1.1266 -0.4234 -1.1799
 5501TIP3   OH237917   3.844   6.655   4.727  0.5473  0.1723  0.2071
 5501TIP3    H137918   3.769   6.609   4.689  0.8460  0.2618 -0.5098
 5501TIP3    H237919   3.842   6.631   4.820  0.2945 -0.7208 -0.0181
 5502TIP3   OH237920   4.154   3.773   4.013  0.5399  0.3016  0.0518
 5502TIP3    H137921   4.223   3.809   3.957  0.1835  0.8818 -0.0305
 5502TIP3    H237922   4.073   3.805   3.973  0.2742  0.6587  0.8466
 5503TIP3   OH237923   0.520   0.685  14.057 -0.1339  0.5402 -0.2998
 5503TIP3    H137924   0.577   0.728  14.121 -0.2752 -1.2323  1.1089
 5503TIP3    H237925   0.433   0.687  14.097 -0.2888 -0.3169 -0.5706
 5504TIP3   OH237926   4.089   4.228  16.556 -0.0315 -0.4286  0.1171
 5504TIP3    H137927   3.997   4.228  16.529  0.1901 -1.7718 -0.7578
 5504TIP3    H237928   4.137   4.249  16.475  0.5038 -1.5326  0.1308
 5505TIP3   OH237929   5.376   2.609  14.291 -0.2049  0.5018  0.1862
 5505TIP3    H137930   5.403   2.571  14.208 -0.3666 -0.5501  0.6057
 5505TIP3    H237931   5.458   2.630  14.336 -0.1180  1.2382 -0.2960
 5506TIP3   OH237932   3.049   2.210   5.662 -0.0925 -0.5629  0.3958
 5506TIP3    H137933   3.104   2.255   5.726  0.7354 -1.0002 -0.0055
 5506TIP3    H237934   3.109   2.158   5.609 -0.6164  0.4618 -1.3314
 5507TIP3   OH237935   3.074   0.276  16.647 -0.4325 -0.2999  0.8040
 5507TIP3    H137936   2.998   0.248  16.698 -2.2641  1.4841 -0.7645
 5507TIP3    H237937   3.133   0.315  16.711 -1.7441  0.0302  1.8537
 5508TIP3   OH237938   6.409   6.470  16.547 -0.2869  0.1865 -0.0642
 5508TIP3    H137939   6.339   6.499  16.606  0.2395  0.6773  0.3365
 5508TIP3    H237940   6.477   6.437  16.606  1.6031  3.5566 -0.1139
 5509TIP3   OH237941   6.484   6.073  12.932  0.1006 -0.2433 -0.0711
 5509TIP3    H137942   6.487   6.146  12.869 -0.7505 -1.0774 -1.1085
 5509TIP3    H237943   6.426   6.009  12.892 -0.6178 -0.7305  1.6737
 5510TIP3   OH237944   2.244   4.377   0.646  0.3074 -0.2025  0.0741
 5510TIP3    H137945   2.155   4.400   0.674  0.6960  0.2487  0.9866
 5510TIP3    H237946   2.300   4.440   0.692  1.1369 -0.7704 -0.1435
 5511TIP3   OH237947   0.750   2.936   5.606 -0.8428  0.1846 -0.8207
 5511TIP3    H137948   0.833   2.983   5.593 -1.5293  1.3753 -1.0348
 5511TIP3    H237949   0.754   2.863   5.544  1.0618 -1.2384  0.8450
 5512TIP3   OH237950   1.680   4.518  12.647  0.1078  0.1445 -0.0026
 5512TIP3    H137951   1.675   4.565  12.564  1.5795  0.8415  0.2687
 5512TIP3    H237952   1.744   4.449  12.632  0.7838  0.6097  0.6941
 5513TIP3   OH237953   5.596   2.116  14.280 -0.0987 -0.0258  0.4627
 5513TIP3    H137954   5.584   2.034  14.328  0.3304  0.1673  0.9019
 5513TIP3    H237955   5.519   2.121  14.223 -0.9003  0.0032  1.4991
 5514TIP3   OH237956   0.704   2.431   1.201 -0.4799  0.1984  0.3713
 5514TIP3    H137957   0.721   2.479   1.120  1.2144 -0.1350  0.4735
 5514TIP3    H237958   0.679   2.499   1.264 -0.4559  0.6360 -0.0809
 5515TIP3   OH237959   6.087   4.279   3.114 -0.5744  0.2710  0.0097
 5515TIP3    H137960   6.053   4.219   3.048  0.4695  1.2528 -1.4716
 5515TIP3    H237961   6.009   4.310   3.160 -1.2526 -0.9803 -0.2412
 5516TIP3   OH237962   0.015   2.637  15.855 -0.2683 -0.0670  0.2301
 5516TIP3    H137963  -0.042   2.590  15.917 -0.7242  0.6678  0.3834
 5516TIP3    H237964   0.047   2.712  15.905 -0.3866  0.3576 -0.3263
 5517TIP3   OH237965   0.366   1.679   4.403 -0.0890 -0.6783  0.4034
 5517TIP3    H137966   0.276   1.688   4.372  0.5444 -0.8140 -1.6133
 5517TIP3    H237967   0.361   1.612   4.471 -1.4981 -0.6864  0.3345
 5518TIP3   OH237968   1.919   0.638  14.933  0.6726 -0.1086  0.3677
 5518TIP3    H137969   1.962   0.560  14.899  1.3862  0.4005  0.0869
 5518TIP3    H237970   1.951   0.646  15.023  0.0784 -0.5075  0.6249
 5519TIP3   OH237971   3.144   3.605   1.323  0.0342 -0.2183  0.2981
 5519TIP3    H137972   3.133   3.676   1.387  1.1263  0.2663 -0.0355
 5519TIP3    H237973   3.139   3.525   1.375  0.9371  0.1710  1.0193
 5520TIP3   OH237974   5.132   4.410   0.284 -0.3482 -0.1468 -0.6706
 5520TIP3    H137975   5.173   4.378   0.204 -1.5403 -1.1108 -0.9293
 5520TIP3    H237976   5.157   4.346   0.351  0.2573  0.3967 -0.3746
 5521TIP3   OH237977   3.693   4.112  17.108 -0.3663  0.1403  0.2193
 5521TIP3    H137978   3.637   4.087  17.035  2.2120 -0.1119 -1.8309
 5521TIP3    H237979   3.714   4.204  17.091  0.9292 -0.1587  0.1127
 5522TIP3   OH237980   1.095   5.538  12.073  1.0618 -0.5336  0.7103
 5522TIP3    H137981   1.049   5.487  12.006 -0.2667 -0.0731  1.2368
 5522TIP3    H237982   1.028   5.558  12.138  1.7387  1.1868  0.9269
 5523TIP3   OH237983   3.759   3.393   4.019 -0.3158  0.6578  0.0961
 5523TIP3    H137984   3.708   3.355   4.090  0.7156 -1.4557 -0.2104
 5523TIP3    H237985   3.851   3.378   4.044  0.0741  0.5174 -1.3239
 5524TIP3   OH237986   1.238   2.175  13.635 -0.0179 -0.3813  0.5677
 5524TIP3    H137987   1.154   2.145  13.669 -1.0081 -1.5267 -2.5618
 5524TIP3    H237988   1.246   2.265  13.667 -2.3386 -0.2915  1.0873
 5525TIP3   OH237989   5.272   1.234  13.072 -0.4478 -0.0162 -0.1356
 5525TIP3    H137990   5.179   1.249  13.055 -0.8902  0.6949  2.4598
 5525TIP3    H237991   5.298   1.306  13.129  0.2700 -2.9258  3.5966
 5526TIP3   OH237992   0.575   0.879   4.738  0.2644 -0.2129 -0.3537
 5526TIP3    H137993   0.541   0.910   4.654  2.4565  1.3974 -0.7205
 5526TIP3    H237994   0.626   0.953   4.772 -0.3996 -0.8843  2.3376
 5527TIP3   OH237995   6.020   2.560  13.522  0.4060  0.1515 -0.4884
 5527TIP3    H137996   6.014   2.637  13.577 -2.4239  0.2318 -0.7527
 5527TIP3    H237997   6.060   2.591  13.440  1.4274  0.7695  0.2200
 5528TIP3   OH237998   1.459   1.096  16.239  0.7919 -0.9803  0.6125
 5528TIP3    H137999   1.378   1.070  16.194  1.4158  0.4170 -1.4487
 5528TIP3    H238000   1.491   1.014  16.278  0.0732 -2.2677 -1.3204
 5529TIP3   OH238001   6.308   0.932  11.447  0.0506 -0.8714  0.6513
 5529TIP3    H138002   6.290   0.887  11.364 -0.5216 -0.2071  0.4046
 5529TIP3    H238003   6.246   1.004  11.449  2.5697  1.4750 -0.1760
 5530TIP3   OH238004   6.143   2.754   4.121 -0.2293 -0.1396 -0.2423
 5530TIP3    H138005   6.144   2.702   4.041 -1.4025 -1.2801  0.4222
 5530TIP3    H238006   6.052   2.748   4.151  0.3611 -0.4662  1.6059
 5531TIP3   OH238007   1.154   1.092  17.053 -0.4003  0.1753 -0.1312
 5531TIP3    H138008   1.110   1.156  16.997 -1.1441  1.2063  1.5667
 5531TIP3    H238009   1.210   1.144  17.110  0.6603 -0.8869 -0.1718
 5532TIP3   OH238010   3.279   1.159   2.929  0.6914 -0.0999 -0.1287
 5532TIP3    H138011   3.338   1.162   2.853  0.4396 -2.2834 -0.4791
 5532TIP3    H238012   3.228   1.078   2.916  0.2603 -0.2338  2.0964
 5533TIP3   OH238013   5.022   3.516  14.896  0.2120 -0.1374 -0.1720
 5533TIP3    H138014   4.937   3.487  14.862  0.2096 -1.9790  1.2634
 5533TIP3    H238015   5.086   3.476  14.838  0.1333 -0.4583 -0.0407
 5534TIP3   OH238016   0.964   3.156  14.717 -0.5494  0.2933  0.0437
 5534TIP3    H138017   0.945   3.189  14.805  0.8593  0.7046  0.2203
 5534TIP3    H238018   1.056   3.126  14.721 -0.8550 -0.8947 -0.9344
 5535TIP3   OH238019   4.522   1.786   1.142  0.6297 -0.3449  0.0356
 5535TIP3    H138020   4.543   1.874   1.112  0.8689 -0.2149  0.5771
 5535TIP3    H238021   4.494   1.798   1.233  2.1151 -0.9845  0.6205
 5536TIP3   OH238022   1.786   3.997   2.965 -0.2575 -0.2532  0.2954
 5536TIP3    H138023   1.845   4.004   3.041 -0.8843 -1.9958  0.9901
 5536TIP3    H238024   1.703   4.031   2.997  0.0935  1.3076 -0.3927
 5537TIP3   OH238025   0.728   5.446  17.178  0.4013  0.0721  0.1286
 5537TIP3    H138026   0.688   5.387  17.115  2.0782 -1.4637  0.4231
 5537TIP3    H238027   0.805   5.481  17.133 -0.6668  2.2676 -0.1210
 5538TIP3   OH238028   3.957   4.189   1.252 -0.4543 -0.2874 -0.1577
 5538TIP3    H138029   3.904   4.167   1.175  0.2316 -2.1799 -0.1356
 5538TIP3    H238030   4.001   4.107   1.275 -0.5997  0.2263  2.2252
 5539TIP3   OH238031   5.132   6.474  15.358  0.3588  0.1580  0.4657
 5539TIP3    H138032   5.188   6.398  15.343  0.1698 -0.0906  1.0149
 5539TIP3    H238033   5.047   6.450  15.321  1.4103  1.8035 -3.5975
 5540TIP3   OH238034   3.143   1.134  16.605  0.1916  0.2837  0.1012
 5540TIP3    H138035   3.218   1.166  16.656  1.4012  0.0338 -1.4369
 5540TIP3    H238036   3.092   1.083  16.668  2.6435 -1.6643  0.7097
 5541TIP3   OH238037   5.151   3.213   2.429 -0.1606 -0.4211  0.2022
 5541TIP3    H138038   5.189   3.268   2.497  2.5968 -0.3051 -1.3099
 5541TIP3    H238039   5.171   3.123   2.457  1.2847 -0.3610 -0.5806
 5542TIP3   OH238040   5.333   4.515   1.194  0.3944 -0.6756  0.7033
 5542TIP3    H138041   5.251   4.520   1.243 -0.0626 -0.1921 -0.0781
 5542TIP3    H238042   5.309   4.475   1.111  0.7084  0.5669 -0.0062
 5543TIP3   OH238043   2.068   4.523   2.074 -0.1534  0.3737 -0.6119
 5543TIP3    H138044   2.098   4.492   1.988 -0.5290  1.1584 -1.0417
 5543TIP3    H238045   2.065   4.618   2.065 -0.8749  0.4216  0.0492
 5544TIP3   OH238046   3.326   3.313   6.080  0.1065  0.0585  0.2345
 5544TIP3    H138047   3.406   3.293   6.032  0.0910 -0.3552  0.3818
 5544TIP3    H238048   3.262   3.250   6.048 -0.1225  0.2908  0.2273
 5545TIP3   OH238049   3.636   2.278   2.265 -0.4400 -0.0195  0.2472
 5545TIP3    H138050   3.709   2.222   2.291  0.7273  1.2045 -0.3200
 5545TIP3    H238051   3.570   2.217   2.231  0.9205 -1.0270 -0.6696
 5546TIP3   OH238052   0.782   3.933   2.983  0.1831  0.5709  0.0363
 5546TIP3    H138053   0.725   3.916   3.058  0.4543  0.2627  0.1717
 5546TIP3    H238054   0.721   3.949   2.911 -0.1002 -0.7785 -0.0548
 5547TIP3   OH238055   6.191   3.433   1.343 -0.4977  0.4576 -0.3807
 5547TIP3    H138056   6.173   3.339   1.345 -0.5963  0.4458 -1.2503
 5547TIP3    H238057   6.122   3.471   1.397 -1.7314  0.1919 -1.7103
 5548TIP3   OH238058   5.438   3.594  11.292 -0.0122 -0.0561  0.2599
 5548TIP3    H138059   5.351   3.621  11.320 -0.5000  0.5985 -1.7735
 5548TIP3    H238060   5.481   3.675  11.265  1.3904 -0.3198  1.5466
 5549TIP3   OH238061   3.982   0.388  16.221 -0.9834  1.2364 -0.8349
 5549TIP3    H138062   3.953   0.318  16.162 -1.3810 -0.2104  0.9640
 5549TIP3    H238063   3.907   0.447  16.226 -2.5109 -0.6870  1.1321
 5550TIP3   OH238064   6.430   2.362   0.269  0.3133  0.2533  0.1028
 5550TIP3    H138065   6.441   2.377   0.363 -2.5608  2.6719  0.2024
 5550TIP3    H238066   6.516   2.383   0.232  0.6302  2.7452  1.9130
 5551TIP3   OH238067   6.081   4.613  14.714 -0.2881 -0.1167 -0.6292
 5551TIP3    H138068   6.146   4.626  14.783 -1.3680  0.1935  0.3692
 5551TIP3    H238069   6.053   4.701  14.691  2.1118  0.0159 -3.5837
 5552TIP3   OH238070   1.630   2.621   2.768  0.0291  0.4070 -0.2753
 5552TIP3    H138071   1.541   2.589   2.753 -0.0766  0.4011  0.3174
 5552TIP3    H238072   1.683   2.541   2.775  0.0620  0.4074 -0.5303
 5553TIP3   OH238073   1.561   3.052   5.206 -0.4518 -0.0596 -0.2283
 5553TIP3    H138074   1.508   2.976   5.183 -0.5531 -0.8867  2.3790
 5553TIP3    H238075   1.633   3.017   5.258 -0.0299  1.5258  0.3281
 5554TIP3   OH238076   4.879   4.191   3.680  0.2520 -0.2684  0.2194
 5554TIP3    H138077   4.858   4.128   3.611 -1.3169  1.6369 -1.1414
 5554TIP3    H238078   4.970   4.217   3.662  0.0268 -0.1795 -0.8250
 5555TIP3   OH238079   6.211   5.446   1.489 -0.1063  0.5457  0.2969
 5555TIP3    H138080   6.220   5.362   1.534  2.3639  1.0280  0.8540
 5555TIP3    H238081   6.221   5.426   1.396  1.8529  0.3115  0.5126
 5556TIP3   OH238082   5.098   0.044  10.857 -0.3695 -0.1678  0.0988
 5556TIP3    H138083   5.030  -0.023  10.849 -0.3052 -0.4203  1.4877
 5556TIP3    H238084   5.171  -0.000  10.901 -0.3616  0.8232  1.1137
 5557TIP3   OH238085   3.594   1.765  15.859  0.0419 -0.2040 -0.0516
 5557TIP3    H138086   3.596   1.688  15.802  0.3916  0.4192 -0.8998
 5557TIP3    H238087   3.663   1.822  15.825  0.0739  0.3057  0.8300
 5558TIP3   OH238088   5.671   2.738  15.020 -0.0593 -0.0527  0.2803
 5558TIP3    H138089   5.633   2.678  14.955 -0.3075 -0.2350  0.5946
 5558TIP3    H238090   5.761   2.751  14.990  0.1968 -1.1123  0.5813
 5559TIP3   OH238091   3.705   2.191  16.762 -0.3332  0.6619  0.1142
 5559TIP3    H138092   3.675   2.238  16.840 -0.2484  2.1493 -0.7040
 5559TIP3    H238093   3.679   2.100  16.776  1.2412  0.5195  2.6748
 5560TIP3   OH238094   5.835   2.549  14.318  0.0645  0.5975  0.1873
 5560TIP3    H138095   5.840   2.463  14.359  2.9048  0.4851 -0.1498
 5560TIP3    H238096   5.751   2.584  14.346 -0.2421 -1.4188  2.1119
 5561TIP3   OH238097   2.431   4.475  12.410  0.9933  0.1947 -0.3088
 5561TIP3    H138098   2.476   4.539  12.354  2.3246 -0.0165  0.4781
 5561TIP3    H238099   2.491   4.461  12.483 -0.2225 -0.3763  0.6124
 5562TIP3   OH238100   4.542   1.090  15.210  0.3695 -0.1511 -0.4816
 5562TIP3    H138101   4.474   1.130  15.157  0.8832  2.0700  0.4166
 5562TIP3    H238102   4.624   1.126  15.176  0.7333  1.0450  1.5136
 5563TIP3   OH238103   1.457   3.280   1.809 -0.3649 -0.0546  0.0273
 5563TIP3    H138104   1.378   3.308   1.856 -0.5389  1.0626 -0.8853
 5563TIP3    H238105   1.520   3.350   1.824 -0.3246  0.1737 -1.1412
 5564TIP3   OH238106   1.614   6.578  11.614  0.9886  0.3408 -0.6914
 5564TIP3    H138107   1.633   6.658  11.664 -0.0122  0.0076  0.2615
 5564TIP3    H238108   1.583   6.610  11.529  1.5094  0.9439 -0.6606
 5565TIP3   OH238109   5.799   6.615  11.894 -0.0894  0.6638  0.1936
 5565TIP3    H138110   5.845   6.691  11.930 -1.2139  1.1505  0.6342
 5565TIP3    H238111   5.726   6.600  11.954 -0.3960 -0.2144 -0.3838
 5566TIP3   OH238112   2.901   1.719   0.519 -0.1252  0.5950  0.0361
 5566TIP3    H138113   2.926   1.671   0.598  0.1844 -0.5606 -0.7312
 5566TIP3    H238114   2.823   1.673   0.487  1.0985 -0.4667 -1.5949
 5567TIP3   OH238115   0.511   5.387  14.214  0.1747  0.7031  0.0295
 5567TIP3    H138116   0.576   5.451  14.184  0.4886  0.8644  1.0247
 5567TIP3    H238117   0.561   5.307  14.228  0.1655  0.8293  0.8036
 5568TIP3   OH238118   3.538   4.018   5.655 -0.6297  0.0802 -0.3834
 5568TIP3    H138119   3.517   3.970   5.735 -0.7467  0.0934 -0.4059
 5568TIP3    H238120   3.514   4.109   5.674 -2.1448 -0.1727 -0.9672
 5569TIP3   OH238121   2.646   4.157  12.838 -0.3097 -0.3092  0.0599
 5569TIP3    H138122   2.717   4.116  12.787  0.0234 -0.5154  0.6846
 5569TIP3    H238123   2.674   4.148  12.929 -0.5688  0.6896  0.2439
 5570TIP3   OH238124   5.890   2.980   0.785 -0.2939 -0.6895  0.2584
 5570TIP3    H138125   5.976   2.999   0.823  0.5807 -2.0202 -0.9689
 5570TIP3    H238126   5.907   2.911   0.721 -1.8269  0.8496 -1.9433
 5571TIP3   OH238127   6.734   6.624  11.908 -0.1919 -0.1094 -0.0462
 5571TIP3    H138128   6.699   6.572  11.835  2.0196  0.3305 -1.5275
 5571TIP3    H238129   6.709   6.714  11.886 -3.3631 -0.2781  2.1330
 5572TIP3   OH238130   0.615   2.752  14.958  0.0060 -0.7019  0.0127
 5572TIP3    H138131   0.637   2.717  14.872 -0.2037 -0.7471 -0.0235
 5572TIP3    H238132   0.519   2.755  14.959  0.0200 -0.1156  0.0116
 5573TIP3   OH238133   4.435   1.532  11.081  0.0584 -0.2062 -0.2386
 5573TIP3    H138134   4.528   1.510  11.087  0.2330  0.1995 -1.2974
 5573TIP3    H238135   4.391   1.459  11.124  0.8348 -0.6640 -0.1899
 5574TIP3   OH238136   6.133   3.089  16.659 -0.4153 -0.5710 -0.2468
 5574TIP3    H138137   6.130   3.088  16.755  0.2363 -0.3997 -0.2214
 5574TIP3    H238138   6.165   3.176  16.636 -2.1619 -0.0176 -0.6856
 5575TIP3   OH238139   0.183   5.633  16.665  0.2363  0.0614  0.5646
 5575TIP3    H138140   0.121   5.605  16.732 -1.3053  0.6483 -0.5699
 5575TIP3    H238141   0.204   5.723  16.688 -1.4332  0.7686 -0.4885
 5576TIP3   OH238142   4.858   6.610  12.547 -0.1274  0.3110  0.1666
 5576TIP3    H138143   4.874   6.639  12.458 -1.3079  0.8778  0.1190
 5576TIP3    H238144   4.766   6.582  12.547 -0.5902  1.6909  1.5422
 5577TIP3   OH238145   2.812   1.721  15.628  0.2347  0.6263  0.4305
 5577TIP3    H138146   2.831   1.635  15.590 -2.3602  0.5502 -0.8544
 5577TIP3    H238147   2.797   1.703  15.721  2.0291  0.1189  0.6788
 5578TIP3   OH238148   3.272   5.464   4.531  0.1793 -0.0243 -0.0083
 5578TIP3    H138149   3.366   5.448   4.519 -0.0174 -0.9415 -0.4109
 5578TIP3    H238150   3.235   5.378   4.549 -0.7263  0.1722 -0.8432
 5579TIP3   OH238151   4.453   1.529   5.400  0.1656  0.1923  1.1330
 5579TIP3    H138152   4.494   1.443   5.392 -1.5291 -0.5128 -1.3712
 5579TIP3    H238153   4.363   1.515   5.371  0.2900  3.1306 -1.1366
 5580TIP3   OH238154   3.341   4.229   2.354  0.0954  0.4486  0.5602
 5580TIP3    H138155   3.320   4.179   2.432 -0.3545  0.4694  0.4567
 5580TIP3    H238156   3.289   4.188   2.285  0.9529  0.0411  0.1440
 5581TIP3   OH238157   3.366   0.564   3.193 -0.4998 -0.0549  0.5166
 5581TIP3    H138158   3.334   0.644   3.151 -1.3818 -1.5651 -1.8950
 5581TIP3    H238159   3.312   0.555   3.272 -0.9989  1.2348  0.3505
 5582TIP3   OH238160   5.718   3.743  15.639 -0.4580 -1.0411  0.0994
 5582TIP3    H138161   5.755   3.655  15.636  0.8855 -0.4861 -1.2234
 5582TIP3    H238162   5.665   3.750  15.559  1.5588  0.1655 -1.2111
 5583TIP3   OH238163   3.526   0.009   1.415  0.2532  0.2362  0.3867
 5583TIP3    H138164   3.435   0.034   1.398 -0.3252 -3.4210 -3.5461
 5583TIP3    H238165   3.578   0.070   1.362 -0.2116  0.0704 -0.2708
 5584TIP3   OH238166   0.426   0.686  16.427  0.9231 -0.3218  0.1570
 5584TIP3    H138167   0.461   0.774  16.410  0.3829  0.0488  0.8890
 5584TIP3    H238168   0.453   0.667  16.517 -0.9189  0.0851  0.8431
 5585TIP3   OH238169   2.150   3.921  13.696 -0.1370 -0.1458  0.7541
 5585TIP3    H138170   2.176   4.012  13.679  0.4486 -0.6257 -1.2453
 5585TIP3    H238171   2.228   3.870  13.672 -1.0780 -1.2808  0.0257
 5586TIP3   OH238172   4.594   3.850  15.154  0.5924 -0.5302  0.1733
 5586TIP3    H138173   4.523   3.796  15.120 -0.0467 -0.8264  1.8878
 5586TIP3    H238174   4.674   3.803  15.128  0.2826  0.2460 -2.5258
 5587TIP3   OH238175   3.366   3.424  14.920  0.1505 -0.6194  0.2197
 5587TIP3    H138176   3.314   3.362  14.869  0.5367 -0.4437 -0.3905
 5587TIP3    H238177   3.343   3.404  15.011 -0.5592 -0.9160 -0.0150
 5588TIP3   OH238178   6.040   2.517   4.856  0.2294  0.0607 -0.3193
 5588TIP3    H138179   5.966   2.456   4.854 -1.5111  2.0255 -1.3509
 5588TIP3    H238180   6.017   2.584   4.791  3.5415  0.1661 -1.5746
 5589TIP3   OH238181   0.110   0.616   3.952 -0.3799  0.2505  0.0569
 5589TIP3    H138182   0.111   0.546   4.017  0.7966  0.9150  0.7921
 5589TIP3    H238183   0.154   0.580   3.876  1.3693  0.5448  0.8724
 5590TIP3   OH238184   0.657   3.755  15.316 -0.3715 -0.1556  0.5109
 5590TIP3    H138185   0.638   3.828  15.374 -0.0077 -0.9319  1.6586
 5590TIP3    H238186   0.585   3.694  15.330 -0.3299 -0.3033  0.0770
 5591TIP3   OH238187   4.988   3.772  15.346  0.1009 -0.4442  0.5820
 5591TIP3    H138188   4.952   3.835  15.284 -0.8502 -2.1558 -0.6921
 5591TIP3    H238189   5.035   3.709  15.291  2.0316 -0.2529  1.9173
 5592TIP3   OH238190   6.337   2.633  15.214  0.1471  0.5032  0.5782
 5592TIP3    H138191   6.427   2.652  15.186 -0.4746  1.1347 -1.1283
 5592TIP3    H238192   6.290   2.715  15.199 -1.3799 -0.6440 -1.5604
 5593TIP3   OH238193   1.494   3.454  14.934 -0.1018  0.6240  0.1786
 5593TIP3    H138194   1.563   3.392  14.909  0.1569  2.1905 -3.8067
 5593TIP3    H238195   1.413   3.412  14.906 -0.1811  1.0369 -0.2231
 5594TIP3   OH238196   3.022   2.284   1.018 -0.3439  0.3100 -0.2448
 5594TIP3    H138197   3.101   2.239   0.986  0.5481  0.4368  1.6549
 5594TIP3    H238198   3.049   2.376   1.025 -1.2414  0.6769 -1.2511
 5595TIP3   OH238199   6.623   5.208   0.135 -0.4189 -0.1976  0.1844
 5595TIP3    H138200   6.718   5.196   0.135 -0.2222  0.8285  2.5745
 5595TIP3    H238201   6.590   5.135   0.186 -0.7190  0.4217  0.8931
 5596TIP3   OH238202   2.960   3.162   0.076  0.1396  0.1341  0.0324
 5596TIP3    H138203   2.872   3.126   0.080  0.4757 -0.6326  2.5569
 5596TIP3    H238204   2.999   3.122  -0.001 -0.9033 -1.6121  0.3644
 5597TIP3   OH238205   0.543   1.654   2.804 -0.3596 -0.2652  0.4302
 5597TIP3    H138206   0.491   1.686   2.878 -0.1300  2.5819 -0.5203
 5597TIP3    H238207   0.478   1.627   2.739 -0.9871  3.9142 -1.0338
 5598TIP3   OH238208   4.361   2.348  13.201  0.0008  0.1394 -0.6698
 5598TIP3    H138209   4.334   2.290  13.130 -1.4243  1.6550 -1.4399
 5598TIP3    H238210   4.301   2.328  13.273  0.9672 -0.8704 -0.1031
 5599TIP3   OH238211   5.537   5.046  10.686  0.6718  0.4319  0.8260
 5599TIP3    H138212   5.543   5.129  10.732 -3.0311  0.9548  0.6637
 5599TIP3    H238213   5.571   4.981  10.748  0.1396  1.6493  2.4638
 5600TIP3   OH238214   2.097   2.546  16.533  0.2077 -0.1956  0.1164
 5600TIP3    H138215   2.075   2.636  16.508  2.4357  0.3721 -0.0208
 5600TIP3    H238216   2.104   2.549  16.629 -0.1778 -0.3480  0.1499
 5601TIP3   OH238217   0.549   5.686  11.806 -0.0223 -0.0386 -0.2447
 5601TIP3    H138218   0.591   5.658  11.724 -0.4033 -0.3115 -0.3512
 5601TIP3    H238219   0.503   5.766  11.782 -0.3047 -0.2311 -0.3507
 5602TIP3   OH238220   6.598   1.849   6.215 -0.5775  0.4577 -0.0575
 5602TIP3    H138221   6.692   1.848   6.202 -0.6141  0.1389 -0.3041
 5602TIP3    H238222   6.586   1.834   6.309 -0.2989  3.1999  0.4847
 5603TIP3   OH238223   1.440   1.743   2.664  0.7245 -0.4060  0.4575
 5603TIP3    H138224   1.471   1.653   2.652 -1.8941 -1.5090  1.3532
 5603TIP3    H238225   1.357   1.746   2.617  0.9555  1.7361  0.0617
 5604TIP3   OH238226   2.722   2.618   4.963  0.5098 -0.0932 -0.4804
 5604TIP3    H138227   2.773   2.655   4.892  2.3476 -0.9499  0.3418
 5604TIP3    H238228   2.685   2.694   5.008 -0.4086  0.4687 -2.1024
 5605TIP3   OH238229   4.678   0.989   5.457  0.0444 -0.3472 -0.5041
 5605TIP3    H138230   4.631   0.994   5.541 -0.0545 -0.3497 -0.5597
 5605TIP3    H238231   4.704   0.897   5.449  0.8495 -0.1754 -0.0387
 5606TIP3   OH238232   5.340   5.660  12.886 -0.0805  0.2117 -0.6286
 5606TIP3    H138233   5.335   5.689  12.977  0.3991  2.5292 -1.2691
 5606TIP3    H238234   5.424   5.614  12.880 -0.6534 -0.9999  0.3434
 5607TIP3   OH238235   1.047   5.835  15.062 -0.4268  0.0402 -0.8176
 5607TIP3    H138236   1.018   5.926  15.063  3.3742  1.4814  1.1440
 5607TIP3    H238237   1.093   5.825  14.979  0.3086  0.3732 -0.4566
 5608TIP3   OH238238   4.720   0.876   4.272 -0.4409  0.0158 -0.1641
 5608TIP3    H138239   4.745   0.864   4.364 -1.2188  1.0174  0.1900
 5608TIP3    H238240   4.733   0.969   4.255 -0.1401 -0.1953 -1.1287
 5609TIP3   OH238241   1.253   6.597   4.478  0.1823  0.1115 -0.2731
 5609TIP3    H138242   1.256   6.692   4.487 -0.7178  0.3088 -1.7572
 5609TIP3    H238243   1.203   6.568   4.553  1.5510  0.6656  0.9021
 5610TIP3   OH238244   4.137   2.999  13.871  0.1565  0.3295 -0.4906
 5610TIP3    H138245   4.137   3.094  13.863  1.0116  0.1428 -4.1135
 5610TIP3    H238246   4.067   2.970  13.812  1.9524 -1.3378 -1.9212
 5611TIP3   OH238247   0.531   3.119   5.632  0.3698  0.0437 -0.7682
 5611TIP3    H138248   0.603   3.056   5.640  1.2906  1.1255 -0.2539
 5611TIP3    H238249   0.462   3.083   5.687  0.6828 -0.7631 -0.8752
 5612TIP3   OH238250   3.535   0.807   0.021  0.5297  0.0785 -0.0057
 5612TIP3    H138251   3.523   0.843  -0.067 -1.0022  0.6634  0.4101
 5612TIP3    H238252   3.605   0.859   0.059  0.1861  0.8334 -0.3738
 5613TIP3   OH238253   1.494   4.271  12.441  0.4080 -0.0522 -0.3844
 5613TIP3    H138254   1.499   4.189  12.392  1.8843 -0.2199 -0.0119
 5613TIP3    H238255   1.584   4.302  12.445 -0.3233  2.4890 -1.9460
 5614TIP3   OH238256   3.591   0.235   2.871 -0.5231 -0.2680 -0.0043
 5614TIP3    H138257   3.599   0.317   2.921 -0.5686 -0.5522  0.4836
 5614TIP3    H238258   3.524   0.185   2.919  0.4679 -1.1516  0.4883
 5615TIP3   OH238259   3.566   6.420   4.187 -0.1719  0.2708 -0.4092
 5615TIP3    H138260   3.622   6.457   4.119 -0.0459 -0.0959 -0.5081
 5615TIP3    H238261   3.627   6.386   4.252 -0.2266 -1.3579 -1.1566
 5616TIP3   OH238262   4.597   2.294   6.516 -0.2395  0.0308 -0.5346
 5616TIP3    H138263   4.521   2.333   6.473  1.1348  2.3259 -1.0407
 5616TIP3    H238264   4.634   2.235   6.451 -1.6874 -1.3469 -0.1785
 5617TIP3   OH238265   4.751   3.537  12.761  0.2965  0.1533  0.4998
 5617TIP3    H138266   4.710   3.451  12.768  0.0436  0.3591  1.7721
 5617TIP3    H238267   4.837   3.520  12.723  0.4071 -0.7141  1.1191
 5618TIP3   OH238268   5.457   4.277   2.692 -0.1508  0.1448  0.4542
 5618TIP3    H138269   5.504   4.359   2.709 -1.0190  1.1251 -1.5658
 5618TIP3    H238270   5.483   4.253   2.603 -1.6276 -0.5783  0.1959
 5619TIP3   OH238271   1.836   0.187   4.949 -0.1814  0.3993  0.0168
 5619TIP3    H138272   1.927   0.184   4.920 -0.1486 -2.3793  0.1719
 5619TIP3    H238273   1.794   0.248   4.888  1.6196  1.2472 -0.4515
 5620TIP3   OH238274   1.810   5.849   6.098 -0.1850 -0.2671 -0.4676
 5620TIP3    H138275   1.776   5.767   6.132 -0.8355  0.2522  0.1645
 5620TIP3    H238276   1.891   5.825   6.052  0.2911 -1.0920  0.7636
 5621TIP3   OH238277   2.714   0.883   2.016 -0.1394  0.0367 -0.2639
 5621TIP3    H138278   2.771   0.932   2.075  0.2460  0.7247 -1.1890
 5621TIP3    H238279   2.653   0.948   1.981  2.1576  0.5570 -3.6921
 5622TIP3   OH238280   3.283   0.251  12.827 -0.0161  0.1881 -0.4679
 5622TIP3    H138281   3.203   0.275  12.779  0.7673  0.0672 -1.8875
 5622TIP3    H238282   3.344   0.322  12.806  0.6713 -0.4088 -0.5019
 5623TIP3   OH238283   2.484   1.692  15.460  0.6417 -0.4971 -0.0390
 5623TIP3    H138284   2.461   1.692  15.553 -0.8843 -0.4190 -0.3851
 5623TIP3    H238285   2.472   1.601  15.432  0.3210 -0.3699 -0.3260
 5624TIP3   OH238286   1.666   1.899   5.503 -0.0095 -0.2482 -0.5364
 5624TIP3    H138287   1.602   1.856   5.446  0.0304 -1.0175 -0.0072
 5624TIP3    H238288   1.640   1.991   5.502 -1.9589 -0.7241  0.7222
 5625TIP3   OH238289   5.593   4.009   1.695  0.5085  0.1210  0.0180
 5625TIP3    H138290   5.605   4.074   1.764 -1.7391 -0.4009  0.9920
 5625TIP3    H238291   5.617   3.926   1.736 -0.2102 -0.1041  0.0117
 5626TIP3   OH238292   3.618   0.767  15.036  0.5310  0.7144  0.1780
 5626TIP3    H138293   3.644   0.841  15.090  0.5232  0.9301 -0.1127
 5626TIP3    H238294   3.595   0.806  14.952 -1.2710  0.6015  0.5862
 5627TIP3   OH238295   6.496   2.786  12.164 -0.4526 -0.3343 -0.1804
 5627TIP3    H138296   6.575   2.791  12.110  1.0572 -1.4384  1.7596
 5627TIP3    H238297   6.447   2.711  12.129 -1.0255  0.7474 -1.7993
 5628TIP3   OH238298   6.255   5.414  15.140 -0.8498 -0.1634 -0.2363
 5628TIP3    H138299   6.278   5.390  15.229 -1.9846  1.2102  0.4693
 5628TIP3    H238300   6.330   5.467  15.110  0.0812 -1.6133 -0.5711
 5629TIP3   OH238301   2.720   1.575   3.572  0.5468  0.5129 -0.4529
 5629TIP3    H138302   2.803   1.622   3.571  0.5660  0.5402  0.8284
 5629TIP3    H238303   2.732   1.506   3.637 -0.2618  0.1837 -0.6394
 5630TIP3   OH238304   5.177   5.438  16.319  0.5167 -0.1107  0.2907
 5630TIP3    H138305   5.181   5.522  16.273 -0.7658 -1.0293 -1.6281
 5630TIP3    H238306   5.254   5.390  16.286  1.7262  0.5463  2.0131
 5631TIP3   OH238307   6.241   1.728  13.476  0.0914  0.7538 -0.5797
 5631TIP3    H138308   6.211   1.653  13.528 -1.1941  1.3376 -0.4342
 5631TIP3    H238309   6.335   1.734  13.495 -0.4483  1.4537  2.4243
 5632TIP3   OH238310   4.542   1.981  11.733  0.3146  0.3827  0.2089
 5632TIP3    H138311   4.584   1.936  11.806  0.9019  0.1233 -0.2811
 5632TIP3    H238312   4.540   1.917  11.662 -1.1723  0.2973  0.2989
 5633TIP3   OH238313   6.484   6.409   4.924  0.2138  0.5788  0.4091
 5633TIP3    H138314   6.464   6.450   4.840 -2.2116 -0.4185  0.4211
 5633TIP3    H238315   6.399   6.382   4.959  1.3353 -0.9102  2.2124
 5634TIP3   OH238316   4.665   3.821   3.719  0.6407  0.6784  0.4237
 5634TIP3    H138317   4.733   3.821   3.652 -0.2254 -0.1711 -0.4995
 5634TIP3    H238318   4.641   3.729   3.729  0.0571  0.8986  1.1783
 5635TIP3   OH238319   6.672   6.322  13.838  0.1249 -1.0432  0.1547
 5635TIP3    H138320   6.651   6.413  13.819  0.2929 -1.1865 -0.7964
 5635TIP3    H238321   6.605   6.272  13.791 -0.6615 -1.4093  1.5942
 5636TIP3   OH238322   3.710   5.265   0.502 -0.6093 -0.2128 -0.0642
 5636TIP3    H138323   3.776   5.329   0.527 -0.9673  0.3720 -0.6004
 5636TIP3    H238324   3.689   5.218   0.583  0.5703 -0.5097  0.0808
 5637TIP3   OH238325   5.830   0.418   3.243  0.5882  0.3598 -0.1000
 5637TIP3    H138326   5.869   0.405   3.330 -1.2842 -1.0347  0.6003
 5637TIP3    H238327   5.787   0.504   3.249  0.4653  0.2704  0.3757
 5638TIP3   OH238328   2.496   2.589   1.966  0.3595  1.0892  0.3172
 5638TIP3    H138329   2.532   2.528   1.901 -0.3332 -0.9498  1.7435
 5638TIP3    H238330   2.403   2.596   1.943  0.4616  1.7990  0.0682
 5639TIP3   OH238331   0.190   3.645  12.397 -0.0174 -0.4686 -0.4954
 5639TIP3    H138332   0.133   3.581  12.355  0.4712 -0.7604 -0.7315
 5639TIP3    H238333   0.245   3.678  12.326 -1.3113  1.3893 -0.6818
 5640TIP3   OH238334   0.828   2.107   5.338  0.2216  0.6592 -0.1851
 5640TIP3    H138335   0.879   2.039   5.382 -0.5724 -1.2007 -1.9884
 5640TIP3    H238336   0.762   2.132   5.401  1.3246  0.7250  0.9836
 5641TIP3   OH238337   1.809   0.257  13.943  0.3687 -0.0097  0.0544
 5641TIP3    H138338   1.905   0.258  13.953  0.2690  1.4235  1.1315
 5641TIP3    H238339   1.795   0.273  13.850  1.1822  0.9058  0.0661
 5642TIP3   OH238340   5.477   6.571  17.181 -0.6143 -0.7162 -0.9502
 5642TIP3    H138341   5.392   6.539  17.152  0.3147 -2.4412 -1.9178
 5642TIP3    H238342   5.540   6.529  17.123  1.1221 -1.8228  1.5526
 5643TIP3   OH238343   4.747   3.815   1.563  0.8785 -0.4015  0.1306
 5643TIP3    H138344   4.803   3.891   1.546  0.6744 -0.7299 -2.3295
 5643TIP3    H238345   4.658   3.850   1.557  0.7876 -0.5584  0.5273
 5644TIP3   OH238346   5.394   0.364   2.060 -0.1702  0.4565 -0.6203
 5644TIP3    H138347   5.304   0.393   2.043 -0.3774  0.9480  1.1886
 5644TIP3    H238348   5.392   0.269   2.045 -1.1904  0.3395  0.2048
 5645TIP3   OH238349   4.228   5.369  12.062 -0.1056 -0.3334  0.3129
 5645TIP3    H138350   4.135   5.348  12.069 -0.5781  1.5858  0.4919
 5645TIP3    H238351   4.242   5.438  12.127  1.0301  0.6230 -0.8903
 5646TIP3   OH238352   6.708   2.456  14.411 -0.1957 -0.0929  0.2724
 5646TIP3    H138353   6.760   2.394  14.462 -0.6120 -0.9901 -0.3747
 5646TIP3    H238354   6.693   2.412  14.328 -1.4890  0.4047  0.2238
 5647TIP3   OH238355   6.492   0.628  15.815 -0.4727 -0.2616 -0.1780
 5647TIP3    H138356   6.549   0.686  15.764  0.2374  2.0627  2.9933
 5647TIP3    H238357   6.404   0.650  15.785 -0.1341  1.6400  0.0781
 5648TIP3   OH238358   1.703   6.498  12.700  0.2038  0.5742 -0.2544
 5648TIP3    H138359   1.646   6.533  12.631  0.6195  1.3682 -0.2031
 5648TIP3    H238360   1.687   6.555  12.775  0.0575 -0.0382  0.1896
 5649TIP3   OH238361   0.703   3.842  16.498  0.3955  0.1177  0.1522
 5649TIP3    H138362   0.792   3.809  16.504  0.0651 -0.9322 -0.5365
 5649TIP3    H238363   0.669   3.836  16.588  1.0642  0.7187  0.4549
 5650TIP3   OH238364   0.664   6.671  17.189  0.6630 -0.0267 -0.1620
 5650TIP3    H138365   0.756   6.650  17.202  0.6534 -2.5059 -2.9365
 5650TIP3    H238366   0.664   6.757  17.147  1.8128 -0.4065 -0.9969
 5651TIP3   OH238367   4.836   4.605  10.982 -0.0618  0.0572  0.1333
 5651TIP3    H138368   4.774   4.566  10.920  1.2850 -2.7870  0.4206
 5651TIP3    H238369   4.920   4.605  10.935  0.6213 -0.4671  1.3188
 5652TIP3   OH238370   5.151   4.531   3.551 -0.3086 -0.5138  0.0644
 5652TIP3    H138371   5.182   4.443   3.575  0.7568  0.1080  1.0865
 5652TIP3    H238372   5.068   4.516   3.504 -0.0882 -2.0563  0.1251
 5653TIP3   OH238373   0.529   1.608  14.954  0.5674 -0.4112  0.4456
 5653TIP3    H138374   0.460   1.542  14.956  2.9843 -3.1293  0.4139
 5653TIP3    H238375   0.559   1.615  15.044 -1.6495  3.1347  1.0984
 5654TIP3   OH238376   6.190   4.208   3.979 -0.6531  0.2407  0.2970
 5654TIP3    H138377   6.118   4.151   4.008 -0.4630  0.5117  1.3569
 5654TIP3    H238378   6.219   4.251   4.059  0.6229  0.2262 -0.1449
 5655TIP3   OH238379   1.036   2.785  13.136  0.0677 -0.3266  0.1520
 5655TIP3    H138380   0.957   2.789  13.082  1.2962 -0.1353 -1.7228
 5655TIP3    H238381   1.106   2.763  13.075  1.8150  1.4916  1.3634
 5656TIP3   OH238382   2.235   1.189  12.109  0.3051 -0.6382 -0.0456
 5656TIP3    H138383   2.261   1.239  12.032  0.9588 -0.6630  0.1518
 5656TIP3    H238384   2.150   1.225  12.133 -1.0533 -2.2209 -2.1632
 5657TIP3   OH238385   3.016   4.470  15.079  0.3906  0.0838 -0.2912
 5657TIP3    H138386   3.058   4.533  15.021  1.8321  0.0273  0.6453
 5657TIP3    H238387   3.086   4.411  15.107 -0.4004 -0.3403  0.9103
 5658TIP3   OH238388   4.859   3.484   5.363 -0.1971 -0.4662  0.4181
 5658TIP3    H138389   4.844   3.502   5.456  0.0557 -2.3723  0.8632
 5658TIP3    H238390   4.872   3.389   5.359  3.3494 -0.0790 -1.0363
 5659TIP3   OH238391   6.259   3.357   6.169  0.9011  0.7962  0.3315
 5659TIP3    H138392   6.290   3.362   6.259  0.5699 -1.2439  0.6111
 5659TIP3    H238393   6.182   3.300   6.174  0.1758  1.6016 -1.0804
 5660TIP3   OH238394   4.199   6.698   2.860  0.0130  0.0605 -0.4097
 5660TIP3    H138395   4.144   6.708   2.937  0.4071  1.9631 -0.3246
 5660TIP3    H238396   4.200   6.785   2.820  1.9265 -0.2318 -1.0953
 5661TIP3   OH238397   4.293   6.622   5.292  0.4921 -0.3873  0.3159
 5661TIP3    H138398   4.310   6.594   5.202  1.7588  1.0001  0.1016
 5661TIP3    H238399   4.359   6.688   5.310  0.4820 -0.8740  2.4039
 5662TIP3   OH238400   1.060   0.633  13.008 -0.1999 -0.2405  0.2151
 5662TIP3    H138401   1.108   0.585  12.941 -0.4894  2.2562 -1.9237
 5662TIP3    H238402   1.100   0.604  13.091  3.2481 -0.2088 -1.2641
 5663TIP3   OH238403   1.629   2.311   1.942 -0.1676 -0.2985  0.0529
 5663TIP3    H138404   1.588   2.393   1.967  1.0440 -0.1225  1.5804
 5663TIP3    H238405   1.601   2.248   2.008  0.4081 -0.6582 -0.0378
 5664TIP3   OH238406   4.618   4.587   5.357 -0.0429 -0.2333  0.1764
 5664TIP3    H138407   4.638   4.536   5.278 -2.8190  0.0950 -0.8522
 5664TIP3    H238408   4.570   4.663   5.325 -4.9135 -2.0232  2.2096
 5665TIP3   OH238409   2.663   2.652  10.359 -0.6494 -0.1342  0.0257
 5665TIP3    H138410   2.613   2.714  10.411 -1.3530  0.2669 -1.0948
 5665TIP3    H238411   2.615   2.570  10.365 -0.9537  0.0163 -0.3053
 5666TIP3   OH238412   1.084   4.436   5.277  0.2278  0.1218 -0.1278
 5666TIP3    H138413   1.107   4.365   5.337  0.8520  1.9530  1.9510
 5666TIP3    H238414   1.168   4.462   5.238  0.3615  1.0068  0.6977
 5667TIP3   OH238415   3.298   3.593  14.690  0.2113 -0.5370 -0.2295
 5667TIP3    H138416   3.325   3.577  14.781  1.6253 -1.2439 -0.7362
 5667TIP3    H238417   3.362   3.544  14.638 -1.4057 -1.2867 -1.5775
 5668TIP3   OH238418   5.795   3.054   1.043 -0.2862 -0.0613  0.1563
 5668TIP3    H138419   5.799   3.063   0.948 -2.2313  1.4507  0.1378
 5668TIP3    H238420   5.884   3.030   1.070  0.7583  1.3488 -1.8491
 5669TIP3   OH238421   6.283   3.944   4.670 -0.1353  0.3384 -0.2705
 5669TIP3    H138422   6.298   3.922   4.578 -0.3569  1.4360 -0.5726
 5669TIP3    H238423   6.208   3.890   4.695 -0.7561  0.8339 -1.0420
 5670TIP3   OH238424   1.411   2.744   1.566  0.3678 -0.3711 -0.3310
 5670TIP3    H138425   1.490   2.703   1.601  1.0654 -0.1568 -1.5801
 5670TIP3    H238426   1.433   2.837   1.558  0.5270 -0.5193 -2.0035
 5671TIP3   OH238427   3.614   5.615   0.261 -0.4575  0.1021  0.0027
 5671TIP3    H138428   3.695   5.649   0.298 -1.1563  1.8400  0.0614
 5671TIP3    H238429   3.567   5.577   0.335  0.6069 -1.6084 -0.1684
 5672TIP3   OH238430   5.209   2.422   1.581  0.6911 -0.1435  0.4069
 5672TIP3    H138431   5.269   2.461   1.645  0.3636  0.7148  0.2069
 5672TIP3    H238432   5.122   2.434   1.619  0.6473 -1.6566  0.8364
 5673TIP3   OH238433   0.277   5.981  10.735  0.4623  0.4265 -0.4670
 5673TIP3    H138434   0.357   5.984  10.787 -0.4876 -0.4982  1.1196
 5673TIP3    H238435   0.265   6.071  10.704  2.4554  0.4444 -1.3519
 5674TIP3   OH238436   2.209   1.234   2.375  0.9494  0.2430  0.3741
 5674TIP3    H138437   2.300   1.206   2.372  1.5474  1.9889  0.9831
 5674TIP3    H238438   2.212   1.321   2.415 -0.9769  0.3866  0.3020
 5675TIP3   OH238439   2.751   4.928   0.654  0.3298  0.4073  0.3784
 5675TIP3    H138440   2.823   4.886   0.607 -0.2550 -0.6507  0.4034
 5675TIP3    H238441   2.686   4.947   0.586  0.0196  0.0327  0.5674
 5676TIP3   OH238442   4.151   3.665   0.781  0.8658  0.5232  0.2109
 5676TIP3    H138443   4.160   3.660   0.876  0.0406  1.4419  0.3464
 5676TIP3    H238444   4.222   3.609   0.748  1.5593  0.6966  1.3416
 5677TIP3   OH238445   0.488   6.713   2.830  0.1217 -0.0925  0.0311
 5677TIP3    H138446   0.514   6.621   2.835 -0.8382 -0.4245 -0.6544
 5677TIP3    H238447   0.434   6.727   2.908 -0.9765 -0.5510 -0.6222
 5678TIP3   OH238448   2.455   5.207   0.689 -0.4262 -0.3219 -0.1706
 5678TIP3    H138449   2.522   5.244   0.748  1.1145 -0.0665 -1.9786
 5678TIP3    H238450   2.455   5.114   0.709 -0.1636 -0.1962  0.4603
 5679TIP3   OH238451   3.685   3.217  16.893 -0.3004 -0.0716 -0.1425
 5679TIP3    H138452   3.744   3.181  16.826  0.1456 -1.3234  0.8722
 5679TIP3    H238453   3.699   3.160  16.969 -1.9285  0.3656  0.5175
 5680TIP3   OH238454   4.496   0.938  15.643 -0.1652 -0.0302  0.4092
 5680TIP3    H138455   4.511   0.860  15.588 -0.4752  0.8839 -1.0309
 5680TIP3    H238456   4.456   0.904  15.723 -1.6988 -1.2329 -0.8027
 5681TIP3   OH238457   4.029   2.955   5.019 -0.0696  0.3726 -0.2988
 5681TIP3    H138458   3.983   2.990   5.095 -0.8132  0.3321 -0.7236
 5681TIP3    H238459   3.963   2.953   4.949  0.2976 -0.6737 -0.6301
 5682TIP3   OH238460   0.094   4.378  12.325 -0.4487 -0.2541 -0.0560
 5682TIP3    H138461   0.063   4.462  12.358  2.7218  0.3282  1.8888
 5682TIP3    H238462   0.161   4.401  12.260 -0.7863 -1.3422 -0.8257
 5683TIP3   OH238463   2.664   5.579  13.777 -0.1518 -0.5275  0.0315
 5683TIP3    H138464   2.615   5.582  13.860  0.7423 -0.2967  0.5701
 5683TIP3    H238465   2.623   5.508  13.728 -0.2591 -1.1348  0.9635
 5684TIP3   OH238466   5.569   6.359   4.508  0.0667 -0.4726  0.0914
 5684TIP3    H138467   5.639   6.297   4.524 -0.7826 -1.1914  1.1681
 5684TIP3    H238468   5.509   6.348   4.582  0.3860  2.3551  0.9031
 5685TIP3   OH238469   6.614   0.936  14.465 -0.1299  0.1550 -0.1516
 5685TIP3    H138470   6.570   0.988  14.398  0.5004  0.7286 -0.1325
 5685TIP3    H238471   6.707   0.952  14.450  0.0537 -0.5465  0.2014
 5686TIP3   OH238472   5.825   3.927   3.627  0.3754  0.0808  0.0949
 5686TIP3    H138473   5.906   3.905   3.672 -0.4039 -0.8598  1.0751
 5686TIP3    H238474   5.853   3.955   3.539  1.6311 -1.8153 -0.1508
 5687TIP3   OH238475   4.960   2.772  16.282  0.3003  0.0538 -0.5758
 5687TIP3    H138476   5.049   2.754  16.250 -0.1533 -0.3986 -1.6221
 5687TIP3    H238477   4.926   2.687  16.308  0.2901  0.2801  0.1960
 5688TIP3   OH238478   4.367   6.512   5.628  0.5798 -0.2332 -0.2639
 5688TIP3    H138479   4.300   6.465   5.578 -0.8462  1.6432 -0.2225
 5688TIP3    H238480   4.436   6.529   5.564 -0.0028 -0.2396 -0.9076
 5689TIP3   OH238481   4.192   6.032  11.359  0.3988  0.3544  0.4831
 5689TIP3    H138482   4.119   5.993  11.407 -0.0014  0.8632  0.2948
 5689TIP3    H238483   4.267   5.977  11.381 -0.5634 -2.0716 -1.6291
 5690TIP3   OH238484   6.344   2.067  15.304 -0.2025  0.4217 -0.5548
 5690TIP3    H138485   6.399   2.080  15.226  0.2576  1.2734 -0.0934
 5690TIP3    H238486   6.393   2.106  15.375 -0.4427 -0.7007  0.2579
 5691TIP3   OH238487   1.662   5.950  12.050  0.1871 -0.4339 -0.1829
 5691TIP3    H138488   1.591   5.886  12.061  0.3202 -0.4872  0.3964
 5691TIP3    H238489   1.655   5.978  11.959 -0.1936 -0.8980 -0.3019
 5692TIP3   OH238490   3.027   5.779   0.347  0.4823 -0.6756  0.5188
 5692TIP3    H138491   2.993   5.820   0.267 -0.6810 -1.7575  0.4264
 5692TIP3    H238492   2.956   5.786   0.410 -0.1027 -3.1548  0.2701
 5693TIP3   OH238493   5.936   0.883   5.778  0.0124 -0.4973 -0.1989
 5693TIP3    H138494   5.968   0.809   5.727  1.6152 -0.5951  0.8623
 5693TIP3    H238495   6.003   0.896   5.845 -2.2028 -0.7258  2.2294
 5694TIP3   OH238496   6.117   1.962  14.593  0.1947 -0.3281 -0.0863
 5694TIP3    H138497   6.178   1.888  14.594  1.4414  0.6354 -1.5157
 5694TIP3    H238498   6.170   2.037  14.618 -0.9573  0.1957  0.8838
 5695TIP3   OH238499   4.275   3.190   4.574 -0.4825 -0.1084 -0.6681
 5695TIP3    H138500   4.242   3.207   4.662  1.6791  3.6271 -0.3808
 5695TIP3    H238501   4.199   3.203   4.517 -1.2242  0.4756  0.4246
 5696TIP3   OH238502   0.187   3.885   4.360 -0.3823  0.4539  1.0749
 5696TIP3    H138503   0.135   3.950   4.408  1.1579  3.2500 -0.7564
 5696TIP3    H238504   0.187   3.916   4.269  1.6642 -1.3175  0.3780
 5697TIP3   OH238505   6.210   2.118  14.333 -0.1562 -0.4349  0.4359
 5697TIP3    H138506   6.162   2.065  14.397 -0.8464 -0.5337 -0.1466
 5697TIP3    H238507   6.301   2.115  14.362 -0.4623 -0.4472  1.4332
 5698TIP3   OH238508   1.175   4.336  11.145 -0.2967  0.0646  1.0928
 5698TIP3    H138509   1.178   4.370  11.055  1.9896 -0.0042  1.0977
 5698TIP3    H238510   1.085   4.304  11.155 -0.2670 -1.1302 -1.6154
 5699TIP3   OH238511   5.436   0.333   1.522 -0.4074  0.0723  0.1427
 5699TIP3    H138512   5.467   0.411   1.476 -0.2174  0.0019  0.1470
 5699TIP3    H238513   5.349   0.316   1.485 -0.0265 -0.3095 -0.6054
 5700TIP3   OH238514   6.412   2.967   0.570 -0.1771  0.4308 -0.4332
 5700TIP3    H138515   6.480   2.918   0.616  0.1213  0.1834 -1.1304
 5700TIP3    H238516   6.380   2.907   0.503 -0.6208  0.7853 -0.5453
 5701TIP3   OH238517   3.119   4.848   4.453 -0.2875 -0.7337  0.0755
 5701TIP3    H138518   3.028   4.829   4.473 -0.0927 -1.6113  0.1465
 5701TIP3    H238519   3.119   4.941   4.429 -0.9441 -0.2883  1.6231
 5702TIP3   OH238520   5.937   0.376   5.637 -0.3780 -0.0071  0.0389
 5702TIP3    H138521   5.972   0.455   5.596 -0.0850  0.4049  1.0409
 5702TIP3    H238522   5.842   0.389   5.637 -0.4373 -0.3485 -1.1416
 5703TIP3   OH238523   5.809   6.684  13.169 -0.0175 -0.6416 -1.0575
 5703TIP3    H138524   5.815   6.707  13.077 -0.2030  2.7940 -0.3493
 5703TIP3    H238525   5.876   6.738  13.211 -0.7126 -1.2599  0.9559
 5704TIP3   OH238526   6.342   3.174   1.822 -0.0348  0.0811  0.1776
 5704TIP3    H138527   6.429   3.206   1.801 -0.0694 -0.3203 -0.6124
 5704TIP3    H238528   6.341   3.168   1.918  0.9557 -0.3189  0.1784
 5705TIP3   OH238529   1.893   1.206  13.704  0.2558  0.4788  0.5034
 5705TIP3    H138530   1.988   1.214  13.718  0.3792 -0.9007  0.6285
 5705TIP3    H238531   1.884   1.126  13.653 -0.7344  1.5584 -1.1014
 5706TIP3   OH238532   4.182   4.868  12.887 -0.2539  0.0326  0.1234
 5706TIP3    H138533   4.189   4.777  12.859 -0.0613  0.0303  0.1812
 5706TIP3    H238534   4.104   4.871  12.942 -0.5554  0.0078 -0.3012
 5707TIP3   OH238535   0.497   0.895  13.840 -0.4777  0.3529  0.7250
 5707TIP3    H138536   0.513   0.807  13.875 -0.4633  0.5208  1.1421
 5707TIP3    H238537   0.583   0.928  13.815 -0.4478  0.3643  0.8438
 5708TIP3   OH238538   2.926   4.846   4.161  0.8404 -0.7799 -0.2054
 5708TIP3    H138539   2.986   4.919   4.147 -0.6830  0.5712  0.0333
 5708TIP3    H238540   2.841   4.887   4.172  0.0441 -2.5593  0.6609
 5709TIP3   OH238541   3.634   0.603  13.125  0.6022 -0.6755  0.6289
 5709TIP3    H138542   3.710   0.579  13.072 -0.6564 -0.2701 -1.4316
 5709TIP3    H238543   3.598   0.519  13.155 -0.0177 -1.0827 -1.1496
 5710TIP3   OH238544   3.061   5.653   1.079 -0.1450  0.3783  0.2945
 5710TIP3    H138545   3.082   5.560   1.077  1.1135  0.6636 -1.7278
 5710TIP3    H238546   3.140   5.695   1.114  0.0849  0.8564 -0.7725
 5711TIP3   OH238547   5.294   6.715  15.913 -0.2013  0.2665 -0.1445
 5711TIP3    H138548   5.285   6.767  15.833  0.1923  0.4002 -0.1029
 5711TIP3    H238549   5.281   6.625  15.883 -0.3090  0.3365 -0.3161
 5712TIP3   OH238550   4.600   3.766  16.494 -0.1532 -0.1144 -0.2680
 5712TIP3    H138551   4.632   3.835  16.436  0.0463  2.1066  2.2553
 5712TIP3    H238552   4.680   3.724  16.528 -0.0797  0.9231  0.9319
 5713TIP3   OH238553   2.401   2.193  16.380 -0.0834  0.6394 -0.3316
 5713TIP3    H138554   2.371   2.282  16.394 -0.4454  0.3159  1.1196
 5713TIP3    H238555   2.496   2.197  16.398 -0.2848  0.5388  0.8726
 5714TIP3   OH238556   2.360   4.951   0.771 -0.2552 -0.2739 -0.5305
 5714TIP3    H138557   2.288   4.923   0.715 -0.9539 -0.0382  0.2460
 5714TIP3    H238558   2.392   4.871   0.811 -2.4068 -0.0485  1.8765
 5715TIP3   OH238559   0.176   6.768  13.071  0.0952 -0.1377 -0.0880
 5715TIP3    H138560   0.164   6.859  13.096  1.6972 -0.3385  1.6748
 5715TIP3    H238561   0.100   6.723  13.107  0.0906  0.2844  0.4428
 5716TIP3   OH238562   5.747   4.065   2.817  0.2789 -0.2663 -0.3128
 5716TIP3    H138563   5.687   3.991   2.808  0.8510 -0.6852 -0.7534
 5716TIP3    H238564   5.810   4.053   2.746 -0.4452  1.4261 -1.2949
 5717TIP3   OH238565   3.477   1.137  13.302  0.3257 -0.8026 -0.4167
 5717TIP3    H138566   3.510   1.074  13.238  2.5194 -0.2307  0.0469
 5717TIP3    H238567   3.556   1.167  13.348 -1.0330 -0.2211  1.6551
 5718TIP3   OH238568   2.716   1.161   4.594 -0.3436 -0.0980  0.0955
 5718TIP3    H138569   2.691   1.117   4.513 -0.5435 -1.0853  0.6766
 5718TIP3    H238570   2.679   1.249   4.586 -2.1306 -0.8202 -0.0010
 5719TIP3   OH238571   6.576   2.435   2.832 -0.2966 -0.1003 -0.2723
 5719TIP3    H138572   6.499   2.454   2.779  1.1317 -1.2600 -2.9492
 5719TIP3    H238573   6.626   2.372   2.781  1.3017 -1.2495  2.4457
 5720TIP3   OH238574   5.834   1.179   1.379 -0.2500 -0.6571  0.5261
 5720TIP3    H138575   5.850   1.271   1.402  0.0020 -0.6305  0.2444
 5720TIP3    H238576   5.816   1.137   1.463  0.0886 -0.4403  0.7126
 5721TIP3   OH238577   4.373   2.750   5.848  0.2539 -0.3015  0.3341
 5721TIP3    H138578   4.339   2.774   5.934  2.1610  0.9966  0.7704
 5721TIP3    H238579   4.468   2.744   5.860  0.4397 -1.6510 -1.3365
 5722TIP3   OH238580   2.547   0.561  15.685 -0.1786  0.3193 -0.0147
 5722TIP3    H138581   2.497   0.635  15.651  0.1707  1.0220  0.9520
 5722TIP3    H238582   2.527   0.560  15.779  1.3616  0.4349  0.3424
 5723TIP3   OH238583   2.409   0.103   3.975 -0.2656 -0.2196 -0.3173
 5723TIP3    H138584   2.437   0.120   4.065 -0.2398 -0.6278 -0.2463
 5723TIP3    H238585   2.316   0.082   3.983 -0.1156 -0.9123 -0.3007
 5724TIP3   OH238586   1.261   4.088  15.336  0.9685  0.5548 -0.9823
 5724TIP3    H138587   1.307   4.032  15.273  0.3265  0.8942 -1.7603
 5724TIP3    H238588   1.171   4.056  15.337  0.8382  0.9172 -0.6606
 5725TIP3   OH238589   2.120   5.651   4.432 -0.1776 -0.0655 -0.1360
 5725TIP3    H138590   2.160   5.687   4.352  0.5212  0.9870  0.6631
 5725TIP3    H238591   2.028   5.639   4.408 -0.4124  2.0536 -0.5585
 5726TIP3   OH238592   1.073   0.497   4.728  0.0761  0.6185 -0.1740
 5726TIP3    H138593   1.071   0.582   4.772 -0.2385  0.1854  0.6734
 5726TIP3    H238594   1.140   0.506   4.660 -0.6396  1.8459 -0.7324
 5727TIP3   OH238595   6.798   4.985   4.409 -0.5174 -0.0509  0.4011
 5727TIP3    H138596   6.847   4.957   4.331  0.5683 -0.0188  1.0584
 5727TIP3    H238597   6.792   5.080   4.401 -1.5568 -0.1521 -0.2872
 5728TIP3   OH238598   2.375   0.374   6.206 -0.2827 -0.3566 -0.1432
 5728TIP3    H138599   2.376   0.302   6.269 -0.6943  0.7766  1.2025
 5728TIP3    H238600   2.463   0.375   6.169  0.3161 -0.3606  1.2337
 5729TIP3   OH238601   3.553   5.448   2.203  0.0685  0.1766 -0.3256
 5729TIP3    H138602   3.470   5.470   2.246  0.2215  0.0547  0.0400
 5729TIP3    H238603   3.619   5.464   2.271  0.3055 -0.1005 -0.4896
 5730TIP3   OH238604   5.992   0.906   0.408 -0.2581 -0.4069  0.1104
 5730TIP3    H138605   5.938   0.846   0.357  0.9312 -0.4605 -1.1405
 5730TIP3    H238606   6.080   0.896   0.372  0.4793  0.1313  1.6847
 5731TIP3   OH238607   1.799   3.958   1.932 -0.1195 -0.5308  0.0175
 5731TIP3    H138608   1.846   3.874   1.929 -0.4666 -0.7106 -0.6474
 5731TIP3    H238609   1.717   3.938   1.976  0.2810 -0.2816  0.9029
 5732TIP3   OH238610   4.671   1.836  16.858  0.2874 -0.1850 -0.9259
 5732TIP3    H138611   4.694   1.823  16.766 -0.0551  0.9682 -1.1963
 5732TIP3    H238612   4.605   1.905  16.856  0.7724  0.3407  0.2317
 5733TIP3   OH238613   6.382   2.437   2.380  0.6953  0.1143 -0.3085
 5733TIP3    H138614   6.334   2.440   2.462  0.0583  0.4813 -0.6839
 5733TIP3    H238615   6.466   2.396   2.402  0.6726  0.5322  0.5887
 5734TIP3   OH238616   6.118   6.233   2.136 -0.2558 -0.1694  0.0613
 5734TIP3    H138617   6.108   6.184   2.055  0.6673 -0.7196  0.2642
 5734TIP3    H238618   6.044   6.204   2.191 -0.6621 -0.0770 -0.4305
 5735TIP3   OH238619   0.354   5.467  14.935  0.4490 -0.2411  0.4448
 5735TIP3    H138620   0.436   5.422  14.912  0.0891 -1.0517  0.7229
 5735TIP3    H238621   0.314   5.412  15.001 -0.2397  0.2561  0.4510
 5736TIP3   OH238622   4.011   1.015  11.911  0.0913 -0.1643 -0.2106
 5736TIP3    H138623   4.009   1.111  11.913 -2.0364 -0.1595 -0.0105
 5736TIP3    H238624   4.062   0.991  11.988  0.1114  0.7902  0.0897
 5737TIP3   OH238625   1.360   2.347  14.966 -0.5996 -0.2203 -0.2399
 5737TIP3    H138626   1.387   2.299  15.044 -0.5148 -0.8622 -0.6591
 5737TIP3    H238627   1.271   2.317  14.949  0.2222 -1.9432 -1.7952
 5738TIP3   OH238628   4.423   6.562   2.792  0.0789  0.6144  0.1019
 5738TIP3    H138629   4.365   6.492   2.762  0.3607  0.3821  0.0989
 5738TIP3    H238630   4.363   6.631   2.821 -0.1962  0.6916 -0.6387
 5739TIP3   OH238631   1.992   0.151  14.254 -0.1984 -0.1682  0.1511
 5739TIP3    H138632   2.006   0.076  14.196  1.1876  0.0977  0.0908
 5739TIP3    H238633   1.926   0.204  14.210  0.7612 -0.0152 -1.1672
 5740TIP3   OH238634   2.830   3.947   4.197 -0.5950 -0.2676  0.0616
 5740TIP3    H138635   2.840   4.019   4.135  1.3762 -0.6688 -0.1440
 5740TIP3    H238636   2.880   3.875   4.159 -0.9189 -1.1243  1.2021
 5741TIP3   OH238637   5.783   4.102   1.377 -0.6936 -0.0270 -0.9384
 5741TIP3    H138638   5.797   4.154   1.298  0.2687  1.2008 -0.0064
 5741TIP3    H238639   5.838   4.144   1.443 -0.4481 -1.8237  0.0524
 5742TIP3   OH238640   1.447   4.721   4.205  0.7603 -0.2788 -0.2415
 5742TIP3    H138641   1.498   4.661   4.149 -1.2077 -3.9316  1.4961
 5742TIP3    H238642   1.364   4.732   4.158 -0.1840 -1.8316  0.9805
 5743TIP3   OH238643   4.351   2.083  13.882 -0.0320  0.0652  0.6296
 5743TIP3    H138644   4.440   2.112  13.901  0.8815 -1.2896 -1.2478
 5743TIP3    H238645   4.323   2.137  13.809 -0.3725 -0.1912  0.5709
 5744TIP3   OH238646   3.625   3.287   1.343  0.0832  0.5708  0.1466
 5744TIP3    H138647   3.687   3.235   1.394  0.1647 -0.2586 -0.7666
 5744TIP3    H238648   3.613   3.237   1.261 -1.1830  1.1067 -0.0229
 5745TIP3   OH238649   3.655   5.666  13.660  0.3739  0.5840 -0.1743
 5745TIP3    H138650   3.743   5.642  13.630  0.8860 -1.2199  2.3940
 5745TIP3    H238651   3.657   5.648  13.754 -2.9304  0.0247 -0.1184
 5746TIP3   OH238652   6.613   3.462  13.516  0.2805 -0.3763  0.5322
 5746TIP3    H138653   6.622   3.554  13.541  0.8406 -0.3201  0.1529
 5746TIP3    H238654   6.617   3.462  13.420 -0.1717 -0.7543  0.5060
 5747TIP3   OH238655   2.006   1.312  12.936  0.5727  0.4256 -0.5040
 5747TIP3    H138656   1.962   1.395  12.957 -0.5045 -0.2259 -0.1180
 5747TIP3    H238657   2.080   1.338  12.881 -0.1887  1.5721 -1.0256
 5748TIP3   OH238658   5.299   0.015  12.351 -0.6541 -0.2681  0.3702
 5748TIP3    H138659   5.288  -0.035  12.270 -0.6597  0.9039 -0.3743
 5748TIP3    H238660   5.379  -0.020  12.390 -1.1186 -1.4418  0.3129
 5749TIP3   OH238661   6.021   4.391   4.933 -0.2455 -0.4091  0.8472
 5749TIP3    H138662   5.969   4.311   4.937  1.9036 -1.9117  0.4745
 5749TIP3    H238663   6.000   4.430   4.848 -0.4320 -1.2302  0.5106
 5750TIP3   OH238664   5.697   1.991   3.636  0.0146 -0.0401  0.4183
 5750TIP3    H138665   5.644   2.006   3.714 -1.4846  0.3194 -0.6421
 5750TIP3    H238666   5.665   1.909   3.600  0.2642  0.1172 -0.1804
 5751TIP3   OH238667   2.909   2.501   5.756 -0.4553 -0.5554  0.2026
 5751TIP3    H138668   2.906   2.483   5.850 -0.5372  0.4541  0.4022
 5751TIP3    H238669   2.941   2.591   5.749 -2.1660  0.0351 -0.6450
 5752TIP3   OH238670   4.515   4.085  12.570  0.0055  1.1015 -0.2664
 5752TIP3    H138671   4.493   4.054  12.658  1.1409  2.0535  0.3737
 5752TIP3    H238672   4.471   4.169  12.562  0.8650  1.5737 -0.1436
 5753TIP3   OH238673   4.045   5.319   6.373  0.0218 -0.5717 -0.0833
 5753TIP3    H138674   3.966   5.343   6.325  0.6139  0.0626 -0.7807
 5753TIP3    H238675   4.117   5.343   6.314  0.8121  0.8124  1.3735
 5754TIP3   OH238676   0.111   5.843  15.990 -0.2358 -0.0996  0.9293
 5754TIP3    H138677   0.145   5.896  15.918 -0.1192 -0.9784  0.3387
 5754TIP3    H238678   0.132   5.895  16.068 -0.8128  1.0987  0.3223
 5755TIP3   OH238679   0.865   1.568  12.362  0.2925  0.3496 -0.2940
 5755TIP3    H138680   0.944   1.514  12.368  0.0163  0.0329  0.5566
 5755TIP3    H238681   0.807   1.535  12.431 -0.0668  1.4309 -0.0556
 5756TIP3   OH238682   4.719   4.151  14.576  0.4154 -0.3662 -0.6021
 5756TIP3    H138683   4.782   4.220  14.555  0.3836  0.0151  0.4987
 5756TIP3    H238684   4.675   4.132  14.493  0.3234  1.0426 -0.8983
 5757TIP3   OH238685   4.487   0.594   2.882 -0.8663 -0.0724  0.3411
 5757TIP3    H138686   4.402   0.613   2.842 -2.0389  0.9896  3.0952
 5757TIP3    H238687   4.474   0.510   2.926 -0.8417  0.5480  1.5782
 5758TIP3   OH238688   5.464   2.406  10.602  1.2826  0.5104 -0.1517
 5758TIP3    H138689   5.449   2.414  10.507 -1.5203  0.5313  0.2107
 5758TIP3    H238690   5.488   2.495  10.629  0.3473  0.9137 -0.6005
 5759TIP3   OH238691   5.355   1.532  12.378  0.3603  0.1696  0.2705
 5759TIP3    H138692   5.318   1.472  12.441  0.3071 -0.4888 -0.3761
 5759TIP3    H238693   5.411   1.590  12.430  0.0921 -0.1723  0.9503
 5760TIP3   OH238694   4.738   6.231  13.250  0.1191 -0.0104 -0.1970
 5760TIP3    H138695   4.815   6.252  13.196  0.8315 -0.8226  0.4764
 5760TIP3    H238696   4.771   6.231  13.340 -0.8770  0.5082  0.1820
 5761TIP3   OH238697   0.775   5.201  13.813  0.3434 -0.0140 -0.1942
 5761TIP3    H138698   0.711   5.260  13.854  0.4145 -0.0589 -0.0164
 5761TIP3    H238699   0.773   5.224  13.720  0.0001 -0.0810 -0.2041
 5762TIP3   OH238700   6.622   4.049  11.628 -0.6195  0.0511  0.3322
 5762TIP3    H138701   6.670   4.131  11.640  1.8374 -1.5965  3.5624
 5762TIP3    H238702   6.581   4.033  11.713 -0.0150 -2.5956  0.2211
 5763TIP3   OH238703   4.828   6.326   1.478  0.3800  0.0327 -0.0457
 5763TIP3    H138704   4.911   6.310   1.523  1.2132  2.5104 -0.5322
 5763TIP3    H238705   4.850   6.389   1.410 -2.0602  1.5154  0.4129
 5764TIP3   OH238706   4.355   5.501  11.143  0.0257  0.2758 -0.0598
 5764TIP3    H138707   4.419   5.540  11.083 -1.3836  0.6244 -1.3828
 5764TIP3    H238708   4.409   5.465  11.214  1.6753  0.7017 -1.0266
 5765TIP3   OH238709   4.496   3.120  15.737  0.1902  0.1524  0.2042
 5765TIP3    H138710   4.561   3.076  15.681  0.5282  1.2180 -0.2549
 5765TIP3    H238711   4.426   3.146  15.676  0.8269  1.8346  0.1494
 5766TIP3   OH238712   6.743   6.598   6.115 -0.7622 -0.4779 -0.0146
 5766TIP3    H138713   6.748   6.577   6.208 -1.0423 -0.6092 -0.0267
 5766TIP3    H238714   6.650   6.615   6.100 -0.5375  0.8799  0.0157
 5767TIP3   OH238715   1.001   0.762  16.348 -0.2867 -0.0917  0.3302
 5767TIP3    H138716   1.023   0.683  16.397 -1.2834 -0.6711 -0.1332
 5767TIP3    H238717   0.909   0.752  16.326 -0.2201  0.8248 -0.4218
 5768TIP3   OH238718   0.353   1.801  17.180  0.1784  0.2338  0.2322
 5768TIP3    H138719   0.325   1.729  17.237  1.4240 -0.1132  0.4401
 5768TIP3    H238720   0.351   1.765  17.092  0.3493  0.0772  0.2914
 5769TIP3   OH238721   3.408   5.538   1.625  0.8318  0.1572  0.0097
 5769TIP3    H138722   3.337   5.473   1.627  0.8351  0.1256 -0.6369
 5769TIP3    H238723   3.433   5.549   1.717 -0.3158  0.4972  0.3109
 5770TIP3   OH238724   4.163   2.945  14.363 -0.2395  0.3220  0.0768
 5770TIP3    H138725   4.156   2.881  14.434  1.4161 -0.0735 -0.0863
 5770TIP3    H238726   4.181   3.028  14.407  1.1903  0.0061  0.1319
 5771TIP3   OH238727   0.121   2.996   5.739 -0.9723  0.2774  0.2775
 5771TIP3    H138728   0.215   2.989   5.756 -1.3278 -1.3474  1.9857
 5771TIP3    H238729   0.083   3.016   5.825 -2.2195  0.6473 -0.3352
 5772TIP3   OH238730   3.633   5.340   1.493 -0.0291  0.0163 -1.0768
 5772TIP3    H138731   3.550   5.316   1.533  0.5508  0.9362  0.8148
 5772TIP3    H238732   3.647   5.431   1.521  0.9319  0.3575 -2.5582
 5773TIP3   OH238733   4.405   3.320  13.970 -0.3458  0.0813  0.3515
 5773TIP3    H138734   4.369   3.405  13.945 -0.4956  0.3602  1.4586
 5773TIP3    H238735   4.479   3.307  13.911 -0.5816  0.7771 -0.1131
 5774TIP3   OH238736   3.787   3.234  14.716  0.2232  0.2134 -0.2738
 5774TIP3    H138737   3.756   3.155  14.671  0.7383 -0.6025  0.7650
 5774TIP3    H238738   3.722   3.249  14.785  2.1111 -1.6207  2.0447
 5775TIP3   OH238739   3.551   2.191  14.000 -0.0898  0.2682  0.0581
 5775TIP3    H138740   3.516   2.104  13.981  0.5414  0.2260 -0.9668
 5775TIP3    H238741   3.545   2.199  14.096  1.0456 -1.4139  0.2967
 5776TIP3   OH238742   4.156   2.811  12.718 -0.3950 -0.2784 -0.2181
 5776TIP3    H138743   4.067   2.836  12.743 -0.1933  0.7521 -0.4836
 5776TIP3    H238744   4.168   2.724  12.756 -1.0089  0.1677  1.0292
 5777TIP3   OH238745   6.361   5.752  12.288  0.0065  0.6409 -0.0754
 5777TIP3    H138746   6.331   5.661  12.286 -0.3570  0.7583 -0.1373
 5777TIP3    H238747   6.352   5.778  12.380  0.4431  0.5084  0.0069
 5778TIP3   OH238748   2.016   4.715  12.225 -0.2908  0.2837  0.3287
 5778TIP3    H138749   1.932   4.674  12.201 -0.4341  0.2264  0.9066
 5778TIP3    H238750   2.060   4.650  12.280  0.8349 -0.3252 -1.2286
 5779TIP3   OH238751   5.636   6.236   2.601  0.3931  0.0489  0.4100
 5779TIP3    H138752   5.643   6.273   2.689  3.4563  1.4146 -0.2790
 5779TIP3    H238753   5.549   6.262   2.571  0.3038  1.8815  2.0546
 5780TIP3   OH238754   3.275   3.864   3.548 -0.4346  0.0366 -0.4140
 5780TIP3    H138755   3.203   3.904   3.597  0.3158  2.2232 -0.9723
 5780TIP3    H238756   3.330   3.938   3.521  0.8004 -1.3576 -1.9666
 5781TIP3   OH238757   2.956   2.381  14.763  0.0609  0.4874 -0.1965
 5781TIP3    H138758   2.901   2.457  14.742  1.2473  1.3019 -0.4053
 5781TIP3    H238759   3.041   2.418  14.785  0.1761 -0.6566  1.5124
 5782TIP3   OH238760   2.166   4.118  12.655 -0.1995  0.2644 -0.3229
 5782TIP3    H138761   2.101   4.105  12.725 -0.6616  0.7574 -0.6587
 5782TIP3    H238762   2.248   4.087  12.694 -0.4879  0.3422  0.3738
 5783TIP3   OH238763   6.122   4.751   0.235 -0.2509 -0.0682  0.6309
 5783TIP3    H138764   6.070   4.672   0.217  0.9053 -0.7365  0.1568
 5783TIP3    H238765   6.057   4.816   0.262 -1.4205 -0.6998 -0.5232
 5784TIP3   OH238766   0.374   4.648  11.777  0.1267 -0.3408 -0.2087
 5784TIP3    H138767   0.279   4.648  11.766 -0.2163  1.4068  1.9900
 5784TIP3    H238768   0.407   4.700  11.703 -0.9318  1.2909  0.3946
 5785TIP3   OH238769   1.662   0.715   6.415  0.1431 -0.5497 -0.3999
 5785TIP3    H138770   1.648   0.798   6.460 -2.4720 -0.5559 -1.0332
 5785TIP3    H238771   1.626   0.650   6.476  1.5456 -1.1876 -0.2073
 5786TIP3   OH238772   3.071   1.131  12.978  0.3114  0.6017 -0.4939
 5786TIP3    H138773   3.028   1.133  13.063  2.8902  0.6929  0.9138
 5786TIP3    H238774   3.003   1.156  12.915 -1.7271  0.3025  1.4866
 5787TIP3   OH238775   4.200   3.543  10.931  1.3461 -0.5310 -0.1149
 5787TIP3    H138776   4.272   3.512  10.876 -0.0081 -2.0457 -1.1416
 5787TIP3    H238777   4.121   3.519  10.882  0.1088 -0.5124  1.7836
 5788TIP3   OH238778   5.227   5.730  16.214  0.0717  0.6275 -0.1402
 5788TIP3    H138779   5.309   5.749  16.258  1.1461  1.4474 -2.3355
 5788TIP3    H238780   5.188   5.816  16.197  0.2999  0.4309 -1.8004
 5789TIP3   OH238781   3.291   0.088   0.723  0.1960  0.0856  0.3067
 5789TIP3    H138782   3.339   0.113   0.802  2.1511 -1.1790 -0.3927
 5789TIP3    H238783   3.349   0.112   0.651 -0.9549 -0.0221 -0.6976
 5790TIP3   OH238784   3.997   5.336  16.379 -0.3068  0.4140  0.1812
 5790TIP3    H138785   3.992   5.420  16.333  0.1633 -0.1032 -0.8356
 5790TIP3    H238786   3.909   5.298  16.369 -0.5046  0.7531  0.5982
 5791TIP3   OH238787   6.093   1.977  16.070 -0.2656 -1.2461 -0.1757
 5791TIP3    H138788   6.189   1.982  16.067 -0.2661  1.1348  1.1124
 5791TIP3    H238789   6.075   1.903  16.128  0.6985 -3.1335 -2.1910
 5792TIP3   OH238790   0.779   0.372  14.043 -0.4727  0.0007 -0.5789
 5792TIP3    H138791   0.708   0.427  14.010 -1.2278 -0.7277 -0.1925
 5792TIP3    H238792   0.858   0.424  14.029 -1.1221  0.9892 -0.6457
 5793TIP3   OH238793   6.101   4.082   2.231 -0.0836  0.4567 -0.0930
 5793TIP3    H138794   6.017   4.062   2.273  1.1437 -0.4559  2.0943
 5793TIP3    H238795   6.122   4.002   2.182 -1.1041  1.2046 -1.8380
 5794TIP3   OH238796   4.898   5.483   2.771 -0.4668  0.2706  0.0987
 5794TIP3    H138797   4.804   5.465   2.761  0.2237 -2.4994 -3.0984
 5794TIP3    H238798   4.918   5.546   2.702  0.3820 -0.9397 -0.7888
 5795TIP3   OH238799   0.356   2.838   4.579 -1.0184 -0.1047 -0.5191
 5795TIP3    H138800   0.286   2.879   4.529 -0.4720  0.9475 -0.4373
 5795TIP3    H238801   0.414   2.799   4.514 -0.6391  0.7284 -0.6894
 5796TIP3   OH238802   5.547   3.994  12.736 -0.2730  0.5403  0.1482
 5796TIP3    H138803   5.490   3.929  12.777  0.0792  1.6740  2.6321
 5796TIP3    H238804   5.500   4.021  12.657 -0.6279 -2.3438 -0.7529
 5797TIP3   OH238805   0.621   6.515  12.551 -0.8304 -0.0498 -0.0627
 5797TIP3    H138806   0.549   6.480  12.603 -1.5664  1.0529 -0.3104
 5797TIP3    H238807   0.692   6.529  12.614 -0.9020 -0.9339  0.2215
 5798TIP3   OH238808   6.636   6.200  12.658  0.2486 -0.4503  0.2747
 5798TIP3    H138809   6.694   6.244  12.597  0.6732 -0.3542  0.7394
 5798TIP3    H238810   6.692   6.137  12.704  0.2942  0.4927  1.5948
 5799TIP3   OH238811   1.885   3.700   0.992 -0.4098  0.0085  0.0409
 5799TIP3    H138812   1.804   3.682   1.040 -0.3423 -1.8179 -0.4671
 5799TIP3    H238813   1.887   3.635   0.922  2.7100 -1.7458  1.5300
 5800TIP3   OH238814   5.486   3.637  16.279  0.1477 -0.2072 -0.1459
 5800TIP3    H138815   5.459   3.558  16.326  0.0031 -0.4899 -0.6900
 5800TIP3    H238816   5.555   3.608  16.220  1.5814  0.4926  1.1410
 5801TIP3   OH238817   3.487   6.543  14.931  0.1588 -0.3843  0.1627
 5801TIP3    H138818   3.471   6.497  14.849  0.4727  1.6880 -1.1491
 5801TIP3    H238819   3.445   6.629  14.919 -4.0850 -1.5031  4.0230
 5802TIP3   OH238820   1.812   0.094  15.054  0.1986 -0.5376 -0.3109
 5802TIP3    H138821   1.799   0.127  14.965  1.2094  4.0932  1.0001
 5802TIP3    H238822   1.726   0.103  15.095  0.7720  2.6842  0.5041
 5803TIP3   OH238823   5.389   0.959  13.819 -0.7537  0.1035  0.6806
 5803TIP3    H138824   5.332   0.957  13.742 -0.5001  1.3795  0.4336
 5803TIP3    H238825   5.443   0.881  13.811 -1.3343 -0.2421  0.0398
 5804TIP3   OH238826   1.763   3.064  10.994  0.1314 -0.3066 -0.0664
 5804TIP3    H138827   1.844   3.084  10.946  0.2933 -0.2128  0.2391
 5804TIP3    H238828   1.703   3.030  10.928  0.1686  0.3278 -0.4382
 5805TIP3   OH238829   4.312   4.411   5.951 -0.6077  0.1215 -0.5334
 5805TIP3    H138830   4.311   4.474   6.023  0.0574  0.4641 -0.8167
 5805TIP3    H238831   4.403   4.409   5.922 -0.6855 -0.7200 -0.7517
 5806TIP3   OH238832   2.576   0.873   3.385  0.0547  0.0871  0.5437
 5806TIP3    H138833   2.574   0.792   3.333  0.5854  0.6230 -0.3419
 5806TIP3    H238834   2.655   0.865   3.438  2.3661  1.6761 -2.3837
 5807TIP3   OH238835   0.598   5.221   4.396  0.0459  0.0541 -0.5480
 5807TIP3    H138836   0.525   5.183   4.444 -0.5660 -0.3640 -1.7930
 5807TIP3    H238837   0.672   5.216   4.457 -0.2114 -2.3331 -0.3489
 5808TIP3   OH238838   2.838   4.458   5.911  0.3807  0.3910 -0.0317
 5808TIP3    H138839   2.803   4.409   5.986 -0.9389  2.2474  0.6585
 5808TIP3    H238840   2.896   4.523   5.951  1.2911  0.0829 -0.8283
 5809TIP3   OH238841   0.244   0.162   4.892 -0.2515  0.5177 -1.3005
 5809TIP3    H138842   0.208   0.250   4.880 -0.1628  0.6600 -0.5554
 5809TIP3    H238843   0.225   0.140   4.983  0.6489  0.1869 -1.1775
 5810TIP3   OH238844   6.153   0.240  15.067  0.3081  0.5523 -0.4998
 5810TIP3    H138845   6.212   0.274  15.001  1.0822  1.0926  0.4501
 5810TIP3    H238846   6.209   0.218  15.142 -0.4740 -0.5252 -0.1921
 5811TIP3   OH238847   2.718   5.692  14.980 -0.3762  0.4373  0.3150
 5811TIP3    H138848   2.625   5.667  14.977 -0.0940 -0.5932 -1.7807
 5811TIP3    H238849   2.762   5.615  15.017 -0.3839  1.1930  1.9897
 5812TIP3   OH238850   0.678   2.864  16.157 -0.5079 -0.8043 -0.5430
 5812TIP3    H138851   0.720   2.799  16.214  0.6196  0.6996  0.3921
 5812TIP3    H238852   0.590   2.873  16.193 -0.5531 -1.5269 -0.4459
 5813TIP3   OH238853   4.178   5.530   2.315 -0.1184  0.2374 -0.4887
 5813TIP3    H138854   4.255   5.477   2.335 -1.2154 -0.9051  0.9600
 5813TIP3    H238855   4.206   5.587   2.244  2.5587  0.9715  0.9954
 5814TIP3   OH238856   6.202   2.928  11.222 -0.4047 -0.0340  1.1158
 5814TIP3    H138857   6.277   2.988  11.220 -0.5447  0.1234 -0.1479
 5814TIP3    H238858   6.126   2.986  11.232 -0.7022  0.2225 -1.9519
 5815TIP3   OH238859   2.243   4.506  15.650  0.1458 -0.8825 -0.3046
 5815TIP3    H138860   2.279   4.574  15.707  1.4596 -1.2395 -0.6739
 5815TIP3    H238861   2.314   4.442  15.640 -0.6223 -1.6651 -0.9996
 5816TIP3   OH238862   0.617   1.477   5.098  0.3505  0.1916 -0.0783
 5816TIP3    H138863   0.663   1.547   5.146 -3.4559  2.9737 -0.0017
 5816TIP3    H238864   0.535   1.466   5.145  0.2905 -3.6719 -0.8186
 5817TIP3   OH238865   6.264   5.137   1.201 -0.3035  0.2895  0.3962
 5817TIP3    H138866   6.327   5.081   1.248 -0.1094 -0.2743 -0.5037
 5817TIP3    H238867   6.316   5.212   1.172 -0.3406  0.4562  0.7529
 5818TIP3   OH238868   1.218   2.669   3.256  0.1583 -0.4693  0.0532
 5818TIP3    H138869   1.188   2.587   3.296  0.6735 -0.3298  0.7248
 5818TIP3    H238870   1.273   2.710   3.322 -0.1859  0.4847 -0.2327
 5819TIP3   OH238871   4.408   2.292  15.376 -0.0879 -0.1546 -0.5241
 5819TIP3    H138872   4.371   2.218  15.328  1.0192 -0.0970 -1.5106
 5819TIP3    H238873   4.417   2.361  15.310 -1.2795  0.9581  0.4153
 5820TIP3   OH238874   5.006   3.623   5.027 -0.1412 -0.1808 -0.0592
 5820TIP3    H138875   4.926   3.666   5.057 -0.1030  1.8522 -2.4911
 5820TIP3    H238876   4.976   3.567   4.955  0.2564 -1.9588  1.0969
 5821TIP3   OH238877   3.949   2.004  13.207  0.3503 -0.4704 -0.4633
 5821TIP3    H138878   3.874   1.992  13.265  0.4209  2.2359  0.3408
 5821TIP3    H238879   3.912   2.014  13.120 -0.3794  1.6225  0.0305
 5822TIP3   OH238880   6.222   5.807  11.805  0.5644  0.2929 -0.5382
 5822TIP3    H138881   6.292   5.800  11.869  0.5105 -0.8160 -0.5711
 5822TIP3    H238882   6.150   5.850  11.851  0.8680  0.3965 -0.1609
 5823TIP3   OH238883   5.442   2.141  12.098 -0.1643 -0.1187  0.4380
 5823TIP3    H138884   5.441   2.057  12.053 -0.8234 -0.0772  0.3554
 5823TIP3    H238885   5.349   2.161  12.112 -0.0002  0.4084  0.7998
 5824TIP3   OH238886   0.697   0.028   4.935  0.4891 -0.3465 -0.0548
 5824TIP3    H138887   0.643   0.090   4.886  1.2064 -1.1861 -2.0313
 5824TIP3    H238888   0.706   0.067   5.022 -0.7257  1.3070 -0.6160
 5825TIP3   OH238889   5.453   2.991   3.748 -0.0638 -0.1804  0.2674
 5825TIP3    H138890   5.465   3.059   3.681  1.1202 -0.1106  0.5363
 5825TIP3    H238891   5.490   3.029   3.827  2.3177 -1.7886  0.0175
 5826TIP3   OH238892   4.734   4.020  16.786  0.3090 -0.1291 -0.1599
 5826TIP3    H138893   4.804   4.074  16.749  0.2733  0.7694  1.0176
 5826TIP3    H238894   4.766   3.930  16.779  0.6128  0.0627 -1.6415
 5827TIP3   OH238895   5.671   4.529   1.229  0.1251  0.0136 -0.1988
 5827TIP3    H138896   5.753   4.480   1.224  0.9960  1.3790  0.2827
 5827TIP3    H238897   5.672   4.570   1.315 -1.0414  0.1187 -0.2128
 5828TIP3   OH238898   0.692   6.619  13.447  0.3687  0.4540  0.1609
 5828TIP3    H138899   0.686   6.714  13.452 -1.9030  0.4088 -0.6031
 5828TIP3    H238900   0.617   6.587  13.496 -0.1968 -0.8604 -1.4624
 5829TIP3   OH238901   1.926   3.426   2.198 -0.0283  0.2652 -0.2439
 5829TIP3    H138902   1.837   3.452   2.173 -0.5766 -0.2920  1.0114
 5829TIP3    H238903   1.968   3.508   2.225 -1.0849  0.2098  1.7552
 5830TIP3   OH238904   6.320   0.596   4.848 -0.0457  0.2827  0.2149
 5830TIP3    H138905   6.235   0.639   4.860 -0.6304 -0.4274 -1.1172
 5830TIP3    H238906   6.315   0.559   4.759  0.6536 -1.9578  1.0501
 5831TIP3   OH238907   1.755   4.251  12.982 -0.0787  0.0646 -0.1633
 5831TIP3    H138908   1.742   4.343  12.956 -1.6417 -0.0984 -0.0412
 5831TIP3    H238909   1.693   4.202  12.929  0.7718 -0.9582 -0.2595
 5832TIP3   OH238910   0.514   5.131  16.166 -0.2880  0.1440  0.0034
 5832TIP3    H138911   0.519   5.158  16.257  2.2822  0.8135 -0.2765
 5832TIP3    H238912   0.464   5.200  16.123  3.2444  2.9270 -0.0577
 5833TIP3   OH238913   2.945   3.820  14.141  0.0297  0.3098  0.3062
 5833TIP3    H138914   3.028   3.814  14.188  0.6735  0.5726 -0.7531
 5833TIP3    H238915   2.881   3.781  14.200  0.7601  0.8188  1.4761
 5834TIP3   OH238916   6.672   3.252   5.268 -0.1879  0.5641 -0.4140
 5834TIP3    H138917   6.592   3.268   5.318 -1.3070  1.2619 -2.3295
 5834TIP3    H238918   6.741   3.296   5.319 -1.4782  2.2886 -0.0544
 5835TIP3   OH238919   2.732   6.415   1.645 -0.0361  0.6167 -0.4811
 5835TIP3    H138920   2.802   6.355   1.620 -0.5465  0.0860 -0.6533
 5835TIP3    H238921   2.773   6.502   1.640  0.3061  0.4092 -1.7132
 5836TIP3   OH238922   0.477   2.074  12.144 -0.1819 -0.2292  0.1217
 5836TIP3    H138923   0.520   2.001  12.188  0.4609 -0.5851 -1.0686
 5836TIP3    H238924   0.494   2.150  12.200  1.4046 -0.4969  0.0310
 5837TIP3   OH238925   1.113   6.082   4.987  0.3390 -0.2043  0.0157
 5837TIP3    H138926   1.069   6.108   5.068 -0.3285  0.7060 -0.6191
 5837TIP3    H238927   1.180   6.018   5.015 -2.0651 -2.5077  0.8956
 5838TIP3   OH238928   5.034   1.596  13.866 -0.3571 -0.2246 -0.2784
 5838TIP3    H138929   5.038   1.657  13.792  0.9320 -1.0139 -0.8900
 5838TIP3    H238930   5.049   1.651  13.943 -0.3587  0.3972 -0.7101
 5839TIP3   OH238931   3.230   6.221   1.699 -0.3079  0.1252 -0.1979
 5839TIP3    H138932   3.314   6.250   1.664  0.8039 -2.7481 -0.2210
 5839TIP3    H238933   3.254   6.156   1.765 -2.5186  0.1934  0.7337
 5840TIP3   OH238934   5.760   0.634  11.324  0.4964 -0.3751  0.1218
 5840TIP3    H138935   5.752   0.609  11.416  0.6798  0.7515  0.4503
 5840TIP3    H238936   5.670   0.642  11.293  0.3821  1.1027  0.7372
 5841TIP3   OH238937   5.325   2.587   0.304 -0.4382 -0.0045 -0.4786
 5841TIP3    H138938   5.416   2.615   0.315  0.1754 -2.3468  1.0614
 5841TIP3    H238939   5.287   2.591   0.392 -2.2753  2.0681 -1.2519
 5842TIP3   OH238940   3.575   1.288  13.004  0.3151  0.6745 -0.0006
 5842TIP3    H138941   3.649   1.244  13.047 -1.2564  0.2230  2.3938
 5842TIP3    H238942   3.614   1.363  12.960  2.0579  1.2185  2.3035
 5843TIP3   OH238943   0.894   0.664  16.874  0.0259  0.1843  0.6896
 5843TIP3    H138944   0.840   0.698  16.944 -2.3764 -1.2534 -0.3327
 5843TIP3    H238945   0.971   0.628  16.918 -0.7734  0.5205  2.4415
 5844TIP3   OH238946   6.060   5.381  11.637  0.6783  0.2219 -0.2237
 5844TIP3    H138947   5.970   5.376  11.670  0.4085 -1.0316 -1.0807
 5844TIP3    H238948   6.113   5.345  11.708  0.5465  1.1308  0.3566
 5845TIP3   OH238949   4.926   4.313  13.813  0.0333 -0.1341  0.7716
 5845TIP3    H138950   4.881   4.396  13.829  0.6682  0.2081  0.8199
 5845TIP3    H238951   4.865   4.262  13.759  0.5769  1.2558 -1.2414
 5846TIP3   OH238952   5.766   0.304  13.948  0.4447 -0.7510 -0.0962
 5846TIP3    H138953   5.757   0.312  14.043 -3.4454 -1.1592 -0.2671
 5846TIP3    H238954   5.722   0.381  13.913 -2.1768 -2.7242 -1.4871
 5847TIP3   OH238955   3.900   4.827  14.555 -0.4702 -0.4292 -0.3045
 5847TIP3    H138956   3.962   4.861  14.490 -0.6527  0.3351 -0.0784
 5847TIP3    H238957   3.882   4.901  14.613  1.0888 -1.5405  1.7513
 5848TIP3   OH238958   6.073   5.381   2.350 -0.1324 -0.1017  0.3535
 5848TIP3    H138959   6.092   5.457   2.295  0.0192 -0.7359 -0.4909
 5848TIP3    H238960   5.987   5.352   2.322 -0.4859  0.1545  1.1469
 5849TIP3   OH238961   5.087   1.186   3.644 -0.6270 -0.2863 -0.6946
 5849TIP3    H138962   5.042   1.233   3.573  0.1401  0.6708 -0.5579
 5849TIP3    H238963   5.030   1.198   3.720  0.5909  2.4028 -0.0754
 5850TIP3   OH238964   0.220   0.626   5.420 -0.6836  0.3909 -0.3100
 5850TIP3    H138965   0.238   0.555   5.359  0.0520  0.1157  0.2144
 5850TIP3    H238966   0.164   0.587   5.487  0.3726  0.0701  0.4123
 5851TIP3   OH238967   0.366   1.827  10.891 -0.1676 -0.2736  0.2573
 5851TIP3    H138968   0.413   1.763  10.838  0.1032 -0.4940  0.7488
 5851TIP3    H238969   0.281   1.836  10.849 -0.2941 -1.1253  0.3006
 5852TIP3   OH238970   1.677   1.959  16.878  0.1575 -0.1584 -0.2558
 5852TIP3    H138971   1.680   1.864  16.866  1.3550 -0.0500 -0.9601
 5852TIP3    H238972   1.702   1.995  16.793 -1.0896  0.8214 -0.2369
 5853TIP3   OH238973   5.138   4.015   6.634  0.6786  0.1802  0.1759
 5853TIP3    H138974   5.155   4.106   6.657  0.5504 -0.0283  1.1544
 5853TIP3    H238975   5.087   3.981   6.707  0.4666 -0.5970 -0.3209
 5854TIP3   OH238976   1.150   0.528  15.230  0.4649  0.4029  0.3354
 5854TIP3    H138977   1.059   0.511  15.207  0.4947  2.4978 -1.7500
 5854TIP3    H238978   1.163   0.484  15.314 -2.6956  0.7658  1.1122
 5855TIP3   OH238979   1.330   5.760  14.361  0.7575  0.2060 -0.2199
 5855TIP3    H138980   1.388   5.740  14.288  0.3194  1.6410 -0.9874
 5855TIP3    H238981   1.350   5.850  14.385 -0.5855  0.4738  0.0019
 5856TIP3   OH238982   2.232   2.029   2.073  0.3787  0.5074  0.3965
 5856TIP3    H138983   2.274   2.091   2.012 -1.4772  1.4383 -0.0047
 5856TIP3    H238984   2.205   1.956   2.017  2.2109 -0.5485  0.8073
 5857TIP3   OH238985   6.019   4.459  15.147 -0.1906  0.4630  0.0322
 5857TIP3    H138986   6.078   4.416  15.086  0.2499  1.4116 -0.2284
 5857TIP3    H238987   6.017   4.551  15.119 -0.0717  0.9044  1.3604
 5858TIP3   OH238988   5.082   0.120   5.151  1.1471  0.0260  0.2926
 5858TIP3    H138989   5.077   0.177   5.228 -0.8713  0.2055  0.0746
 5858TIP3    H238990   5.019   0.050   5.168  1.5979 -0.6302 -0.6548
 5859TIP3   OH238991   5.188   5.889   5.792 -0.3262 -0.3393  0.6874
 5859TIP3    H138992   5.193   5.817   5.854  2.0774 -1.3672 -0.5651
 5859TIP3    H238993   5.130   5.857   5.723 -1.5688  0.1093  1.4913
 5860TIP3   OH238994   0.117   1.939   2.744  0.3156 -0.5239 -0.2344
 5860TIP3    H138995   0.094   1.997   2.672  1.0894 -0.9436 -0.8338
 5860TIP3    H238996   0.210   1.955   2.759 -0.0562  0.3335  1.3994
 5861TIP3   OH238997   6.123   5.919  13.495 -0.2305 -0.0079  0.2983
 5861TIP3    H138998   6.128   5.831  13.456 -0.1759  0.9542 -2.0088
 5861TIP3    H238999   6.033   5.947  13.481 -0.5027 -0.0129  1.8604
 5862TIP3   OH239000   1.645   6.611   1.931 -0.1362  0.0697 -0.3602
 5862TIP3    H139001   1.587   6.637   1.859 -1.7664  0.1166  0.8999
 5862TIP3    H239002   1.647   6.515   1.926  2.6551  0.1255 -2.5718
 5863TIP3   OH239003   5.109   3.319   6.417  0.7206  0.3284  0.3819
 5863TIP3    H139004   5.118   3.413   6.408  0.1947  0.5194  1.6305
 5863TIP3    H239005   5.033   3.296   6.363  0.3885  0.7385  0.6721
 5864TIP3   OH239006   2.285   4.215  10.778  0.3528 -0.0333 -0.2633
 5864TIP3    H139007   2.279   4.240  10.686  2.0361  0.1004 -0.3630
 5864TIP3    H239008   2.347   4.142  10.779 -0.1928 -0.4979  0.6922
 5865TIP3   OH239009   4.294   6.591  12.755  0.2492  0.4124 -0.9478
 5865TIP3    H139010   4.372   6.581  12.809 -0.0237 -0.3178 -0.6835
 5865TIP3    H239011   4.244   6.660  12.798  0.9254  1.1727 -1.3433
 5866TIP3   OH239012   6.622   3.627  14.560  0.1265 -1.1148 -0.3158
 5866TIP3    H139013   6.574   3.562  14.611 -0.3525  0.1570  0.9060
 5866TIP3    H239014   6.714   3.607  14.576 -0.0120 -0.7279  1.1173
 5867TIP3   OH239015   5.601   4.615  12.947 -0.3581 -0.6324  0.1558
 5867TIP3    H139016   5.544   4.678  12.991  0.0219 -0.0203 -0.2158
 5867TIP3    H239017   5.644   4.666  12.879 -1.9188 -1.8209 -1.8487
 5868TIP3   OH239018   3.572   4.322  15.270 -0.1502 -0.1238 -0.5344
 5868TIP3    H139019   3.509   4.368  15.216  2.2446  2.3109 -1.4611
 5868TIP3    H239020   3.651   4.317  15.216  1.5590  0.1469  1.7912
 5869TIP3   OH239021   0.792   0.710   4.736 -0.3325 -0.5089 -0.1192
 5869TIP3    H139022   0.724   0.774   4.756 -1.2295 -1.8486  1.2746
 5869TIP3    H239023   0.757   0.660   4.663 -0.5638 -0.7753  0.1728
 5870TIP3   OH239024   6.538   3.632   1.125 -0.3931 -0.1015  0.3337
 5870TIP3    H139025   6.485   3.588   1.192  0.0952 -0.8636  0.2352
 5870TIP3    H239026   6.510   3.592   1.042  0.9850 -1.2213  0.3697
 5871TIP3   OH239027   6.398   2.734  11.736 -0.2315 -0.3748 -0.1139
 5871TIP3    H139028   6.382   2.673  11.664 -0.9164  0.0282 -0.3148
 5871TIP3    H239029   6.413   2.677  11.812  1.3139 -0.8163 -0.7151
 5872TIP3   OH239030   4.348   5.274   0.704 -0.1454  0.4091  0.0246
 5872TIP3    H139031   4.269   5.222   0.691 -0.4673  0.9624 -0.2935
 5872TIP3    H239032   4.316   5.358   0.736  0.2109  0.9997 -1.0935
 5873TIP3   OH239033   5.664   6.722   2.733  0.5594 -0.3397  0.5125
 5873TIP3    H139034   5.637   6.767   2.654  2.5785 -0.2825 -0.2035
 5873TIP3    H239035   5.696   6.637   2.703  1.8789 -0.1052  1.1440
 5874TIP3   OH239036   1.171   4.543   4.618  0.3676 -0.0854 -0.2791
 5874TIP3    H139037   1.104   4.585   4.672  1.1005 -1.2881  1.6672
 5874TIP3    H239038   1.211   4.478   4.676  2.1107 -0.5290 -1.8928
 5875TIP3   OH239039   2.421   6.197   2.727  0.4433  0.1447  0.0694
 5875TIP3    H139040   2.398   6.274   2.674 -0.2781  2.7451  3.7392
 5875TIP3    H239041   2.466   6.233   2.803  0.5947 -3.1776  1.7399
 5876TIP3   OH239042   2.479   2.030  14.650  0.5212 -0.0628  0.6196
 5876TIP3    H139043   2.562   2.028  14.696  0.4855 -2.0823  0.6949
 5876TIP3    H239044   2.478   1.949  14.599 -0.7083  0.7026 -0.6403
 5877TIP3   OH239045   6.472   4.242   5.767  0.4330 -0.4213  0.4770
 5877TIP3    H139046   6.491   4.249   5.860 -0.1875 -2.0506  0.7526
 5877TIP3    H239047   6.528   4.171   5.736  1.9795  1.2736 -0.8205
 5878TIP3   OH239048   4.430   3.431   5.389 -0.1616  0.3790  0.0190
 5878TIP3    H139049   4.501   3.384   5.346 -0.6632  1.5271 -2.2672
 5878TIP3    H239050   4.413   3.382   5.469  0.5513 -2.2092 -1.3090
 5879TIP3   OH239051   1.744   5.128  13.781 -0.4234 -0.5223  0.3509
 5879TIP3    H139052   1.680   5.058  13.796 -2.7290  1.8109  2.4279
 5879TIP3    H239053   1.719   5.197  13.843  4.1099  0.6515  1.2765
 5880TIP3   OH239054   4.279   0.906   0.855 -0.0731 -0.2833  0.1459
 5880TIP3    H139055   4.334   0.895   0.933  1.7268 -0.3477 -1.0546
 5880TIP3    H239056   4.201   0.951   0.887  2.2348  3.2087  1.3987
 5881TIP3   OH239057   0.729   3.489   4.762  0.3342  0.5726 -0.0155
 5881TIP3    H139058   0.646   3.471   4.806  1.0796  0.3539  1.3293
 5881TIP3    H239059   0.705   3.500   4.670 -1.0622 -0.4067  0.2067
 5882TIP3   OH239060   0.901   2.701   2.671  0.0929  0.4837  0.0974
 5882TIP3    H139061   0.880   2.651   2.751 -1.2713 -1.2926 -1.2853
 5882TIP3    H239062   0.843   2.776   2.674 -0.6701 -0.0978  0.3145
 5883TIP3   OH239063   6.605   5.375  11.550 -0.3849  0.3291 -0.0329
 5883TIP3    H139064   6.565   5.369  11.636  0.0361  0.0914  0.1474
 5883TIP3    H239065   6.584   5.292  11.507 -0.4133  0.3617 -0.0832
 5884TIP3   OH239066   2.392   0.040  11.372  0.4162  0.7941 -0.2957
 5884TIP3    H139067   2.337   0.110  11.337 -0.4729  0.7873  1.0635
 5884TIP3    H239068   2.481   0.078  11.371 -0.1612  2.2986  1.2535
 5885TIP3   OH239069   0.468   2.109  13.833  0.9693  0.0596 -0.5199
 5885TIP3    H139070   0.477   2.022  13.794  0.8038  0.2169 -0.9106
 5885TIP3    H239071   0.437   2.092  13.922 -2.3423 -0.2144 -1.5638
 5886TIP3   OH239072   3.593   0.842   5.487  0.5645 -0.6089  0.0393
 5886TIP3    H139073   3.630   0.788   5.417  1.0466 -0.7013  0.3598
 5886TIP3    H239074   3.607   0.932   5.459  0.6263 -0.6478 -0.0531
 5887TIP3   OH239075   5.077   0.050  14.372  0.6118 -0.3067  0.3288
 5887TIP3    H139076   5.038   0.136  14.384 -1.3316 -1.0731 -0.1051
 5887TIP3    H239077   5.106   0.049  14.280  0.0601 -0.3431  0.1569
 5888TIP3   OH239078   4.478   3.786   0.663 -0.0750 -0.3145 -0.7346
 5888TIP3    H139079   4.415   3.812   0.596 -0.6183  1.0254  0.2413
 5888TIP3    H239080   4.494   3.693   0.648 -2.9282 -0.9232 -0.4907
 5889TIP3   OH239081   1.826   2.423   2.195  0.3875  0.3123  0.3120
 5889TIP3    H139082   1.805   2.495   2.254  2.4437  0.9600  0.3243
 5889TIP3    H239083   1.837   2.464   2.109 -0.2783 -0.2861 -0.0747
 5890TIP3   OH239084   6.290   1.727  14.410 -0.2436 -0.3416  0.3108
 5890TIP3    H139085   6.331   1.646  14.438 -0.1280 -0.7042 -0.8526
 5890TIP3    H239086   6.211   1.699  14.362 -1.2494  0.3032  1.5396
 5891TIP3   OH239087   2.326   6.302  12.523 -0.1634  0.3831 -0.5416
 5891TIP3    H139088   2.306   6.351  12.443 -0.8456  0.2882 -0.4329
 5891TIP3    H239089   2.244   6.258  12.545  0.0902  0.2215  0.0829
 5892TIP3   OH239090   2.160   6.516   6.237  0.6413  0.1545 -0.2329
 5892TIP3    H139091   2.087   6.517   6.175  0.7154 -1.3529 -0.3744
 5892TIP3    H239092   2.179   6.608   6.253 -2.9668  0.7684  1.7744
 5893TIP3   OH239093   4.699   0.255  13.087 -0.5307 -0.0796 -0.5395
 5893TIP3    H139094   4.684   0.331  13.030  0.3297  0.2236 -0.3777
 5893TIP3    H239095   4.688   0.180  13.029  0.4353  0.2299 -1.1556
 5894TIP3   OH239096   5.367   0.981  15.560 -0.8959  0.5179 -0.0021
 5894TIP3    H139097   5.297   0.987  15.495  0.5760  1.3707 -1.5970
 5894TIP3    H239098   5.445   1.014  15.515 -0.3538  4.1466  3.1220
 5895TIP3   OH239099   2.726   1.120   4.944  0.5132 -0.1677 -0.5015
 5895TIP3    H139100   2.795   1.091   4.884  1.0852 -0.3261  0.2254
 5895TIP3    H239101   2.725   1.055   5.013  0.6362  0.6128  0.2579
 5896TIP3   OH239102   6.344   5.599  11.643  0.4493  0.4613  0.0172
 5896TIP3    H139103   6.273   5.566  11.588  1.6208 -0.7597 -0.8376
 5896TIP3    H239104   6.301   5.654  11.708 -1.5440 -1.8774  0.8366
 5897TIP3   OH239105   3.827   0.528  11.794 -0.4856 -0.9961  0.4134
 5897TIP3    H139106   3.737   0.519  11.825 -0.3874 -2.8566  0.3082
 5897TIP3    H239107   3.870   0.447  11.822  0.5660 -1.1206 -1.3949
 5898TIP3   OH239108   5.734   4.032   1.011 -0.2002  0.2819  0.2409
 5898TIP3    H139109   5.817   4.049   1.054 -0.4292 -1.4654  1.5317
 5898TIP3    H239110   5.722   3.937   1.018 -1.5454  0.2713 -1.3556
 5899TIP3   OH239111   2.157   2.141   0.319  0.5281  0.1201  0.0224
 5899TIP3    H139112   2.217   2.198   0.366 -0.3648 -0.1405  1.5567
 5899TIP3    H239113   2.182   2.052   0.346 -0.1306 -0.0199  0.1956
 5900TIP3   OH239114   5.914   4.112   3.356  0.4547  0.2350  0.2500
 5900TIP3    H139115   5.880   4.187   3.308  0.0698 -0.2145 -0.1859
 5900TIP3    H239116   5.899   4.037   3.299  1.8011 -0.0438  0.2250
 5901TIP3   OH239117   4.537   1.575   3.414  0.4695  0.1298 -0.2205
 5901TIP3    H139118   4.537   1.655   3.361  0.5269  1.1144  1.2062
 5901TIP3    H239119   4.602   1.591   3.483  1.6266 -1.7873 -0.7763
 5902TIP3   OH239120   5.218   0.248   3.693  0.2128  0.2742  0.1312
 5902TIP3    H139121   5.200   0.177   3.632 -0.8758  0.4157  0.2741
 5902TIP3    H239122   5.264   0.206   3.766 -1.9212 -0.6530  1.0286
 5903TIP3   OH239123   0.812   0.611  11.415  0.2039 -0.4697 -0.4856
 5903TIP3    H139124   0.852   0.550  11.354  0.1641 -0.6042 -0.3755
 5903TIP3    H239125   0.861   0.601  11.497 -0.3790 -1.0106 -0.1906
 5904TIP3   OH239126   1.179   5.986  11.126 -0.6384 -0.5182  0.1053
 5904TIP3    H139127   1.174   6.014  11.035  0.7757 -0.4040  0.0364
 5904TIP3    H239128   1.242   5.914  11.126 -0.6840 -0.5731  0.9635
 5905TIP3   OH239129   4.192   4.038   4.291 -0.2783 -0.0457  0.5849
 5905TIP3    H139130   4.122   3.973   4.304 -1.7616  1.5824  1.1903
 5905TIP3    H239131   4.264   3.988   4.254 -1.2084 -2.1091  1.3789
 5906TIP3   OH239132   4.921   4.752   4.213  0.6256  0.1324  0.3435
 5906TIP3    H139133   4.971   4.806   4.273 -2.1054  2.8232  0.4402
 5906TIP3    H239134   4.872   4.814   4.159  0.2738 -2.2231 -2.3330
 5907TIP3   OH239135   4.869   1.315  12.479  0.4858 -0.2248  0.2584
 5907TIP3    H139136   4.893   1.340  12.389  0.2580  0.0438  0.2716
 5907TIP3    H239137   4.907   1.384  12.533 -3.7041  2.6551  0.0305
 5908TIP3   OH239138   5.347   2.550  12.578  0.2561  0.0339 -0.4878
 5908TIP3    H139139   5.261   2.524  12.613 -0.0246  1.6783  0.1323
 5908TIP3    H239140   5.339   2.644  12.562  1.9249  0.2081 -0.4899
 5909TIP3   OH239141   0.526   2.531   6.145  0.3780 -0.0032  0.1581
 5909TIP3    H139142   0.513   2.477   6.223  2.4937 -1.7096 -0.5392
 5909TIP3    H239143   0.446   2.520   6.094  0.6166 -2.4149  0.1658
 5910TIP3   OH239144   2.198   1.745   5.366 -0.0961 -0.6420  0.2420
 5910TIP3    H139145   2.161   1.782   5.446 -1.8834  0.3811 -0.9699
 5910TIP3    H239146   2.122   1.712   5.318  0.9161 -1.1390 -1.0905
 5911TIP3   OH239147   2.678   1.025  13.767  0.2134  0.2841 -0.4246
 5911TIP3    H139148   2.604   1.085  13.771  1.3742  1.7576 -0.0137
 5911TIP3    H239149   2.755   1.081  13.772  1.3740 -1.3178  1.5945
 5912TIP3   OH239150   1.740   4.118   2.482  0.5128 -0.1691 -0.1329
 5912TIP3    H139151   1.665   4.154   2.436 -0.2004  1.6882  2.2575
 5912TIP3    H239152   1.783   4.062   2.418 -2.1406 -0.2686 -2.0082
 5913TIP3   OH239153   0.162   0.092   3.976  0.1918  0.5618  0.2734
 5913TIP3    H139154   0.095   0.029   3.950  0.2492  0.4714  0.3467
 5913TIP3    H239155   0.245   0.048   3.956  0.2240  1.1574 -1.0001
 5914TIP3   OH239156   2.149   2.254  15.637  0.1997  0.2791  0.5832
 5914TIP3    H139157   2.161   2.204  15.556  1.8110  0.1376  0.8718
 5914TIP3    H239158   2.214   2.217  15.697 -0.2377  1.1104  1.5931
 5915TIP3   OH239159   4.341   5.818  11.473 -0.1659 -0.2593  0.0936
 5915TIP3    H139160   4.382   5.745  11.427  2.7749  1.6149 -0.5545
 5915TIP3    H239161   4.413   5.859  11.521 -2.2628  0.6156  2.7031
 5916TIP3   OH239162   1.898   6.462  12.101 -0.1409  0.4861 -0.0526
 5916TIP3    H139163   1.900   6.473  12.006  0.8111 -1.5141 -0.3159
 5916TIP3    H239164   1.829   6.397  12.117  0.5648 -0.1668  0.4635
 5917TIP3   OH239165   2.450   5.879  13.617 -0.7595  0.1513 -0.5416
 5917TIP3    H139166   2.426   5.883  13.524 -0.4401  0.9779 -0.5950
 5917TIP3    H239167   2.536   5.837  13.618 -1.0232 -0.3951 -0.5676
 5918TIP3   OH239168   1.704   5.790  14.611 -0.9432 -0.3135  0.2907
 5918TIP3    H139169   1.659   5.856  14.664  1.1428  0.7442  0.8556
 5918TIP3    H239170   1.718   5.833  14.526  0.2578 -0.0322  0.6024
 5919TIP3   OH239171   2.813   5.203   1.924 -0.1657 -0.0165 -0.4131
 5919TIP3    H139172   2.735   5.153   1.899 -0.2361  0.3347 -0.9011
 5919TIP3    H239173   2.852   5.229   1.841  1.3129 -1.4760 -0.2382
 5920TIP3   OH239174   0.415   5.676  14.231 -0.0716 -0.3594 -0.1581
 5920TIP3    H139175   0.352   5.677  14.159 -2.6828 -1.1649  1.9570
 5920TIP3    H239176   0.450   5.587  14.230  0.4289 -0.1681 -0.7993
 5921TIP3   OH239177   1.107   0.880   2.285 -0.2219 -0.1410  0.4639
 5921TIP3    H139178   1.035   0.887   2.223  0.6475 -0.7234 -0.6525
 5921TIP3    H239179   1.150   0.966   2.282 -0.2154 -0.1491  0.2918
 5922TIP3   OH239180   5.092   1.045   2.708  0.5335  0.2734 -0.5484
 5922TIP3    H139181   5.053   0.965   2.672 -2.2892  0.6925  1.2577
 5922TIP3    H239182   5.183   1.023   2.724 -0.1997 -2.6703  0.1010
 5923TIP3   OH239183   2.817   4.798  15.413 -0.6059  0.6002  0.0498
 5923TIP3    H139184   2.817   4.811  15.507  0.1554 -0.1109  0.1669
 5923TIP3    H239185   2.881   4.861  15.380  0.1171 -0.0560  0.1684
 5924TIP3   OH239186   3.057   5.116   4.381  0.4069 -0.1822  0.2700
 5924TIP3    H139187   2.967   5.141   4.405  0.3816 -0.0423  0.0307
 5924TIP3    H239188   3.064   5.140   4.289  1.4585  2.0820  0.8604
 5925TIP3   OH239189   5.633   0.621   3.248 -0.1985 -0.2038  0.1691
 5925TIP3    H139190   5.598   0.616   3.159 -0.3236  2.9777 -0.0684
 5925TIP3    H239191   5.695   0.694   3.246 -0.0577 -0.1536  2.6375
 5926TIP3   OH239192   6.306   3.230   3.496 -0.4193  0.1504 -0.0646
 5926TIP3    H139193   6.299   3.255   3.588 -1.2723 -1.1655  0.2492
 5926TIP3    H239194   6.335   3.138   3.498  2.9531  1.0259 -1.1721
 5927TIP3   OH239195   1.736   1.850  14.330  0.1274 -0.1091  0.2863
 5927TIP3    H139196   1.694   1.786  14.388 -1.6852  0.7005 -0.0953
 5927TIP3    H239197   1.767   1.918  14.389 -0.3766 -0.0148  0.4465
 5928TIP3   OH239198   5.663   4.773   0.667  0.3260  0.0049  0.5197
 5928TIP3    H139199   5.695   4.799   0.581 -0.5910  0.4082  0.2841
 5928TIP3    H239200   5.636   4.855   0.708 -1.9259 -0.4383  0.0546
 5929TIP3   OH239201   4.801   0.119   0.014  0.2558 -0.3294  0.5729
 5929TIP3    H139202   4.735   0.187   0.007  2.3940  1.8563  0.3849
 5929TIP3    H239203   4.834   0.126   0.104  1.7496  0.1892  0.0215
 5930TIP3   OH239204   6.145   0.944  14.778  0.0565 -0.1003  0.2011
 5930TIP3    H139205   6.069   0.947  14.836 -0.1114  0.9315 -0.0354
 5930TIP3    H239206   6.216   0.985  14.830 -0.0280  0.5844 -0.2072
 5931TIP3   OH239207   1.345   2.996   2.028 -0.7836 -0.9996  0.4483
 5931TIP3    H139208   1.378   2.909   2.006  2.4657  0.6471 -2.2099
 5931TIP3    H239209   1.257   2.999   1.990 -0.6202 -2.8374 -0.1672
 5932TIP3   OH239210   0.800   3.492  12.631  0.0906 -0.0785  0.1086
 5932TIP3    H139211   0.705   3.494  12.626  0.0553  0.2078  0.8402
 5932TIP3    H239212   0.825   3.412  12.584 -0.5549 -0.5864  0.6139
 5933TIP3   OH239213   5.043   6.485  11.039  0.2795 -0.2470  0.1717
 5933TIP3    H139214   4.959   6.530  11.034  0.5722  0.2445 -0.4462
 5933TIP3    H239215   5.099   6.531  10.977  1.3693  0.2117  1.4511
 5934TIP3   OH239216   5.692   1.470  12.793  0.0609  0.0612  0.1843
 5934TIP3    H139217   5.724   1.556  12.765 -1.5235  0.5388 -0.3090
 5934TIP3    H239218   5.647   1.487  12.876 -1.6846  0.0675 -0.7077
 5935TIP3   OH239219   2.256   5.539   2.540  0.5851  0.1706 -0.4716
 5935TIP3    H139220   2.178   5.594   2.531 -0.3523 -0.7242  1.6205
 5935TIP3    H239221   2.270   5.503   2.453 -2.0124 -0.4988 -0.6963
 5936TIP3   OH239222   5.647   1.415   1.636  0.3421 -0.3705 -0.2852
 5936TIP3    H139223   5.634   1.405   1.730  1.4982 -1.2923 -0.2033
 5936TIP3    H239224   5.563   1.389   1.597 -0.2789  0.4063  0.4819
 5937TIP3   OH239225   3.013   2.909   2.493  0.5506 -0.3937 -0.0173
 5937TIP3    H139226   3.085   2.926   2.432 -1.3136  1.6323 -1.7848
 5937TIP3    H239227   3.055   2.904   2.579  2.8170  0.4702 -1.0093
 5938TIP3   OH239228   2.466   2.508   0.181  0.8042  0.1782  0.0433
 5938TIP3    H139229   2.439   2.535   0.269 -0.8031 -1.5255  0.1347
 5938TIP3    H239230   2.546   2.457   0.195  0.4931 -0.1830  0.5368
 5939TIP3   OH239231   2.461   4.372  17.157  0.1782 -0.3125 -0.2316
 5939TIP3    H139232   2.406   4.370  17.236  1.3110 -3.9691  0.6441
 5939TIP3    H239233   2.531   4.434  17.179 -1.0741  0.9534  0.4037
 5940TIP3   OH239234   3.249   4.744  14.736  0.3173 -0.1489  0.7477
 5940TIP3    H139235   3.338   4.709  14.744  0.8352  0.6935 -0.7806
 5940TIP3    H239236   3.226   4.729  14.644 -0.9705  0.0021  1.0252
 5941TIP3   OH239237   3.740   6.069   1.084  0.3207  0.6051 -0.4052
 5941TIP3    H139238   3.692   6.075   1.002  0.7213 -0.5334 -0.7354
 5941TIP3    H239239   3.674   6.042   1.148 -0.0069  1.5614 -0.3121
 5942TIP3   OH239240   4.422   3.117   4.936  0.1119  0.3555 -0.4702
 5942TIP3    H139241   4.443   3.184   4.870 -0.3463  2.7115  1.6306
 5942TIP3    H239242   4.506   3.099   4.979  0.1540 -0.1368 -0.7480
 5943TIP3   OH239243   1.099   6.473   1.209  0.0200 -0.4136  0.2460
 5943TIP3    H139244   1.101   6.548   1.268  0.9166 -1.2115  1.2659
 5943TIP3    H239245   1.185   6.473   1.167  0.1720 -1.0929  0.5433
 5944TIP3   OH239246   2.624   6.071  13.399 -0.4286 -0.1650  0.5080
 5944TIP3    H139247   2.589   6.122  13.472  1.0861  1.4373  0.1835
 5944TIP3    H239248   2.691   6.016  13.438 -1.3728 -1.2380  0.6904
 5945TIP3   OH239249   0.147   3.455   5.092 -0.5302 -0.0817 -0.5566
 5945TIP3    H139250   0.157   3.510   5.170 -0.7732  0.1966 -0.7219
 5945TIP3    H239251   0.177   3.510   5.020  1.1692 -0.8519 -0.4920
 5946TIP3   OH239252   2.242   5.854   6.239 -0.2567  0.4540  0.4196
 5946TIP3    H139253   2.218   5.784   6.301 -2.0027  0.0092 -0.6826
 5946TIP3    H239254   2.190   5.929   6.268  0.3342  0.8101  0.5786
 5947TIP3   OH239255   5.753   2.355   3.852 -0.3014 -0.0513  0.2051
 5947TIP3    H139256   5.680   2.364   3.792 -1.2336 -0.8276  1.1846
 5947TIP3    H239257   5.801   2.278   3.822 -0.1181  0.2145 -0.1896
 5948TIP3   OH239258   4.474   2.996  16.641 -0.3739 -0.5879 -0.3941
 5948TIP3    H139259   4.486   3.007  16.547  1.7398 -1.1773 -0.2341
 5948TIP3    H239260   4.458   2.902  16.652 -2.0511 -0.3133 -0.2647
 5949TIP3   OH239261   2.961   5.009  17.170  0.7879 -0.4512 -0.3473
 5949TIP3    H139262   2.866   5.015  17.173  0.7417 -1.3550  0.9295
 5949TIP3    H239263   2.989   5.090  17.126 -0.4821  0.9183  1.2336
 5950TIP3   OH239264   5.797   1.244  14.753  0.1788 -0.0989  0.5466
 5950TIP3    H139265   5.713   1.288  14.757  0.3012  0.0714  1.2129
 5950TIP3    H239266   5.790   1.172  14.815  0.1616 -0.7189 -0.1592
 5951TIP3   OH239267   4.893   4.819   1.691  0.1705  0.6395 -0.1697
 5951TIP3    H139268   4.960   4.881   1.662  2.1110 -1.7014 -1.0892
 5951TIP3    H239269   4.923   4.789   1.777 -0.5148  0.6688  0.0852
 5952TIP3   OH239270   3.995   5.400  15.649 -0.1162  0.1263  0.2724
 5952TIP3    H139271   4.084   5.378  15.674  0.2447  0.6762 -0.4536
 5952TIP3    H239272   3.942   5.324  15.674  0.6063 -0.3328  0.4179
 5953TIP3   OH239273   4.467   0.324   1.331 -0.3012  0.3579 -0.2247
 5953TIP3    H139274   4.426   0.346   1.415 -0.2200 -0.3124  0.0015
 5953TIP3    H239275   4.461   0.228   1.327  0.5937  0.3080 -0.5190
 5954TIP3   OH239276   4.781   0.437   1.612  0.3244  0.2540 -0.1691
 5954TIP3    H139277   4.740   0.514   1.574 -1.7225 -1.1150 -0.8769
 5954TIP3    H239278   4.875   0.456   1.608 -0.0221  1.9180 -2.0169
 5955TIP3   OH239279   5.843   2.940   5.871 -0.1525  0.2457 -0.5128
 5955TIP3    H139280   5.919   2.997   5.863  0.4581  0.3504  3.9172
 5955TIP3    H239281   5.770   2.993   5.837  1.1367  1.5600 -1.3624
 5956TIP3   OH239282   5.051   3.594  10.558 -0.0348  0.7328  0.1518
 5956TIP3    H139283   5.078   3.502  10.558  0.1138  0.7688 -0.6653
 5956TIP3    H239284   5.107   3.636  10.493 -1.5452  0.9569 -1.0671
 5957TIP3   OH239285   2.096   2.701  12.470  0.0750 -0.6721  0.4831
 5957TIP3    H139286   2.067   2.641  12.402 -0.7325  1.0929 -0.8223
 5957TIP3    H239287   2.051   2.673  12.549 -3.2587  0.3663 -0.8931
 5958TIP3   OH239288   0.673   3.204  16.498 -0.7871  0.3044  0.2230
 5958TIP3    H139289   0.674   3.191  16.403 -1.3100 -2.2603  0.4910
 5958TIP3    H239290   0.581   3.223  16.518 -0.8304  0.0132  0.3004
 5959TIP3   OH239291   3.648   0.388  12.478  0.2374 -0.2507  0.4918
 5959TIP3    H139292   3.673   0.296  12.467  0.8906  0.0086 -0.3139
 5959TIP3    H239293   3.726   0.437  12.452 -0.6387  0.5735 -0.7039
 5960TIP3   OH239294   0.945   0.396   1.826  0.0333  0.8265 -0.3577
 5960TIP3    H139295   1.004   0.454   1.874 -0.7633 -0.2523  2.0693
 5960TIP3    H239296   0.989   0.311   1.825 -0.6833  0.4392 -0.0802
 5961TIP3   OH239297   2.088   3.461  11.113  0.0028 -0.0867  0.2390
 5961TIP3    H139298   2.022   3.433  11.050  1.5859 -1.2929 -0.9589
 5961TIP3    H239299   2.068   3.554  11.129 -2.7056 -0.6967  0.9125
 5962TIP3   OH239300   6.016   3.784  16.325 -0.6461 -0.7093 -0.1282
 5962TIP3    H139301   5.921   3.770  16.325 -0.7016 -0.3903  0.8957
 5962TIP3    H239302   6.048   3.732  16.399 -0.3666  1.2896  1.2293
 5963TIP3   OH239303   1.003   0.856  11.454 -0.2828 -0.1644 -0.0372
 5963TIP3    H139304   1.028   0.833  11.365 -1.3424 -1.3767 -0.0612
 5963TIP3    H239305   0.988   0.771  11.497 -0.8213  0.4196  0.9760
 5964TIP3   OH239306   5.280   2.450   1.258  0.8060 -0.6583  0.3372
 5964TIP3    H139307   5.288   2.484   1.347 -3.6669  2.7157 -0.1553
 5964TIP3    H239308   5.233   2.367   1.268 -2.5776  1.1766  1.2704
 5965TIP3   OH239309   5.529   3.454   5.754 -0.3924  0.3547 -0.1098
 5965TIP3    H139310   5.576   3.413   5.827 -1.3922 -0.9165 -0.1557
 5965TIP3    H239311   5.594   3.461   5.684 -0.2682 -1.5073 -0.2168
 5966TIP3   OH239312   4.346   3.576  12.944  0.4347 -0.6094  0.3858
 5966TIP3    H139313   4.302   3.600  13.026 -0.2153 -0.8059  0.0949
 5966TIP3    H239314   4.355   3.481  12.949 -0.4147 -0.7257 -0.1693
 5967TIP3   OH239315   6.710   0.811  15.449  0.2802  0.0173 -0.0600
 5967TIP3    H139316   6.666   0.851  15.373  0.1049 -0.1647 -0.0530
 5967TIP3    H239317   6.726   0.721  15.423  1.2759  0.2506 -0.3297
 5968TIP3   OH239318   1.650   0.862  12.707 -1.2996  0.1683 -0.0993
 5968TIP3    H139319   1.705   0.933  12.738  0.1201 -0.9619  0.1134
 5968TIP3    H239320   1.591   0.843  12.780  0.1757 -0.6650  0.9336
 5969TIP3   OH239321   5.741   2.562   2.297 -0.4877  0.2120 -0.0150
 5969TIP3    H139322   5.760   2.613   2.375  0.0259  0.3207 -0.2022
 5969TIP3    H239323   5.699   2.482   2.329  0.1278  0.0467  0.4168
 5970TIP3   OH239324   1.114   2.590  13.338 -0.1196  0.8423  0.5648
 5970TIP3    H139325   1.206   2.615  13.343  0.4535 -1.3065  2.9634
 5970TIP3    H239326   1.075   2.653  13.277  2.7232  2.3633  0.1543
 5971TIP3   OH239327   5.092   5.033  10.466 -0.1045 -0.0683 -0.1661
 5971TIP3    H139328   5.046   5.115  10.447 -0.9833 -0.6500 -0.5829
 5971TIP3    H239329   5.061   4.972  10.400  1.4405 -0.4347 -0.5988
 5972TIP3   OH239330   3.296   3.058  15.144 -0.1420  0.1059  0.5616
 5972TIP3    H139331   3.213   3.030  15.183 -0.1349 -0.7633 -0.0053
 5972TIP3    H239332   3.356   3.067  15.218 -0.1921 -1.2687  0.8044
 5973TIP3   OH239333   5.186   0.004  11.569  0.5065 -0.6125  0.0589
 5973TIP3    H139334   5.191   0.097  11.547  0.5776 -0.9344 -1.3617
 5973TIP3    H239335   5.270  -0.032  11.540  1.2844 -0.8071  2.3291
 5974TIP3   OH239336   1.617   3.541   2.351 -0.3065  0.8623 -0.2321
 5974TIP3    H139337   1.688   3.583   2.401 -1.1567  1.2263  0.6962
 5974TIP3    H239338   1.601   3.459   2.398 -0.4771  0.7643 -0.4611
 5975TIP3   OH239339   3.359   3.585   2.480 -0.1045  0.2365 -0.2197
 5975TIP3    H139340   3.314   3.621   2.556 -0.1705  1.5222 -0.8369
 5975TIP3    H239341   3.341   3.491   2.484  0.3729  0.1784  1.6505
 5976TIP3   OH239342   0.018   2.151  11.927 -0.0549 -0.0087 -0.1125
 5976TIP3    H139343   0.021   2.201  11.845 -1.3030 -1.0144 -0.8216
 5976TIP3    H239344   0.060   2.067  11.905  0.7543  0.1919  0.6526
 5977TIP3   OH239345   1.959   1.381   0.512  0.4223  0.3394 -0.1343
 5977TIP3    H139346   1.905   1.337   0.578  1.2486 -0.1031  0.2733
 5977TIP3    H239347   1.898   1.407   0.443 -0.1631 -1.0029 -0.1494
 5978TIP3   OH239348   2.603   1.282  14.861  0.1302  0.1205  0.0616
 5978TIP3    H139349   2.662   1.212  14.892  1.4584  0.7426 -0.9429
 5978TIP3    H239350   2.562   1.245  14.783  1.2141  0.6140 -0.7607
 5979TIP3   OH239351   1.809   5.471   0.235 -0.3371  0.1257  0.5307
 5979TIP3    H139352   1.890   5.453   0.282 -0.0310 -2.4487 -0.8312
 5979TIP3    H239353   1.837   5.489   0.145 -1.2013  0.1356  0.2560
 5980TIP3   OH239354   2.766   6.145  15.590  0.1024 -0.2707  1.0212
 5980TIP3    H139355   2.683   6.142  15.636 -0.1951  0.3652  0.5404
 5980TIP3    H239356   2.771   6.061  15.544  0.4645 -0.9651  2.2879
 5981TIP3   OH239357   3.733   2.545  16.609 -0.2766 -0.5581 -0.8129
 5981TIP3    H139358   3.820   2.504  16.611  0.1975 -0.1187 -4.6438
 5981TIP3    H239359   3.674   2.474  16.583 -0.9215 -0.6075  0.7130
 5982TIP3   OH239360   1.861   5.340  10.819 -1.1081 -0.0809  0.1888
 5982TIP3    H139361   1.911   5.422  10.812 -0.3763 -0.5111  0.3182
 5982TIP3    H239362   1.858   5.307  10.729 -0.2881 -0.5635  0.3349
 5983TIP3   OH239363   2.294   4.136  15.401  0.6117  0.5704 -0.2302
 5983TIP3    H139364   2.215   4.150  15.453 -0.2626  0.9390 -1.5860
 5983TIP3    H239365   2.266   4.075  15.332  0.9663  2.1166 -1.8231
 5984TIP3   OH239366   5.290   0.308  13.231  0.3023  0.2418 -0.0530
 5984TIP3    H139367   5.211   0.343  13.273 -0.1794 -0.6403 -0.1947
 5984TIP3    H239368   5.277   0.213  13.232  0.7688  0.1528 -1.2393
 5985TIP3   OH239369   3.430   0.115  11.815 -0.4490 -0.1731 -0.0228
 5985TIP3    H139370   3.494   0.148  11.878  2.2442 -1.8644 -1.6468
 5985TIP3    H239371   3.445   0.020  11.813 -2.2150 -0.4774 -1.3599
 5986TIP3   OH239372   2.734   1.546   5.513 -0.3444 -0.4455  0.9433
 5986TIP3    H139373   2.778   1.474   5.468 -0.1524 -0.9749  1.9572
 5986TIP3    H239374   2.655   1.507   5.551 -0.3781 -0.0686  1.2705
 5987TIP3   OH239375   3.013   4.559  15.642  0.8031 -0.0753 -0.5687
 5987TIP3    H139376   3.057   4.579  15.725 -0.0500  1.0967 -0.3738
 5987TIP3    H239377   3.048   4.623  15.581 -1.5616  1.8282 -0.0742
 5988TIP3   OH239378   2.897   2.773  13.644 -0.1569 -0.0476  0.0772
 5988TIP3    H139379   2.914   2.761  13.550  0.2525  1.2907 -0.0271
 5988TIP3    H239380   2.867   2.686  13.673  0.9379 -0.8311 -1.0102
 5989TIP3   OH239381   6.425   2.238  13.900  0.1434  0.9860  0.6561
 5989TIP3    H139382   6.379   2.272  13.977  2.2027 -0.1181  2.4872
 5989TIP3    H239383   6.484   2.171  13.935  1.4194  0.6729 -1.8653
 5990TIP3   OH239384   5.214   2.050   2.832 -0.3507 -0.0676  0.2646
 5990TIP3    H139385   5.153   1.987   2.869 -0.5182 -0.8813 -1.2869
 5990TIP3    H239386   5.160   2.127   2.811 -0.5111 -0.1375  0.4244
 5991TIP3   OH239387   4.228   6.385   2.642  0.0110 -0.3607 -0.4917
 5991TIP3    H139388   4.221   6.302   2.595  1.3014 -0.0245 -1.3305
 5991TIP3    H239389   4.227   6.361   2.735 -1.4162 -1.1346 -0.6866
 5992TIP3   OH239390   5.058   1.585  11.437  0.1898  0.3010 -0.3774
 5992TIP3    H139391   5.073   1.662  11.383  0.1379 -0.3152 -1.2872
 5992TIP3    H239392   5.083   1.511  11.382 -0.5417 -0.3859  0.1767
 5993TIP3   OH239393   5.853   0.243  12.907 -0.5222  0.1716  0.0003
 5993TIP3    H139394   5.814   0.330  12.919  0.6886  0.6210  0.9467
 5993TIP3    H239395   5.880   0.241  12.815 -1.0438  0.5841 -0.1687
 5994TIP3   OH239396   3.380   5.952   5.664 -0.1976  0.2845  0.3199
 5994TIP3    H139397   3.320   6.016   5.627  1.0473  1.3896  0.1569
 5994TIP3    H239398   3.377   5.968   5.759 -2.1906 -1.4999  0.6363
 5995TIP3   OH239399   6.055   3.404   4.434 -0.2101 -0.2965 -0.0100
 5995TIP3    H139400   6.083   3.374   4.348 -0.4107 -0.0178 -0.1705
 5995TIP3    H239401   6.024   3.324   4.478 -0.6594 -0.3451 -0.4080
 5996TIP3   OH239402   5.194   2.625   0.552  0.1445 -0.2545 -0.4694
 5996TIP3    H139403   5.265   2.630   0.616  0.3387 -1.5373 -0.5516
 5996TIP3    H239404   5.183   2.715   0.520  0.6288  0.2422  0.7241
 5997TIP3   OH239405   0.400   2.664   1.120  0.3789 -0.2603 -0.9247
 5997TIP3    H139406   0.417   2.676   1.027 -0.7401  0.8152 -1.0197
 5997TIP3    H239407   0.415   2.571   1.135 -1.6642 -0.9733 -2.7027
 5998TIP3   OH239408   0.891   3.420  16.221  0.3074  0.4162 -0.0565
 5998TIP3    H139409   0.870   3.480  16.292  2.5217  0.9945  0.1946
 5998TIP3    H239410   0.917   3.477  16.149  0.8686 -0.1948 -0.3502
 5999TIP3   OH239411   4.763   1.746   3.121 -0.3199 -0.1172 -0.0432
 5999TIP3    H139412   4.811   1.825   3.099 -0.2365  0.0803  0.8091
 5999TIP3    H239413   4.700   1.773   3.188 -0.1950 -0.7866  0.3642
 6000TIP3   OH239414   1.365   0.655   3.709 -0.1150  0.0425  0.3952
 6000TIP3    H139415   1.361   0.611   3.624 -2.9863  1.0766 -0.0975
 6000TIP3    H239416   1.449   0.702   3.708 -1.2506  2.3705 -3.1614
 6001TIP3   OH239417   5.770   5.293   0.092  0.1131 -0.3021 -0.1468
 6001TIP3    H139418   5.752   5.386   0.100  0.9044 -0.2603  1.7633
 6001TIP3    H239419   5.864   5.285   0.110  0.1155 -1.4367 -0.5648
 6002TIP3   OH239420   3.654   2.024   1.626  0.1279  0.0846 -0.0846
 6002TIP3    H139421   3.615   2.105   1.594  0.1795 -0.0969 -0.6242
 6002TIP3    H239422   3.740   2.049   1.660  1.3506 -0.1305 -2.7885
 6003TIP3   OH239423   1.605   1.894  13.708 -0.5729 -0.5365 -0.0446
 6003TIP3    H139424   1.586   1.901  13.615  0.9377 -0.8372 -0.3964
 6003TIP3    H239425   1.671   1.826  13.714 -0.7168 -0.5829  1.2654
 6004TIP3   OH239426   6.792   3.198  15.001  0.1142 -0.1441  0.0361
 6004TIP3    H139427   6.867   3.249  15.031  0.9507 -1.9173  1.1519
 6004TIP3    H239428   6.828   3.111  14.982 -1.3209 -0.4891 -1.3262
 6005TIP3   OH239429   0.199   0.491   0.039 -0.1858  0.2900  0.2002
 6005TIP3    H139430   0.116   0.473  -0.004  0.2141 -0.2175 -0.3725
 6005TIP3    H239431   0.175   0.523   0.126 -1.0398  2.2286 -0.6992
 6006TIP3   OH239432   3.450   2.956   1.717  0.4017  0.7616 -0.5760
 6006TIP3    H139433   3.545   2.965   1.727  0.4330  0.8670 -0.9536
 6006TIP3    H239434   3.418   3.045   1.707  0.2021  0.7634  0.0450
 6007TIP3   OH239435   3.156   4.413   2.733  0.7244  0.6522  0.0257
 6007TIP3    H139436   3.129   4.427   2.642 -0.0282  2.9282  0.5300
 6007TIP3    H239437   3.092   4.462   2.784  1.7485  0.2741  1.7302
 6008TIP3   OH239438   5.745   5.237  10.792 -0.2410 -0.1548 -0.0109
 6008TIP3    H139439   5.780   5.197  10.872  1.2157  0.5198 -0.2689
 6008TIP3    H239440   5.822   5.278  10.751 -1.6206  3.0266  0.3022
 6009TIP3   OH239441   5.797   2.046   1.322  0.2505  0.1812  0.1221
 6009TIP3    H139442   5.702   2.042   1.329  0.1419 -4.4469 -0.3552
 6009TIP3    H239443   5.814   2.048   1.227  0.3982 -2.7398 -0.0102
 6010TIP3   OH239444   6.550   4.074  16.038  0.0697  0.0433 -0.4188
 6010TIP3    H139445   6.504   4.096  16.120  0.9793  1.2227 -0.2081
 6010TIP3    H239446   6.491   4.012  15.995 -1.8800  1.6720 -0.2803
 6011TIP3   OH239447   1.201   0.444  13.741 -0.4074 -0.4143 -1.2234
 6011TIP3    H139448   1.285   0.397  13.734 -0.3257 -0.0671 -3.0639
 6011TIP3    H239449   1.213   0.502  13.816  0.9647 -0.4509 -1.3742
 6012TIP3   OH239450   4.079   0.619  13.011  0.0028 -0.1942  0.3552
 6012TIP3    H139451   4.146   0.586  13.071  0.4774  1.3109  0.6817
 6012TIP3    H239452   4.126   0.636  12.929  0.3084  1.8813  0.9017
 6013TIP3   OH239453   1.338   3.289   2.511 -0.1433  0.5931 -0.4142
 6013TIP3    H139454   1.304   3.212   2.465 -0.0655  0.5406 -0.3862
 6013TIP3    H239455   1.432   3.286   2.495 -0.1016  0.5135 -0.1659
 6014TIP3   OH239456   3.462   5.910   2.935 -0.2813 -0.5222 -0.0626
 6014TIP3    H139457   3.532   5.884   2.874 -0.7388 -2.1079  0.0568
 6014TIP3    H239458   3.473   5.852   3.010 -1.9761 -1.0907 -0.2229
 6015TIP3   OH239459   1.045   2.875  15.065 -0.4279 -0.1988 -0.4146
 6015TIP3    H139460   1.018   2.888  14.974  0.1777 -1.1140 -0.7406
 6015TIP3    H239461   1.011   2.789  15.088 -0.5197 -0.0005  0.2066
 6016TIP3   OH239462   4.657   3.485   2.697 -0.4244  0.4331  0.0451
 6016TIP3    H139463   4.584   3.469   2.757  1.1391 -0.2154  1.8685
 6016TIP3    H239464   4.685   3.574   2.718 -0.9202  0.8441 -0.9569
 6017TIP3   OH239465   0.850   5.702   3.896  0.0086  0.7270  0.3057
 6017TIP3    H139466   0.912   5.692   3.824 -1.6706  0.3219 -1.1631
 6017TIP3    H239467   0.830   5.612   3.922  1.2500  0.8742  1.9245
 6018TIP3   OH239468   5.357   0.129  13.938  0.1368  0.4380  0.1574
 6018TIP3    H139469   5.297   0.055  13.925  0.5855  0.3590 -1.9084
 6018TIP3    H239470   5.300   0.203  13.959 -0.6565  0.2113 -1.0881
 6019TIP3   OH239471   5.052   2.349  15.908  0.3287 -0.4002 -0.5101
 6019TIP3    H139472   5.055   2.359  16.003  0.4074  0.6617 -0.6165
 6019TIP3    H239473   4.975   2.295  15.892 -0.0192 -0.0955  0.1162
 6020TIP3   OH239474   4.670   1.458  16.496  0.0321 -0.3092 -0.3056
 6020TIP3    H139475   4.591   1.427  16.540 -0.0444 -1.9378 -1.5008
 6020TIP3    H239476   4.738   1.397  16.522  2.0494  3.2080  3.8404
 6021TIP3   OH239477   6.335   0.357  15.901 -0.4092  0.1180  0.2860
 6021TIP3    H139478   6.247   0.344  15.866 -0.0775  0.8537 -0.8611
 6021TIP3    H239479   6.320   0.377  15.994 -1.5689  1.5094 -0.1537
 6022TIP3   OH239480   1.782   4.097  14.215 -0.0780 -0.0798  0.4856
 6022TIP3    H139481   1.707   4.095  14.274  0.8019 -2.1168  1.6660
 6022TIP3    H239482   1.789   4.007  14.183  1.6399  0.1432  0.1428
 6023TIP3   OH239483   1.072   2.399   3.267  0.2371 -0.0467 -0.7365
 6023TIP3    H139484   1.050   2.407   3.174  1.0424  1.6290 -0.8222
 6023TIP3    H239485   0.989   2.375   3.309 -0.3489  0.1176 -1.7725
 6024TIP3   OH239486   2.876   1.314   0.959 -0.2197 -0.1880  0.0382
 6024TIP3    H139487   2.806   1.250   0.970 -0.5538  0.1329 -0.2086
 6024TIP3    H239488   2.952   1.262   0.930 -1.0785 -0.2126 -2.3544
 6025TIP3   OH239489   4.447   3.966  16.775  0.0878  0.2181 -0.2483
 6025TIP3    H139490   4.392   3.951  16.698  0.5776 -1.7017 -0.2854
 6025TIP3    H239491   4.532   3.990  16.739 -0.0259  0.5948 -0.2674
 6026TIP3   OH239492   6.042   2.800   1.832  0.4150  0.2772  0.2938
 6026TIP3    H139493   6.044   2.885   1.788  1.3352  0.0879 -0.0532
 6026TIP3    H239494   5.990   2.816   1.911 -1.0917  0.6637 -0.7383
 6027TIP3   OH239495   1.439   4.228  15.536 -0.1318 -0.1776  0.2456
 6027TIP3    H139496   1.460   4.167  15.607 -0.7475  0.1625  0.7313
 6027TIP3    H239497   1.393   4.174  15.471 -2.9512  0.2220  1.7917
 6028TIP3   OH239498   5.270   5.202  12.480 -0.4109 -0.3612 -0.0510
 6028TIP3    H139499   5.259   5.158  12.564  1.1255 -0.8676 -0.0820
 6028TIP3    H239500   5.208   5.158  12.421 -2.0676  0.5179  0.9670
 6029TIP3   OH239501   5.278   5.816   3.300 -0.1319 -0.2554 -0.1503
 6029TIP3    H139502   5.279   5.723   3.276 -2.4589  0.0076 -1.5740
 6029TIP3    H239503   5.220   5.857   3.236  1.4054  2.3516 -0.0050
 6030TIP3   OH239504   2.391   0.314   5.910  0.2136 -0.2504 -0.4877
 6030TIP3    H139505   2.476   0.305   5.868  0.1328  2.0076 -1.2590
 6030TIP3    H239506   2.411   0.323   6.003  0.6060 -2.0259 -0.3557
 6031TIP3   OH239507   5.725   6.295   0.576 -0.4217  0.5808 -0.2021
 6031TIP3    H139508   5.736   6.201   0.594  0.5789  0.6281 -0.5273
 6031TIP3    H239509   5.808   6.334   0.602 -1.2057  1.5482  0.9369
 6032TIP3   OH239510   4.444   0.591  14.625  0.6091 -0.0992 -0.2032
 6032TIP3    H139511   4.380   0.633  14.567  1.7656  0.1353 -1.3500
 6032TIP3    H239512   4.451   0.502  14.592  0.2773 -0.3726  0.4449
 6033TIP3   OH239513   5.924   1.017   1.660 -0.5810 -0.0708  0.2334
 6033TIP3    H139514   5.990   0.960   1.698  0.2190 -1.0675 -2.4195
 6033TIP3    H239515   5.958   1.106   1.672 -0.0174 -0.3963  1.1002
 6034TIP3   OH239516   5.339   2.349  14.837  0.7702  0.0777  0.0107
 6034TIP3    H139517   5.356   2.402  14.758 -1.3242  0.5558 -0.1919
 6034TIP3    H239518   5.334   2.413  14.908 -0.0183 -0.0254  0.0589
 6035TIP3   OH239519   2.618   4.246   6.670 -0.0591  0.1600  0.4275
 6035TIP3    H139520   2.623   4.159   6.709 -1.0738 -0.5477 -0.9201
 6035TIP3    H239521   2.604   4.229   6.577  0.0160  1.7799  0.0898
 6036TIP3   OH239522   5.002   2.696   4.155 -0.1847 -0.0866 -0.3458
 6036TIP3    H139523   4.941   2.765   4.132  1.9141  1.0197 -3.1510
 6036TIP3    H239524   4.960   2.615   4.125 -2.5861 -0.2260  2.8220
 6037TIP3   OH239525   5.192   4.639  11.633  0.1236  0.5652  0.5740
 6037TIP3    H139526   5.097   4.651  11.638  0.1424  0.2155  2.7037
 6037TIP3    H239527   5.228   4.722  11.665  0.4784 -0.0175  1.7268
 6038TIP3   OH239528   6.353   6.287  11.245 -0.2363 -0.4203 -0.4324
 6038TIP3    H139529   6.431   6.342  11.235  0.8948 -1.3438  2.3760
 6038TIP3    H239530   6.297   6.336  11.305  0.2905 -1.7285  1.2066
 6039TIP3   OH239531   0.727   2.471   2.058 -0.4964  0.4047  0.5562
 6039TIP3    H139532   0.775   2.491   1.977 -1.3792  1.4225  0.2577
 6039TIP3    H239533   0.782   2.406   2.103 -0.5332 -1.0543 -1.3886
 6040TIP3   OH239534   4.264   2.993  11.505 -0.0559  0.7025  0.3940
 6040TIP3    H139535   4.331   3.039  11.556 -0.1072  3.0290 -1.4255
 6040TIP3    H239536   4.206   2.953  11.569  1.8035  0.5304  2.0476
 6041TIP3   OH239537   4.336   0.992  14.353  0.3703 -0.1482 -0.0957
 6041TIP3    H139538   4.319   1.083  14.329 -0.5763 -0.3918 -0.3726
 6041TIP3    H239539   4.357   0.948  14.271  0.5534 -0.2424 -0.0000
 6042TIP3   OH239540   1.171   3.498   2.517  0.0762  0.2608  0.3008
 6042TIP3    H139541   1.095   3.450   2.550  0.8086 -2.5089 -1.6649
 6042TIP3    H239542   1.241   3.433   2.513  1.7074  1.9576 -0.8221
 6043TIP3   OH239543   0.002   4.650  15.893  0.0822  0.0012  0.2393
 6043TIP3    H139544  -0.003   4.715  15.823  0.0742 -0.7852 -0.5029
 6043TIP3    H239545   0.054   4.578  15.856 -3.5337 -2.4094 -0.6178
 6044TIP3   OH239546   1.750   6.266  11.083 -0.4333  0.6835  0.2801
 6044TIP3    H139547   1.724   6.264  11.175  0.6995 -1.8027  0.6246
 6044TIP3    H239548   1.836   6.308  11.084 -0.3350  0.4804  0.3800
 6045TIP3   OH239549   5.499   1.011  11.784  0.5784  0.4816  0.9647
 6045TIP3    H139550   5.492   1.104  11.763 -2.3415  0.2198  0.3642
 6045TIP3    H239551   5.466   0.966  11.706  0.7308 -1.0303  1.7238
 6046TIP3   OH239552   1.415   6.609   4.012 -0.2717 -0.1440  0.2840
 6046TIP3    H139553   1.322   6.618   3.991  0.1972  0.7696 -1.4985
 6046TIP3    H239554   1.415   6.575   4.102 -2.2931  1.8756  1.1337
 6047TIP3   OH239555   3.522   0.969  15.863 -0.2100 -0.3655  0.0835
 6047TIP3    H139556   3.485   1.023  15.932 -0.0295 -0.4809  0.2713
 6047TIP3    H239557   3.484   1.003  15.782 -0.2343 -0.0765  0.2181
 6048TIP3   OH239558   4.866   0.268  12.454 -0.0903  0.2065 -0.3385
 6048TIP3    H139559   4.944   0.310  12.489  0.8329 -1.7161  0.0205
 6048TIP3    H239560   4.847   0.196  12.515 -0.8867 -0.6616 -1.5558
 6049TIP3   OH239561   4.555   6.081  14.873 -0.4041  0.0279 -0.8682
 6049TIP3    H139562   4.565   6.176  14.869  0.0859  0.0165 -0.1422
 6049TIP3    H239563   4.479   6.067  14.930  0.0171 -0.0200 -0.3036
 6050TIP3   OH239564   5.195   6.740   4.206  0.5266  0.6127  0.3510
 6050TIP3    H139565   5.153   6.656   4.226 -0.2971  1.1575  0.9696
 6050TIP3    H239566   5.268   6.717   4.149 -0.3317 -0.4195 -0.3797
 6051TIP3   OH239567   5.584   0.725  13.735 -0.4139 -0.5967  0.0123
 6051TIP3    H139568   5.501   0.683  13.754  0.5568 -2.1085  1.1633
 6051TIP3    H239569   5.648   0.678  13.790  0.8666  1.9098  0.8099
 6052TIP3   OH239570   1.757   2.763  14.662 -0.0725  0.3021  0.2195
 6052TIP3    H139571   1.839   2.762  14.710 -0.2868  2.6484  0.7433
 6052TIP3    H239572   1.763   2.688  14.603  2.4867  0.4589  0.1613
 6053TIP3   OH239573   1.403   4.780  15.540 -0.1114  0.4151  0.3131
 6053TIP3    H139574   1.493   4.787  15.510  0.4833 -0.4546  1.8342
 6053TIP3    H239575   1.381   4.688  15.528 -1.1541  0.7787 -0.9214
 6054TIP3   OH239576   6.008   3.069   0.460 -0.1730 -0.1781 -0.3375
 6054TIP3    H139577   5.944   2.998   0.459 -0.7666  0.0989  3.2487
 6054TIP3    H239578   5.965   3.139   0.509  1.8816  1.0843 -0.2094
 6055TIP3   OH239579   0.004   5.627   3.582  0.0604 -0.0131 -0.1597
 6055TIP3    H139580   0.012   5.547   3.530  0.8372 -0.3405  0.4378
 6055TIP3    H239581  -0.076   5.616   3.633 -0.4873  0.1335 -0.9771
 6056TIP3   OH239582   1.473   1.861   0.792 -0.1145 -0.1649  0.2235
 6056TIP3    H139583   1.395   1.888   0.840  0.1154  1.2850 -0.1535
 6056TIP3    H239584   1.537   1.930   0.808  0.8308 -0.9298 -0.1137
 6057TIP3   OH239585   3.071   5.397  15.011  0.1160 -0.1452 -0.1195
 6057TIP3    H139586   3.076   5.303  14.993 -1.0528 -0.5614  1.5105
 6057TIP3    H239587   3.119   5.438  14.939  0.7080 -1.9874 -0.8224
 6058TIP3   OH239588   3.716   0.511  11.291 -0.3630 -0.4041  0.1576
 6058TIP3    H139589   3.629   0.502  11.329 -0.7364  1.6610 -0.1221
 6058TIP3    H239590   3.700   0.538  11.201  0.5616  0.0963  0.1320
 6059TIP3   OH239591   3.911   1.402  11.578  0.1806 -0.3855 -0.1648
 6059TIP3    H139592   3.849   1.446  11.520 -0.0236 -1.4927 -0.8251
 6059TIP3    H239593   3.864   1.324  11.608  0.6137 -0.2896  0.7771
 6060TIP3   OH239594   2.726   4.092  13.109  0.6846 -0.3891  0.1757
 6060TIP3    H139595   2.648   4.131  13.147  0.5755 -0.8226  0.4106
 6060TIP3    H239596   2.775   4.059  13.184  0.1314 -1.8790 -0.0767
 6061TIP3   OH239597   4.953   0.701  15.465 -0.0433 -0.2532 -0.0377
 6061TIP3    H139598   4.894   0.635  15.501 -1.9221  1.4104  0.1273
 6061TIP3    H239599   4.947   0.691  15.370  0.5499 -1.0171 -0.0008
 6062TIP3   OH239600   2.618   0.040  13.034  0.4388 -0.6287  0.1724
 6062TIP3    H139601   2.558   0.019  12.963  0.0888  0.1914  0.2093
 6062TIP3    H239602   2.671  -0.039  13.046  1.1087 -0.4853 -1.5976
 6063TIP3   OH239603   2.887   6.283  14.123 -0.1835  0.1629 -0.0014
 6063TIP3    H139604   2.953   6.293  14.191  0.7657 -2.1651 -0.5002
 6063TIP3    H239605   2.925   6.328  14.047  0.7742 -0.9305 -0.2090
 6064TIP3   OH239606   0.819   6.761  15.372 -0.5472  0.3032 -0.3809
 6064TIP3    H139607   0.822   6.671  15.404 -0.0326  0.8473  1.2029
 6064TIP3    H239608   0.781   6.754  15.284  1.4832 -1.6705 -1.1931
 6065TIP3   OH239609   2.599   0.591   3.683 -0.5842  0.3391 -0.0588
 6065TIP3    H139610   2.520   0.554   3.644 -1.2200  1.9129 -0.3289
 6065TIP3    H239611   2.573   0.678   3.712  0.5601  0.1892  1.5829
 6066TIP3   OH239612   2.562   5.973   5.797  0.1008 -0.4872 -0.3458
 6066TIP3    H139613   2.592   5.884   5.784  0.0826 -0.5331 -0.0842
 6066TIP3    H239614   2.537   5.977   5.890 -2.3155 -0.9552 -0.8960
 6067TIP3   OH239615   6.069   4.626   5.305 -0.0096  0.0525  0.0954
 6067TIP3    H139616   6.122   4.586   5.235  1.7339  0.2703  1.2401
 6067TIP3    H239617   5.979   4.613   5.276  0.5604 -2.4003 -0.8258
 6068TIP3   OH239618   4.143   6.501  12.282 -0.4614  0.7877  0.0912
 6068TIP3    H139619   4.199   6.486  12.206 -1.3334  0.1242 -0.4354
 6068TIP3    H239620   4.194   6.561  12.337  1.1205 -0.4203  0.0249
 6069TIP3   OH239621   3.579   0.255  16.757  0.3401 -0.4635  0.3686
 6069TIP3    H139622   3.530   0.240  16.838  0.3084 -2.1415  0.0823
 6069TIP3    H239623   3.628   0.173  16.744  0.8701  0.0387 -0.9456
 6070TIP3   OH239624   1.006   1.916   4.014  0.1985  0.4533  0.1498
 6070TIP3    H139625   0.933   1.917   4.075  0.5394  3.1413  0.6138
 6070TIP3    H239626   1.078   1.958   4.061  1.3646 -0.0229 -1.1134
 6071TIP3   OH239627   1.142   6.542  13.745 -0.3926  0.0521  0.6284
 6071TIP3    H139628   1.180   6.615  13.793  1.4302  0.0342 -0.6716
 6071TIP3    H239629   1.055   6.572  13.719  0.0991  1.5387  0.6295
 6072TIP3   OH239630   5.845   6.354  14.997 -0.3326  0.3703  0.4057
 6072TIP3    H139631   5.766   6.403  15.020 -0.0342  0.8830  0.3626
 6072TIP3    H239632   5.914   6.395  15.050 -0.0862 -0.0299  0.3947
 6073TIP3   OH239633   4.448   5.104  14.009 -0.5268 -0.4519 -0.3919
 6073TIP3    H139634   4.526   5.159  14.021  1.5634 -2.5917 -2.9002
 6073TIP3    H239635   4.459   5.034  14.072 -1.6151  0.3712  0.7407
 6074TIP3   OH239636   5.900   4.636  11.480 -0.3147  0.5929 -0.7058
 6074TIP3    H139637   5.826   4.671  11.528  0.8973 -0.0597  1.8596
 6074TIP3    H239638   5.929   4.707  11.424 -0.1970  2.4889  1.5809
 6075TIP3   OH239639   0.683   6.285   1.249 -0.0538  0.2148 -0.0145
 6075TIP3    H139640   0.674   6.299   1.343  1.4024  0.1217  0.1523
 6075TIP3    H239641   0.742   6.354   1.219  0.0522 -0.1743 -0.7433
 6076TIP3   OH239642   6.302   6.031   0.366  0.2946 -0.1091  0.2887
 6076TIP3    H139643   6.334   5.983   0.290 -0.6714 -0.1809 -0.0824
 6076TIP3    H239644   6.281   5.962   0.430 -2.4304 -0.3639 -0.7458
 6077TIP3   OH239645   2.286   4.967   3.892  0.4616 -0.7229 -0.0912
 6077TIP3    H139646   2.317   4.890   3.938  2.5026 -0.4976 -0.9954
 6077TIP3    H239647   2.328   5.041   3.936 -1.4338 -0.0852  0.7391
 6078TIP3   OH239648   1.108   4.221   5.457 -0.3916  0.3499 -0.0591
 6078TIP3    H139649   1.056   4.213   5.536  0.9691 -2.3736  0.6962
 6078TIP3    H239650   1.194   4.249   5.487 -1.0872  4.2904 -1.2295
 6079TIP3   OH239651   3.508   2.569  12.861  0.3609  0.1905  0.0208
 6079TIP3    H139652   3.519   2.518  12.941 -0.3521  1.5433  1.0205
 6079TIP3    H239653   3.580   2.632  12.863  1.5831 -1.0670 -1.4997
 6080TIP3   OH239654   5.188   5.212  12.050  0.4705 -0.9716  0.2090
 6080TIP3    H139655   5.256   5.188  11.986  0.3675 -2.4800  0.6203
 6080TIP3    H239656   5.203   5.304  12.068  1.0334 -0.7279 -1.3629
 6081TIP3   OH239657   5.585   2.554  13.461  0.3683  0.3871  0.0986
 6081TIP3    H139658   5.628   2.621  13.406  0.1946 -0.2744 -0.8701
 6081TIP3    H239659   5.657   2.511  13.506  0.9616 -1.5374 -2.4362
 6082TIP3   OH239660   0.343   2.977   0.519 -0.0326 -0.5090 -0.3730
 6082TIP3    H139661   0.291   3.057   0.530  1.2527  0.1210  1.7478
 6082TIP3    H239662   0.318   2.922   0.593  1.4016 -0.6723  0.0213
 6083TIP3   OH239663   1.178   5.737  15.794 -0.4689 -0.1790  0.2305
 6083TIP3    H139664   1.262   5.746  15.837  0.0228 -0.0385 -0.7276
 6083TIP3    H239665   1.113   5.757  15.862  0.3059  1.4249  0.5517
 6084TIP3   OH239666   3.660   5.017  17.063 -0.4447  0.1706  0.4771
 6084TIP3    H139667   3.686   4.925  17.055 -0.9372  0.0649  0.0376
 6084TIP3    H239668   3.564   5.014  17.069 -0.4329  0.6254  0.9721
 6085TIP3   OH239669   0.499   3.963   1.899 -0.0150 -0.3108 -0.4453
 6085TIP3    H139670   0.430   3.942   1.962  0.0443  0.1109 -0.2322
 6085TIP3    H239671   0.469   3.925   1.817 -2.1991  2.6861 -1.2352
 6086TIP3   OH239672   5.645   4.918  13.184  0.3147 -0.4820  0.3621
 6086TIP3    H139673   5.712   4.851  13.171 -1.1204 -1.9568  0.2006
 6086TIP3    H239674   5.610   4.934  13.096  0.6664  0.5203  0.3969
 6087TIP3   OH239675   2.984   2.162  14.921  0.0422  0.2382 -0.4534
 6087TIP3    H139676   3.076   2.188  14.927 -0.2485  0.9849  1.2775
 6087TIP3    H239677   2.949   2.214  14.849  0.3730  1.9133  0.5530
 6088TIP3   OH239678   5.160   2.277  11.882 -0.5069 -0.0386  0.2719
 6088TIP3    H139679   5.137   2.365  11.911  0.5588  0.1441  0.6145
 6088TIP3    H239680   5.139   2.221  11.956  1.0000  0.2587  0.9661
 6089TIP3   OH239681   1.165   1.297  14.166 -0.2008 -0.0593 -0.8375
 6089TIP3    H139682   1.158   1.270  14.257  0.9586  0.0562 -0.7024
 6089TIP3    H239683   1.177   1.392  14.171  0.4074 -0.1203 -1.0753
 6090TIP3   OH239684   4.757   0.943  17.090  0.2791 -0.0941 -0.1955
 6090TIP3    H139685   4.812   0.991  17.151 -1.3040  2.0962 -0.3600
 6090TIP3    H239686   4.797   0.959  17.004  0.9064 -0.8125 -0.0453
 6091TIP3   OH239687   5.443   3.679   4.101  0.0500 -0.4380  0.1405
 6091TIP3    H139688   5.491   3.751   4.142 -0.0465 -0.1694 -0.2102
 6091TIP3    H239689   5.484   3.600   4.135  0.0971 -0.2167  0.6034
 6092TIP3   OH239690   5.579   2.244   3.522 -0.0478 -0.2078 -0.0043
 6092TIP3    H139691   5.657   2.241   3.466  1.2260  0.1922  1.6581
 6092TIP3    H239692   5.576   2.157   3.563  1.0284  0.5418  1.7970
 6093TIP3   OH239693   5.041   4.234  13.097 -0.0891  0.4698  0.0167
 6093TIP3    H139694   4.969   4.207  13.040  0.1169 -0.0111 -0.0179
 6093TIP3    H239695   5.112   4.173  13.077  0.3075  0.8981  0.1013
 6094TIP3   OH239696   5.084   5.257   1.451 -0.2356 -0.5420 -0.1737
 6094TIP3    H139697   5.000   5.269   1.406 -0.2986  0.1010  0.0987
 6094TIP3    H239698   5.060   5.224   1.538 -0.1423 -1.3268 -0.4425
 6095TIP3   OH239699   5.505   2.191  14.677  0.2548  0.2700  0.5339
 6095TIP3    H139700   5.446   2.232  14.740 -1.8132 -0.3808 -0.8583
 6095TIP3    H239701   5.521   2.259  14.611 -1.3541 -0.3933 -0.5990
 6096TIP3   OH239702   5.546   3.287  14.149  0.0503 -0.1705 -0.2856
 6096TIP3    H139703   5.474   3.244  14.103 -1.0947  0.3639  0.9253
 6096TIP3    H239704   5.542   3.378  14.120  1.6808 -0.5557 -1.8948
 6097TIP3   OH239705   6.191   4.934   1.027 -0.2343 -0.0832 -0.4487
 6097TIP3    H139706   6.222   5.010   1.076  0.1770 -0.3793 -0.2322
 6097TIP3    H239707   6.099   4.951   1.010 -0.0946  0.5525 -0.5748
 6098TIP3   OH239708   0.955   1.821  14.951 -0.0695  0.0694  0.1569
 6098TIP3    H139709   0.977   1.730  14.969  0.9881  0.4268  0.7825
 6098TIP3    H239710   0.935   1.822  14.857 -2.1157 -1.1506  0.5210
 6099TIP3   OH239711   0.875   0.825  14.033 -0.0725  0.3550 -0.4163
 6099TIP3    H139712   0.917   0.909  14.051 -0.6126  0.6112 -0.3326
 6099TIP3    H239713   0.782   0.842  14.044 -0.2625  0.0024 -1.4237
 6100TIP3   OH239714   0.124   1.625   0.021  0.0989 -0.1853 -0.6317
 6100TIP3    H139715   0.140   1.719   0.026  1.7314 -0.4598 -0.2721
 6100TIP3    H239716   0.030   1.618   0.005 -0.7053  1.4733  2.4394
 6101TIP3   OH239717   1.822   0.621  16.656 -0.3277  0.2139  0.5020
 6101TIP3    H139718   1.830   0.559  16.729  0.6722 -1.1890 -0.7366
 6101TIP3    H239719   1.911   0.629  16.622 -0.5641  1.8105  0.1736
 6102TIP3   OH239720   5.724   5.610  13.080  0.6596  0.7745 -0.2928
 6102TIP3    H139721   5.658   5.594  13.013  1.4419 -0.1206 -0.8678
 6102TIP3    H239722   5.803   5.635  13.032  2.1140 -2.7471 -0.0152
 6103TIP3   OH239723   5.399   2.992  12.257  0.7606 -0.3116  0.2814
 6103TIP3    H139724   5.446   3.063  12.301  2.2711 -0.5558 -0.8442
 6103TIP3    H239725   5.465   2.951  12.202 -1.0053 -0.0455 -2.2046
 6104TIP3   OH239726   5.616   1.319  12.454  0.0264 -0.3824 -0.1271
 6104TIP3    H139727   5.559   1.394  12.439  1.3490  0.9602  1.1968
 6104TIP3    H239728   5.645   1.293  12.367  1.4235  2.2306 -0.5371
 6105TIP3   OH239729   6.072   3.743   4.023  0.1520 -0.7206 -0.6548
 6105TIP3    H139730   6.053   3.805   3.952 -1.8996  0.7118  1.0127
 6105TIP3    H239731   6.108   3.797   4.093 -1.4878 -1.3871  0.7744
 6106TIP3   OH239732   5.459   1.853   2.393 -0.2092  0.0550  0.0848
 6106TIP3    H139733   5.537   1.892   2.433 -0.2006  0.7262 -0.5497
 6106TIP3    H239734   5.493   1.802   2.319 -0.2865 -0.5346  0.4521
 6107TIP3   OH239735   5.405   3.802   0.247  0.1399  0.4270  0.4752
 6107TIP3    H139736   5.471   3.751   0.199 -0.3709  1.4623 -1.4271
 6107TIP3    H239737   5.457   3.865   0.298  0.6901 -0.1533  0.6407
 6108TIP3   OH239738   0.212   4.400  15.692  0.1187 -0.3908 -0.0153
 6108TIP3    H139739   0.135   4.387  15.636 -0.3033  1.1460  0.1641
 6108TIP3    H239740   0.230   4.494  15.686  2.2562 -0.7759 -0.4031
 6109TIP3   OH239741   3.151   1.588  10.774  0.1395  0.7560 -0.3051
 6109TIP3    H139742   3.066   1.568  10.813  0.3926  0.0147 -0.1252
 6109TIP3    H239743   3.148   1.682  10.757 -0.1787  1.0177  1.0371
 6110TIP3   OH239744   4.989   5.010   3.346  0.5105  0.1638 -0.0506
 6110TIP3    H139745   4.995   5.105   3.348  1.2151  0.1173  1.4204
 6110TIP3    H239746   5.078   4.981   3.323  0.5687 -0.1395  0.5201
 6111TIP3   OH239747   2.214   2.692  12.827  0.5064  0.4794 -0.1649
 6111TIP3    H139748   2.129   2.685  12.784  0.4710  1.2439 -0.2325
 6111TIP3    H239749   2.237   2.602  12.850  0.4324  0.0647 -1.6183
 6112TIP3   OH239750   5.030   1.747  14.335  0.3367 -0.0658  0.5273
 6112TIP3    H139751   4.999   1.830  14.371  0.6556  0.2154  0.1722
 6112TIP3    H239752   5.116   1.735  14.373  0.0841 -0.4922  0.9685
 6113TIP3   OH239753   3.922   3.090   5.300 -0.1389 -0.2254  0.1701
 6113TIP3    H139754   3.887   3.179   5.308 -0.8444 -0.4636 -0.2229
 6113TIP3    H239755   3.984   3.083   5.373 -0.1170  0.5665  0.2413
 6114TIP3   OH239756   0.695   5.079  15.028 -0.0062  0.3880  0.0784
 6114TIP3    H139757   0.753   5.083  15.104 -1.2761  1.1472  1.0475
 6114TIP3    H239758   0.733   5.011  14.973 -0.0040 -1.4627  2.2224
 6115TIP3   OH239759   0.079   0.416   4.851 -0.3705 -0.0134  0.3810
 6115TIP3    H139760   0.100   0.507   4.874  1.3131 -0.2754 -0.0187
 6115TIP3    H239761   0.016   0.389   4.917  0.0003  1.0769  1.2175
 6116TIP3   OH239762   5.223   4.700  13.045 -0.2703  0.0506 -0.0084
 6116TIP3    H139763   5.171   4.641  13.100  0.1499 -0.4512 -0.1422
 6116TIP3    H239764   5.159   4.763  13.011 -0.9694 -1.0909 -0.8770
 6117TIP3   OH239765   6.046   6.658  14.373  0.4286 -0.0551 -0.2217
 6117TIP3    H139766   5.990   6.685  14.446 -0.1599  1.8921 -1.3261
 6117TIP3    H239767   6.115   6.606  14.414 -0.4313  0.1399  1.5806
 6118TIP3   OH239768   0.126   0.868  14.839 -0.5413  0.1219  0.5726
 6118TIP3    H139769   0.032   0.872  14.818 -1.1946 -1.3203  2.8417
 6118TIP3    H239770   0.163   0.946  14.799 -2.9700  1.4362  0.7035
 6119TIP3   OH239771   5.385   3.409   5.395  0.0103  0.6528  0.7121
 6119TIP3    H139772   5.478   3.388   5.391 -0.5937 -2.3411 -0.0276
 6119TIP3    H239773   5.348   3.343   5.453 -2.1245 -0.6327 -1.8676
 6120TIP3   OH239774   6.741   6.616   0.027  0.2191 -0.2844 -0.1317
 6120TIP3    H139775   6.746   6.675  -0.048 -0.5391  0.0583  0.0702
 6120TIP3    H239776   6.744   6.528  -0.011 -1.6413 -0.1416 -0.7360
 6121TIP3   OH239777   3.999   2.054  11.352 -0.0647  0.4826 -0.0720
 6121TIP3    H139778   3.922   2.082  11.303 -0.0185  0.3506 -0.2193
 6121TIP3    H239779   3.965   1.998  11.422 -0.1533  0.8540  0.1893
 6122TIP3   OH239780   0.725   2.388  12.536  0.6353  0.4390  0.5852
 6122TIP3    H139781   0.676   2.308  12.555  0.4235  0.3350 -0.3503
 6122TIP3    H239782   0.737   2.387  12.441 -0.1709  1.9691  0.4258
 6123TIP3   OH239783   6.002   2.621  15.496  0.4287 -0.1179 -0.2553
 6123TIP3    H139784   5.976   2.531  15.517  0.3400  0.0974  0.5732
 6123TIP3    H239785   5.925   2.658  15.453 -0.8579  0.6209  2.4779
 6124TIP3   OH239786   3.917   5.772   4.211 -0.6919 -0.4855  0.5182
 6124TIP3    H139787   3.975   5.771   4.287 -0.3896 -0.8396  0.2827
 6124TIP3    H239788   3.835   5.735   4.244 -1.4119  1.6819  1.3333
 6125TIP3   OH239789   3.628   4.367   0.130  0.3142 -0.2843  0.1011
 6125TIP3    H139790   3.707   4.323   0.100 -0.4773 -1.1568 -0.7434
 6125TIP3    H239791   3.654   4.410   0.211  2.7458  2.7049 -2.0061
 6126TIP3   OH239792   3.496   1.154   2.705  0.4859  0.0061  0.2014
 6126TIP3    H139793   3.449   1.084   2.660 -2.0401  0.7170  1.5398
 6126TIP3    H239794   3.572   1.111   2.742  0.6406 -1.3557 -1.5432
 6127TIP3   OH239795   0.081   4.945  15.129  0.4046 -0.5726  0.1546
 6127TIP3    H139796  -0.002   4.979  15.096 -0.3221 -1.8675  0.5875
 6127TIP3    H239797   0.121   4.901  15.054  1.5666  1.5504 -0.5336
 6128TIP3   OH239798   0.344   4.711   5.541 -0.3092 -0.7226  0.4470
 6128TIP3    H139799   0.299   4.668   5.614 -0.4807 -0.0483  0.7458
 6128TIP3    H239800   0.382   4.639   5.491 -0.6164 -1.2246  0.9198
 6129TIP3   OH239801   2.345   6.120  14.422  0.0076 -0.3148 -0.5333
 6129TIP3    H139802   2.353   6.076  14.338  1.7201  1.1510 -1.1912
 6129TIP3    H239803   2.395   6.065  14.483 -1.6420 -1.6421 -0.2882
 6130TIP3   OH239804   3.644   4.926   5.471 -0.2441 -0.2424 -0.1246
 6130TIP3    H139805   3.605   4.849   5.513  1.0447 -0.6149  0.4240
 6130TIP3    H239806   3.631   4.911   5.377 -0.4014 -0.9078 -0.0017
 6131TIP3   OH239807   5.779   1.007  14.169  0.5514  0.6918  0.6866
 6131TIP3    H139808   5.712   1.072  14.145  2.0544  2.1897  0.2945
 6131TIP3    H239809   5.747   0.968  14.250 -0.5309  1.7679  0.8113
 6132TIP3   OH239810   6.044   6.443  13.905 -0.6611 -0.0242 -0.5513
 6132TIP3    H139811   6.035   6.350  13.923 -3.4858  0.4133  0.9038
 6132TIP3    H239812   6.138   6.459  13.901 -0.1004 -2.6393  0.6932
 6133TIP3   OH239813   0.642   2.063  12.860  0.0531 -0.2449  0.1718
 6133TIP3    H139814   0.598   2.020  12.786 -0.1955  1.7569 -0.9254
 6133TIP3    H239815   0.632   2.157  12.842  2.5548  0.2969  1.2513
 6134TIP3   OH239816   3.070   1.586  15.784  0.0308 -0.1057 -0.2714
 6134TIP3    H139817   3.003   1.638  15.828  1.0260  0.1704  0.9719
 6134TIP3    H239818   3.153   1.626  15.811  0.7162 -0.1949 -2.0733
 6135TIP3   OH239819   4.313   6.664  16.191  0.1771  0.6026 -0.6193
 6135TIP3    H139820   4.331   6.720  16.267  0.4341 -0.6234  0.2757
 6135TIP3    H239821   4.253   6.598  16.225  0.3465 -0.0015 -1.4738
 6136TIP3   OH239822   5.722   2.749  14.048 -0.5395  0.2389 -0.1943
 6136TIP3    H139823   5.674   2.675  14.011 -0.2941  0.7977 -1.6664
 6136TIP3    H239824   5.808   2.745  14.006 -0.0541  0.5815  0.7287
 6137TIP3   OH239825   1.576   5.304  13.896  0.3215  0.1688  0.3150
 6137TIP3    H139826   1.503   5.243  13.892 -1.6306  2.1698  2.4195
 6137TIP3    H239827   1.579   5.344  13.809 -1.9135  0.8550  0.4931
 6138TIP3   OH239828   5.983   3.772  14.579  0.0807  0.1523 -0.0855
 6138TIP3    H139829   5.959   3.829  14.651  0.6688  0.1856  0.0917
 6138TIP3    H239830   6.022   3.695  14.620  0.4376  0.1787 -0.3677
 6139TIP3   OH239831   5.925   1.540   4.037  0.2802  0.4374  0.3552
 6139TIP3    H139832   6.009   1.511   4.004 -0.5686  0.7699 -2.3438
 6139TIP3    H239833   5.913   1.627   4.000 -1.3429  0.3143  0.5038
 6140TIP3   OH239834   6.140   4.282  16.086  0.1750 -0.4408 -0.2804
 6140TIP3    H139835   6.089   4.346  16.135 -0.0562 -0.7080 -0.1667
 6140TIP3    H239836   6.231   4.307  16.100  0.0639  0.4091 -0.9879
 6141TIP3   OH239837   1.992   3.857   1.218 -0.2871 -0.3964  0.2627
 6141TIP3    H139838   1.977   3.784   1.158  0.8922 -1.7788  1.5709
 6141TIP3    H239839   1.920   3.853   1.281  0.7362 -1.6225  1.4116
 6142TIP3   OH239840   0.832   0.967   4.413 -0.1133 -0.2710 -0.1837
 6142TIP3    H139841   0.910   0.948   4.465 -0.1765  0.2905  0.1282
 6142TIP3    H239842   0.824   1.063   4.418  0.0887 -0.1649 -1.5164
 6143TIP3   OH239843   2.874   1.175  12.800  0.0662 -0.2317 -0.4031
 6143TIP3    H139844   2.826   1.249  12.839  1.2915  1.2708 -1.6185
 6143TIP3    H239845   2.807   1.127  12.751 -0.2755  1.9466 -2.2616
 6144TIP3   OH239846   6.450   5.027   1.382  0.3751 -0.4748  0.1758
 6144TIP3    H139847   6.406   5.008   1.465 -0.3806  1.8710  0.3897
 6144TIP3    H239848   6.506   5.102   1.401  0.0803  0.2010 -1.4533
 6145TIP3   OH239849   2.289   0.351   3.049 -0.3753  0.1579  0.6452
 6145TIP3    H139850   2.355   0.406   3.008 -0.3979  0.4617  1.0151
 6145TIP3    H239851   2.293   0.268   3.001 -0.0215  0.3220  0.3931
 6146TIP3   OH239852   2.099   4.473   6.098 -0.1501 -0.2668 -0.1371
 6146TIP3    H139853   2.045   4.535   6.049  0.4108  0.7893  0.5391
 6146TIP3    H239854   2.036   4.413   6.139 -0.9797  1.8070  1.8290
 6147TIP3   OH239855   5.589   1.759   2.155 -0.2439 -0.2628 -0.1559
 6147TIP3    H139856   5.657   1.749   2.221  2.4314 -0.5244 -2.7381
 6147TIP3    H239857   5.630   1.729   2.073 -4.3934 -3.1726 -1.4810
 6148TIP3   OH239858   3.085   3.892   0.206  0.3496 -0.5586  0.3495
 6148TIP3    H139859   3.044   3.836   0.141  2.5957 -1.0852 -0.7078
 6148TIP3    H239860   3.065   3.850   0.290  1.1394 -2.4205 -0.3437
 6149TIP3   OH239861   2.940   2.357   1.607  0.2646  0.5050  0.3561
 6149TIP3    H139862   2.942   2.447   1.575 -0.0729  0.8485  1.2587
 6149TIP3    H239863   2.923   2.366   1.701 -0.6521 -0.5272  0.3048
 6150TIP3   OH239864   5.144   5.244  11.024 -0.6915  0.0337  0.9293
 6150TIP3    H139865   5.236   5.255  11.001 -0.2622  0.3787  2.6597
 6150TIP3    H239866   5.128   5.150  11.017 -0.7052  0.1530 -1.0432
 6151TIP3   OH239867   6.771   2.254  16.999 -0.1509  0.6497 -0.5645
 6151TIP3    H139868   6.728   2.276  16.917  0.0429 -1.6758 -1.3695
 6151TIP3    H239869   6.701   2.258  17.064 -0.8255  0.2555 -1.2536
 6152TIP3   OH239870   5.094   1.779  14.065  0.5841 -0.4196  0.0205
 6152TIP3    H139871   5.190   1.781  14.066  0.5792 -0.4008  1.2369
 6152TIP3    H239872   5.069   1.768  14.156 -0.5973  0.8402 -0.1127
 6153TIP3   OH239873   0.668   2.129  11.158  0.1296  0.0158 -0.5668
 6153TIP3    H139874   0.725   2.052  11.155  0.3825  0.2140 -0.9749
 6153TIP3    H239875   0.609   2.118  11.083 -0.6446 -0.3958  0.0955
 6154TIP3   OH239876   2.225   3.772   3.887  0.4049  0.3003  0.3742
 6154TIP3    H139877   2.207   3.750   3.979 -0.7094  0.3961  0.1896
 6154TIP3    H239878   2.229   3.688   3.842 -0.7971  0.3080  0.2146
 6155TIP3   OH239879   0.589   1.527   2.150  0.1183 -1.0374 -0.4556
 6155TIP3    H139880   0.559   1.610   2.113  0.8854 -0.2170  0.6829
 6155TIP3    H239881   0.509   1.485   2.183 -0.0487  0.2624  0.8890
 6156TIP3   OH239882   6.651   6.149  15.625 -0.0461  0.0515  0.4016
 6156TIP3    H139883   6.742   6.173  15.641  0.1778 -1.0528  0.8892
 6156TIP3    H239884   6.622   6.109  15.707 -0.5100 -0.9276 -0.2199
 6157TIP3   OH239885   1.900   5.124   0.462 -0.3322 -0.2087  0.0157
 6157TIP3    H139886   1.833   5.184   0.495  0.4575  0.1087  1.1148
 6157TIP3    H239887   1.855   5.070   0.397 -0.7748  2.3605 -1.9384
 6158TIP3   OH239888   0.951   6.284   5.440 -0.2589 -0.3319 -0.0466
 6158TIP3    H139889   0.961   6.197   5.401  1.2721 -0.4783  0.6025
 6158TIP3    H239890   1.011   6.340   5.391 -1.4710  0.4731 -0.6784
 6159TIP3   OH239891   4.964   4.418  15.714 -0.7167 -0.0067  0.5124
 6159TIP3    H139892   5.004   4.444  15.797 -1.9693  0.1781  1.0770
 6159TIP3    H239893   4.933   4.329  15.728  0.3278 -0.5057 -0.2368
 6160TIP3   OH239894   0.282   0.932   2.567  0.3520  0.3086  0.1162
 6160TIP3    H139895   0.289   0.838   2.581  2.2721  0.6326  1.8650
 6160TIP3    H239896   0.261   0.942   2.474 -0.9472 -1.8404  0.1295
 6161TIP3   OH239897   5.139   0.044  15.124 -0.0806 -0.5497 -0.1657
 6161TIP3    H139898   5.074  -0.017  15.089 -0.7648 -0.2756  0.5938
 6161TIP3    H239899   5.116   0.052  15.217  0.2962  0.4982 -0.1539
 6162TIP3   OH239900   3.064   5.841   2.591 -0.7498 -0.1798  0.0984
 6162TIP3    H139901   3.014   5.847   2.672 -0.6766  1.7900  0.0411
 6162TIP3    H239902   3.153   5.863   2.616 -0.3066 -1.5892 -0.1776
 6163TIP3   OH239903   1.501   4.714   3.175  0.0618 -0.3814  0.3571
 6163TIP3    H139904   1.506   4.808   3.155  2.1016 -0.0392  2.1678
 6163TIP3    H239905   1.433   4.707   3.242 -0.7924 -0.3871 -0.4756
 6164TIP3   OH239906   5.241   0.019  11.182 -0.5010 -0.2830  0.1227
 6164TIP3    H139907   5.158  -0.019  11.212 -0.0470 -1.7672 -0.4199
 6164TIP3    H239908   5.305  -0.010  11.247 -0.4579  1.1987  0.7649
 6165TIP3   OH239909   3.739   4.581   4.388 -0.4940  0.1972  0.5156
 6165TIP3    H139910   3.804   4.512   4.396  0.2890  0.8146 -0.2840
 6165TIP3    H239911   3.787   4.662   4.407 -0.9398  0.6928 -0.3837
 6166TIP3   OH239912   0.650   3.465   5.773 -0.0993  0.1790 -0.2022
 6166TIP3    H139913   0.562   3.428   5.783  0.2255 -0.5712 -0.0087
 6166TIP3    H239914   0.684   3.424   5.694  1.2803 -2.0997  1.4540
 6167TIP3   OH239915   0.207   5.266  15.802  0.4543  0.2977 -0.8672
 6167TIP3    H139916   0.227   5.185  15.753 -1.4729 -0.5154 -0.4093
 6167TIP3    H239917   0.112   5.269  15.804  0.5006  1.9974  0.1543
 6168TIP3   OH239918   0.539   2.029   0.033  0.6806 -0.1675 -0.2483
 6168TIP3    H139919   0.463   1.977   0.007  0.0128  0.0054  1.2229
 6168TIP3    H239920   0.613   1.990  -0.013  0.1597 -2.2380  0.5573
 6169TIP3   OH239921   2.241   2.702  13.836 -0.2951 -0.1131 -0.1227
 6169TIP3    H139922   2.306   2.699  13.907 -0.9733  1.4892  0.6132
 6169TIP3    H239923   2.293   2.709  13.756  0.4593 -0.8646  0.2770
 6170TIP3   OH239924   5.328   2.290  15.330  0.4438  0.3324  0.2373
 6170TIP3    H139925   5.248   2.274  15.279 -0.2758  1.0985  1.0973
 6170TIP3    H239926   5.305   2.263  15.419  0.7388  1.6861  0.7379
 6171TIP3   OH239927   4.509   3.472   6.303 -0.9494 -0.4867  0.0900
 6171TIP3    H139928   4.549   3.558   6.300 -1.8964 -0.0498 -1.2104
 6171TIP3    H239929   4.559   3.423   6.368  1.6842  0.0175 -1.4352
 6172TIP3   OH239930   3.260   6.161   5.542 -0.3937 -0.0366 -0.2349
 6172TIP3    H139931   3.191   6.208   5.588 -2.0024 -1.4080 -1.1416
 6172TIP3    H239932   3.285   6.219   5.470  0.2675  0.9733  0.7889
 6173TIP3   OH239933   2.803   0.991   1.399  0.0075 -0.1845  0.1884
 6173TIP3    H139934   2.755   1.018   1.478  1.7222  0.6146  1.0155
 6173TIP3    H239935   2.831   0.902   1.418 -0.0336 -0.1831  0.2585
 6174TIP3   OH239936   5.764   4.000  13.871 -0.6750  0.1233 -0.7599
 6174TIP3    H139937   5.858   4.008  13.854 -0.3466  0.6835  1.1530
 6174TIP3    H239938   5.728   4.085  13.848 -0.3986  0.5321  0.2797
 6175TIP3   OH239939   2.519   5.816   2.089  0.6952  0.2366  0.1524
 6175TIP3    H139940   2.465   5.892   2.112 -0.2855 -0.8579  1.5977
 6175TIP3    H239941   2.486   5.787   2.005 -0.5385 -0.0178  0.7118
 6176TIP3   OH239942   6.192   5.860  15.672 -0.1717  0.6108 -0.3054
 6176TIP3    H139943   6.246   5.887  15.747  0.3355  2.3315 -1.2183
 6176TIP3    H239944   6.249   5.802  15.621  0.2394  1.0811 -0.3945
 6177TIP3   OH239945   6.368   2.319   2.677 -0.2867 -0.1481  1.3029
 6177TIP3    H139946   6.287   2.284   2.638 -1.1138  1.4253  1.5176
 6177TIP3    H239947   6.436   2.260   2.647 -0.9844  0.4696 -1.8798
 6178TIP3   OH239948   2.764   4.709  16.739  0.2049 -0.1239 -0.6432
 6178TIP3    H139949   2.859   4.698  16.733  0.5227  1.6437  0.4990
 6178TIP3    H239950   2.749   4.748  16.825 -1.4704  0.4436 -1.1402
 6179TIP3   OH239951   3.300   2.198   1.771 -0.5667 -0.8459 -0.2931
 6179TIP3    H139952   3.301   2.293   1.780 -0.0288 -0.8901  0.2078
 6179TIP3    H239953   3.235   2.168   1.835 -0.0971 -0.8641  0.1858
 6180TIP3   OH239954   5.528   0.754  12.199 -0.8449 -0.1597  0.0926
 6180TIP3    H139955   5.440   0.787  12.179  0.2087  1.7844 -1.6271
 6180TIP3    H239956   5.558   0.715  12.117  0.7790  1.3784 -0.1008
 6181TIP3   OH239957   1.630   5.516  10.652  0.3570  0.6990  0.0763
 6181TIP3    H139958   1.601   5.461  10.580 -0.6332  1.6891 -0.3089
 6181TIP3    H239959   1.632   5.458  10.728  1.1902 -0.2978 -0.6791
 6182TIP3   OH239960   0.067   0.838  16.813 -0.3176  0.7357  0.1642
 6182TIP3    H139961   0.038   0.800  16.896 -1.0594 -2.0077 -1.2151
 6182TIP3    H239962   0.152   0.797  16.797  0.3460  2.1057  0.0666
 6183TIP3   OH239963   4.587   3.245  10.904 -0.1831  0.5821  0.0644
 6183TIP3    H139964   4.680   3.232  10.922 -0.0971  0.0620 -0.6800
 6183TIP3    H239965   4.559   3.161  10.867 -0.6026  1.2002 -1.0633
 6184TIP3   OH239966   3.525   5.584  13.981 -0.1943  0.1365 -0.3131
 6184TIP3    H139967   3.620   5.578  13.984 -0.1381  1.1379  1.1445
 6184TIP3    H239968   3.494   5.500  14.015  0.1913  0.0024 -0.2934
 6185TIP3   OH239969   4.652   4.757   0.090  0.4613  0.5281  0.5648
 6185TIP3    H139970   4.722   4.724   0.034 -0.1449  0.2411 -0.0452
 6185TIP3    H239971   4.580   4.694   0.077  0.7333 -0.3048  2.6609
 6186TIP3   OH239972   3.253   2.754  15.825 -0.6731 -0.6156  0.0107
 6186TIP3    H139973   3.176   2.697  15.827 -0.3688 -1.0362 -0.1035
 6186TIP3    H239974   3.318   2.707  15.878 -0.0724 -0.8791 -0.9433
 6187TIP3   OH239975   6.217   0.785   0.273 -0.0737  0.0896 -0.2891
 6187TIP3    H139976   6.241   0.818   0.186  0.3571 -0.0615 -0.2323
 6187TIP3    H239977   6.301   0.762   0.313 -0.3619 -1.0033 -0.2919
 6188TIP3   OH239978   4.096   2.047  12.770  0.0276  0.5778  0.3341
 6188TIP3    H139979   4.145   1.978  12.725  0.7168  1.3811 -0.1660
 6188TIP3    H239980   4.162   2.094  12.821 -0.4074  0.9762  0.5370
 6189TIP3   OH239981   5.269   1.410   4.874  0.4854  0.2583 -0.5033
 6189TIP3    H139982   5.324   1.375   4.944 -0.0075 -1.1188 -0.7820
 6189TIP3    H239983   5.188   1.360   4.879 -0.8476  2.3165 -0.0240
 6190TIP3   OH239984   6.725   5.793  15.591  0.1507 -0.2775  0.1732
 6190TIP3    H139985   6.732   5.848  15.513  0.9032  0.3892  0.6960
 6190TIP3    H239986   6.789   5.829  15.652  0.8969 -1.9372  0.4240
 6191TIP3   OH239987   0.144   4.508  12.788  0.2609 -0.1557  0.2683
 6191TIP3    H139988   0.213   4.454  12.750 -0.5641 -1.2866  0.3051
 6191TIP3    H239989   0.118   4.568  12.719  0.1194 -0.8764 -0.3145
 6192TIP3   OH239990   2.769   5.519   6.468 -0.1107  0.0751 -0.2697
 6192TIP3    H139991   2.734   5.431   6.484  0.8967 -0.6449 -1.8157
 6192TIP3    H239992   2.699   5.578   6.495 -0.3496 -1.1276  1.9872
 6193TIP3   OH239993   2.428   2.865  12.163  0.3783  0.0528  0.5285
 6193TIP3    H139994   2.346   2.914  12.174 -0.0917 -0.2851 -1.1186
 6193TIP3    H239995   2.436   2.854  12.068  1.6411 -1.0976  0.7419
 6194TIP3   OH239996   3.955   4.631  16.602  0.8205 -0.0935  0.0426
 6194TIP3    H139997   3.874   4.681  16.599  1.0388  0.5847  2.7143
 6194TIP3    H239998   3.932   4.551  16.649  1.5297 -0.2419  0.1481
 6195TIP3   OH239999   5.833   3.077   1.598  0.1262 -0.1431 -0.0788
 6195TIP3    H140000   5.913   3.026   1.607  0.0364  0.0157  2.6976
 6195TIP3    H240001   5.769   3.016   1.562  0.3168 -1.7623  2.0946
 6196TIP3   OH240002   4.338   0.420   0.636  0.1878  1.0499 -0.5058
 6196TIP3    H140003   4.336   0.443   0.729  2.1002 -0.4613 -0.0401
 6196TIP3    H240004   4.309   0.329   0.634  0.3168  1.0272 -1.3771
 6197TIP3   OH240005   2.170   5.650  11.761 -0.1902 -0.2854 -0.2974
 6197TIP3    H140006   2.196   5.693  11.680 -0.5059  0.0546 -0.2224
 6197TIP3    H240007   2.076   5.633  11.749 -0.5035  0.8333  0.4684
 6198TIP3   OH240008   4.892   1.163  14.037 -0.0117  0.4159  0.3462
 6198TIP3    H140009   4.908   1.216  13.959  0.7900 -1.6890 -1.0043
 6198TIP3    H240010   4.803   1.185  14.063  0.2091  2.2241 -0.2683
 6199TIP3   OH240011   3.502   0.661  15.715  0.4115  0.0843 -0.4829
 6199TIP3    H140012   3.431   0.695  15.769  1.4133  1.4521  0.0157
 6199TIP3    H240013   3.458   0.628  15.637 -0.7657  1.0552 -0.2660
 6200TIP3   OH240014   4.310   0.205   4.172 -0.1546 -0.1006 -0.7055
 6200TIP3    H140015   4.375   0.200   4.102  1.7919 -1.8174  1.0568
 6200TIP3    H240016   4.359   0.236   4.248 -1.4674 -1.0552  0.6011
 6201TIP3   OH240017   1.034   1.701   2.159  0.8494 -0.2755 -0.3204
 6201TIP3    H140018   0.971   1.695   2.231 -0.4373  0.5225 -1.3455
 6201TIP3    H240019   1.118   1.675   2.198  0.3800  1.0402  1.6994
 6202TIP3   OH240020   0.938   1.543  13.531 -0.5067  0.1218 -0.0804
 6202TIP3    H140021   0.987   1.581  13.458  0.7483  1.8723  1.5961
 6202TIP3    H240022   0.899   1.618  13.576 -2.5075 -1.0306  0.2294
 6203TIP3   OH240023   1.234   4.356   3.449 -0.0947  0.0275 -0.3565
 6203TIP3    H140024   1.320   4.334   3.415 -0.4344 -1.2556 -0.4452
 6203TIP3    H240025   1.231   4.318   3.536  0.0416  1.5790  0.3659
 6204TIP3   OH240026   3.631   5.533  13.234 -0.1562  0.5253  0.6161
 6204TIP3    H140027   3.710   5.491  13.267 -0.2175 -1.5585 -1.5938
 6204TIP3    H240028   3.662   5.606  13.181  0.1526  1.0496  1.5080
 6205TIP3   OH240029   1.414   3.004   0.833  0.2384 -0.1009 -0.4247
 6205TIP3    H140030   1.398   2.964   0.918 -2.1468  2.7574  0.6592
 6205TIP3    H240031   1.437   3.094   0.853  2.3612 -0.0213 -2.7907
 6206TIP3   OH240032   0.081   0.983  11.112 -0.3464  0.5057  0.1157
 6206TIP3    H140033   0.013   0.916  11.101  0.5609 -0.7555  1.7690
 6206TIP3    H240034   0.042   1.062  11.075 -1.7144 -0.7498 -1.3157
 6207TIP3   OH240035   0.711   0.772  12.135 -0.4231  0.0579 -0.2993
 6207TIP3    H140036   0.803   0.785  12.112 -0.6754  0.2481 -1.2114
 6207TIP3    H240037   0.677   0.714  12.067 -1.2288  0.7775 -0.5260
 6208TIP3   OH240038   2.040   6.459  13.421 -0.0342 -0.4084  0.0568
 6208TIP3    H140039   2.067   6.460  13.329 -1.8232 -0.6884 -0.5108
 6208TIP3    H240040   2.059   6.370  13.450 -2.5576 -1.4004 -1.0806
 6209TIP3   OH240041   4.341   2.568  15.999  0.3185  0.3391  0.2729
 6209TIP3    H140042   4.294   2.607  16.073  1.7536  2.2856  0.2487
 6209TIP3    H240043   4.278   2.567  15.927 -0.9545 -1.1255  1.3416
 6210TIP3   OH240044   5.920   3.096  10.996 -0.4468  0.6214  0.2250
 6210TIP3    H140045   5.975   3.151  10.941  0.5007 -1.0839 -0.5982
 6210TIP3    H240046   5.943   3.120  11.086 -0.1052  1.5697 -0.1025
 6211TIP3   OH240047   6.758   0.567   5.249  0.4079 -0.0008  0.6892
 6211TIP3    H140048   6.676   0.603   5.281  0.2353 -0.1002  0.3550
 6211TIP3    H240049   6.774   0.612   5.166  0.0077 -0.9389  0.0843
 6212TIP3   OH240050   2.575   2.793   0.711  0.3387  0.1704 -0.4970
 6212TIP3    H140051   2.483   2.766   0.718  0.0183  1.2216 -0.3908
 6212TIP3    H240052   2.623   2.712   0.696 -0.7078 -0.3022 -1.4472
 6213TIP3   OH240053   4.161   1.853   3.618 -0.0313  0.2076  0.0617
 6213TIP3    H140054   4.100   1.828   3.687  0.2167  0.6517  0.4412
 6213TIP3    H240055   4.211   1.773   3.600 -0.9268 -0.2442 -0.4700
 6214TIP3   OH240056   3.540   4.637   1.188  0.2653  0.3495  0.0475
 6214TIP3    H140057   3.456   4.683   1.193 -0.3959 -0.7354 -0.6060
 6214TIP3    H240058   3.604   4.700   1.221 -0.9190  0.8839  1.4638
 6215TIP3   OH240059   1.125   2.474  11.021  0.0662  0.0623  0.2919
 6215TIP3    H140060   1.063   2.415  10.978 -0.1209 -1.1643  2.1712
 6215TIP3    H240061   1.199   2.479  10.960 -1.5190  1.0053 -1.6673
 6216TIP3   OH240062   6.261   5.206  13.570 -0.1437 -0.6328 -0.2324
 6216TIP3    H140063   6.312   5.132  13.536 -0.5723 -0.4581 -1.3126
 6216TIP3    H240064   6.227   5.175  13.654  0.6619 -1.2237 -0.1080
 6217TIP3   OH240065   0.358   0.025   0.289  0.5324  0.3996  0.2734
 6217TIP3    H140066   0.280  -0.006   0.243 -0.0443 -0.7956  1.9631
 6217TIP3    H240067   0.410   0.068   0.221 -0.6344 -0.5781 -1.3195
 6218TIP3   OH240068   5.453   0.011  13.229 -0.6537  0.2858  0.3111
 6218TIP3    H140069   5.529   0.065  13.246 -1.1511  0.7758  1.0316
 6218TIP3    H240070   5.489  -0.075  13.205  0.1149  0.5547  0.4897
 6219TIP3   OH240071   2.786   2.753   2.535  0.5832 -0.0798  0.0922
 6219TIP3    H140072   2.852   2.818   2.512  1.1202 -0.7658 -0.3821
 6219TIP3    H240073   2.730   2.796   2.599  1.1960  0.6875  0.1245
 6220TIP3   OH240074   3.908   4.073  12.259 -0.6420  0.0562 -0.4141
 6220TIP3    H140075   3.845   4.144  12.271  0.1991  0.6313  0.9291
 6220TIP3    H240076   3.968   4.105  12.192  0.0629  0.8845  0.5861
 6221TIP3   OH240077   6.296   2.994  10.572  0.1567  0.1345  0.8056
 6221TIP3    H140078   6.345   2.956  10.645 -1.0203 -1.4918  0.7978
 6221TIP3    H240079   6.265   2.919  10.522 -0.6186  1.1779 -0.3403
 6222TIP3   OH240080   1.309   4.821  15.921  0.2643 -0.2747 -0.2972
 6222TIP3    H140081   1.288   4.913  15.933 -1.5958 -0.4406 -1.8250
 6222TIP3    H240082   1.230   4.783  15.884  1.2898 -2.3158 -0.5343
 6223TIP3   OH240083   2.536   3.536  16.742 -0.3064 -0.1186 -0.5484
 6223TIP3    H140084   2.584   3.457  16.768  0.9251  1.0192  0.7760
 6223TIP3    H240085   2.518   3.523  16.648  2.4992 -0.6683 -1.0990
 6224TIP3   OH240086   0.740   5.560  14.298  0.3549  0.5929 -0.4262
 6224TIP3    H140087   0.701   5.563  14.385  2.3664  0.6506  0.5183
 6224TIP3    H240088   0.834   5.564  14.313  0.7680  0.4558 -2.6064
 6225TIP3   OH240089   5.143   0.562  11.209  0.0152  0.1586  0.1031
 6225TIP3    H140090   5.198   0.581  11.133 -1.2776 -1.2613 -1.2455
 6225TIP3    H240091   5.162   0.471  11.231  1.3771  0.9217  2.4077
 6226TIP3   OH240092   2.832   6.659  13.031  0.2794  0.3021  0.7103
 6226TIP3    H140093   2.869   6.639  13.117 -0.5913 -0.6878  0.8747
 6226TIP3    H240094   2.889   6.727  12.995  0.8474  0.4817  1.9256
 6227TIP3   OH240095   6.782   3.440   4.286  0.4382 -1.3833  0.1631
 6227TIP3    H140096   6.838   3.389   4.226 -1.6182 -1.1723 -2.0955
 6227TIP3    H240097   6.696   3.398   4.280 -0.2356 -0.3078  1.7321
 6228TIP3   OH240098   4.729   4.717   4.769  0.2399 -0.0284  0.0557
 6228TIP3    H140099   4.785   4.684   4.700  1.6383 -1.1430  1.6305
 6228TIP3    H240100   4.782   4.783   4.814 -2.3401  4.4345 -2.7728
 6229TIP3   OH240101   5.157   5.733  14.857 -0.2951  0.0344  0.2688
 6229TIP3    H140102   5.092   5.798  14.883 -1.2129 -0.8702  0.3047
 6229TIP3    H240103   5.201   5.709  14.939  0.1403  0.6911  0.2355
 6230TIP3   OH240104   3.994   0.473   5.321  0.0922 -0.0455  0.0502
 6230TIP3    H140105   3.903   0.467   5.293 -0.8551  0.2677  2.7878
 6230TIP3    H240106   3.995   0.436   5.410  2.6858 -0.2157  0.0422
 6231TIP3   OH240107   5.764   6.774  15.461 -0.1475  0.3660 -0.1435
 6231TIP3    H140108   5.827   6.703  15.451 -0.6162 -0.1632  0.6116
 6231TIP3    H240109   5.794   6.841  15.399 -1.4782 -1.6807 -3.2374
 6232TIP3   OH240110   3.858   0.097  16.391 -0.0512 -0.1962  0.4433
 6232TIP3    H140111   3.878   0.190  16.376 -2.6712  0.5096  0.6773
 6232TIP3    H240112   3.928   0.066  16.448  0.8894  1.6392  0.3868
 6233TIP3   OH240113   1.639   0.401   3.268  0.5875  0.0132  0.1277
 6233TIP3    H140114   1.622   0.473   3.208  1.8335 -1.1025 -1.6802
 6233TIP3    H240115   1.706   0.434   3.327  0.4871  0.6341 -0.1035
 6234TIP3   OH240116   4.916   0.745   5.650  0.6019  0.8638 -0.2868
 6234TIP3    H140117   4.980   0.811   5.676  0.7339  0.0699  1.5558
 6234TIP3    H240118   4.844   0.755   5.713 -0.4957  0.8347 -1.4860
 6235TIP3   OH240119   6.741   4.958  14.743 -0.1268  0.0339 -0.0962
 6235TIP3    H140120   6.680   5.004  14.685  0.7848  2.4791  0.7453
 6235TIP3    H240121   6.778   5.027  14.798  3.2350 -1.3337 -0.4093
 6236TIP3   OH240122   1.879   1.908  14.090  0.1710 -0.3484  0.5843
 6236TIP3    H140123   1.872   2.002  14.105  0.6005 -0.5785  2.4818
 6236TIP3    H240124   1.857   1.868  14.175  0.9293 -1.9157  0.0858
 6237TIP3   OH240125   5.187   6.445  16.687 -0.2951  0.0020  0.2326
 6237TIP3    H140126   5.260   6.480  16.635 -1.9772  0.8691 -1.7153
 6237TIP3    H240127   5.128   6.520  16.698 -2.5312 -1.3763 -1.3239
 6238TIP3   OH240128   5.244   6.519  15.068 -0.0262  0.3360 -0.7897
 6238TIP3    H140129   5.208   6.430  15.076 -0.2689  0.4052 -1.0880
 6238TIP3    H240130   5.170   6.576  15.088  0.2784  0.4702 -0.0104
 6239TIP3   OH240131   1.175   4.944   0.137 -0.3652 -0.2238  0.1675
 6239TIP3    H140132   1.208   4.874   0.193  0.3706 -0.0079  0.0224
 6239TIP3    H240133   1.253   4.977   0.092 -0.5365  1.3351  0.9616
 6240TIP3   OH240134   3.521   4.712  11.243 -0.2720 -0.0996 -0.9332
 6240TIP3    H140135   3.595   4.733  11.299 -0.0430 -1.6451 -0.6335
 6240TIP3    H240136   3.554   4.649  11.180 -0.9338  0.4134 -1.8222
 6241TIP3   OH240137   2.567   0.365   5.691 -0.5968  0.4887 -0.5372
 6241TIP3    H140138   2.550   0.421   5.615 -0.8008  0.3291 -0.6088
 6241TIP3    H240139   2.661   0.374   5.706  0.1487 -1.9822 -2.8169
 6242TIP3   OH240140   3.153   6.482   1.846 -0.4257  0.5770 -0.4344
 6242TIP3    H140141   3.166   6.559   1.792 -2.0271  0.6517 -0.7410
 6242TIP3    H240142   3.112   6.418   1.789 -0.0639 -0.1547  0.0960
 6243TIP3   OH240143   2.621   5.361   4.350  0.2558 -0.2363 -0.4278
 6243TIP3    H140144   2.582   5.329   4.269  0.7770 -0.0245 -0.7619
 6243TIP3    H240145   2.594   5.453   4.355 -0.1288 -0.3629 -0.1449
 6244TIP3   OH240146   2.360   1.766   4.354 -0.1601 -0.5706 -0.5837
 6244TIP3    H140147   2.425   1.832   4.328  1.9676 -2.0586  0.5981
 6244TIP3    H240148   2.282   1.788   4.304  1.0634  1.6671 -1.6806
 6245TIP3   OH240149   3.072   4.420   0.861  0.5681 -0.2751  0.4525
 6245TIP3    H140150   3.035   4.411   0.950 -3.7696 -0.0121 -1.0753
 6245TIP3    H240151   3.084   4.330   0.831  0.0201 -0.4105  0.6173
 6246TIP3   OH240152   4.933   5.412  15.110  0.4204 -0.1050 -0.4306
 6246TIP3    H140153   4.898   5.499  15.129 -0.0210 -0.3922  0.0659
 6246TIP3    H240154   5.021   5.413  15.148  1.3354  0.8957 -2.3719
 6247TIP3   OH240155   5.554   4.172   2.424  0.3042  0.3925  0.2359
 6247TIP3    H140156   5.512   4.088   2.404  0.8276  0.1730  0.0332
 6247TIP3    H240157   5.531   4.228   2.350 -1.0936  0.8315  0.9694
 6248TIP3   OH240158   0.155   5.880  15.693  0.3367 -0.1351  0.0556
 6248TIP3    H140159   0.198   5.796  15.709  0.4796 -0.3374 -1.2777
 6248TIP3    H240160   0.227   5.942  15.681  0.2797 -0.3556 -1.5796
 6249TIP3   OH240161   6.681   3.336  16.280 -0.1431  0.3896 -0.2029
 6249TIP3    H140162   6.751   3.271  16.270  0.9069  1.3552  0.5508
 6249TIP3    H240163   6.678   3.381  16.196 -0.7761 -0.5174 -0.6807
 6250TIP3   OH240164   0.829   5.125   4.556  0.3985  0.0848 -0.3102
 6250TIP3    H140165   0.899   5.146   4.494  3.1896  0.6678  2.7543
 6250TIP3    H240166   0.836   5.030   4.568  0.3048  0.0678 -0.3888
 6251TIP3   OH240167   0.906   5.779   4.890  0.2722  0.7575  0.0488
 6251TIP3    H140168   0.940   5.732   4.967  0.0434  1.1338  0.3832
 6251TIP3    H240169   0.818   5.742   4.877  0.2299  0.8441  0.0934
 6252TIP3   OH240170   4.753   2.375   1.306 -0.0923 -0.1484 -0.4373
 6252TIP3    H140171   4.836   2.408   1.272 -0.0400 -0.4074 -0.5622
 6252TIP3    H240172   4.708   2.453   1.340  0.9665 -0.2505  1.3037
 6253TIP3   OH240173   5.673   4.685  11.690  0.2479 -0.3681  0.1635
 6253TIP3    H140174   5.652   4.746  11.760  3.0985  1.4312 -0.3789
 6253TIP3    H240175   5.746   4.633  11.724  1.5049  0.3587 -1.2755
 6254TIP3   OH240176   5.961   2.518   5.664 -0.8617 -0.8019 -0.4846
 6254TIP3    H140177   5.895   2.562   5.719  0.8072  0.3997  0.6562
 6254TIP3    H240178   5.947   2.425   5.682 -2.8652 -0.6647 -1.0390
 6255TIP3   OH240179   1.788   6.452   2.508  0.0288 -0.6234 -0.3505
 6255TIP3    H140180   1.865   6.413   2.549 -0.6496 -1.0939  0.5108
 6255TIP3    H240181   1.714   6.398   2.538 -0.9581  1.3213  0.9730
 6256TIP3   OH240182   1.182   3.170   1.467 -0.1819  0.3716 -0.0318
 6256TIP3    H140183   1.127   3.129   1.400 -1.5723  0.8145  0.8011
 6256TIP3    H240184   1.200   3.100   1.529  1.0949 -0.0354 -0.8250
 6257TIP3   OH240185   5.529   1.307  14.722  0.5826  0.5497 -0.2795
 6257TIP3    H140186   5.497   1.359  14.796  1.2597 -0.7883  1.0284
 6257TIP3    H240187   5.450   1.263  14.689  0.3442  0.7868 -0.0351
 6258TIP3   OH240188   0.319   1.072   2.816 -0.0423 -0.4973 -0.1884
 6258TIP3    H140189   0.279   1.036   2.736  1.0498  0.7658 -1.3673
 6258TIP3    H240190   0.413   1.059   2.804  0.3335  1.8433 -0.2738
 6259TIP3   OH240191   2.646   3.749   4.572 -0.1971 -0.4065 -0.5533
 6259TIP3    H140192   2.720   3.717   4.623  0.8204  0.5537 -1.3763
 6259TIP3    H240193   2.657   3.709   4.485 -0.7800 -0.4349 -0.6217
 6260TIP3   OH240194   0.227   2.308  16.937 -0.1619  0.1988 -0.2504
 6260TIP3    H140195   0.138   2.277  16.955  0.0319 -0.3347 -0.1849
 6260TIP3    H240196   0.215   2.397  16.904 -0.7936 -0.2250 -1.2162
 6261TIP3   OH240197   1.435   4.338   4.696  0.5252  0.2525 -0.5161
 6261TIP3    H140198   1.423   4.372   4.785  1.8073 -0.4573 -0.0507
 6261TIP3    H240199   1.507   4.389   4.660 -0.1085  0.6602 -1.2278
 6262TIP3   OH240200   3.248   3.784  12.648 -0.0592  0.0091 -0.1987
 6262TIP3    H140201   3.317   3.806  12.585 -0.2610 -1.2282 -0.8733
 6262TIP3    H240202   3.192   3.861  12.650 -0.1200  0.0237 -1.6451
 6263TIP3   OH240203   1.066   5.177  16.550  0.0332  0.6593  0.2674
 6263TIP3    H140204   1.134   5.111  16.538 -0.9053 -0.2027 -0.4333
 6263TIP3    H240205   1.019   5.150  16.628 -2.2482 -1.2827 -1.6282
 6264TIP3   OH240206   6.605   4.974  13.535 -0.2618  0.4595  0.5917
 6264TIP3    H140207   6.622   5.042  13.469 -0.4961  1.1749  1.2606
 6264TIP3    H240208   6.551   5.017  13.601 -2.0789 -0.9074  0.0718
 6265TIP3   OH240209   4.209   0.446   4.838  0.8684 -0.2509 -0.5097
 6265TIP3    H140210   4.128   0.479   4.799  1.2201  0.5069 -0.6106
 6265TIP3    H240211   4.193   0.447   4.932  0.2900 -1.3629 -0.5821
 6266TIP3   OH240212   0.112   2.669  12.589 -0.0591 -0.3759  0.2680
 6266TIP3    H140213   0.067   2.705  12.512 -0.4303  1.0361  1.1075
 6266TIP3    H240214   0.188   2.726  12.601  0.2638 -0.8845  0.6813
 6267TIP3   OH240215   0.260   4.781  17.078  0.0756  0.6466 -0.4100
 6267TIP3    H140216   0.187   4.750  17.024  0.5472  0.0656 -0.7279
 6267TIP3    H240217   0.224   4.785  17.166 -0.4383  0.6941 -0.6161
 6268TIP3   OH240218   2.758   4.307   2.995  0.1930 -0.4145 -0.5401
 6268TIP3    H140219   2.668   4.279   3.012  0.4390 -0.6251  0.5134
 6268TIP3    H240220   2.807   4.226   2.982  0.5248 -0.4125  0.5371
 6269TIP3   OH240221   4.082   2.800   1.202  0.0909 -0.2530 -0.1137
 6269TIP3    H140222   4.037   2.718   1.181  0.6790 -0.6245  0.0366
 6269TIP3    H240223   4.021   2.869   1.177 -0.0798 -0.7236 -1.0283
 6270TIP3   OH240224   5.126   2.789  12.217 -0.0487  0.1857 -0.5959
 6270TIP3    H140225   5.088   2.807  12.303 -0.1916  0.5652 -0.7359
 6270TIP3    H240226   5.186   2.716  12.232  2.3195  2.2051  0.4425
 6271TIP3   OH240227   4.732   1.948   4.254  0.0027 -0.2938 -0.1554
 6271TIP3    H140228   4.786   1.943   4.175  0.9532 -0.6739  0.5096
 6271TIP3    H240229   4.709   1.857   4.273 -1.7694 -0.0660 -1.0198
 6272TIP3   OH240230   1.257   0.402  11.753 -0.3325 -0.0653  0.6667
 6272TIP3    H140231   1.314   0.415  11.678 -1.1451  1.2936  0.2424
 6272TIP3    H240232   1.187   0.346  11.721  0.2487 -0.9708  0.9341
 6273TIP3   OH240233   6.347   3.443  12.256 -0.3042 -0.0344 -0.0431
 6273TIP3    H140234   6.379   3.467  12.343  0.5502  0.4186 -0.4764
 6273TIP3    H240235   6.338   3.526  12.209  0.0420 -0.3322 -0.6571
 6274TIP3   OH240236   3.709   2.909  12.483  0.5757  0.0752 -0.4360
 6274TIP3    H140237   3.690   2.976  12.418 -2.7785 -2.1412 -2.0170
 6274TIP3    H240238   3.694   2.953  12.567  1.3252  2.0089 -1.2432
 6275TIP3   OH240239   2.930   0.845  12.466 -0.2279  0.0155 -0.5271
 6275TIP3    H140240   2.915   0.889  12.382  3.0193  2.2637 -0.1337
 6275TIP3    H240241   2.929   0.916  12.530  0.2616 -1.2173  0.9080
 6276TIP3   OH240242   2.016   6.113   2.032  0.4679 -0.1225 -0.6675
 6276TIP3    H140243   2.011   6.091   1.938  0.8278  0.4919 -0.8355
 6276TIP3    H240244   2.063   6.039   2.071  0.8058 -0.1161 -1.0615
 6277TIP3   OH240245   0.212   5.381  13.759  0.4755 -0.6415  0.1930
 6277TIP3    H140246   0.133   5.328  13.761  1.2785 -1.8566  1.1167
 6277TIP3    H240247   0.229   5.396  13.666 -0.7780 -0.4359 -0.0138
 6278TIP3   OH240248   3.727   6.782   5.850 -0.3696 -0.0273  0.4837
 6278TIP3    H140249   3.684   6.713   5.900 -0.4079  1.0406  1.9810
 6278TIP3    H240250   3.706   6.863   5.897  0.0458  0.9609 -0.9664
 6279TIP3   OH240251   6.462   1.881  14.232 -0.3799 -0.5711  0.2203
 6279TIP3    H140252   6.388   1.919  14.185  0.8729  1.0861 -0.5448
 6279TIP3    H240253   6.422   1.825  14.299 -2.2450 -1.4206 -1.5141
 6280TIP3   OH240254   3.337   6.473   3.178 -0.1011  0.7033 -0.4479
 6280TIP3    H140255   3.298   6.388   3.201 -0.6591  1.5148  1.9533
 6280TIP3    H240256   3.340   6.473   3.083 -1.8372 -1.2535 -0.5825
 6281TIP3   OH240257   4.914   5.722  16.291  0.3349 -0.3960 -0.2026
 6281TIP3    H140258   4.991   5.760  16.334  0.5824 -1.6145  0.4592
 6281TIP3    H240259   4.940   5.712  16.199  1.0405 -0.9757  0.0548
 6282TIP3   OH240260   4.113   4.084  10.860 -0.0374 -0.0268  0.6168
 6282TIP3    H140261   4.200   4.076  10.823 -1.4227 -0.5351 -2.8939
 6282TIP3    H240262   4.095   3.999  10.899  0.0832 -0.8810 -1.0925
 6283TIP3   OH240263   0.205   6.457   3.625  0.0167 -1.4069 -0.6740
 6283TIP3    H140264   0.289   6.455   3.671  0.2599 -1.2996 -1.1063
 6283TIP3    H240265   0.172   6.368   3.632 -0.2847 -1.2369  0.3050
 6284TIP3   OH240266   6.335   4.598   6.038 -0.4373  0.6665  0.5338
 6284TIP3    H140267   6.348   4.666   6.105  2.4907 -0.6375  1.4679
 6284TIP3    H240268   6.369   4.637   5.958 -1.5469  1.2994  0.3402
 6285TIP3   OH240269   6.109   0.065   6.170 -0.1128 -0.2187 -0.2298
 6285TIP3    H140270   6.120   0.068   6.265  2.7187  3.5538 -0.4531
 6285TIP3    H240271   6.158  -0.012   6.142  0.7231 -0.2490  1.2352
 6286TIP3   OH240272   6.663   3.517  12.003  0.0053  0.1268  0.1958
 6286TIP3    H140273   6.755   3.493  12.017  0.1389  0.7591  0.4587
 6286TIP3    H240274   6.636   3.557  12.086 -1.6363 -3.3769  1.5131
 6287TIP3   OH240275   6.002   5.732   3.226  0.4262 -0.5659  0.1330
 6287TIP3    H140276   5.959   5.675   3.161  1.7950  0.1811 -1.4980
 6287TIP3    H240277   5.994   5.820   3.189  2.4961 -0.3002  0.2460
 6288TIP3   OH240278   6.799   1.299   0.337  0.3850  0.0794 -0.0559
 6288TIP3    H140279   6.790   1.394   0.344  1.8452  0.3439 -1.1896
 6288TIP3    H240280   6.769   1.266   0.422  2.5017  1.7802  1.4971
 6289TIP3   OH240281   2.891   1.467  13.872 -0.1579  0.1069 -0.1612
 6289TIP3    H140282   2.955   1.497  13.936  0.6636 -3.5079  0.8959
 6289TIP3    H240283   2.809   1.461  13.921  0.0887 -1.0409  0.1232
 6290TIP3   OH240284   1.274   3.750  16.530 -0.0154  0.4915 -0.3376
 6290TIP3    H140285   1.253   3.782  16.443 -1.9197  0.9619  0.2372
 6290TIP3    H240286   1.256   3.656  16.526  1.1701  0.2761 -0.7949
 6291TIP3   OH240287   6.119   3.638   6.461 -0.3344 -0.2350  0.4943
 6291TIP3    H140288   6.119   3.661   6.554  0.4713 -0.2180  0.4922
 6291TIP3    H240289   6.133   3.543   6.460 -2.6711 -0.6339  0.4670
 6292TIP3   OH240290   0.915   0.320  12.947 -0.1142  0.0494 -0.3078
 6292TIP3    H140291   0.912   0.403  12.899  0.1550  0.8145  0.9470
 6292TIP3    H240292   0.938   0.345  13.036 -1.8619 -1.1772  0.5528
 6293TIP3   OH240293   4.960   3.449  15.544  0.2490  0.1259 -0.1538
 6293TIP3    H140294   4.967   3.438  15.639 -0.4860 -0.4495 -0.1560
 6293TIP3    H240295   5.018   3.384  15.507  1.7744  1.3991 -0.1038
 6294TIP3   OH240296   4.111   5.682  13.822  0.0624  0.4946  0.4665
 6294TIP3    H140297   4.186   5.667  13.765 -0.5075 -0.3474 -0.0805
 6294TIP3    H240298   4.150   5.715  13.904  1.0863 -0.4704  0.4027
 6295TIP3   OH240299   1.820   6.172  12.899  0.1632  0.3564  0.1332
 6295TIP3    H140300   1.754   6.112  12.933 -0.1305  0.8335  0.4097
 6295TIP3    H240301   1.783   6.204  12.817  0.8662 -0.7862 -0.6554
 6296TIP3   OH240302   2.825   5.788  11.680  0.4605  0.1548  0.0546
 6296TIP3    H140303   2.888   5.727  11.642  0.8145  0.1326  0.6542
 6296TIP3    H240304   2.866   5.816  11.762 -0.6052 -0.3719  0.7813
 6297TIP3   OH240305   2.866   2.578   3.244  0.2964 -0.0684 -0.1009
 6297TIP3    H140306   2.864   2.668   3.213  1.5273 -0.5891 -1.8378
 6297TIP3    H240307   2.777   2.546   3.230  0.3179  0.3325 -1.2569
 6298TIP3   OH240308   4.086   4.392  14.100 -0.5409  0.2653 -0.4390
 6298TIP3    H140309   4.093   4.296  14.103 -1.1975  0.2347  1.5007
 6298TIP3    H240310   4.174   4.421  14.075 -0.3576 -0.8224 -1.1610
 6299TIP3   OH240311   6.356   3.529  10.405  0.2398  0.3243  0.8979
 6299TIP3    H140312   6.362   3.436  10.382  1.0732  0.6072 -0.0738
 6299TIP3    H240313   6.443   3.551  10.439  0.7170  1.2278 -0.7855
 6300TIP3   OH240314   1.312   6.615  16.016 -1.3915  0.1527  0.1587
 6300TIP3    H140315   1.404   6.596  16.000 -1.4956  0.8905 -1.5911
 6300TIP3    H240316   1.310   6.656  16.102  0.1294  1.4557 -0.3814
 6301TIP3   OH240317   1.195   2.459   6.444 -0.1460 -0.1961 -0.5175
 6301TIP3    H140318   1.250   2.428   6.517 -1.4888 -2.4105 -0.3355
 6301TIP3    H240319   1.125   2.394   6.438 -0.3749  0.1848 -3.4862
 6302TIP3   OH240320   2.662   1.165  17.001  0.2390 -0.3075 -0.4847
 6302TIP3    H140321   2.683   1.199  17.087  0.0041  1.8781 -1.2267
 6302TIP3    H240322   2.738   1.113  16.976  1.3745  1.0369  0.0640
 6303TIP3   OH240323   5.716   5.269   5.567 -0.2349  0.4189 -0.1255
 6303TIP3    H140324   5.663   5.204   5.614  0.1421 -0.7728 -1.3136
 6303TIP3    H240325   5.657   5.344   5.556 -1.5495 -0.6919 -0.9900
 6304TIP3   OH240326   6.741   3.934   2.624  0.2544 -0.0310 -0.1236
 6304TIP3    H140327   6.808   3.969   2.684  2.3085 -1.7776 -1.2295
 6304TIP3    H240328   6.787   3.925   2.540 -1.3851 -1.2934 -0.9445
 6305TIP3   OH240329   6.085   5.369  14.352  0.1226 -0.6249  0.1840
 6305TIP3    H140330   6.169   5.413  14.343  0.1948 -1.0117 -1.2316
 6305TIP3    H240331   6.105   5.289  14.399  0.5453 -0.7000 -0.1179
 6306TIP3   OH240332   3.466   5.210  11.888 -0.7889  0.1697  0.5038
 6306TIP3    H140333   3.458   5.119  11.861  2.0800  0.3049 -1.2547
 6306TIP3    H240334   3.492   5.206  11.980  1.6765 -1.0146 -0.1441
 6307TIP3   OH240335   1.534   6.162  13.316  0.1772  0.0928  0.6297
 6307TIP3    H140336   1.563   6.245  13.353 -4.0939  1.3615  1.5722
 6307TIP3    H240337   1.507   6.110  13.391  1.2355 -1.5623 -0.0836
 6308TIP3   OH240338   4.690   2.769  16.185  0.8259  0.5929 -0.2971
 6308TIP3    H140339   4.704   2.782  16.091  0.5460  2.4138 -0.1260
 6308TIP3    H240340   4.775   2.787  16.224  0.1838  3.4287  0.0402
 6309TIP3   OH240341   2.686   3.196   5.271  0.3005  0.1666  0.0607
 6309TIP3    H140342   2.715   3.142   5.344 -1.7065 -1.3936 -0.2068
 6309TIP3    H240343   2.615   3.146   5.231  0.4967  1.5494 -2.2097
 6310TIP3   OH240344   2.641   0.087  12.375 -0.1566 -0.8881 -0.2064
 6310TIP3    H140345   2.736   0.095  12.368 -0.2608  0.1062 -0.5374
 6310TIP3    H240346   2.614   0.159  12.432 -0.5950 -1.9368  0.9896
 6311TIP3   OH240347   3.472   2.603   1.425 -0.5258  0.2682  0.6557
 6311TIP3    H140348   3.466   2.519   1.380 -0.6836 -0.9228  2.7794
 6311TIP3    H240349   3.542   2.650   1.379  0.5112 -1.5731  0.2596
 6312TIP3   OH240350   1.661   4.840  16.469 -0.9121 -0.2324  0.4045
 6312TIP3    H140351   1.631   4.919  16.424 -0.3792 -0.5762 -0.5922
 6312TIP3    H240352   1.654   4.771  16.403  0.2987 -0.6586  0.6894
 6313TIP3   OH240353   3.801   4.546  11.466 -0.6670 -0.0007  0.7083
 6313TIP3    H140354   3.733   4.558  11.399  0.6776  0.2903 -0.6734
 6313TIP3    H240355   3.825   4.454  11.459  0.4234  0.3402 -0.1820
 6314TIP3   OH240356   4.620   2.191  17.064  0.0026  0.3281 -0.4035
 6314TIP3    H140357   4.674   2.240  17.126 -0.3622  1.1502 -0.7157
 6314TIP3    H240358   4.534   2.233  17.068  0.3708  1.4532 -2.5888
 6315TIP3   OH240359   0.784   2.930  11.200 -0.1896  0.2771 -0.0771
 6315TIP3    H140360   0.838   2.888  11.267 -0.3296  1.3963  0.7607
 6315TIP3    H240361   0.844   2.988  11.153  0.1826 -1.3592 -1.7518
 6316TIP3   OH240362   4.818   1.257   2.429 -0.0208  0.3961  0.1628
 6316TIP3    H140363   4.760   1.332   2.415 -0.6925 -0.1849 -0.2117
 6316TIP3    H240364   4.874   1.256   2.352  0.6704  1.1038  0.6386
 6317TIP3   OH240365   0.220   2.103  13.245  0.1492 -0.0001  0.0809
 6317TIP3    H140366   0.234   2.161  13.320  0.2259 -0.6435  0.5781
 6317TIP3    H240367   0.292   2.123  13.185  0.6168 -0.1147  0.5927
 6318TIP3   OH240368   6.620   0.122  10.679 -0.7767 -0.0980 -0.0836
 6318TIP3    H140369   6.696   0.082  10.636  0.8689  0.6821  1.9111
 6318TIP3    H240370   6.551   0.055  10.673  1.0274 -2.1489  0.7340
 6319TIP3   OH240371   0.564   0.581  16.631 -0.1444 -0.3959  0.3582
 6319TIP3    H140372   0.632   0.648  16.620 -0.7533  0.3238  0.8697
 6319TIP3    H240373   0.609   0.509  16.676  1.1075 -1.3328 -2.2057
 6320TIP3   OH240374   6.647   2.593   3.878 -0.8923 -0.4713 -0.0921
 6320TIP3    H140375   6.674   2.679   3.911 -0.4580 -1.6007  2.7788
 6320TIP3    H240376   6.553   2.588   3.897 -0.8896 -0.6975 -0.1402
 6321TIP3   OH240377   2.060   0.737   0.493 -0.0792 -0.0057  0.7482
 6321TIP3    H140378   2.071   0.711   0.402 -0.5589 -0.4989  0.8262
 6321TIP3    H240379   2.142   0.711   0.535  0.5079  1.0335  0.2887
 6322TIP3   OH240380   2.070   0.355  11.327 -0.3366  0.1765  0.4508
 6322TIP3    H140381   2.141   0.300  11.292  0.1333  0.2513  1.2694
 6322TIP3    H240382   1.991   0.302  11.314 -0.0613 -0.1426  0.0349
 6323TIP3   OH240383   2.965   1.724  14.512 -0.5895 -0.1925 -0.4421
 6323TIP3    H140384   2.996   1.804  14.555 -1.6228 -0.2537  0.4570
 6323TIP3    H240385   2.999   1.653  14.566 -1.5457 -0.2822  0.0589
 6324TIP3   OH240386   2.353   1.092  10.794 -0.4446  0.7957 -0.0071
 6324TIP3    H140387   2.263   1.074  10.821 -0.4506  0.3006 -0.3432
 6324TIP3    H240388   2.367   1.035  10.719  0.2102  0.7411  0.1543
 6325TIP3   OH240389   6.094   2.899   3.046 -0.1829  0.0514  0.5010
 6325TIP3    H140390   6.138   2.921   3.128 -0.0423 -1.7316  0.9398
 6325TIP3    H240391   6.117   2.970   2.987  1.6898  0.1727  1.2987
 6326TIP3   OH240392   4.591   3.035  11.252  0.3001  0.4611 -0.5568
 6326TIP3    H140393   4.650   2.961  11.247  0.0967  0.3547 -1.5125
 6326TIP3    H240394   4.566   3.040  11.344 -1.1197 -1.7991 -0.7542
 6327TIP3   OH240395   4.349   5.703   2.177 -0.1788  0.0611 -0.3106
 6327TIP3    H140396   4.430   5.654   2.162  0.0187  0.2488  0.1552
 6327TIP3    H240397   4.377   5.786   2.215 -0.6002  0.0871 -0.0529
 6328TIP3   OH240398   3.014   0.940   1.101 -0.5670  0.1594  0.6092
 6328TIP3    H140399   3.029   0.943   1.196 -0.1109 -1.9376  0.6451
 6328TIP3    H240400   2.970   0.857   1.085  1.1414 -0.4762 -1.2267
 6329TIP3   OH240401   2.600   0.395  11.192 -0.0927  0.3924 -0.1673
 6329TIP3    H140402   2.679   0.450  11.184 -0.6107  1.0630 -0.9103
 6329TIP3    H240403   2.552   0.412  11.111  0.3258 -2.1663 -1.0205
 6330TIP3   OH240404   5.172   3.716  13.219  0.4672  0.0584  0.2914
 6330TIP3    H140405   5.183   3.789  13.280  0.9985 -0.5115  0.8990
 6330TIP3    H240406   5.126   3.649  13.269  2.5441 -1.1435  0.7181
 6331TIP3   OH240407   1.839   1.655  12.160 -0.1147  0.0897  0.1755
 6331TIP3    H140408   1.930   1.636  12.183  0.0607  1.2565  0.5248
 6331TIP3    H240409   1.815   1.729  12.215 -1.2420 -0.1071 -0.0140
 6332TIP3   OH240410   1.531   1.530   0.204  0.3156 -0.8936 -0.2523
 6332TIP3    H140411   1.493   1.615   0.228 -3.1152 -2.0982 -0.7436
 6332TIP3    H240412   1.478   1.466   0.253  1.3656 -2.8337 -1.5308
 6333TIP3   OH240413   1.723   5.715   5.868 -0.4751  0.0793 -0.2705
 6333TIP3    H140414   1.768   5.631   5.859  2.9721  1.5660  1.4817
 6333TIP3    H240415   1.670   5.705   5.947  0.5999 -0.2196  0.4341
 6334TIP3   OH240416   0.748   3.607   3.427  0.3483 -0.0195 -0.3999
 6334TIP3    H140417   0.669   3.557   3.449  1.0787 -1.0120  0.0787
 6334TIP3    H240418   0.733   3.636   3.337 -0.5579 -0.1979 -0.3226
 6335TIP3   OH240419   0.980   5.569  12.462 -0.3631  0.3663 -0.2385
 6335TIP3    H140420   0.953   5.551  12.372 -0.4242 -2.2041  0.2078
 6335TIP3    H240421   0.914   5.628  12.496 -2.1946 -1.1625 -0.9561
 6336TIP3   OH240422   0.827   6.100   3.368 -0.0923  0.0884 -0.5398
 6336TIP3    H140423   0.795   6.010   3.368  1.3512 -0.4596  0.2488
 6336TIP3    H240424   0.922   6.092   3.374  0.1112  1.6643 -1.0778
 6337TIP3   OH240425   3.819   6.664  11.278 -0.2803  0.2355  0.1098
 6337TIP3    H140426   3.874   6.588  11.299 -0.5944  0.2869  1.1686
 6337TIP3    H240427   3.875   6.739  11.292 -0.7920  0.3272  1.9135
 6338TIP3   OH240428   6.169   2.100  12.780  0.3876 -0.2092  0.3368
 6338TIP3    H140429   6.177   2.169  12.847  0.2178 -0.0053  0.1475
 6338TIP3    H240430   6.119   2.031  12.823 -3.2202  1.4988 -0.7804
 6339TIP3   OH240431   2.591   3.722   3.690 -0.2344 -0.2428 -0.7418
 6339TIP3    H140432   2.677   3.714   3.649  0.9856  0.6779  1.4579
 6339TIP3    H240433   2.602   3.793   3.753 -3.3852  1.7844 -2.2224
 6340TIP3   OH240434   5.250   1.258   1.792  0.1178 -0.0780 -0.6328
 6340TIP3    H140435   5.243   1.278   1.885 -0.0627 -0.3109 -0.5961
 6340TIP3    H240436   5.258   1.163   1.788  0.0541 -0.0750 -0.8594
 6341TIP3   OH240437   4.122   4.511  11.470 -0.3271  0.2653 -0.3952
 6341TIP3    H140438   4.058   4.538  11.537  0.3110  2.4050 -0.5722
 6341TIP3    H240439   4.092   4.554  11.390  1.0115  0.8537 -0.6058
 6342TIP3   OH240440   6.302   1.534   2.449 -0.4521 -0.2185  0.3030
 6342TIP3    H140441   6.360   1.555   2.522  0.2434 -0.7744 -0.0739
 6342TIP3    H240442   6.325   1.444   2.425  2.4864  1.2748 -3.4054
 6343TIP3   OH240443   6.158   1.635   5.719 -0.4638 -0.9610 -0.3795
 6343TIP3    H140444   6.159   1.552   5.672 -1.0425 -1.3439  0.2816
 6343TIP3    H240445   6.146   1.612   5.811  0.0620 -0.1813 -0.1005
 6344TIP3   OH240446   4.882   4.418  14.319 -0.5471 -0.0038 -0.7722
 6344TIP3    H140447   4.936   4.403  14.241  1.5779  1.5529  0.2775
 6344TIP3    H240448   4.890   4.512  14.336 -0.6265 -0.3401  1.4929
 6345TIP3   OH240449   6.393   4.300  14.312 -0.0783  0.1391 -0.1872
 6345TIP3    H140450   6.458   4.367  14.330 -1.7154  1.9148 -0.5286
 6345TIP3    H240451   6.444   4.222  14.289  1.9083  1.5759 -0.9309
 6346TIP3   OH240452   6.596   0.142   2.417 -0.2645  0.3637  0.1728
 6346TIP3    H140453   6.672   0.184   2.458 -0.4111  0.8657 -0.0638
 6346TIP3    H240454   6.532   0.135   2.488 -0.0925  0.1766  0.3098
 6347TIP3   OH240455   5.189   5.595   2.737  0.4254  0.3143  0.5556
 6347TIP3    H140456   5.179   5.531   2.667  1.2399  0.3196  0.4308
 6347TIP3    H240457   5.228   5.671   2.695 -0.9079  1.0697  0.6184
 6348TIP3   OH240458   6.426   3.294  12.052 -0.0250 -0.3088 -0.6693
 6348TIP3    H140459   6.415   3.200  12.069  0.6465 -0.1357  0.8924
 6348TIP3    H240460   6.393   3.336  12.132 -0.4473  0.8053 -1.4127
 6349TIP3   OH240461   0.740   0.069   0.729  0.7564 -0.6115  0.3726
 6349TIP3    H140462   0.812   0.102   0.676 -1.1218  3.9859  0.1950
 6349TIP3    H240463   0.668   0.058   0.667  0.3736 -1.9235  1.0171
 6350TIP3   OH240464   2.503   1.051   0.455 -0.0018  0.2418 -0.0737
 6350TIP3    H140465   2.461   0.966   0.464 -1.3825  0.7745 -1.0775
 6350TIP3    H240466   2.563   1.057   0.529 -1.1646 -0.8712  0.9948
 6351TIP3   OH240467   0.882   0.347  11.572  0.5254  0.3212 -0.2968
 6351TIP3    H140468   0.881   0.397  11.654 -1.9005  0.7235 -0.5118
 6351TIP3    H240469   0.973   0.317  11.564  0.8245  0.1396  2.6015
 6352TIP3   OH240470   4.850   1.322   0.473  0.4802 -0.1635  0.2927
 6352TIP3    H140471   4.777   1.284   0.524 -0.3771  0.7077 -0.2511
 6352TIP3    H240472   4.893   1.382   0.533  0.4723 -0.3393  0.4758
 6353TIP3   OH240473   5.360   3.530  11.948 -0.4813 -0.0294 -0.1860
 6353TIP3    H140474   5.312   3.601  11.991  2.3033  1.5693  0.4933
 6353TIP3    H240475   5.333   3.452  11.995 -1.0342  1.0493  1.3729
 6354TIP3   OH240476   0.858   2.664   0.624  0.2410 -0.3251 -0.5593
 6354TIP3    H140477   0.823   2.703   0.705  0.3335  0.1000 -0.7213
 6354TIP3    H240478   0.947   2.699   0.618 -0.4429  1.3261 -1.9290
 6355TIP3   OH240479   1.541   4.482  11.950  0.1575  0.3289  0.6172
 6355TIP3    H140480   1.504   4.410  12.000  0.2641 -0.6167 -0.6310
 6355TIP3    H240481   1.475   4.552  11.956 -0.6271 -0.3969  0.6065
 6356TIP3   OH240482   5.199   1.275   2.052 -0.2980 -0.5062  0.3892
 6356TIP3    H140483   5.121   1.229   2.083 -0.7864  0.1276  0.1008
 6356TIP3    H240484   5.239   1.309   2.132 -1.3840  0.8484  0.3752
 6357TIP3   OH240485   4.045   5.970   5.668 -0.0099  0.0329 -0.2650
 6357TIP3    H140486   4.014   5.959   5.758 -1.3009 -0.8403 -0.7941
 6357TIP3    H240487   4.111   5.901   5.657  0.5350  0.4754  0.1610
 6358TIP3   OH240488   3.250   3.890  17.039 -0.7501  0.0894 -0.0029
 6358TIP3    H140489   3.207   3.971  17.068 -1.6713 -0.7453  1.0461
 6358TIP3    H240490   3.322   3.878  17.102 -2.3703 -1.3925  1.6678
 6359TIP3   OH240491   2.263   6.222   1.937  0.2166 -0.5616 -0.8269
 6359TIP3    H140492   2.260   6.269   1.854  0.6814 -0.7329 -0.9436
 6359TIP3    H240493   2.290   6.288   2.002  0.7062 -0.6223 -0.9620
 6360TIP3   OH240494   5.297   2.929  13.561  0.3477  0.1721  0.6715
 6360TIP3    H140495   5.387   2.901  13.545 -0.2072 -1.8866  0.8050
 6360TIP3    H240496   5.265   2.870  13.629 -0.5106  2.1464  2.0914
 6361TIP3   OH240497   6.245   4.425   1.319  0.5696  0.1213 -1.1006
 6361TIP3    H140498   6.192   4.491   1.362  2.1373  1.6321 -1.3508
 6361TIP3    H240499   6.284   4.374   1.390  0.3908  0.3155 -0.8639
 6362TIP3   OH240500   3.687   2.787  10.670 -0.2210  0.0016 -0.2278
 6362TIP3    H140501   3.693   2.877  10.638  1.4335  0.3240  0.8793
 6362TIP3    H240502   3.623   2.791  10.741 -0.6026  0.1683 -0.5774
 6363TIP3   OH240503   4.239   5.908  15.996 -0.1064 -0.0925  0.3003
 6363TIP3    H140504   4.223   5.991  15.951 -1.0132  0.0624  0.8959
 6363TIP3    H240505   4.176   5.847  15.957  0.6546 -0.5495 -0.2397
 6364TIP3   OH240506   6.095   2.444   2.535  0.2269 -0.3014 -0.1743
 6364TIP3    H140507   6.020   2.421   2.589  0.8382  1.3452  1.4930
 6364TIP3    H240508   6.116   2.364   2.486 -1.2274 -1.4331  0.9758
 6365TIP3   OH240509   0.203   1.078  11.917 -0.0293  0.3113 -0.0401
 6365TIP3    H140510   0.239   0.992  11.939  0.7289  0.4646 -0.6674
 6365TIP3    H240511   0.139   1.061  11.849  1.8552  0.4693 -1.9651
 6366TIP3   OH240512   2.582   1.832  11.146 -0.3589  0.5011  0.6129
 6366TIP3    H140513   2.593   1.757  11.087 -1.2447  1.2631 -0.5610
 6366TIP3    H240514   2.570   1.793  11.232 -1.3670 -0.7558 -0.0555
 6367TIP3   OH240515   4.856   0.260  11.662  0.3522 -0.1466 -0.1249
 6367TIP3    H140516   4.855   0.240  11.755 -2.4717  0.2628  0.0322
 6367TIP3    H240517   4.918   0.332  11.653  2.8872 -2.0776  0.8901
 6368TIP3   OH240518   0.059   1.893  16.868  0.0677  0.0714 -0.3777
 6368TIP3    H140519  -0.023   1.910  16.914 -0.1225  0.7867 -0.9672
 6368TIP3    H240520   0.036   1.827  16.802 -0.2788  0.9628 -1.1839
 6369TIP3   OH240521   6.516   3.024   1.044 -0.5537 -0.2340  0.7303
 6369TIP3    H140522   6.521   3.071   0.961  1.5826 -1.0032  0.3696
 6369TIP3    H240523   6.563   3.079   1.106 -0.2506 -0.6940  0.9114
 6370TIP3   OH240524   1.112   6.129  17.132 -0.1195 -0.2369  0.5240
 6370TIP3    H140525   1.164   6.053  17.105 -0.7150 -0.1145 -1.1107
 6370TIP3    H240526   1.021   6.101  17.121 -0.3492  0.7988 -0.4679
 6371TIP3   OH240527   1.658   2.655   1.949 -0.4826 -0.1745 -0.0696
 6371TIP3    H140528   1.613   2.654   2.034 -1.0940  1.4855 -0.3424
 6371TIP3    H240529   1.591   2.685   1.887  0.4607  0.4349 -0.8218
 6372TIP3   OH240530   6.597   5.815   4.905  0.4398  0.7417  0.3722
 6372TIP3    H140531   6.562   5.858   4.827  1.1564 -2.3450 -1.8750
 6372TIP3    H240532   6.572   5.872   4.978 -0.3797  3.7415 -2.0576
 6373TIP3   OH240533   5.048   5.484  17.158 -0.1118  0.0507 -0.3266
 6373TIP3    H140534   5.112   5.444  17.217  0.8691  3.4495  1.2148
 6373TIP3    H240535   5.100   5.526  17.090 -0.8767  0.7130 -0.5244
 6374TIP3   OH240536   3.205   6.327   1.252 -0.0633 -0.1866 -0.2024
 6374TIP3    H140537   3.291   6.287   1.238 -0.5582 -1.2374 -0.3262
 6374TIP3    H240538   3.214   6.415   1.215  0.6502 -0.6320 -1.1459
 6375TIP3   OH240539   4.506   3.318  11.899 -0.2731  0.2643  0.0814
 6375TIP3    H140540   4.564   3.291  11.970  0.2500  0.5920 -0.2106
 6375TIP3    H240541   4.541   3.403  11.871  1.9348 -1.4919 -3.0761
 6376TIP3   OH240542   4.962   3.297  11.916 -0.1844 -0.5378 -0.2486
 6376TIP3    H140543   4.924   3.324  11.832  0.1594  0.1049 -0.2048
 6376TIP3    H240544   4.925   3.357  11.980 -1.8192 -2.1086  0.3829
 6377TIP3   OH240545   6.612   0.566   2.867 -0.1538  0.7590 -0.6099
 6377TIP3    H140546   6.640   0.655   2.887 -0.4760  0.5940  0.6474
 6377TIP3    H240547   6.692   0.514   2.876 -0.3760  0.6231  0.7462
 6378TIP3   OH240548   5.150   2.790   5.419 -0.2799  0.7854  0.0073
 6378TIP3    H140549   5.115   2.834   5.497 -1.4187 -0.5908  0.3115
 6378TIP3    H240550   5.118   2.700   5.425  1.7379 -0.0462 -0.7437
 6379TIP3   OH240551   5.519   6.383   6.582 -0.1599  0.4456 -0.5928
 6379TIP3    H140552   5.529   6.400   6.488 -2.1581  0.2208 -0.8957
 6379TIP3    H240553   5.503   6.289   6.588  1.4810  0.1755  0.1662
 6380TIP3   OH240554   5.193   1.892   2.513 -0.2585  0.2239 -0.0791
 6380TIP3    H140555   5.248   1.941   2.575 -0.8728 -1.0032  1.4964
 6380TIP3    H240556   5.250   1.824   2.478  0.2394  1.2320 -1.3300
 6381TIP3   OH240557   5.578   5.850  16.533  0.0461 -0.0873  0.0322
 6381TIP3    H140558   5.537   5.924  16.579  1.5684  1.4309 -0.9091
 6381TIP3    H240559   5.611   5.793  16.602  2.8286  2.4308  0.9824
 6382TIP3   OH240560   5.893   2.127  12.256 -0.2624  0.3373 -0.3684
 6382TIP3    H140561   5.974   2.123  12.308 -0.4390 -0.6548 -0.1471
 6382TIP3    H240562   5.897   2.049  12.201 -1.2304  0.1073 -0.1207
 6383TIP3   OH240563   4.033   4.838   1.380 -0.0434  0.0957  0.2582
 6383TIP3    H140564   4.042   4.870   1.290 -0.2834 -0.7545 -0.0848
 6383TIP3    H240565   4.002   4.748   1.370 -1.2449  0.3723  1.2172
 6384TIP3   OH240566   0.165   2.753   3.848  0.1984  0.0421  0.2878
 6384TIP3    H140567   0.149   2.831   3.901  3.0122 -0.6885  2.4403
 6384TIP3    H240568   0.179   2.683   3.911 -0.1345 -1.7781 -1.5494
 6385TIP3   OH240569   2.044   0.108  11.068  0.1039  1.0133  0.0720
 6385TIP3    H140570   2.017   0.052  11.140 -0.0652  0.3414 -0.5010
 6385TIP3    H240571   2.025   0.057  10.989 -0.8582  2.2112 -0.5062
 6386TIP3   OH240572   0.532   6.476  14.115  0.1390 -0.1243  0.5901
 6386TIP3    H140573   0.441   6.478  14.145  0.2380  1.1012  0.8540
 6386TIP3    H240574   0.577   6.540  14.171  1.1184 -0.5425  0.3043
 6387TIP3   OH240575   1.896   3.036   2.896 -0.4319 -0.8519 -0.3535
 6387TIP3    H140576   1.927   3.106   2.839 -0.6517 -0.9676 -0.6232
 6387TIP3    H240577   1.973   3.007   2.945 -0.7211  0.9779  1.3032
 6388TIP3   OH240578   3.003   2.434  11.420  0.0646 -0.1646 -0.0922
 6388TIP3    H140579   3.024   2.497  11.351 -1.1802  0.5247  0.1117
 6388TIP3    H240580   2.959   2.362  11.375 -0.0247 -0.0887 -0.1270
 6389TIP3   OH240581   0.287   6.775  14.353 -0.5366  0.1762 -0.0384
 6389TIP3    H140582   0.203   6.750  14.314  0.5523 -2.3225 -1.0135
 6389TIP3    H240583   0.330   6.828  14.286 -0.5686 -0.1855 -0.3507
 6390TIP3   OH240584   2.804   3.916   5.616 -0.1709  0.3574  0.1254
 6390TIP3    H140585   2.751   3.970   5.675 -0.0757 -0.6425  1.1546
 6390TIP3    H240586   2.863   3.978   5.574 -1.3556  1.3296 -0.1717
 6391TIP3   OH240587   2.567   5.556  11.835  0.4020  0.6312 -0.2192
 6391TIP3    H140588   2.605   5.576  11.750  1.9817  0.7461  0.4719
 6391TIP3    H240589   2.635   5.507  11.881  0.5805  2.6058  1.8227
 6392TIP3   OH240590   0.135   3.479  14.405  0.2132 -0.0306 -0.6787
 6392TIP3    H140591   0.131   3.511  14.315 -1.1771 -0.8998 -0.9611
 6392TIP3    H240592   0.121   3.557  14.459 -0.3851  0.2842 -1.2726
 6393TIP3   OH240593   0.491   3.710   3.813 -0.3422  0.3827 -0.8766
 6393TIP3    H140594   0.434   3.650   3.861  0.0160 -0.3735 -1.3887
 6393TIP3    H240595   0.468   3.697   3.721  1.2703 -0.5926 -1.1718
 6394TIP3   OH240596   5.178   3.117   5.053 -1.0581 -0.0712  0.6444
 6394TIP3    H140597   5.268   3.083   5.053 -0.4996  1.3185  1.3667
 6394TIP3    H240598   5.140   3.084   4.972  0.2947 -0.2413  0.0446
 6395TIP3   OH240599   2.106   6.017   4.710 -0.2013 -0.0265  0.0252
 6395TIP3    H140600   2.109   6.101   4.757  0.8581 -0.8593  1.5499
 6395TIP3    H240601   2.021   6.017   4.666  0.0006  2.0809 -0.4949
 6396TIP3   OH240602   4.376   3.894  11.105 -0.0430 -0.0951 -0.0905
 6396TIP3    H140603   4.449   3.865  11.161 -0.0489 -1.7648 -0.8685
 6396TIP3    H240604   4.314   3.821  11.109 -0.7214  0.4226 -1.0691
 6397TIP3   OH240605   0.918   1.607  12.978 -0.2032  0.4989  0.6256
 6397TIP3    H140606   0.865   1.533  13.008 -2.0939  1.2605 -0.6436
 6397TIP3    H240607   0.856   1.665  12.936  1.8961  0.5685 -2.7138
 6398TIP3   OH240608   0.831   6.091  12.752 -0.1765  0.1432  0.0474
 6398TIP3    H140609   0.846   6.185  12.745  1.2054  0.1808  2.4883
 6398TIP3    H240610   0.743   6.078  12.718 -0.8839  2.4903  0.8194
 6399TIP3   OH240611   0.141   3.831  12.780 -0.3522 -0.0555 -0.8660
 6399TIP3    H140612   0.054   3.809  12.814 -0.5565 -0.8151 -1.8442
 6399TIP3    H240613   0.131   3.830  12.685  0.7379 -0.2010 -0.9942
 6400TIP3   OH240614   5.524   2.788  12.702 -0.0616 -0.6264  0.7889
 6400TIP3    H140615   5.593   2.845  12.668  0.8216 -1.3574  1.3358
 6400TIP3    H240616   5.468   2.771  12.626  0.3617 -0.0493  0.3350
 6401TIP3   OH240617   0.526   0.211   4.826 -0.2282 -0.0664  0.3783
 6401TIP3    H140618   0.441   0.171   4.843  0.1271 -0.0734  2.4463
 6401TIP3    H240619   0.508   0.305   4.825 -0.4155 -0.1056 -0.2761
 6402TIP3   OH240620   2.647   3.393   2.558  0.0075  0.0836 -0.1518
 6402TIP3    H140621   2.578   3.436   2.508  0.0550 -0.4404 -0.6805
 6402TIP3    H240622   2.601   3.344   2.626 -0.1988 -0.7506 -0.8696
 6403TIP3   OH240623   5.767   4.074  14.357  0.4564 -0.5990 -0.0788
 6403TIP3    H140624   5.854   4.051  14.324  0.5724 -0.0842 -0.1395
 6403TIP3    H240625   5.720   4.106  14.280  1.5111  2.9607  0.5997
 6404TIP3   OH240626   2.366   3.916  13.958 -0.0089  0.4157 -0.4414
 6404TIP3    H140627   2.360   3.917  14.053 -0.5229  0.7763 -0.4722
 6404TIP3    H240628   2.452   3.952  13.938 -0.4007  1.5299 -0.1467
 6405TIP3   OH240629   1.377   0.132   1.505 -0.0984 -0.0226 -0.7127
 6405TIP3    H140630   1.420   0.048   1.522  0.2266  0.1072 -0.8730
 6405TIP3    H240631   1.438   0.178   1.446 -0.0811  0.4830 -0.3043
 6406TIP3   OH240632   2.124   5.909  12.787  0.2581 -0.3665  0.4167
 6406TIP3    H140633   2.187   5.927  12.857 -0.5858  0.3213  1.0119
 6406TIP3    H240634   2.062   5.847  12.826 -0.1876 -0.0180  0.2704
 6407TIP3   OH240635   6.256   3.746  14.961  0.2323  0.0800 -0.4739
 6407TIP3    H140636   6.337   3.798  14.965 -1.2925  2.8708 -2.1681
 6407TIP3    H240637   6.227   3.755  14.870 -3.0145  0.9721  0.5155
 6408TIP3   OH240638   6.346   1.149  13.128  0.3672  0.0981  0.4245
 6408TIP3    H140639   6.289   1.223  13.105 -0.6927 -0.2731  1.7445
 6408TIP3    H240640   6.300   1.072  13.096  0.6515 -0.1287  0.5536
 6409TIP3   OH240641   0.952   4.306   1.489 -0.3781  0.4985  0.2850
 6409TIP3    H140642   0.867   4.347   1.504 -0.5764  0.1482  0.1372
 6409TIP3    H240643   0.939   4.252   1.411 -0.3393 -0.4689  0.9387
 6410TIP3   OH240644   1.611   2.088   5.807 -0.0773 -0.1592  0.4784
 6410TIP3    H140645   1.573   2.174   5.826  0.7464  0.5246 -0.7684
 6410TIP3    H240646   1.602   2.079   5.712 -1.3825 -2.0761  0.7400
 6411TIP3   OH240647   2.602   5.979  12.466 -0.0814 -0.4400  0.3319
 6411TIP3    H140648   2.661   6.044  12.428 -1.2603  0.3752 -0.1940
 6411TIP3    H240649   2.532   5.970  12.401 -0.5905 -1.2970  0.9787
 6412TIP3   OH240650   5.123   5.377   4.814 -0.6564  0.3135  0.1682
 6412TIP3    H140651   5.115   5.295   4.864 -0.6771  1.6120  2.4473
 6412TIP3    H240652   5.178   5.433   4.869  1.4040  1.0620 -2.4523
 6413TIP3   OH240653   5.269   0.875   0.043 -0.1901  0.4503  0.0736
 6413TIP3    H140654   5.187   0.830   0.024  0.3407 -0.6707  0.3183
 6413TIP3    H240655   5.276   0.942  -0.024 -0.2276 -0.9065 -1.3541
 6414TIP3   OH240656   1.557   0.762   4.914 -0.4645  0.1123 -0.8499
 6414TIP3    H140657   1.505   0.713   4.851  0.3129 -2.6996  0.5681
 6414TIP3    H240658   1.509   0.754   4.997  1.0541 -0.6252 -0.0070
 6415TIP3   OH240659   1.729   2.216  16.056  0.4249  0.3653  0.1158
 6415TIP3    H140660   1.743   2.285  16.122  1.5151  0.6481 -0.3849
 6415TIP3    H240661   1.795   2.234  15.989  0.6263 -1.0954 -0.0945
 6416TIP3   OH240662   3.152   5.516   3.387  0.1054 -0.0388 -0.0772
 6416TIP3    H140663   3.073   5.475   3.423  0.4721 -0.9006 -0.2121
 6416TIP3    H240664   3.124   5.552   3.303 -0.4563  0.8715  0.4812
 6417TIP3   OH240665   1.682   2.286  13.073 -0.2055  0.0096 -0.0585
 6417TIP3    H140666   1.756   2.265  13.129  0.3114 -0.3093 -0.8327
 6417TIP3    H240667   1.722   2.311  12.989 -0.9718 -0.3816 -0.5572
 6418TIP3   OH240668   4.236   4.556  13.758 -0.1245 -0.1501 -0.0547
 6418TIP3    H140669   4.297   4.482  13.760  0.8357  0.6324  1.0788
 6418TIP3    H240670   4.291   4.633  13.771 -0.8785  0.9739 -2.8545
 6419TIP3   OH240671   6.540   0.499   3.476  0.5169  0.0821 -0.0654
 6419TIP3    H140672   6.583   0.476   3.394  1.6190  0.1602  0.4806
 6419TIP3    H240673   6.596   0.565   3.515  0.1195 -0.1170  0.8604
 6420TIP3   OH240674   6.503   4.641   1.102  0.4431  0.1114  0.1169
 6420TIP3    H140675   6.524   4.689   1.182 -0.2379  0.6352 -0.0104
 6420TIP3    H240676   6.424   4.592   1.124  2.2490 -2.7119  0.9510
 6421TIP3   OH240677   5.328   4.255  12.868  0.3014 -1.0293  0.2903
 6421TIP3    H140678   5.238   4.280  12.847  1.2120  0.5388 -2.2240
 6421TIP3    H240679   5.329   4.160  12.856 -1.0718 -1.1121  0.6506
 6422TIP3   OH240680   0.417   1.337  14.629 -0.2354 -0.2619  0.3802
 6422TIP3    H140681   0.381   1.398  14.565 -0.8184  0.3597  1.2871
 6422TIP3    H240682   0.368   1.354  14.709  0.6001 -0.9065  1.0458
 6423TIP3   OH240683   1.003   4.939  15.262 -0.1360  0.2026  0.5226
 6423TIP3    H140684   1.013   4.867  15.200 -2.6329  0.3608 -0.1950
 6423TIP3    H240685   1.042   4.908  15.343 -0.8605 -1.8222  0.1364
 6424TIP3   OH240686   3.956   4.973   6.373 -0.2671 -0.3017 -0.2228
 6424TIP3    H140687   3.919   4.920   6.303  0.5934 -0.3915 -0.6271
 6424TIP3    H240688   4.029   4.921   6.406  1.1528  0.9727 -1.2183
 6425TIP3   OH240689   1.343   4.530   2.760 -0.7851  0.2472 -0.3602
 6425TIP3    H140690   1.252   4.513   2.736 -0.3293 -1.7233 -0.9261
 6425TIP3    H240691   1.378   4.444   2.783  0.6397  1.1276  0.9497
 6426TIP3   OH240692   3.798   1.662   3.086 -0.2312 -0.1248  0.6682
 6426TIP3    H140693   3.848   1.726   3.035 -0.2428  0.1898  1.0422
 6426TIP3    H240694   3.707   1.689   3.076 -0.4624 -1.3796 -0.9625
 6427TIP3   OH240695   0.335   4.160   4.916 -0.0001  0.0508  0.5258
 6427TIP3    H140696   0.331   4.182   5.009 -1.0178  0.0806  0.4812
 6427TIP3    H240697   0.247   4.130   4.895  0.3435 -0.3641 -0.3303
 6428TIP3   OH240698   6.549   3.258  15.647 -0.3714 -0.3540  0.0620
 6428TIP3    H140699   6.605   3.205  15.590 -1.5452 -0.0115 -1.5033
 6428TIP3    H240700   6.510   3.196  15.708 -0.6735 -1.0928 -0.8656
 6429TIP3   OH240701   4.952   1.802  12.189 -0.6194  0.3830  0.4727
 6429TIP3    H140702   4.991   1.888  12.204 -0.8603  0.1822  2.5546
 6429TIP3    H240703   5.025   1.746  12.164 -0.1913  0.8273  0.7138
 6430TIP3   OH240704   5.381   5.107  10.473  0.0001  0.2286  0.3387
 6430TIP3    H140705   5.425   5.095  10.557  1.0316  0.0007 -0.2089
 6430TIP3    H240706   5.296   5.065  10.483 -0.5024  1.4896  1.7401
 6431TIP3   OH240707   0.297   1.484   4.555  0.2233  0.1984 -0.1197
 6431TIP3    H140708   0.334   1.477   4.644 -1.3228 -1.9698  0.4200
 6431TIP3    H240709   0.279   1.394   4.529  3.0167  0.4556 -3.7861
 6432TIP3   OH240710   1.514   5.329  11.413 -0.1333 -0.1477 -0.2033
 6432TIP3    H140711   1.419   5.327  11.428 -0.3736  1.8436 -1.2331
 6432TIP3    H240712   1.551   5.298  11.496 -1.6489  0.3931  0.7317
 6433TIP3   OH240713   2.783   4.154   5.907  0.6107  0.7871  0.2098
 6433TIP3    H140714   2.817   4.211   5.838  5.0572  0.7550  2.0568
 6433TIP3    H240715   2.694   4.186   5.922  0.7257  3.1011 -3.0362
 6434TIP3   OH240716   2.770   3.679  14.320  0.1908 -0.7589 -0.5460
 6434TIP3    H140717   2.678   3.687  14.295  0.1018  0.8361  0.1541
 6434TIP3    H240718   2.787   3.585  14.324 -1.1623 -1.0636 -1.5405
 6435TIP3   OH240719   6.222   5.642   3.890 -0.2641 -0.6629 -0.3341
 6435TIP3    H140720   6.131   5.669   3.883 -0.8700 -1.5860  2.5520
 6435TIP3    H240721   6.239   5.593   3.809 -1.4587  1.6508 -2.0951
 6436TIP3   OH240722   4.127   3.604  13.523  0.3993  0.0540  0.0286
 6436TIP3    H140723   4.222   3.607  13.537  0.4281  0.7089 -0.2507
 6436TIP3    H240724   4.115   3.627  13.431 -0.0998  1.4671  0.4135
 6437TIP3   OH240725   6.333   6.634   2.941 -0.4931  0.5246  0.3602
 6437TIP3    H140726   6.260   6.665   2.995 -0.1958  1.2797  0.3283
 6437TIP3    H240727   6.411   6.660   2.988 -0.2249 -0.4774  0.5016
 6438TIP3   OH240728   6.625   5.367  10.600  0.0508  0.3373 -0.7986
 6438TIP3    H140729   6.651   5.458  10.585  0.7676  0.2926  0.0794
 6438TIP3    H240730   6.707   5.318  10.596  0.1483  0.1453  1.6343
 6439TIP3   OH240731   6.613   1.587   5.145  0.6886 -0.0330 -0.2897
 6439TIP3    H140732   6.545   1.598   5.079  0.1173 -0.0946  0.2730
 6439TIP3    H240733   6.675   1.658   5.129  1.1003 -0.6503 -1.5173
 6440TIP3   OH240734   5.306   5.166  11.548 -0.6796 -0.2615 -0.5183
 6440TIP3    H140735   5.242   5.187  11.480  0.9554  1.0908 -1.7505
 6440TIP3    H240736   5.339   5.252  11.577  1.9355 -0.8895 -1.3593
 6441TIP3   OH240737   2.913   1.447   0.069  0.1977 -0.1967 -0.0566
 6441TIP3    H140738   2.861   1.374   0.036  0.3092  0.1228 -0.9833
 6441TIP3    H240739   2.994   1.443   0.019  0.3828  0.2990  0.1966
 6442TIP3   OH240740   4.481   6.638   4.985  0.5913  0.0768  0.0296
 6442TIP3    H140741   4.548   6.584   5.027 -0.2108 -0.8127  0.2082
 6442TIP3    H240742   4.398   6.602   5.017 -0.1165 -1.2273 -2.8786
 6443TIP3   OH240743   3.779   0.484   0.679 -0.4763  0.3878  0.4859
 6443TIP3    H140744   3.864   0.493   0.635 -0.5505 -1.4889 -0.1680
 6443TIP3    H240745   3.778   0.393   0.709 -2.3420  0.2904  0.2544
 6444TIP3   OH240746   6.664   4.697  14.778 -0.1425  0.0633  0.1389
 6444TIP3    H140747   6.706   4.782  14.770  0.1052 -0.0838 -0.1770
 6444TIP3    H240748   6.587   4.712  14.832 -0.3901  0.5857 -0.3594
 6445TIP3   OH240749   3.208   0.425  15.766 -0.3442 -0.0163  0.0249
 6445TIP3    H140750   3.169   0.348  15.806 -0.4760 -1.5247 -2.7481
 6445TIP3    H240751   3.145   0.452  15.699  2.0786 -1.0503 -2.9256
 6446TIP3   OH240752   2.312   4.453  15.179  0.1935 -0.6251  0.1302
 6446TIP3    H140753   2.347   4.367  15.156 -1.6039 -1.5005  0.4228
 6446TIP3    H240754   2.385   4.513  15.169  1.9732 -2.4315  1.5210
 6447TIP3   OH240755   3.414   0.323  15.616 -0.1083  0.4891  0.8866
 6447TIP3    H140756   3.488   0.349  15.671  0.0102  1.6817  0.2152
 6447TIP3    H240757   3.337   0.340  15.669 -0.0002  1.7274  0.6899
 6448TIP3   OH240758   4.409   4.551  14.787  0.1461  0.4478  0.0289
 6448TIP3    H140759   4.445   4.480  14.839 -0.5327 -0.1309 -0.2843
 6448TIP3    H240760   4.466   4.626  14.806  0.4567  0.0068  0.8831
 6449TIP3   OH240761   3.218   6.400  11.264 -0.0310  0.2519 -0.2202
 6449TIP3    H140762   3.176   6.446  11.337 -0.1048  2.1737 -1.4161
 6449TIP3    H240763   3.148   6.349  11.224  0.1359 -1.3363  1.3614
 6450TIP3   OH240764   2.268   0.243  11.170  0.0807  0.0752 -0.5280
 6450TIP3    H140765   2.199   0.176  11.164  0.9128 -0.7958 -0.6330
 6450TIP3    H240766   2.301   0.252  11.081  0.1031  0.4926 -0.4778
 6451TIP3   OH240767   2.769   6.596   4.287  0.0006  0.4855 -0.4052
 6451TIP3    H140768   2.690   6.595   4.233 -0.8077 -0.1806  0.7501
 6451TIP3    H240769   2.833   6.545   4.237 -0.8703 -0.4905 -0.5587
 6452TIP3   OH240770   3.690   4.182  13.683  0.3413 -0.4820 -0.0715
 6452TIP3    H140771   3.699   4.148  13.772 -0.4634 -2.0093 -0.5333
 6452TIP3    H240772   3.698   4.277  13.692  1.4334 -0.6894  1.4623
 6453TIP3   OH240773   0.958   1.616   0.815 -0.4212  0.2752  0.0807
 6453TIP3    H140774   0.967   1.695   0.762 -0.4222  0.5220  0.4446
 6453TIP3    H240775   0.864   1.608   0.832 -0.5785 -0.5088 -1.0052
 6454TIP3   OH240776   2.505   4.953  16.809  0.8603  0.0784 -0.4929
 6454TIP3    H140777   2.543   4.871  16.776  1.4562 -0.2679  0.9619
 6454TIP3    H240778   2.572   5.019  16.790  1.2270 -0.1283  0.0620
 6455TIP3   OH240779   3.760   0.458  16.471 -0.7289 -0.4329  0.3436
 6455TIP3    H140780   3.846   0.418  16.479 -0.8181 -0.4635  1.3234
 6455TIP3    H240781   3.766   0.513  16.393 -0.4450 -1.9242 -0.7250
 6456TIP3   OH240782   5.488   3.288  14.671 -0.0367  0.1919 -0.1804
 6456TIP3    H140783   5.466   3.318  14.582 -1.1790  2.3958  0.7654
 6456TIP3    H240784   5.547   3.215  14.657 -0.8845 -0.1187 -2.7857
 6457TIP3   OH240785   4.645   0.213   1.666  0.4748 -0.8607 -0.0065
 6457TIP3    H140786   4.695   0.182   1.741  0.6309 -0.9103 -0.1302
 6457TIP3    H240787   4.694   0.288   1.634  0.4478 -0.8846 -0.1042
 6458TIP3   OH240788   4.758   0.022  12.900  0.0371  0.0302 -0.4267
 6458TIP3    H140789   4.751  -0.054  12.956  0.6036  0.0691 -0.2970
 6458TIP3    H240790   4.684   0.014  12.839  0.5566 -1.0494 -0.9344
 6459TIP3   OH240791   2.156   2.026  15.448 -0.6075 -0.0188  0.0669
 6459TIP3    H140792   2.109   1.965  15.504 -0.3365 -1.7533 -1.4990
 6459TIP3    H240793   2.088   2.072  15.399 -0.7738 -0.9428 -0.5980
 6460TIP3   OH240794   3.479   2.236   2.964 -0.3183  0.2431 -0.0790
 6460TIP3    H140795   3.544   2.306   2.971  1.0045 -0.9691  0.2545
 6460TIP3    H240796   3.451   2.238   2.873 -1.3812  2.0915  0.2309
 6461TIP3   OH240797   4.148   1.878   5.664 -0.7538 -0.0881  0.1566
 6461TIP3    H140798   4.060   1.847   5.685 -0.4448 -0.7160  0.5306
 6461TIP3    H240799   4.148   1.885   5.568 -1.4533  0.6687  0.1942
 6462TIP3   OH240800   4.560   5.199   3.853  0.3284 -0.4794 -0.0580
 6462TIP3    H140801   4.552   5.146   3.774  0.7129  0.7700 -0.9619
 6462TIP3    H240802   4.586   5.137   3.921  0.6450 -1.4652 -1.0484
 6463TIP3   OH240803   2.552   0.566  15.295  0.4667  0.0822 -0.2750
 6463TIP3    H140804   2.638   0.580  15.333  0.8090 -0.6703 -0.7565
 6463TIP3    H240805   2.563   0.590  15.202 -0.0856  0.8873 -0.1443
 6464TIP3   OH240806   0.383   4.403  11.912  0.0489 -0.6326  0.0119
 6464TIP3    H140807   0.461   4.347  11.916  0.0953 -0.5064  1.2120
 6464TIP3    H240808   0.400   4.462  11.839  1.8987  0.5364  1.2803
 6465TIP3   OH240809   1.384   5.843  16.393  0.2110  0.2241 -0.0047
 6465TIP3    H140810   1.451   5.870  16.455  1.0487 -1.0698 -0.2813
 6465TIP3    H240811   1.385   5.747  16.397  1.2186  0.0004 -2.8793
 6466TIP3   OH240812   0.279   3.309   2.297 -0.0770 -0.0835 -0.1020
 6466TIP3    H140813   0.374   3.295   2.305  0.5326  3.0031 -0.4983
 6466TIP3    H240814   0.249   3.237   2.243  2.3328 -0.3962 -1.1750
 6467TIP3   OH240815   3.274   3.542   4.174 -0.2404  0.2354  0.7380
 6467TIP3    H140816   3.323   3.563   4.254 -1.5518  3.0201  0.9182
 6467TIP3    H240817   3.182   3.547   4.200 -0.7050 -1.1258 -0.4664
 6468TIP3   OH240818   1.430   5.546   2.457 -0.3226 -0.3455 -0.6285
 6468TIP3    H140819   1.483   5.625   2.472  0.0244 -0.4457 -1.2719
 6468TIP3    H240820   1.382   5.564   2.376  2.2633 -2.0299 -2.7122
 6469TIP3   OH240821   1.979   6.727  13.565  0.3220  0.3869  0.4471
 6469TIP3    H140822   2.029   6.804  13.537  1.9343 -1.1521 -1.1693
 6469TIP3    H240823   2.045   6.662  13.588 -0.9074 -1.3780 -0.7421
 6470TIP3   OH240824   3.705   1.977   1.343 -0.0237  0.3176  0.1604
 6470TIP3    H140825   3.610   1.966   1.344 -0.0307 -0.2853 -1.9180
 6470TIP3    H240826   3.720   2.054   1.398 -1.6286  0.0491  1.0644
 6471TIP3   OH240827   1.431   3.817  16.767  0.3475  0.2396  0.3369
 6471TIP3    H140828   1.438   3.822  16.671  0.8482 -1.3805  0.2588
 6471TIP3    H240829   1.394   3.730  16.784  0.1987  0.5297  1.6280
 6472TIP3   OH240830   4.858   0.909  11.591 -0.1511  0.2174 -0.1224
 6472TIP3    H140831   4.845   0.874  11.503  0.3272 -1.3442  0.3935
 6472TIP3    H240832   4.771   0.932  11.622 -0.4172 -0.0142 -0.7015
 6473TIP3   OH240833   6.185   3.183   5.600 -0.2589 -0.1444  0.0772
 6473TIP3    H140834   6.159   3.250   5.536  1.6115  0.0765 -0.4998
 6473TIP3    H240835   6.143   3.103   5.569 -0.1172  0.1541 -0.9189
 6474TIP3   OH240836   2.611   0.993  16.245  0.1568  0.3171 -0.3836
 6474TIP3    H140837   2.612   1.082  16.209 -0.9676  0.9497  1.0447
 6474TIP3    H240838   2.520   0.977  16.267  0.7652  0.0744  2.3278
 6475TIP3   OH240839   2.111   2.226  11.799 -0.2146  0.0059  0.8277
 6475TIP3    H140840   2.080   2.144  11.837 -0.1065  0.0699  1.0568
 6475TIP3    H240841   2.033   2.265  11.760  0.3063 -1.8531 -2.4193
 6476TIP3   OH240842   1.067   0.469  16.527  0.4197 -0.4609  0.2057
 6476TIP3    H140843   1.078   0.454  16.433  2.4756  1.0472  0.1375
 6476TIP3    H240844   1.092   0.387  16.568  2.7271 -0.1584 -0.4722
 6477TIP3   OH240845   3.173   2.758  16.143 -0.1747  1.0866  0.2125
 6477TIP3    H140846   3.109   2.756  16.215 -1.9305  0.4096 -1.2789
 6477TIP3    H240847   3.215   2.672  16.146 -2.3781 -0.1565 -1.2808
 6478TIP3   OH240848   6.631   5.623   0.103  0.0711  0.0609 -0.2161
 6478TIP3    H140849   6.717   5.587   0.123 -0.0236  0.2192  0.5319
 6478TIP3    H240850   6.582   5.550   0.066  0.4508 -0.0881 -0.4341
 6479TIP3   OH240851   2.376   6.426  16.295  0.0681  0.2446  0.5158
 6479TIP3    H140852   2.469   6.434  16.276 -0.0785  0.9170  0.0661
 6479TIP3    H240853   2.366   6.458  16.385  0.1304  1.0747  0.2307
 6480TIP3   OH240854   5.739   5.297   0.503 -0.1272 -0.0611 -0.4223
 6480TIP3    H140855   5.799   5.286   0.577  1.5969 -1.2770 -1.9301
 6480TIP3    H240856   5.758   5.385   0.470  1.6483 -0.7920 -1.5047
 6481TIP3   OH240857   6.175   6.607  16.947  0.2418  0.0662  0.4484
 6481TIP3    H140858   6.196   6.538  17.010 -1.1610  1.1633  2.2139
 6481TIP3    H240859   6.248   6.668  16.952  0.3601 -0.0933  0.6665
 6482TIP3   OH240860   2.076   0.212  12.213  0.1072 -0.0233  0.7007
 6482TIP3    H140861   1.989   0.246  12.234  0.0237  1.1289 -1.3414
 6482TIP3    H240862   2.060   0.144  12.147  0.7337 -0.1206  0.6448
 6483TIP3   OH240863   6.261   3.649  16.803  0.2415  0.2037 -0.7716
 6483TIP3    H140864   6.355   3.643  16.788  0.0853 -0.4260 -1.5730
 6483TIP3    H240865   6.234   3.560  16.827 -0.1296  0.3931 -0.4806
 6484TIP3   OH240866   3.766   0.857  14.728  0.2056 -0.0930  0.3108
 6484TIP3    H140867   3.730   0.816  14.649  0.9156 -1.7370  0.7874
 6484TIP3    H240868   3.757   0.951  14.714  0.4183 -0.3537 -1.7730
 6485TIP3   OH240869   6.517   0.938  15.295 -0.5072 -0.1973  0.0731
 6485TIP3    H140870   6.455   0.992  15.246  0.4583 -1.3496 -2.6080
 6485TIP3    H240871   6.483   0.937  15.384 -2.8380  1.3565 -0.7079
 6486TIP3   OH240872   6.046   3.745   6.731  0.1492  0.5467  0.0366
 6486TIP3    H140873   6.010   3.762   6.817 -0.0757 -0.0422  0.0668
 6486TIP3    H240874   5.970   3.745   6.672  0.4143  1.9729 -0.3378
 6487TIP3   OH240875   6.337   6.070  12.011 -0.7264 -0.5646  0.2666
 6487TIP3    H140876   6.329   6.097  12.102 -0.8257  0.0611  0.0739
 6487TIP3    H240877   6.287   6.135  11.962  0.5444 -0.0490 -0.3750
 6488TIP3   OH240878   3.480   1.830   4.764  0.2698  0.2885  0.0371
 6488TIP3    H140879   3.408   1.780   4.726  0.1680  1.0658 -0.8136
 6488TIP3    H240880   3.542   1.842   4.692  1.8322 -1.3638  1.0310
 6489TIP3   OH240881   3.375   5.950   0.937 -0.1002 -0.1172 -0.2368
 6489TIP3    H140882   3.318   5.877   0.913 -1.6512  1.0718 -0.3687
 6489TIP3    H240883   3.318   6.027   0.932  1.1953  0.9727  0.9596
 6490TIP3   OH240884   3.246   6.325  14.988 -0.2530 -0.2302 -0.1162
 6490TIP3    H140885   3.292   6.370  14.918 -0.5230 -0.0528 -0.1780
 6490TIP3    H240886   3.301   6.338  15.065 -0.4503  0.4141 -0.0789
 6491TIP3   OH240887   0.112   3.489   1.962 -0.0258  0.4727 -0.1194
 6491TIP3    H140888   0.087   3.483   1.870 -0.4405  0.1720  0.0093
 6491TIP3    H240889   0.132   3.399   1.987 -1.5346  0.2771  0.5252
 6492TIP3   OH240890   4.952   6.213  15.235  0.6313 -0.4677 -0.2931
 6492TIP3    H140891   4.975   6.136  15.287  0.9928 -1.7650 -2.2707
 6492TIP3    H240892   4.875   6.186  15.185 -0.6995  1.2931  0.6656
 6493TIP3   OH240893   3.121   4.656  17.037 -0.2831 -0.2356 -0.2793
 6493TIP3    H140894   3.211   4.668  17.005 -0.3396  0.6965 -0.1280
 6493TIP3    H240895   3.131   4.645  17.132 -0.3258 -0.1175 -0.2606
 6494TIP3   OH240896   6.043   0.367   3.997  0.1233 -0.1973 -0.0189
 6494TIP3    H140897   6.002   0.447   4.032  0.3631 -0.0009 -0.1853
 6494TIP3    H240898   6.014   0.298   4.056  1.3098  0.2774  1.1688
 6495TIP3   OH240899   5.642   0.710   4.599 -0.8162 -0.1431 -0.3924
 6495TIP3    H140900   5.649   0.704   4.694 -0.4582  2.7599 -0.1709
 6495TIP3    H240901   5.728   0.739   4.570 -1.2520  0.1189 -1.4891
 6496TIP3   OH240902   4.888   3.533   2.582 -0.0004  0.3314 -0.4444
 6496TIP3    H140903   4.867   3.443   2.607  2.4646 -0.0088  0.7431
 6496TIP3    H240904   4.805   3.580   2.587 -1.0950 -1.5888  0.2257
 6497TIP3   OH240905   0.857   1.723   0.318 -0.4739  0.2091 -0.4127
 6497TIP3    H140906   0.797   1.790   0.352 -0.3479  0.3129 -0.3959
 6497TIP3    H240907   0.895   1.763   0.239  1.0758  0.9358  0.6549
 6498TIP3   OH240908   4.054   3.712  11.722  0.7011 -0.0586  0.4514
 6498TIP3    H140909   4.042   3.807  11.713 -3.1746 -0.5454 -1.9645
 6498TIP3    H240910   3.998   3.687  11.795  0.9348 -0.6093  0.4467
 6499TIP3   OH240911   5.091   2.822  11.941  0.1478  0.0977  0.3479
 6499TIP3    H140912   5.054   2.904  11.908  0.4863 -0.0345 -0.4031
 6499TIP3    H240913   5.087   2.829  12.036  0.1312  0.9654  0.2847
 6500TIP3   OH240914   0.053   5.190   5.324 -0.1505 -0.1092  0.4781
 6500TIP3    H140915   0.035   5.099   5.299  1.3231 -0.0182 -1.1082
 6500TIP3    H240916  -0.027   5.237   5.303  0.3315 -0.4135 -2.3951
 6501TIP3   OH240917   2.690   5.590  12.590  0.0957 -0.0604 -0.1457
 6501TIP3    H140918   2.700   5.541  12.672 -1.5164 -0.5216 -0.2004
 6501TIP3    H240919   2.596   5.599  12.578  0.3314  1.6592 -0.9983
 6502TIP3   OH240920   4.621   4.777   2.958  0.0375 -0.2298  0.0962
 6502TIP3    H140921   4.676   4.844   2.998 -1.7143  1.0902  0.4103
 6502TIP3    H240922   4.536   4.819   2.946 -0.9112 -2.1600 -0.4390
 6503TIP3   OH240923   0.746   4.435  16.261 -0.0197  0.3227 -0.2449
 6503TIP3    H140924   0.824   4.404  16.306 -0.1222 -1.8155 -1.3925
 6503TIP3    H240925   0.675   4.422  16.324  0.4360  1.8324  0.6309
 6504TIP3   OH240926   4.923   4.393  11.576  0.2244  0.7269 -0.6873
 6504TIP3    H140927   5.009   4.353  11.560  0.8492  1.5680  0.4527
 6504TIP3    H240928   4.867   4.356  11.508  1.0484 -1.1906 -0.3726
 6505TIP3   OH240929   0.233   0.657   4.622  0.0949  0.6761  0.4502
 6505TIP3    H140930   0.155   0.683   4.671 -0.1122 -1.0570  1.1282
 6505TIP3    H240931   0.199   0.621   4.540  0.2715  1.1123  0.1827
 6506TIP3   OH240932   2.939   4.219   1.066 -0.0287  0.0835  0.3410
 6506TIP3    H140933   2.964   4.152   1.130 -0.6272 -1.0756 -0.6054
 6506TIP3    H240934   2.878   4.175   1.007 -1.5217  1.8509  0.4821
 6507TIP3   OH240935   6.376   4.666   5.736  0.5642  0.5095  0.7844
 6507TIP3    H140936   6.293   4.651   5.691  1.0382  0.4263 -0.0966
 6507TIP3    H240937   6.427   4.718   5.674  1.4587 -0.1090  0.9807
 6508TIP3   OH240938   2.121   5.024  11.998  0.1458  1.1898 -0.3474
 6508TIP3    H140939   2.148   4.932  11.995  0.9781  1.3925  0.5761
 6508TIP3    H240940   2.117   5.045  12.091 -1.3349  1.7307 -0.5126
 6509TIP3   OH240941   2.576   3.526  13.003  0.1143  0.7316 -0.3146
 6509TIP3    H140942   2.624   3.607  13.019  3.3051 -1.0972  0.0644
 6509TIP3    H240943   2.579   3.479  13.086 -0.1540 -0.5279 -0.9909
 6510TIP3   OH240944   0.099   0.239  13.601 -0.2814  0.0754  0.1205
 6510TIP3    H140945   0.166   0.176  13.571 -0.3147  0.3606 -0.5705
 6510TIP3    H240946   0.061   0.198  13.678 -1.7304 -1.7657 -1.4609
 6511TIP3   OH240947   0.421   0.078   3.304 -0.4657  0.2746  0.5825
 6511TIP3    H140948   0.509   0.046   3.322 -0.7733 -0.6624  0.4472
 6511TIP3    H240949   0.364   0.026   3.360 -1.0907 -0.2940 -0.5394
 6512TIP3   OH240950   6.413   4.999  16.792 -0.5053 -0.0065 -0.2730
 6512TIP3    H140951   6.488   4.977  16.847 -0.1568 -0.4565 -0.9152
 6512TIP3    H240952   6.426   5.091  16.769 -1.5319  0.7211  1.7357
 6513TIP3   OH240953   5.961   4.936   4.371  0.4605  0.2540 -0.0976
 6513TIP3    H140954   6.002   4.921   4.456  2.2733  1.1067 -0.7620
 6513TIP3    H240955   6.024   4.991   4.324 -0.6702  0.1158 -1.8547
 6514TIP3   OH240956   3.837   1.727   0.913  0.3106  0.0441  0.9786
 6514TIP3    H140957   3.891   1.691   0.843 -3.6603 -2.0607 -1.3449
 6514TIP3    H240958   3.867   1.817   0.922  2.5434 -0.2731 -1.7875
 6515TIP3   OH240959   4.748   1.838  13.992 -0.2768  0.1883  0.0971
 6515TIP3    H140960   4.774   1.749  14.015 -1.4123 -0.0931  0.3780
 6515TIP3    H240961   4.816   1.894  14.029  0.0561 -0.5165  0.5657
 6516TIP3   OH240962   0.085   5.394  12.789  0.1954 -0.2510 -0.0275
 6516TIP3    H140963   0.089   5.441  12.706 -1.1202  2.4591  1.2890
 6516TIP3    H240964  -0.007   5.367  12.797  0.1149  0.2147  0.8369
 6517TIP3   OH240965   3.059   4.608  12.677  0.1104 -0.2183 -0.3583
 6517TIP3    H140966   3.013   4.686  12.706 -0.4810  0.1848 -2.2799
 6517TIP3    H240967   3.142   4.641  12.641  0.5749 -0.6494  0.2864
 6518TIP3   OH240968   6.474   4.591   1.635  0.1719 -0.0140  0.2742
 6518TIP3    H140969   6.453   4.560   1.723 -2.2148  1.6323  0.3838
 6518TIP3    H240970   6.395   4.637   1.607  1.4012  0.7558 -2.1642
 6519TIP3   OH240971   0.625   6.170  11.212 -0.0245 -0.4162 -0.0712
 6519TIP3    H140972   0.712   6.130  11.216 -0.0613 -0.4492  0.7145
 6519TIP3    H240973   0.590   6.143  11.127  0.4829 -0.9355 -0.1246
 6520TIP3   OH240974   0.246   4.032  15.569  0.0656 -0.3504 -0.4539
 6520TIP3    H140975   0.268   4.097  15.503 -1.5414 -0.8112 -1.4938
 6520TIP3    H240976   0.184   3.973  15.526  0.1484 -1.5632  0.9911
 6521TIP3   OH240977   5.646   1.900   6.301  0.3070  0.3735  0.0382
 6521TIP3    H140978   5.654   1.890   6.206  0.2308 -0.8735  0.1467
 6521TIP3    H240979   5.624   1.813   6.332 -0.1114  0.8661  1.1679
 6522TIP3   OH240980   1.893   3.805  11.341 -0.7338  0.0208  0.0076
 6522TIP3    H140981   1.826   3.862  11.303 -0.7267  0.4040  0.5677
 6522TIP3    H240982   1.843   3.737  11.387 -0.7440 -0.5011 -0.7438
 6523TIP3   OH240983   2.679   4.831   5.051  0.2483 -0.0455  0.3211
 6523TIP3    H140984   2.598   4.804   5.094  0.0051  0.2748  0.0701
 6523TIP3    H240985   2.715   4.900   5.107 -0.4419  0.8834 -0.3449
 6524TIP3   OH240986   3.482   4.857  12.787 -0.9981 -0.0592  0.1790
 6524TIP3    H140987   3.450   4.798  12.719 -1.7272 -0.9319  1.2586
 6524TIP3    H240988   3.403   4.889  12.831 -0.5025 -0.5442  1.4728
 6525TIP3   OH240989   0.666   2.281  13.934  0.1330  0.0907 -0.1239
 6525TIP3    H140990   0.752   2.304  13.898  0.2551 -0.0861  0.0573
 6525TIP3    H240991   0.629   2.219  13.871  0.0493  0.3253 -0.3086
 6526TIP3   OH240992   6.295   1.386  16.027 -0.0999  0.6253  0.5468
 6526TIP3    H140993   6.360   1.383  16.098  0.1341  2.3531  0.4577
 6526TIP3    H240994   6.342   1.427  15.954 -0.3601 -1.0720 -0.6236
 6527TIP3   OH240995   1.427   0.602  15.740  0.1873 -0.1367  0.2956
 6527TIP3    H140996   1.369   0.593  15.664 -1.0692  0.1815  1.1881
 6527TIP3    H240997   1.411   0.690  15.772  1.0692 -0.0976  0.6584
 6528TIP3   OH240998   3.877   4.234   5.084 -0.1277  0.5881 -0.0491
 6528TIP3    H140999   3.798   4.222   5.137  0.5644 -1.0098  0.6989
 6528TIP3    H241000   3.848   4.221   4.994 -0.7375  0.0344  0.2160
 6529TIP3   OH241001   4.281   2.415   1.283 -0.1787  0.6945  0.1826
 6529TIP3    H141002   4.359   2.433   1.230  0.9924 -0.9253  1.2582
 6529TIP3    H241003   4.224   2.365   1.224  0.2731  0.5709 -0.1617
 6530TIP3   OH241004   0.859   5.807  10.974 -0.8046 -0.1834  0.1124
 6530TIP3    H141005   0.817   5.730  10.936 -1.9963  1.5406 -2.3681
 6530TIP3    H241006   0.934   5.824  10.917 -0.8435  0.7397  0.3185
 6531TIP3   OH241007   2.554   3.476   2.025  0.2173 -0.8075  0.2603
 6531TIP3    H141008   2.573   3.385   2.004  2.2896 -1.4883  4.2160
 6531TIP3    H241009   2.481   3.472   2.087 -1.1087  0.5122 -1.1014
 6532TIP3   OH241010   3.748   2.352   0.968  0.5239  0.2274 -0.2594
 6532TIP3    H141011   3.805   2.359   0.891  0.6136 -1.2682 -0.3632
 6532TIP3    H241012   3.780   2.274   1.014 -0.8092 -0.0690  0.2100
 6533TIP3   OH241013   3.505   0.858   1.476 -0.0869 -0.5944  0.6266
 6533TIP3    H141014   3.422   0.809   1.478  0.0479 -0.8049  1.6736
 6533TIP3    H241015   3.572   0.790   1.486  0.4573 -0.8300 -3.1398
 6534TIP3   OH241016   4.463   0.820  17.093  1.0534  0.0652  0.3809
 6534TIP3    H141017   4.447   0.813  16.998 -2.1322 -1.4578  0.8980
 6534TIP3    H241018   4.553   0.851  17.099  1.8438 -1.0071 -3.1387
 6535TIP3   OH241019   4.017   6.087  16.758  0.3184 -0.1013  0.1888
 6535TIP3    H141020   4.069   6.155  16.800  0.5345 -1.0814  1.5795
 6535TIP3    H241021   3.931   6.093  16.801 -0.4765  0.8760 -1.4161
 6536TIP3   OH241022   0.984   0.940   3.156  0.0318  0.1061 -0.3671
 6536TIP3    H141023   0.972   0.877   3.086 -0.8485 -0.1344 -0.0091
 6536TIP3    H241024   1.055   0.904   3.210 -3.1707 -2.9019  2.3004
 6537TIP3   OH241025   1.498   5.909  10.893 -0.0283  0.2809  0.3665
 6537TIP3    H141026   1.549   5.834  10.863  1.5005  0.1630  2.9530
 6537TIP3    H241027   1.410   5.893  10.861  0.7646 -1.4130 -1.1235
 6538TIP3   OH241028   6.367   0.536   0.601  0.8191  0.6790 -0.4262
 6538TIP3    H141029   6.412   0.589   0.535 -0.3143 -0.1607 -1.9556
 6538TIP3    H241030   6.436   0.482   0.639  1.2385 -0.2691 -2.3949
 6539TIP3   OH241031   3.769   2.779  12.211 -0.0520  0.3943  0.1304
 6539TIP3    H141032   3.858   2.797  12.182  0.4305 -2.1340 -0.2029
 6539TIP3    H241033   3.755   2.838  12.284  1.2872  1.9714 -0.8190
 6540TIP3   OH241034   1.007   3.281   4.941  0.4538 -0.0100 -0.3489
 6540TIP3    H141035   1.095   3.243   4.943  0.8854  0.9656  0.0022
 6540TIP3    H241036   0.965   3.240   4.866  0.8268 -1.3054  0.1199
 6541TIP3   OH241037   2.883   0.654  15.847  0.3618  0.0199  0.0568
 6541TIP3    H141038   2.856   0.737  15.808 -1.2702 -0.4057  0.2153
 6541TIP3    H241039   2.977   0.663  15.858  0.3412  1.5338 -0.6771
 6542TIP3   OH241040   6.420   2.042   2.581 -0.0078  0.1317 -0.1952
 6542TIP3    H141041   6.465   1.968   2.541 -0.6723 -0.6764  0.5356
 6542TIP3    H241042   6.328   2.032   2.555 -0.3532 -0.0939  1.0438
 6543TIP3   OH241043   3.873   3.691   1.259  0.1589  0.7135 -0.0879
 6543TIP3    H141044   3.834   3.748   1.194 -0.4637  1.2909  0.7662
 6543TIP3    H241045   3.817   3.700   1.336  1.2195  0.5243  0.7385
 6544TIP3   OH241046   5.747   2.706   6.683 -0.1036 -0.2631  0.0809
 6544TIP3    H141047   5.713   2.762   6.613  1.4141  1.2887  0.5126
 6544TIP3    H241048   5.820   2.755   6.720  1.7356 -2.7714  0.1064
 6545TIP3   OH241049   4.756   5.200  16.517 -0.1856  0.0028 -0.1124
 6545TIP3    H141050   4.794   5.119  16.482 -1.8529  0.5629 -3.6993
 6545TIP3    H241051   4.825   5.265  16.505  0.0172 -0.2546 -0.3903
 6546TIP3   OH241052   0.947   2.661  11.166 -0.0446  0.0731  0.0946
 6546TIP3    H141053   0.999   2.656  11.246  0.1202  0.6861  0.0328
 6546TIP3    H241054   0.988   2.597  11.107  0.5114  0.3874  0.1275
 6547TIP3   OH241055   3.387   4.280   4.250  0.1913 -0.3121  0.0304
 6547TIP3    H141056   3.364   4.282   4.157 -1.3461  1.0497  0.3878
 6547TIP3    H241057   3.306   4.254   4.294  1.1191 -1.7784  0.9652
 6548TIP3   OH241058   3.524   6.617  16.117 -0.0338  0.2759 -0.3133
 6548TIP3    H141059   3.504   6.540  16.170  1.0249 -0.6041 -1.1414
 6548TIP3    H241060   3.557   6.682  16.180 -0.3673 -0.1606  0.3156
 6549TIP3   OH241061   5.158   3.581  16.793  0.1615  0.2365  0.6479
 6549TIP3    H141062   5.151   3.592  16.888  0.2917  3.0878  0.4133
 6549TIP3    H241063   5.076   3.539  16.767  0.0551 -0.4402  1.9801
 6550TIP3   OH241064   6.077   5.932  10.819  0.7066  0.2050 -0.1559
 6550TIP3    H141065   5.990   5.895  10.833  0.6052  1.0982  2.0542
 6550TIP3    H241066   6.061   6.025  10.802  1.1867  0.1822 -0.7569
 6551TIP3   OH241067   4.885   4.079   0.677 -0.5963  0.1400 -0.2918
 6551TIP3    H141068   4.981   4.074   0.681 -0.6264 -2.0898 -0.9019
 6551TIP3    H241069   4.857   3.988   0.687 -2.6276  0.6556 -1.0076
 6552TIP3   OH241070   3.808   2.975   4.491 -0.1338 -0.5466  0.1429
 6552TIP3    H141071   3.729   2.932   4.524 -1.0372  0.5682 -0.4698
 6552TIP3    H241072   3.878   2.911   4.505 -1.4999 -2.4964 -1.3136
 6553TIP3   OH241073   3.828   5.546   2.978 -0.6507  0.1381  0.1520
 6553TIP3    H141074   3.891   5.617   2.989 -1.0482  0.5625 -0.2801
 6553TIP3    H241075   3.821   5.507   3.065 -0.2384  0.4637  0.3351
 6554TIP3   OH241076   0.580   2.339  12.784 -0.0110  0.4388 -0.3754
 6554TIP3    H141077   0.637   2.416  12.790  0.0439  0.5052 -1.5701
 6554TIP3    H241078   0.532   2.351  12.703  1.3212 -1.6430 -1.5688
 6555TIP3   OH241079   6.460   5.863   0.604  0.5058 -0.0991  0.0755
 6555TIP3    H141080   6.368   5.847   0.583  1.2366 -2.2769 -1.9188
 6555TIP3    H241081   6.508   5.803   0.548  3.1802  0.9184  1.1099
 6556TIP3   OH241082   3.199   3.957  13.357  0.2090 -0.1130  0.7464
 6556TIP3    H141083   3.125   3.983  13.412  0.3811  0.1529  0.8566
 6556TIP3    H241084   3.224   4.038  13.312 -0.9093 -0.6362 -0.9146
 6557TIP3   OH241085   0.692   3.675  12.312 -0.2379 -0.1338 -0.5660
 6557TIP3    H141086   0.662   3.726  12.237  0.1064  0.6239 -0.1889
 6557TIP3    H241087   0.733   3.597  12.273 -2.9281 -1.3993 -1.1142
 6558TIP3   OH241088   4.150   5.733   1.549 -0.0840 -0.2979 -0.1604
 6558TIP3    H141089   4.133   5.748   1.642  1.3767  1.5425 -0.1404
 6558TIP3    H241090   4.188   5.645   1.545 -0.8481 -0.6934  0.8606
 6559TIP3   OH241091   6.416   0.021   3.269 -0.4503  0.0234  0.0778
 6559TIP3    H141092   6.434   0.086   3.337 -0.3667 -0.5344  0.6060
 6559TIP3    H241093   6.418  -0.063   3.316 -2.5026 -0.2194 -0.2107
 6560TIP3   OH241094   4.569   0.646  15.977 -1.0238  0.1009  0.6875
 6560TIP3    H141095   4.507   0.698  15.926  0.2646  0.8493 -0.1723
 6560TIP3    H241096   4.541   0.657  16.068 -0.8510  2.2620  0.5227
 6561TIP3   OH241097   4.598   3.317  16.097  0.3401 -0.1812  0.2401
 6561TIP3    H141098   4.620   3.349  16.010  0.9854  0.5752  0.6719
 6561TIP3    H241099   4.675   3.336  16.150 -0.7487  1.1646  1.4384
 6562TIP3   OH241100   1.708   2.724   0.094  0.7402  0.0507 -0.2003
 6562TIP3    H141101   1.763   2.759   0.164 -1.4035  0.0634  1.6015
 6562TIP3    H241102   1.662   2.800   0.058  0.9056 -0.1101 -0.7544
 6563TIP3   OH241103   1.268   1.944   0.973  0.3062  0.4938  0.7225
 6563TIP3    H141104   1.292   1.862   1.016  0.9723 -0.2284 -0.9213
 6563TIP3    H241105   1.172   1.945   0.977  0.3173  0.0147  1.4074
 6564TIP3   OH241106   3.026   6.043   2.212 -0.6312  0.3601 -0.7552
 6564TIP3    H141107   2.971   5.998   2.276 -2.1763  2.9257 -0.1097
 6564TIP3    H241108   2.970   6.051   2.135  0.8599 -1.7945 -2.1782
 6565TIP3   OH241109   0.667   0.173  14.898  0.5044  0.3350 -0.5723
 6565TIP3    H141110   0.760   0.174  14.877  0.8677  0.2051  0.9736
 6565TIP3    H241111   0.655   0.096  14.953 -0.8142 -0.5090 -1.9404
 6566TIP3   OH241112   3.831   1.067   3.226 -0.4461  0.2399  0.3448
 6566TIP3    H141113   3.920   1.038   3.246 -0.3019  1.8827  2.3355
 6566TIP3    H241114   3.824   1.057   3.131  2.0878  0.6622  0.0471
 6567TIP3   OH241115   5.577   6.752  13.671 -0.5057 -0.0050  0.1335
 6567TIP3    H141116   5.579   6.720  13.761 -0.2502 -2.3032 -0.6219
 6567TIP3    H241117   5.494   6.719  13.635 -0.0283 -0.2173 -0.8124
 6568TIP3   OH241118   1.249   1.987   2.788  0.0322 -0.3594  0.2260
 6568TIP3    H141119   1.260   1.894   2.766  0.7048  0.2571 -2.4166
 6568TIP3    H241120   1.299   2.034   2.721 -0.5912  1.9363  1.2590
 6569TIP3   OH241121   3.046   3.313   6.419 -0.1922  0.5674 -0.0817
 6569TIP3    H141122   3.025   3.243   6.482  0.0073  0.4717 -0.1194
 6569TIP3    H241123   2.961   3.339   6.383 -0.1180 -1.0241 -1.5238
 6570TIP3   OH241124   3.995   1.998   4.675 -0.5579  0.0023 -0.0064
 6570TIP3    H141125   3.950   2.082   4.669 -0.7422 -0.0207  0.9747
 6570TIP3    H241126   3.925   1.933   4.674 -0.4628 -0.1011  0.0400
 6571TIP3   OH241127   1.863   6.782   1.939 -0.2596  0.2648 -0.0836
 6571TIP3    H141128   1.810   6.704   1.952  0.6973 -0.4576 -0.3976
 6571TIP3    H241129   1.928   6.779   2.009 -1.2672  1.7411  0.9951
 6572TIP3   OH241130   2.004   4.695   4.008  0.2260 -0.3554 -0.4122
 6572TIP3    H141131   1.986   4.752   3.933 -2.2740 -0.0242  0.3494
 6572TIP3    H241132   1.982   4.607   3.977  0.0143 -0.3316 -0.3318
 6573TIP3   OH241133   6.460   6.242   0.360 -0.1228 -0.0705  0.5666
 6573TIP3    H141134   6.414   6.163   0.390  0.1754 -0.9401 -1.1275
 6573TIP3    H241135   6.390   6.296   0.322 -0.0535 -0.5048 -0.2089
 6574TIP3   OH241136   6.221   1.304  13.988 -0.6318 -0.4562  0.0858
 6574TIP3    H141137   6.150   1.318  14.052 -0.7039 -0.4539  0.0055
 6574TIP3    H241138   6.248   1.392  13.963 -0.3660 -0.4525  0.3720
 6575TIP3   OH241139   0.610   0.236  10.687 -0.0143  0.6940 -0.1375
 6575TIP3    H141140   0.559   0.178  10.630 -0.4504  0.9252  0.0184
 6575TIP3    H241141   0.668   0.283  10.627 -0.5758  1.0427 -0.4100
 6576TIP3   OH241142   2.855   0.258   2.924 -0.4750 -0.5170 -0.1593
 6576TIP3    H141143   2.921   0.325   2.905 -0.7627 -0.0991  0.3092
 6576TIP3    H241144   2.772   0.305   2.922 -0.5303 -0.4615  2.0144
 6577TIP3   OH241145   6.314   4.131  12.945  0.6079  0.3074  0.2343
 6577TIP3    H141146   6.350   4.043  12.943  1.2592  0.5675 -0.0805
 6577TIP3    H241147   6.391   4.188  12.931  0.2690  0.9343  0.8855
 6578TIP3   OH241148   5.605   0.015  15.967  0.2805  0.2821 -0.0717
 6578TIP3    H141149   5.668   0.066  15.918  1.7284  0.3495  1.7435
 6578TIP3    H241150   5.542   0.079  16.001  0.3466  0.4621 -0.2944
 6579TIP3   OH241151   6.707   5.586  16.786 -0.1490  0.2116 -0.0024
 6579TIP3    H141152   6.668   5.610  16.702  0.3845 -0.2551 -0.3931
 6579TIP3    H241153   6.722   5.670  16.830 -2.2793  0.4048  0.5100
 6580TIP3   OH241154   0.087   6.360  12.407 -0.1492 -0.4781 -0.1150
 6580TIP3    H141155   0.079   6.433  12.345 -1.3254 -1.9459 -1.8174
 6580TIP3    H241156   0.181   6.346  12.416  0.1004  1.1333  0.1633
 6581TIP3   OH241157   5.281   5.797   2.397  0.4001  0.0940  0.4681
 6581TIP3    H141158   5.343   5.808   2.326  0.0239 -0.7785 -0.0152
 6581TIP3    H241159   5.334   5.798   2.477  0.8777  0.5874  0.1466
 6582TIP3   OH241160   5.678   2.933  12.536  0.0170  0.5837  0.6074
 6582TIP3    H141161   5.662   2.998  12.468 -1.1483  0.4940  0.7740
 6582TIP3    H241162   5.695   2.852  12.488  0.6243  0.8260  0.4114
 6583TIP3   OH241163   5.131   3.991   5.518 -0.1197 -0.3891  0.0451
 6583TIP3    H141164   5.072   4.020   5.587  0.5821  0.4000  0.3290
 6583TIP3    H241165   5.076   3.989   5.439 -1.0715 -1.8623  0.7008
 6584TIP3   OH241166   2.795   4.735  15.082  0.2058  0.1325 -0.3998
 6584TIP3    H141167   2.707   4.703  15.061  0.3589 -0.8950  0.4391
 6584TIP3    H241168   2.787   4.772  15.170  0.8424 -1.0458  0.1839
 6585TIP3   OH241169   5.419   4.631  12.214 -0.2324  0.0083  0.1711
 6585TIP3    H141170   5.391   4.545  12.244 -1.2888 -1.1099 -3.5240
 6585TIP3    H241171   5.340   4.685  12.216 -0.2862 -0.0435 -0.4693
 6586TIP3   OH241172   4.180   5.938   6.148 -0.1272  0.1450  0.0116
 6586TIP3    H141173   4.212   5.848   6.160 -0.3222  0.2892  1.8601
 6586TIP3    H241174   4.101   5.928   6.094 -2.3336 -1.2901  3.1888
 6587TIP3   OH241175   1.582   5.554   3.567  0.2888 -0.0198 -0.1621
 6587TIP3    H141176   1.578   5.480   3.628  0.4098  0.3433  0.2956
 6587TIP3    H241177   1.548   5.520   3.485  0.2669 -0.5617  0.0686
 6588TIP3   OH241178   6.267   0.829   3.631  0.7411 -0.3530  0.3124
 6588TIP3    H141179   6.203   0.758   3.635 -0.6939  0.8131 -0.9647
 6588TIP3    H241180   6.256   0.876   3.714 -0.3064  0.0423 -0.0422
 6589TIP3   OH241181   2.196   3.366  16.636 -0.3754 -0.0347  0.1763
 6589TIP3    H141182   2.286   3.398  16.643  0.3974 -1.9287 -0.3916
 6589TIP3    H241183   2.176   3.372  16.543 -0.2548 -1.0219  0.0748
 6590TIP3   OH241184   6.530   2.628   1.826  0.1850  0.4883  0.4095
 6590TIP3    H141185   6.496   2.541   1.844  2.7427 -0.6789  0.0830
 6590TIP3    H241186   6.620   2.613   1.796 -0.4094  2.9874 -3.2537
 6591TIP3   OH241187   2.100   4.191   3.039  0.6672  0.2273 -0.5581
 6591TIP3    H141188   2.117   4.256   3.107  0.9935  2.0110 -2.2709
 6591TIP3    H241189   2.015   4.153   3.063  0.0769  1.8613  0.0581
 6592TIP3   OH241190   4.418   4.569   0.080 -0.0826 -0.0694  0.8474
 6592TIP3    H141191   4.340   4.615   0.112 -1.4106 -1.1943 -0.5588
 6592TIP3    H241192   4.406   4.479   0.111  0.2921 -0.4088  0.0298
 6593TIP3   OH241193   0.290   3.956   2.081 -0.0264  0.6613  0.2470
 6593TIP3    H141194   0.322   4.031   2.131 -1.5038  2.1144 -0.8659
 6593TIP3    H241195   0.196   3.972   2.073 -0.6063 -1.9478  0.9552
 6594TIP3   OH241196   4.096   4.472   6.656  0.1714 -1.2954  0.3224
 6594TIP3    H141197   4.161   4.541   6.659 -1.3324  0.1902  0.0001
 6594TIP3    H241198   4.069   4.460   6.748  0.2431 -1.2845  0.3451
 6595TIP3   OH241199   6.402   1.449   4.294  0.1498  0.0951  1.1240
 6595TIP3    H141200   6.488   1.478   4.327  0.4565 -1.4574  1.7839
 6595TIP3    H241201   6.399   1.481   4.204  1.6913 -0.3427  0.8930
 6596TIP3   OH241202   6.478   6.146   1.379  0.1454  0.5814  0.4310
 6596TIP3    H141203   6.477   6.241   1.390 -0.2041  0.6977 -0.5022
 6596TIP3    H241204   6.571   6.123   1.375  0.3855  1.4987 -3.8646
 6597TIP3   OH241205   0.022   5.450  13.165 -0.2233  0.0985  0.7265
 6597TIP3    H141206  -0.059   5.419  13.205  0.1072 -2.3841 -0.3010
 6597TIP3    H241207   0.083   5.377  13.176  1.0078  0.8027 -0.9785
 6598TIP3   OH241208   4.916   6.386  13.827  0.2302  0.5289 -0.3333
 6598TIP3    H141209   4.944   6.404  13.917 -0.0444  3.7747 -0.7913
 6598TIP3    H241210   4.992   6.405  13.773  1.1069 -3.4758 -0.8105
 6599TIP3   OH241211   1.060   5.761   5.628  0.1397 -0.1840  0.5556
 6599TIP3    H141212   0.987   5.714   5.669 -0.7055 -1.3533 -2.0286
 6599TIP3    H241213   1.024   5.792   5.545  2.5954 -0.9154 -0.8900
 6600TIP3   OH241214   5.473   0.522   2.550 -0.4165 -0.4924 -0.3269
 6600TIP3    H141215   5.480   0.618   2.543 -1.1435 -0.3214  0.9007
 6600TIP3    H241216   5.472   0.506   2.644  1.9847 -1.9215 -0.4825
 6601TIP3   OH241217   1.006   1.742   3.058  0.1133  0.1573 -0.6754
 6601TIP3    H141218   0.977   1.676   3.121  0.0430 -2.3346 -3.1219
 6601TIP3    H241219   1.095   1.715   3.035 -0.0464  0.6713 -1.9821
 6602TIP3   OH241220   4.311   3.633  13.226  0.3747  0.2726  0.0852
 6602TIP3    H141221   4.369   3.595  13.293 -1.5842  0.9470  2.2850
 6602TIP3    H241222   4.325   3.727  13.233 -1.2387  0.4815  0.9822
 6603TIP3   OH241223   1.062   6.780  13.400  0.1616 -0.2295 -0.3868
 6603TIP3    H141224   1.044   6.861  13.352  0.0440 -0.3556 -0.5542
 6603TIP3    H241225   1.065   6.712  13.333 -1.3480 -0.6237 -0.0916
 6604TIP3   OH241226   2.219   6.215   4.030 -0.3050 -0.3240 -0.8495
 6604TIP3    H141227   2.208   6.190   4.122  1.2604  0.2508 -0.4682
 6604TIP3    H241228   2.287   6.282   4.032 -1.4367  0.9290 -2.2703
 6605TIP3   OH241229   0.357   5.993   1.430  0.1115  0.1622 -0.3662
 6605TIP3    H141230   0.341   6.087   1.432  1.3781  0.3982  1.6203
 6605TIP3    H241231   0.434   5.982   1.374  1.1785  0.5888  0.9515
 6606TIP3   OH241232   2.382   0.204  14.458 -0.4991  0.2057 -0.0264
 6606TIP3    H141233   2.451   0.222  14.523 -1.3469  0.6009  0.7862
 6606TIP3    H241234   2.401   0.115  14.428  0.0374  0.0868  0.6176
 6607TIP3   OH241235   6.311   3.153   5.299 -0.5380 -0.1010 -0.1666
 6607TIP3    H141236   6.246   3.224   5.297 -2.7856 -2.0378 -1.5393
 6607TIP3    H241237   6.358   3.162   5.216 -1.0527 -0.3829 -0.4959
 6608TIP3   OH241238   5.693   6.081   1.906 -0.4554  0.0777 -0.7138
 6608TIP3    H141239   5.671   6.141   1.977 -2.9513  0.5797 -1.8099
 6608TIP3    H241240   5.749   6.015   1.948  0.1495  1.6585  1.1301
 6609TIP3   OH241241   4.683   1.771   5.695  0.1237  1.0303 -0.3323
 6609TIP3    H141242   4.602   1.809   5.659  0.0429 -0.2344 -1.5853
 6609TIP3    H241243   4.656   1.729   5.776 -0.2724  1.4974 -0.2196
 6610TIP3   OH241244   1.296   1.351  16.542 -0.6268  0.2859 -0.3374
 6610TIP3    H141245   1.236   1.340  16.616 -0.1338 -0.8376 -0.0880
 6610TIP3    H241246   1.349   1.271  16.542  0.0540  0.7218 -1.2953
 6611TIP3   OH241247   3.799   6.105  12.608 -0.3282 -0.5146  0.4622
 6611TIP3    H141248   3.726   6.151  12.649  0.7393  2.3841 -0.6068
 6611TIP3    H241249   3.859   6.086  12.681  0.1196  1.7317  0.7363
 6612TIP3   OH241250   5.754   5.435   6.764  0.3631  0.2284 -0.5166
 6612TIP3    H141251   5.839   5.408   6.799  1.1912  0.2453 -2.3899
 6612TIP3    H241252   5.774   5.469   6.677 -1.6018 -0.0476 -1.1231
 6613TIP3   OH241253   6.138   6.721  10.803  0.4575  0.0512 -0.5410
 6613TIP3    H141254   6.151   6.640  10.753  0.1469  0.9639 -2.1578
 6613TIP3    H241255   6.053   6.709  10.846  0.5808 -0.6100 -0.4616
 6614TIP3   OH241256   2.265   0.940  14.617  0.0153 -0.2177  0.1736
 6614TIP3    H141257   2.204   0.919  14.547 -0.6745  1.8528  0.0950
 6614TIP3    H241258   2.257   0.867  14.678 -4.6357  1.0877  1.5345
 6615TIP3   OH241259   2.532   0.692  12.482 -0.1127  0.0332 -0.4974
 6615TIP3    H141260   2.506   0.726  12.396 -0.3185  0.5731 -0.2276
 6615TIP3    H241261   2.471   0.734  12.543  0.6297  0.3815  0.0108
 6616TIP3   OH241262   0.859   3.096   4.233  0.1234 -0.7373 -0.4268
 6616TIP3    H141263   0.819   3.024   4.186  0.6174 -0.7581 -0.8196
 6616TIP3    H241264   0.939   3.116   4.185  0.4887 -0.5645  0.2328
 6617TIP3   OH241265   4.878   1.534  16.873 -0.4786  0.2076 -0.7417
 6617TIP3    H141266   4.870   1.599  16.803 -0.7913  1.0894  0.0946
 6617TIP3    H241267   4.850   1.580  16.952  2.3542  0.0737  0.4560
 6618TIP3   OH241268   6.192   2.617  16.623  0.6414 -0.3547 -0.2882
 6618TIP3    H141269   6.185   2.583  16.712  1.2490 -2.8889 -1.1096
 6618TIP3    H241270   6.113   2.669  16.610  0.0042 -0.8560  1.3500
 6619TIP3   OH241271   5.617   0.842   2.508  0.2290  0.0368 -0.0124
 6619TIP3    H141272   5.538   0.844   2.563 -0.0203 -1.5126 -0.2585
 6619TIP3    H241273   5.684   0.803   2.565  1.0068  1.8383  0.3767
 6620TIP3   OH241274   1.630   3.091   1.684 -0.3555  0.2187  0.9028
 6620TIP3    H141275   1.717   3.122   1.708 -0.2130 -1.0106  2.0655
 6620TIP3    H241276   1.570   3.155   1.725 -0.0422  2.1639 -1.4758
 6621TIP3   OH241277   6.272   6.364  17.039  0.2265  0.5291 -0.1915
 6621TIP3    H141278   6.365   6.375  17.061  0.1853 -0.5104  0.5691
 6621TIP3    H241279   6.273   6.308  16.961  0.2311 -0.3624  0.4284
 6622TIP3   OH241280   6.005   5.034  12.706  0.4993 -0.1499  0.1529
 6622TIP3    H141281   5.994   5.051  12.800  1.1112 -0.8264  0.3575
 6622TIP3    H241282   6.043   4.946  12.702  2.4711  0.6857 -0.6255
 6623TIP3   OH241283   4.116   2.727  15.638 -0.0719  0.7601 -0.1184
 6623TIP3    H141284   4.121   2.785  15.562 -0.0546 -0.0497 -0.7476
 6623TIP3    H241285   4.026   2.734  15.668 -1.1297 -1.5148 -2.3451
 6624TIP3   OH241286   4.798   5.523  15.473 -0.3339 -0.1891 -0.0859
 6624TIP3    H141287   4.820   5.604  15.519 -1.3963  0.0054  0.1037
 6624TIP3    H241288   4.763   5.553  15.388 -0.0371 -0.4750 -0.3078
 6625TIP3   OH241289   6.752   2.064  12.822  0.3506 -1.0391  0.3069
 6625TIP3    H141290   6.695   1.987  12.825  0.8292 -1.3845  1.9472
 6625TIP3    H241291   6.835   2.033  12.858  0.1239  0.5274  2.3688
 6626TIP3   OH241292   6.572   5.410   3.977  0.1436 -0.6790  0.0686
 6626TIP3    H141293   6.477   5.421   3.981  0.2020 -0.3340  0.5482
 6626TIP3    H241294   6.589   5.327   4.021  0.0628 -0.7656 -0.0615
 6627TIP3   OH241295   5.153   4.965   2.393 -0.2616 -0.4356 -0.1388
 6627TIP3    H141296   5.103   5.024   2.337  1.6623  2.3722  0.9125
 6627TIP3    H241297   5.097   4.951   2.469 -0.6294  0.3017 -0.2641
 6628TIP3   OH241298   2.817   6.512   4.556  0.3314  0.7664 -0.3427
 6628TIP3    H141299   2.806   6.536   4.464 -1.4465 -0.1015 -0.4090
 6628TIP3    H241300   2.742   6.553   4.599 -0.1973 -0.8244  0.2981
 6629TIP3   OH241301   6.049   6.276   2.732 -0.3682 -0.1632  0.3407
 6629TIP3    H141302   5.988   6.349   2.736 -0.5647 -0.3772  2.4128
 6629TIP3    H241303   6.108   6.291   2.807  0.3751 -1.4403  0.0335
 6630TIP3   OH241304   6.710   6.074   2.591  1.1372  0.0513  0.5780
 6630TIP3    H141305   6.621   6.081   2.623  1.9505  1.4274  2.7934
 6630TIP3    H241306   6.703   6.084   2.496 -0.9879  0.7219  0.7683
 6631TIP3   OH241307   0.180   6.047  14.733 -0.2833 -0.0261  0.1944
 6631TIP3    H141308   0.177   6.139  14.709  0.3611 -0.4078 -1.4482
 6631TIP3    H241309   0.214   6.002  14.655  1.2355 -1.4383  1.5857
 6632TIP3   OH241310   4.544   0.398   2.602 -0.3428  0.1476  0.3664
 6632TIP3    H141311   4.541   0.447   2.684 -0.9787 -1.4988  1.3587
 6632TIP3    H241312   4.592   0.456   2.542 -0.6925  1.7875  1.5961
 6633TIP3   OH241313   3.110   3.000   3.512 -0.7951  0.3785 -0.5985
 6633TIP3    H141314   3.071   3.048   3.439 -3.1407 -0.0272  0.2964
 6633TIP3    H241315   3.190   3.050   3.534 -2.5865  3.3880 -0.3086
 6634TIP3   OH241316   2.088   5.489  17.014  0.1980  0.3310  0.0645
 6634TIP3    H141317   2.001   5.452  17.028  0.3972 -1.2638 -2.3126
 6634TIP3    H241318   2.133   5.476  17.097 -0.6284 -2.4720  0.1644
 6635TIP3   OH241319   2.008   1.969   2.274 -0.1167 -0.2150  0.2189
 6635TIP3    H141320   2.062   1.921   2.338 -0.1935 -1.5657 -0.6803
 6635TIP3    H241321   2.064   2.040   2.244  0.5881 -0.6586  0.4483
 6636TIP3   OH241322   2.792   0.467   4.079 -0.0373 -0.2930 -0.0126
 6636TIP3    H141323   2.818   0.514   4.000 -2.2423 -0.0536 -0.6615
 6636TIP3    H241324   2.767   0.380   4.049 -2.3478  0.2638  0.1073
 6637TIP3   OH241325   3.956   2.403  10.740  0.0879 -0.0816  0.6535
 6637TIP3    H141326   4.047   2.375  10.744  0.3307  0.7340  1.0891
 6637TIP3    H241327   3.958   2.496  10.763 -0.6091  0.4849 -1.3358
 6638TIP3   OH241328   5.695   0.507   3.499 -0.2514 -0.5289 -0.2384
 6638TIP3    H141329   5.655   0.547   3.422 -0.5980  0.5621  0.4829
 6638TIP3    H241330   5.626   0.454   3.538 -0.6749  0.4375  0.3644
 6639TIP3   OH241331   2.545   1.838  14.968 -0.4472 -0.0444  0.0660
 6639TIP3    H141332   2.507   1.776  14.905  0.5649 -0.7271  0.0953
 6639TIP3    H241333   2.626   1.796  14.996 -0.1068  0.9723  0.6514
 6640TIP3   OH241334   2.360   6.738  11.643 -0.4495  0.0251 -0.1192
 6640TIP3    H141335   2.419   6.773  11.710 -0.9390  0.5782  0.0346
 6640TIP3    H241336   2.396   6.772  11.561  0.4051 -1.0104 -0.2022
 6641TIP3   OH241337   5.073   4.023   5.230 -0.2316 -0.0992 -0.2447
 6641TIP3    H141338   5.074   4.035   5.135  1.4117 -0.6346 -0.3268
 6641TIP3    H241339   5.004   4.081   5.261 -0.3262  0.6070 -1.7048
 6642TIP3   OH241340   1.098   1.619  14.726  0.2523 -0.1023  0.6415
 6642TIP3    H141341   1.078   1.529  14.754 -1.7798  0.0822 -0.0608
 6642TIP3    H241342   1.164   1.608  14.658 -1.2508 -1.2653 -0.7227
 6643TIP3   OH241343   3.992   5.478   4.191  0.1849  0.2924 -0.8814
 6643TIP3    H141344   3.924   5.532   4.150  0.3031  0.8416 -0.3678
 6643TIP3    H241345   3.946   5.421   4.251  0.0531 -0.2271 -1.4642
 6644TIP3   OH241346   1.329   5.179  10.461 -0.1280  0.2217  0.0817
 6644TIP3    H141347   1.331   5.119  10.536  0.2436  0.6402  0.4121
 6644TIP3    H241348   1.257   5.147  10.406 -0.7572  0.2354  0.8882
 6645TIP3   OH241349   1.395   6.308  12.746 -0.6818  0.0452 -0.7429
 6645TIP3    H141350   1.439   6.286  12.664 -0.4438  2.2546 -1.2588
 6645TIP3    H241351   1.427   6.395  12.769 -2.7974  0.6460  0.2372
 6646TIP3   OH241352   6.440   4.512  15.979  0.0689  0.2660  0.1332
 6646TIP3    H141353   6.498   4.477  15.912 -0.1399  1.2909 -0.6023
 6646TIP3    H241354   6.404   4.592  15.941 -0.9746  0.2368  1.0110
 6647TIP3   OH241355   4.782   0.679  16.702  0.0696 -0.1926 -0.0258
 6647TIP3    H141356   4.819   0.634  16.626  1.7512  0.3059  0.4475
 6647TIP3    H241357   4.725   0.747  16.665  1.8385  0.8723 -0.9287
 6648TIP3   OH241358   6.321   3.891  11.014  0.1694  0.2001  0.0788
 6648TIP3    H141359   6.333   3.840  11.094 -1.5449 -0.0548  0.2288
 6648TIP3    H241360   6.283   3.829  10.952 -1.4679  1.1043  0.1042
 6649TIP3   OH241361   6.389   6.571   3.396  0.3134 -0.1841 -0.2524
 6649TIP3    H141362   6.329   6.522   3.452  0.0820 -0.5167 -0.7865
 6649TIP3    H241363   6.441   6.504   3.352 -0.4959  0.0005 -1.5448
 6650TIP3   OH241364   6.073   5.949  15.081 -0.4077 -0.6628 -0.1795
 6650TIP3    H141365   6.169   5.955  15.086 -0.2442 -2.5362 -0.4823
 6650TIP3    H241366   6.052   5.980  14.993 -0.0904 -0.1905 -0.0962
 6651TIP3   OH241367   1.056   5.944  12.912 -0.3358  0.1026  0.1334
 6651TIP3    H141368   1.032   5.993  12.991 -1.6443  0.7120 -0.5900
 6651TIP3    H241369   1.141   5.905  12.932 -0.0389  1.2939  1.3692
 6652TIP3   OH241370   0.128   4.370  13.438  0.0519  0.1317  0.1344
 6652TIP3    H141371   0.107   4.357  13.346 -0.9250 -1.7366  0.5651
 6652TIP3    H241372   0.163   4.285  13.467  0.1582  0.6163  1.5233
 6653TIP3   OH241373   4.612   6.607  15.937 -0.0976  0.3516  0.1393
 6653TIP3    H141374   4.661   6.600  15.854  1.2740  2.1169  0.7465
 6653TIP3    H241375   4.521   6.599  15.911  0.3221  0.5611 -1.5197
 6654TIP3   OH241376   1.633   1.141  15.130 -1.2256  0.0352  0.0926
 6654TIP3    H141377   1.727   1.123  15.130 -1.1153  0.4091 -1.5901
 6654TIP3    H241378   1.592   1.055  15.119 -1.0584 -0.0815  0.3811
 6655TIP3   OH241379   1.488   4.355  11.154 -0.1292 -0.2266  0.2129
 6655TIP3    H141380   1.579   4.384  11.146 -0.4719  1.4527  1.8211
 6655TIP3    H241381   1.469   4.314  11.070  2.2221 -0.9727 -0.0267
 6656TIP3   OH241382   3.180   2.252   5.363 -0.1101  0.1275  0.0972
 6656TIP3    H141383   3.231   2.317   5.410  1.7622  0.1526 -1.7739
 6656TIP3    H241384   3.220   2.168   5.387  0.2971  0.0710 -0.7311
 6657TIP3   OH241385   4.443   5.935  12.194  0.0011 -0.4406 -0.1750
 6657TIP3    H141386   4.460   5.844  12.215  1.4680  0.6345  4.5944
 6657TIP3    H241387   4.529   5.973  12.178 -0.4040  0.4926 -0.2459
 6658TIP3   OH241388   6.784   4.159   6.407  0.2587 -0.0781  0.6331
 6658TIP3    H141389   6.819   4.246   6.385 -0.9308  0.3283  0.2670
 6658TIP3    H241390   6.800   4.107   6.328 -0.5916  0.3191  0.1774
 6659TIP3   OH241391   4.354   6.493  16.777  0.2731  0.6727 -0.1135
 6659TIP3    H141392   4.277   6.438  16.789  1.6476 -1.4768 -0.6953
 6659TIP3    H241393   4.386   6.510  16.866  0.5859 -0.6217  0.0337
 6660TIP3   OH241394   5.706   5.747  11.260  0.2179  0.0468 -0.6640
 6660TIP3    H141395   5.638   5.814  11.259 -0.0290 -0.2005 -0.7968
 6660TIP3    H241396   5.788   5.795  11.251  0.2051  0.5009  1.3275
 6661TIP3   OH241397   5.046   1.566   1.643  0.1538  0.5874 -0.0594
 6661TIP3    H141398   5.065   1.574   1.736  1.5098 -0.4381 -0.2081
 6661TIP3    H241399   5.008   1.479   1.634  1.7815 -0.1050 -0.6708
 6662TIP3   OH241400   5.716   2.135  11.755 -0.2878  0.1588  0.7655
 6662TIP3    H141401   5.727   2.216  11.804 -0.3897  0.1291  0.8390
 6662TIP3    H241402   5.753   2.067  11.812  0.5143  0.2525  0.3681
 6663TIP3   OH241403   1.733   4.006  15.470 -0.0421  0.1374 -0.0523
 6663TIP3    H141404   1.820   3.975  15.494 -0.5607 -2.6645 -1.3331
 6663TIP3    H241405   1.707   4.065  15.540  3.0480  1.4418  0.1126
 6664TIP3   OH241406   2.681   6.280   4.664  0.0955  0.3319 -0.4267
 6664TIP3    H141407   2.725   6.204   4.625  0.1534  0.5750 -0.8449
 6664TIP3    H241408   2.726   6.356   4.626 -0.6667  0.5879 -0.8474
 6665TIP3   OH241409   3.909   5.259   1.981  0.4221 -0.3331 -0.3850
 6665TIP3    H141410   3.828   5.235   2.026  0.5483 -0.6196 -0.3079
 6665TIP3    H241411   3.974   5.263   2.051  0.7600 -1.4104 -0.6231
 6666TIP3   OH241412   0.383   2.865   2.680  0.4072  0.2113 -0.0242
 6666TIP3    H141413   0.357   2.861   2.588  0.6862  0.7910 -0.1318
 6666TIP3    H241414   0.442   2.790   2.691 -0.3184 -0.3848 -0.0851
 6667TIP3   OH241415   6.458   5.145  17.040 -0.1405  0.5460  0.0763
 6667TIP3    H141416   6.448   5.053  17.016  0.6219  0.5746 -0.3863
 6667TIP3    H241417   6.400   5.157  17.116  1.2559 -0.8276  1.4327
 6668TIP3   OH241418   1.141   4.174  16.515 -0.4409 -0.0190  0.5687
 6668TIP3    H141419   1.177   4.228  16.585 -0.1047  1.2335 -0.5413
 6668TIP3    H241420   1.213   4.115  16.492 -0.6299 -0.6053  1.3997
 6669TIP3   OH241421   3.590   0.016  16.311 -0.1313  0.3086  0.0225
 6669TIP3    H141422   3.536   0.072  16.367 -1.2205 -2.1915  1.6240
 6669TIP3    H241423   3.680   0.041  16.331 -0.5150 -0.0942  2.5017
 6670TIP3   OH241424   5.989   3.344   0.324  0.2440  0.0585 -0.0256
 6670TIP3    H141425   5.924   3.380   0.384  1.7983  1.3950  0.9465
 6670TIP3    H241426   6.014   3.261   0.363  0.8458  0.6669  0.9162
 6671TIP3   OH241427   4.927   4.631   4.588  0.1131  0.1008  0.1116
 6671TIP3    H141428   4.983   4.596   4.518 -0.0794 -0.0324  0.0212
 6671TIP3    H241429   4.982   4.632   4.665 -0.1855 -1.4758  0.3845
 6672TIP3   OH241430   2.172   6.457   0.246  0.1436  0.2093  0.1188
 6672TIP3    H141431   2.158   6.521   0.316  0.1142 -1.5655  1.7995
 6672TIP3    H241432   2.101   6.394   0.257  1.5483 -1.4408  0.0623
 6673TIP3   OH241433   2.178   6.361  11.491 -0.0034 -0.0887  0.2161
 6673TIP3    H141434   2.260   6.328  11.454 -0.4624 -0.5751 -0.3845
 6673TIP3    H241435   2.119   6.286  11.487 -0.8895  0.6369 -0.6293
 6674TIP3   OH241436   2.783   1.491  11.294  0.2821  0.1547 -0.4181
 6674TIP3    H141437   2.811   1.558  11.231 -0.2761  0.8065  0.0242
 6674TIP3    H241438   2.779   1.410  11.242  1.0908  0.4277 -0.9241
 6675TIP3   OH241439   1.711   6.483  15.687 -0.2276 -0.1226 -0.1152
 6675TIP3    H141440   1.716   6.541  15.611  0.8507 -1.7326 -1.3236
 6675TIP3    H241441   1.801   6.452  15.699 -1.1367 -3.4613 -1.0780
 6676TIP3   OH241442   0.915   5.294  13.543 -0.3504 -0.3696  0.1731
 6676TIP3    H141443   0.987   5.237  13.571 -1.1469 -0.7186  1.6228
 6676TIP3    H241444   0.922   5.296  13.448 -0.4512 -3.1434  0.0260
 6677TIP3   OH241445   2.453   4.351  12.050 -0.3539 -0.2572 -0.1697
 6677TIP3    H141446   2.530   4.345  11.992 -0.3539 -2.5048 -0.0179
 6677TIP3    H241447   2.485   4.398  12.127  0.4041  0.2852 -0.7945
 6678TIP3   OH241448   5.893   3.265  10.259  0.2669 -0.1007  0.2498
 6678TIP3    H141449   5.954   3.288  10.189 -1.1271  1.2900 -0.5757
 6678TIP3    H241450   5.809   3.250  10.215 -0.6081  0.6106  1.5924
 6679TIP3   OH241451   1.274   5.043  12.174  0.2046  0.1095 -0.3482
 6679TIP3    H141452   1.199   5.101  12.188  0.3264  0.0606  0.5753
 6679TIP3    H241453   1.261   4.971  12.235  1.0452  0.1466 -0.1113
 6680TIP3   OH241454   1.575   1.745   1.108 -0.3410  0.6728 -0.4377
 6680TIP3    H141455   1.572   1.719   1.200 -0.9294 -0.8556 -0.8491
 6680TIP3    H241456   1.594   1.839   1.109  1.3963  0.3648  1.1876
 6681TIP3   OH241457   5.983   6.578   3.623  0.0879  0.4037  0.1721
 6681TIP3    H141458   5.893   6.547   3.637  0.4602 -0.2094  1.2775
 6681TIP3    H241459   6.038   6.514   3.667  1.0577  1.0236 -0.1086
 6682TIP3   OH241460   2.908   6.600  15.279 -0.2773  0.3309 -0.4950
 6682TIP3    H141461   2.929   6.507  15.268 -1.1439  0.1982 -1.1683
 6682TIP3    H241462   2.993   6.643  15.285  0.1476 -0.6625  1.3500
 6683TIP3   OH241463   3.790   1.484  16.900  0.2432 -0.1870  0.2416
 6683TIP3    H141464   3.757   1.559  16.850  1.8680  0.8864  0.7119
 6683TIP3    H241465   3.819   1.422  16.833 -3.3251 -1.5556 -0.2212
 6684TIP3   OH241466   1.833   3.704   4.119  0.1575 -0.4130  0.0929
 6684TIP3    H141467   1.776   3.750   4.057  0.8352 -0.1645 -0.3575
 6684TIP3    H241468   1.851   3.769   4.187  1.2968  0.1126 -0.6567
 6685TIP3   OH241469   2.591   5.687  14.041  0.0968  0.0732  0.5257
 6685TIP3    H141470   2.538   5.650  14.111 -0.5681 -0.2658 -0.1328
 6685TIP3    H241471   2.595   5.781  14.059 -1.2679  0.2050  0.2582
 6686TIP3   OH241472   2.379   5.845   3.926 -0.3528 -0.0931  0.3154
 6686TIP3    H141473   2.425   5.772   3.883 -2.9634 -1.7221  0.0454
 6686TIP3    H241474   2.358   5.905   3.854 -1.1754 -0.8254 -0.0884
 6687TIP3   OH241475   4.095   2.543  11.761 -0.0163 -0.4901  0.0463
 6687TIP3    H141476   4.172   2.559  11.706  0.1904 -1.4459  0.0397
 6687TIP3    H241477   4.076   2.450  11.749 -1.6479 -0.0969 -0.5487
 6688TIP3   OH241478   2.174   4.284  13.600  0.1748 -1.1102 -0.6117
 6688TIP3    H141479   2.179   4.378  13.614 -1.0983 -0.8548 -1.7481
 6688TIP3    H241480   2.250   4.249  13.647  0.5917  0.4545 -0.0715
 6689TIP3   OH241481   2.728   3.311  12.339  0.7151  0.0207 -0.2158
 6689TIP3    H141482   2.735   3.228  12.293 -1.6120  0.7336 -2.1067
 6689TIP3    H241483   2.795   3.308  12.407  0.1389 -3.7391  0.3780
 6690TIP3   OH241484   2.563   6.452   5.324 -0.6677  0.4214  0.9623
 6690TIP3    H141485   2.574   6.374   5.270  0.0931  0.7148  0.6837
 6690TIP3    H241486   2.516   6.421   5.401  0.6247 -0.5544  1.3929
 6691TIP3   OH241487   5.198   1.844  17.183  0.0672  0.2006  0.5173
 6691TIP3    H141488   5.151   1.925  17.203 -1.6726 -0.4905 -0.5168
 6691TIP3    H241489   5.130   1.777  17.180  1.1437 -0.9026 -0.8233
 6692TIP3   OH241490   5.312   6.024  11.686  0.4610  0.5691 -0.0227
 6692TIP3    H141491   5.234   6.008  11.740 -0.0346 -0.9173 -1.0907
 6692TIP3    H241492   5.382   5.978  11.733  0.1301 -0.3148 -0.3592
 6693TIP3   OH241493   2.590   4.876  15.578 -0.1468  0.2005  0.0387
 6693TIP3    H141494   2.583   4.967  15.547 -1.1859  0.2710  0.4365
 6693TIP3    H241495   2.589   4.824  15.497  2.4008  0.5819 -0.3299
 6694TIP3   OH241496   2.730   4.994  11.744 -0.3331  0.1168  0.4302
 6694TIP3    H141497   2.672   4.921  11.766 -0.1705 -0.3799 -0.7189
 6694TIP3    H241498   2.817   4.954  11.737 -0.3581  0.2549 -0.9338
 6695TIP3   OH241499   0.251   0.429  14.011 -0.1339  0.3133  0.1447
 6695TIP3    H141500   0.289   0.355  13.963  0.1915  1.1799 -0.9708
 6695TIP3    H241501   0.180   0.460  13.955 -1.4285 -0.2272  1.4243
 6696TIP3   OH241502   0.748   1.052   6.284 -1.0341 -0.0325 -0.4211
 6696TIP3    H141503   0.791   1.019   6.205 -0.9074  0.3415 -0.5073
 6696TIP3    H241504   0.682   0.985   6.304 -0.3420 -0.6720 -0.2214
 6697TIP3   OH241505   4.193   2.038   2.546 -0.0562  0.1502  0.3610
 6697TIP3    H141506   4.117   1.984   2.529 -1.1204  1.1211  1.7456
 6697TIP3    H241507   4.240   1.992   2.616 -0.0147  0.1556  0.3370
 6698TIP3   OH241508   2.692   1.146  13.244  0.6538 -0.6078  0.4561
 6698TIP3    H141509   2.780   1.183  13.242  0.0712  0.7846 -0.2828
 6698TIP3    H241510   2.688   1.100  13.328  2.1036 -0.7707  0.4618
 6699TIP3   OH241511   3.037   4.826   1.462  0.2894 -0.1416  0.0044
 6699TIP3    H141512   3.081   4.749   1.428 -1.3604 -1.5074  0.8013
 6699TIP3    H241513   3.061   4.829   1.555 -0.5514 -0.3980  0.2416
 6700TIP3   OH241514   3.146   1.650  16.774  0.4590  0.2285 -0.0155
 6700TIP3    H141515   3.227   1.614  16.808  0.5208 -1.2684 -1.6091
 6700TIP3    H241516   3.156   1.645  16.679 -1.6169 -0.3026 -0.2484
 6701TIP3   OH241517   6.451   3.552   2.145 -0.8386  0.2699  0.4702
 6701TIP3    H141518   6.501   3.472   2.126 -1.2007  0.1859 -0.1375
 6701TIP3    H241519   6.513   3.609   2.190 -0.5032 -0.2573  0.6831
 6702TIP3   OH241520   4.140   4.592   4.012  0.2710  0.2055 -0.5481
 6702TIP3    H141521   4.209   4.626   4.070 -0.4831  2.2530 -0.7640
 6702TIP3    H241522   4.183   4.523   3.961  1.9926  0.9894 -0.2276
 6703TIP3   OH241523   4.746   2.158  11.788 -0.3798  0.1412 -0.1372
 6703TIP3    H141524   4.813   2.104  11.830  0.5531  1.3046 -0.0918
 6703TIP3    H241525   4.679   2.095  11.761  0.5456 -1.0108  0.1510
 6704TIP3   OH241526   2.894   4.190  14.388  0.2232  0.4853 -0.4218
 6704TIP3    H141527   2.848   4.107  14.392 -0.9902  1.0051 -2.3606
 6704TIP3    H241528   2.978   4.174  14.432 -0.5211 -1.3471  0.4052
 6705TIP3   OH241529   4.076   5.471  12.955  0.6667  0.2459 -0.0651
 6705TIP3    H141530   4.015   5.398  12.955  1.3394 -0.3365 -0.5852
 6705TIP3    H241531   4.039   5.533  12.892  1.9729 -1.3448 -2.5716
 6706TIP3   OH241532   1.068   5.660   5.122  0.0672  0.2196 -0.0964
 6706TIP3    H141533   1.139   5.610   5.162 -1.6971 -0.4272  2.5096
 6706TIP3    H241534   0.990   5.606   5.138 -1.0278  0.7223 -3.1300
 6707TIP3   OH241535   6.100   2.295  13.977  1.0778 -0.4490 -0.0509
 6707TIP3    H141536   6.132   2.319  13.890  1.9491 -0.0395  0.3726
 6707TIP3    H241537   6.058   2.374  14.010  1.0275 -0.5086  0.0288
 6708TIP3   OH241538   5.314   5.726  15.568  0.1598  0.0755  0.0204
 6708TIP3    H141539   5.276   5.761  15.649  1.3626  1.4875  0.0109
 6708TIP3    H241540   5.408   5.741  15.577  0.3206  0.2147 -1.6072
 6709TIP3   OH241541   5.369   1.237   0.486  0.0836  0.2778  0.7021
 6709TIP3    H141542   5.344   1.190   0.407 -0.4554  1.2841  0.2576
 6709TIP3    H241543   5.355   1.174   0.557 -2.1873  0.2424  0.3042
 6710TIP3   OH241544   5.247   3.071  15.164  0.0581 -0.3694  0.0591
 6710TIP3    H141545   5.323   3.078  15.106 -1.2341  2.0781 -1.5010
 6710TIP3    H241546   5.244   3.156  15.209 -1.1084 -0.8526  0.9487
 6711TIP3   OH241547   5.165   6.633  14.207  0.7853 -0.4978  0.6211
 6711TIP3    H141548   5.156   6.678  14.123  0.0583 -0.4177  0.7338
 6711TIP3    H241549   5.249   6.663  14.242  1.5904 -1.3042 -0.5294
 6712TIP3   OH241550   0.853   1.767  12.153  0.2622  0.0908  0.0833
 6712TIP3    H141551   0.862   1.695  12.215  0.0921  0.4039  0.4710
 6712TIP3    H241552   0.920   1.749  12.086  2.0034  0.9250  1.5093
 6713TIP3   OH241553   4.332   6.596   6.328 -0.1929  0.3711 -0.3231
 6713TIP3    H141554   4.330   6.536   6.403  2.6490  2.1760  1.3639
 6713TIP3    H241555   4.308   6.681   6.364  0.8538  1.2177 -1.5393
 6714TIP3   OH241556   6.394   0.366  14.917  0.1725  0.1004  0.2262
 6714TIP3    H141557   6.426   0.448  14.881 -0.2087  0.2594  0.2426
 6714TIP3    H241558   6.467   0.333  14.969  0.3422  0.4107  0.1903
 6715TIP3   OH241559   5.403   5.496   1.974 -0.1873  0.2006 -0.1117
 6715TIP3    H141560   5.449   5.539   2.047 -0.3670 -0.7424  0.5812
 6715TIP3    H241561   5.327   5.454   2.015 -0.0280 -0.7497 -0.7534
 6716TIP3   OH241562   4.005   5.645   4.744 -0.0952 -0.0003 -0.6802
 6716TIP3    H141563   3.960   5.561   4.752 -0.2533  0.0736 -0.7948
 6716TIP3    H241564   4.080   5.626   4.686  0.5336 -0.3242  0.2158
 6717TIP3   OH241565   5.858   5.045   2.930 -0.4767 -0.6708 -0.3273
 6717TIP3    H141566   5.865   4.988   3.006 -2.3596 -0.5609 -0.0380
 6717TIP3    H241567   5.929   5.016   2.872  0.8826 -0.8756  1.3497
 6718TIP3   OH241568   4.928   5.654  13.451 -1.0284 -0.2029  0.1382
 6718TIP3    H141569   4.921   5.559  13.456 -0.2727 -0.2175  1.0263
 6718TIP3    H241570   4.973   5.680  13.531 -1.3168  0.9171 -0.0416
 6719TIP3   OH241571   4.478   3.109  12.572  0.5010  0.4782 -0.1370
 6719TIP3    H141572   4.449   3.045  12.637  0.4115  0.3023 -0.3533
 6719TIP3    H241573   4.400   3.129  12.521  1.2890 -2.1745 -2.6491
 6720TIP3   OH241574   5.465   2.327  15.666  0.7804 -0.1699 -0.3476
 6720TIP3    H141575   5.552   2.306  15.700  0.7440 -0.5817 -0.5024
 6720TIP3    H241576   5.463   2.422  15.662  0.8854 -0.1216  0.5399
 6721TIP3   OH241577   6.368   1.439   1.118 -0.3828  0.4296  0.0713
 6721TIP3    H141578   6.289   1.443   1.173 -0.1556  0.3204  0.4091
 6721TIP3    H241579   6.335   1.418   1.031 -1.0833  3.6138 -0.5733
 6722TIP3   OH241580   0.920   4.416   1.202 -0.2294 -0.8180 -0.3315
 6722TIP3    H141581   0.838   4.414   1.251  0.4987 -0.8969  0.9289
 6722TIP3    H241582   0.904   4.361   1.125 -1.0226 -1.6957  0.4345
 6723TIP3   OH241583   5.670   0.270  11.772 -0.2485  0.4441  0.1485
 6723TIP3    H141584   5.626   0.311  11.847 -0.1784 -4.1617  3.0766
 6723TIP3    H241585   5.602   0.217  11.731  0.9139 -1.4780  0.5735
 6724TIP3   OH241586   1.767   2.705   2.220 -0.7221  0.5943 -0.7639
 6724TIP3    H141587   1.787   2.787   2.265 -1.1310  1.4252 -2.0862
 6724TIP3    H241588   1.805   2.715   2.133 -0.6269 -0.6993 -0.8955
 6725TIP3   OH241589   3.025   4.776  13.704  0.3483 -0.1825  0.1436
 6725TIP3    H141590   3.100   4.731  13.743  0.1243  0.8530  1.8620
 6725TIP3    H241591   2.951   4.717  13.720  0.4941 -0.4165 -0.0287
 6726TIP3   OH241592   4.213   5.383   1.734  0.0933 -0.8695 -0.2785
 6726TIP3    H141593   4.273   5.445   1.776  0.3554 -1.1386 -0.2595
 6726TIP3    H241594   4.203   5.417   1.645 -2.4786  1.1857  0.6789
 6727TIP3   OH241595   1.788   1.713  14.833  0.4169 -0.2207  0.1706
 6727TIP3    H141596   1.873   1.674  14.812  0.4462  0.4111 -0.9748
 6727TIP3    H241597   1.724   1.648  14.802  0.4763  0.1374 -0.7373
 6728TIP3   OH241598   6.428   3.458   1.638  0.1489 -0.0513 -0.4177
 6728TIP3    H141599   6.344   3.457   1.684 -0.9207 -1.8051 -2.2493
 6728TIP3    H241600   6.475   3.381   1.671  0.0340 -0.4176 -1.0928
 6729TIP3   OH241601   5.330   5.341   3.395  0.3851 -0.2103 -0.5139
 6729TIP3    H141602   5.302   5.315   3.307  1.1363  2.1582 -1.5411
 6729TIP3    H241603   5.420   5.308   3.402  0.9927  1.1694 -1.4193
 6730TIP3   OH241604   1.993   1.693   1.966  0.0428  0.9365 -0.4909
 6730TIP3    H141605   2.052   1.659   1.899 -0.2773  0.4764 -0.5423
 6730TIP3    H241606   2.009   1.787   1.966  0.9822  0.7875 -0.3099
 6731TIP3   OH241607   3.995   6.428  11.286  0.1340  0.1733 -0.4056
 6731TIP3    H141608   3.953   6.342  11.287 -0.9418  0.6685  0.9904
 6731TIP3    H241609   4.042   6.433  11.370  2.1491  0.0688 -1.4663
 6732TIP3   OH241610   4.361   3.491  13.651 -0.7485 -0.0211  0.0628
 6732TIP3    H141611   4.347   3.528  13.738  0.2628 -0.3623  0.3783
 6732TIP3    H241612   4.370   3.397  13.666 -0.8629 -0.1153 -0.4505
 6733TIP3   OH241613   2.032   0.975  12.616 -0.2141 -0.1146 -0.2665
 6733TIP3    H141614   2.117   1.020  12.613 -0.4783  0.3974 -0.1650
 6733TIP3    H241615   1.972   1.040  12.652 -0.9976  0.0791 -1.8371
 6734TIP3   OH241616   6.161   5.536  13.032  0.6401  0.0103  0.0200
 6734TIP3    H141617   6.094   5.542  12.964  0.9602  0.1879 -0.2824
 6734TIP3    H241618   6.162   5.622  13.074  1.8152  0.5582 -1.0665
 6735TIP3   OH241619   5.733   2.162  13.508  0.3902 -0.6552 -0.0086
 6735TIP3    H141620   5.737   2.256  13.530  3.0452  0.2953 -3.5712
 6735TIP3    H241621   5.822   2.131  13.525  0.1381 -1.9702 -0.9926
 6736TIP3   OH241622   5.044   4.157   1.982 -0.1074  0.0197  0.6805
 6736TIP3    H141623   5.001   4.074   1.961  0.0511  0.1821 -0.3371
 6736TIP3    H241624   5.137   4.134   1.986  0.0357  0.3156 -0.5719
 6737TIP3   OH241625   5.042   6.789  11.991  0.2639  0.2157  0.6483
 6737TIP3    H141626   5.035   6.824  12.080  0.9525  0.9825  0.4082
 6737TIP3    H241627   4.951   6.787  11.960  0.1382  1.1256  0.9225
 6738TIP3   OH241628   2.502   0.766  17.128  0.7188  0.0358 -0.0856
 6738TIP3    H141629   2.561   0.699  17.094 -1.1386 -1.0872 -1.2753
 6738TIP3    H241630   2.531   0.780  17.218  1.7386 -1.7217 -0.0980
 6739TIP3   OH241631   4.562   1.954   2.582  0.0785  0.0713 -0.1098
 6739TIP3    H141632   4.597   2.025   2.529 -0.2683  0.0666 -0.3551
 6739TIP3    H241633   4.592   1.972   2.671  0.0266  0.5021 -0.1787
 6740TIP3   OH241634   2.913   5.608   1.712  0.3978 -0.3972 -0.3931
 6740TIP3    H141635   2.914   5.688   1.659  1.0828 -0.9131 -1.1926
 6740TIP3    H241636   2.845   5.554   1.673  0.2268 -0.3758 -0.1243
 6741TIP3   OH241637   6.336   4.344  15.350  0.3210  0.1348 -0.0106
 6741TIP3    H141638   6.308   4.263  15.307 -2.1728  1.0812 -0.3256
 6741TIP3    H241639   6.309   4.334  15.441 -0.0438  0.6281 -0.0633
 6742TIP3   OH241640   1.450   0.350   0.885  0.8082  0.5580 -0.6551
 6742TIP3    H141641   1.445   0.419   0.952 -2.7109  2.1523 -2.3199
 6742TIP3    H241642   1.371   0.298   0.899  0.8594 -0.0781 -2.5430
 6743TIP3   OH241643   2.162   6.503   0.660 -0.1729 -0.0903  0.3079
 6743TIP3    H141644   2.120   6.425   0.695 -0.2899  0.1004  0.5949
 6743TIP3    H241645   2.102   6.575   0.683 -1.3174 -0.1750 -2.0215
 6744TIP3   OH241646   6.703   0.266  11.843 -0.0581  0.0111  0.2267
 6744TIP3    H141647   6.712   0.261  11.748  2.1347 -1.7833  0.4539
 6744TIP3    H241648   6.767   0.203  11.877 -2.0318 -0.7679  2.8591
 6745TIP3   OH241649   3.226   5.098  14.532 -0.1951 -0.5003  0.1849
 6745TIP3    H141650   3.230   5.100  14.628  1.8597 -0.6573  0.1401
 6745TIP3    H241651   3.153   5.039  14.512 -1.5996  0.6620  1.6217
 6746TIP3   OH241652   2.956   6.182  13.738  0.0257  0.4533 -0.0637
 6746TIP3    H141653   3.001   6.208  13.658 -0.1004 -3.1423 -1.4733
 6746TIP3    H241654   3.026   6.153  13.797 -0.0823 -0.8669 -0.5433
 6747TIP3   OH241655   2.761   1.315  14.303  0.1556  0.0702  0.4350
 6747TIP3    H141656   2.783   1.407  14.316  1.8629  0.0663 -1.8774
 6747TIP3    H241657   2.671   1.308  14.335  0.7780  1.9207  2.9596
 6748TIP3   OH241658   1.574   2.080   4.630 -0.0049  0.1301  0.5717
 6748TIP3    H141659   1.513   2.106   4.561 -0.5886 -1.6461  0.3468
 6748TIP3    H241660   1.637   2.152   4.636  0.0037  0.3841 -1.7481
 6749TIP3   OH241661   3.506   3.831  16.777 -0.4621 -0.0312  0.1059
 6749TIP3    H141662   3.545   3.813  16.862  1.8516  0.4175 -0.8044
 6749TIP3    H241663   3.528   3.755  16.723  0.6596  0.9643 -0.8935
 6750TIP3   OH241664   2.749   3.139   6.194  0.1456 -0.1635  0.0163
 6750TIP3    H141665   2.746   3.135   6.289 -0.1215 -0.6636 -0.0091
 6750TIP3    H241666   2.750   3.233   6.174  0.9262 -0.0523  0.5263
 6751TIP3   OH241667   2.743   3.094  11.667 -0.2866 -0.7830  0.5154
 6751TIP3    H141668   2.695   3.173  11.646 -0.4737 -1.1078 -0.3332
 6751TIP3    H241669   2.775   3.108  11.756 -0.2452  0.2705  0.3476
 6752TIP3   OH241670   5.589   6.574   1.159 -0.7787 -0.5134 -0.4690
 6752TIP3    H141671   5.508   6.545   1.202 -1.7407 -1.9977 -3.0365
 6752TIP3    H241672   5.564   6.585   1.067  1.1107  2.6423 -0.7243
 6753TIP3   OH241673   5.231   4.648  15.081  0.7596  0.0865 -0.1671
 6753TIP3    H141674   5.181   4.591  15.022 -0.9679 -0.0353  1.3418
 6753TIP3    H241675   5.286   4.589  15.131  1.4776  0.0977 -0.9179
 6754TIP3   OH241676   2.071   2.472  15.826  0.2101  0.3753  0.8758
 6754TIP3    H141677   2.161   2.505  15.826 -0.0282  1.2612 -1.9173
 6754TIP3    H241678   2.017   2.551  15.821 -0.7714 -0.1637  2.1794
 6755TIP3   OH241679   3.123   4.894   3.662  0.0298  0.5783 -0.3424
 6755TIP3    H141680   3.035   4.930   3.675 -0.1740  0.9897 -2.4395
 6755TIP3    H241681   3.181   4.969   3.671  0.3427  0.1285  2.0954
 6756TIP3   OH241682   1.970   5.743  16.512  0.0946 -0.0108 -0.2999
 6756TIP3    H141683   1.943   5.768  16.600 -0.1279 -0.7652 -0.1521
 6756TIP3    H241684   1.900   5.776  16.456  1.0422  1.9894 -0.4081
 6757TIP3   OH241685   1.925   5.791  14.782  0.1600  0.4593  0.0970
 6757TIP3    H141686   1.844   5.760  14.742 -0.0422 -0.8003  1.4040
 6757TIP3    H241687   1.925   5.886  14.766 -1.3492  0.4232 -0.2789
 6758TIP3   OH241688   2.832   1.425   1.965  0.1083 -0.5951  0.1310
 6758TIP3    H141689   2.914   1.473   1.951  0.8015 -1.7167  0.2443
 6758TIP3    H241690   2.776   1.487   2.011  1.2786 -0.1460  1.0257
 6759TIP3   OH241691   6.526   3.721   1.647  0.3516  0.2711 -0.3425
 6759TIP3    H141692   6.501   3.638   1.687 -1.3403  0.7119 -0.4009
 6759TIP3    H241693   6.584   3.697   1.576 -0.0729 -0.8606 -0.3248
 6760TIP3   OH241694   1.408   0.348  11.520 -0.2351 -0.2930  0.5999
 6760TIP3    H141695   1.392   0.255  11.535 -0.0322 -0.4709 -0.2331
 6760TIP3    H241696   1.389   0.362  11.427 -0.6424  0.5828  0.7986
 6761TIP3   OH241697   4.530   1.763   1.742  0.6705  0.0113  0.2135
 6761TIP3    H141698   4.590   1.712   1.687 -0.9397 -2.4714  0.6099
 6761TIP3    H241699   4.458   1.788   1.683  0.3274 -0.1726  0.5538
 6762TIP3   OH241700   6.391   0.633   2.294 -0.4249 -0.3250  0.1634
 6762TIP3    H141701   6.309   0.676   2.271  0.0830 -0.4598 -2.1450
 6762TIP3    H241702   6.455   0.704   2.297 -0.1842 -0.5088 -0.4764
 6763TIP3   OH241703   3.782   5.269   4.853 -0.1634 -0.0375  0.7364
 6763TIP3    H141704   3.841   5.264   4.928 -1.1340  1.0648  1.6204
 6763TIP3    H241705   3.694   5.272   4.892 -0.6814  0.7268 -0.4253
 6764TIP3   OH241706   0.841   0.753   1.788 -0.1202  0.1319 -0.0723
 6764TIP3    H141707   0.771   0.819   1.793  0.3011  0.7998 -2.1092
 6764TIP3    H241708   0.831   0.703   1.869 -2.1645  0.9953  0.2983
 6765TIP3   OH241709   3.567   3.103   3.478  0.5953 -0.4234 -0.5943
 6765TIP3    H141710   3.506   3.068   3.413 -0.5514 -0.9284  0.7115
 6765TIP3    H241711   3.616   3.026   3.508  1.2163 -0.1702 -0.9434
 6766TIP3   OH241712   4.957   6.677   0.238  0.5777  0.0352  0.2052
 6766TIP3    H141713   5.009   6.606   0.276  1.2905  0.3052 -0.2535
 6766TIP3    H241714   5.011   6.712   0.168 -0.1492  0.4450 -0.1659
 6767TIP3   OH241715   0.949   0.660   3.102 -0.4091  0.0504  0.0948
 6767TIP3    H141716   0.879   0.595   3.094  0.8951 -1.7986  2.3060
 6767TIP3    H241717   0.969   0.662   3.195  3.6177 -0.8977 -0.5596
 6768TIP3   OH241718   3.195   2.537   6.362 -0.3144 -0.0335  0.1322
 6768TIP3    H141719   3.107   2.520   6.393 -0.9703 -1.2949 -2.1551
 6768TIP3    H241720   3.184   2.607   6.297  0.6248  0.8581  0.8969
 6769TIP3   OH241721   6.526   1.209   5.896 -0.0643  0.5672 -0.1274
 6769TIP3    H141722   6.481   1.125   5.908 -0.5630  0.9954  1.0483
 6769TIP3    H241723   6.457   1.274   5.897  0.5233  1.2234  1.6068
 6770TIP3   OH241724   4.962   1.243   2.958  0.3975 -0.1325 -0.2592
 6770TIP3    H141725   4.911   1.269   3.034  0.1200  0.1788 -0.5461
 6770TIP3    H241726   4.949   1.314   2.895  1.9667  0.4557  0.0136
 6771TIP3   OH241727   5.982   4.083   1.097 -0.0310 -0.7305  0.3723
 6771TIP3    H141728   6.010   4.172   1.075 -0.8138 -0.8164 -1.0170
 6771TIP3    H241729   6.060   4.044   1.137  0.7059  0.1865 -0.1158
 6772TIP3   OH241730   6.714   3.945  11.053  0.1811 -0.0182 -0.2420
 6772TIP3    H141731   6.711   3.945  10.957  2.0636  1.4861 -0.3751
 6772TIP3    H241732   6.734   4.036  11.075 -2.4251  0.1843  1.7298
 6773TIP3   OH241733   3.603   3.705  14.338  0.0013 -0.5532 -0.1250
 6773TIP3    H141734   3.687   3.661  14.347  0.6080  0.5147 -0.4004
 6773TIP3    H241735   3.610   3.754  14.257 -0.6459  0.0682  0.1832
 6774TIP3   OH241736   6.195   2.465  14.831  0.2591  0.6096 -0.0678
 6774TIP3    H141737   6.124   2.474  14.767  0.3389  0.0006 -0.2530
 6774TIP3    H241738   6.150   2.442  14.913  0.1310  1.7007  0.1845
 6775TIP3   OH241739   1.669   5.444  16.582 -0.2067  0.0070 -0.0641
 6775TIP3    H141740   1.747   5.438  16.637 -0.2487 -0.4687 -0.0595
 6775TIP3    H241741   1.668   5.363  16.531 -0.0374  0.5411 -0.9515
 6776TIP3   OH241742   4.518   0.622   0.536  0.2351  0.3885 -0.2493
 6776TIP3    H141743   4.444   0.571   0.569 -0.7727  1.3409 -0.9449
 6776TIP3    H241744   4.590   0.560   0.530 -0.9384 -0.9485 -1.0338
 6777TIP3   OH241745   5.968   2.081  15.081 -0.1737  0.3358  0.4548
 6777TIP3    H141746   5.889   2.119  15.120  0.2815  0.2441  1.5070
 6777TIP3    H241747   6.006   2.027  15.150  0.1664 -0.6079 -0.4352
 6778TIP3   OH241748   0.583   0.663  16.033 -0.0035 -0.6777  0.6129
 6778TIP3    H141749   0.592   0.569  16.019  2.1348 -0.2526 -1.5901
 6778TIP3    H241750   0.559   0.698  15.948  0.7270  0.9118  1.0244
 6779TIP3   OH241751   1.492   0.859  13.827  0.3290  0.5717  0.0329
 6779TIP3    H141752   1.473   0.774  13.868 -1.3638  1.1953  0.6511
 6779TIP3    H241753   1.516   0.916  13.901  0.8246  0.8026 -0.2992
 6780TIP3   OH241754   3.528   4.708   6.433 -0.1250 -0.1285 -0.3843
 6780TIP3    H141755   3.514   4.705   6.528  0.0378 -1.9624 -0.3787
 6780TIP3    H241756   3.440   4.722   6.397 -0.3689 -0.5607  0.0182
 6781TIP3   OH241757   2.959   2.604  15.799 -0.1995 -0.2153  0.0080
 6781TIP3    H141758   2.895   2.650  15.854  1.0665  1.0554  0.4654
 6781TIP3    H241759   2.972   2.662  15.724  0.0202 -0.7324 -0.3633
 6782TIP3   OH241760   5.065   1.636   0.745 -0.2058 -0.5573  0.1049
 6782TIP3    H141761   5.146   1.665   0.705  0.0377 -1.0821  0.2079
 6782TIP3    H241762   5.039   1.708   0.803  2.0867 -1.7638  2.8440
 6783TIP3   OH241763   4.837   6.288  12.437  0.6684 -0.2971  0.1761
 6783TIP3    H141764   4.765   6.234  12.470  0.6180 -0.0678  0.4543
 6783TIP3    H241765   4.892   6.302  12.514 -1.3393  3.3380  1.2115
 6784TIP3   OH241766   2.499   4.902  12.917 -0.3400 -0.0333  0.7145
 6784TIP3    H141767   2.450   4.830  12.877 -1.2717  0.4938  0.9058
 6784TIP3    H241768   2.591   4.875  12.907 -0.6739 -1.4730  1.1810
 6785TIP3   OH241769   4.183   2.354   5.312 -0.8981  0.5032 -0.1350
 6785TIP3    H141770   4.238   2.278   5.289  0.4748  2.0587 -2.5278
 6785TIP3    H241771   4.242   2.429   5.302 -3.0407  2.1487 -1.2864
 6786TIP3   OH241772   6.121   3.671   5.996 -0.6513  0.3473 -0.3980
 6786TIP3    H141773   6.055   3.602   5.989 -1.3296  1.1330 -2.8791
 6786TIP3    H241774   6.071   3.750   6.017 -0.5801  0.9747 -2.4254
 6787TIP3   OH241775   0.022   4.301  10.878  0.2812 -0.2112  0.1533
 6787TIP3    H141776   0.008   4.246  10.955  0.5996 -1.5281 -0.6932
 6787TIP3    H241777   0.103   4.348  10.897 -0.0983  0.1270  0.9732
 6788TIP3   OH241778   0.453   1.245   5.924  0.0382 -0.4715  0.3748
 6788TIP3    H141779   0.449   1.245   6.019  3.3956 -0.8422  0.6001
 6788TIP3    H241780   0.485   1.158   5.900  0.9959  0.2035 -0.9464
 6789TIP3   OH241781   5.047   2.947   2.216 -0.0853 -0.0776 -0.5017
 6789TIP3    H141782   4.970   2.938   2.160 -0.1252 -0.6443 -0.3637
 6789TIP3    H241783   5.120   2.953   2.154 -0.0825 -1.1493 -0.6281
 6790TIP3   OH241784   0.852   4.362   4.303 -0.6091  0.1936  0.5361
 6790TIP3    H141785   0.917   4.354   4.373 -0.1196  0.7344  0.1575
 6790TIP3    H241786   0.776   4.312   4.334 -0.1046 -0.2299  1.0956
 6791TIP3   OH241787   1.543   4.954   2.319 -0.5976  0.8940  0.0511
 6791TIP3    H141788   1.565   4.877   2.267 -1.4541  0.4015  0.3955
 6791TIP3    H241789   1.476   5.000   2.268 -2.2072 -0.1414  1.1486
 6792TIP3   OH241790   0.627   4.564   2.129  0.7409 -0.4971 -0.0150
 6792TIP3    H141791   0.537   4.575   2.162  0.7911 -0.9580  0.2842
 6792TIP3    H241792   0.664   4.652   2.132 -0.1358 -0.0455 -1.4627
 6793TIP3   OH241793   3.519   4.228  11.361 -0.3115 -0.4153  0.1208
 6793TIP3    H141794   3.490   4.228  11.453 -0.5850 -1.0579  0.0409
 6793TIP3    H241795   3.498   4.140  11.330  0.9141 -0.6102 -0.2020
 6794TIP3   OH241796   1.260   2.747  12.889  0.4254 -0.6111  0.0059
 6794TIP3    H141797   1.341   2.707  12.918 -0.7836 -2.9008  0.4298
 6794TIP3    H241798   1.216   2.680  12.837 -0.9595  0.7427 -0.6735
 6795TIP3   OH241799   4.951   5.973   0.200 -0.2576  0.2462  0.3127
 6795TIP3    H141800   4.882   5.910   0.220  0.9691 -1.5381 -0.7401
 6795TIP3    H241801   5.010   5.969   0.276  1.0505 -1.7379 -0.7158
 6796TIP3   OH241802   5.987   4.560   0.129  0.0383  0.0096 -0.9415
 6796TIP3    H141803   5.943   4.542   0.045  0.2848 -2.3489 -0.6434
 6796TIP3    H241804   5.942   4.503   0.192 -0.2205  1.8275  0.5942
 6797TIP3   OH241805   3.886   5.120  13.402  1.2870  0.3475  0.4491
 6797TIP3    H141806   3.869   5.209  13.372  0.3337  0.3184  0.8599
 6797TIP3    H241807   3.800   5.088  13.431  1.1511 -1.4402 -1.6547
 6798TIP3   OH241808   2.842   2.856  14.527 -0.0939  0.4911  0.0788
 6798TIP3    H141809   2.864   2.869  14.435 -0.7916 -0.0778 -0.1768
 6798TIP3    H241810   2.750   2.883  14.533 -0.5862 -1.1559  0.2311
 6799TIP3   OH241811   4.263   4.031   6.432  0.6114 -0.1722 -0.1513
 6799TIP3    H141812   4.314   3.986   6.364  3.6378  1.4700  0.8390
 6799TIP3    H241813   4.319   4.027   6.509 -2.0161 -0.5377  1.8577
 6800TIP3   OH241814   0.668   3.112  14.037  0.9474 -0.1077 -0.7023
 6800TIP3    H141815   0.575   3.090  14.047  0.5210  0.3560 -3.0257
 6800TIP3    H241816   0.690   3.160  14.117 -0.3825 -1.4822  0.5588
 6801TIP3   OH241817   2.253   3.141   4.414  0.0291  0.1603  0.6318
 6801TIP3    H141818   2.343   3.107   4.407 -0.6195 -1.3134 -1.8770
 6801TIP3    H241819   2.259   3.230   4.381  0.5693  0.0005  0.2759
 6802TIP3   OH241820   0.989   2.194  12.892  0.1219  0.1961  0.3766
 6802TIP3    H141821   1.072   2.215  12.936 -0.0058  0.5536  0.4459
 6802TIP3    H241822   1.007   2.112  12.846  0.9755  1.0128 -0.8287
 6803TIP3   OH241823   6.287   5.152  13.979  0.0263  0.4208 -0.2737
 6803TIP3    H141824   6.202   5.111  13.992 -0.2554  0.4582 -1.8210
 6803TIP3    H241825   6.268   5.246  13.979  0.1801  0.4526  0.0965
 6804TIP3   OH241826   2.213   5.630   6.419 -0.0056  0.3076 -0.1640
 6804TIP3    H141827   2.136   5.627   6.475  0.6854 -0.2550  0.7942
 6804TIP3    H241828   2.285   5.648   6.479  0.9014 -1.3137 -0.6999
 6805TIP3   OH241829   5.749   1.042  14.934  0.1143  0.3250  0.7851
 6805TIP3    H141830   5.702   1.066  15.013 -1.0971 -0.2930  0.2725
 6805TIP3    H241831   5.682   1.036  14.866  1.0313  0.1573 -0.1384
 6806TIP3   OH241832   5.325   2.119   5.908  0.0438 -0.4417 -0.0952
 6806TIP3    H141833   5.259   2.146   5.844  0.2753  0.5558  0.0729
 6806TIP3    H241834   5.285   2.044   5.953 -0.1020 -1.1726 -1.4191
 6807TIP3   OH241835   4.816   5.941  13.790 -0.3869  0.5796  0.2281
 6807TIP3    H141836   4.880   5.949  13.719 -0.0248 -2.8652 -0.0007
 6807TIP3    H241837   4.731   5.950  13.747 -0.1613 -1.0461 -0.6161
 6808TIP3   OH241838   0.069   3.771   3.823  0.0867 -0.2737 -0.0887
 6808TIP3    H141839   0.076   3.751   3.916 -0.2009 -3.7734 -0.7042
 6808TIP3    H241840  -0.015   3.735   3.796  0.5087 -0.0289 -1.8801
 6809TIP3   OH241841   3.037   6.121   1.327  0.0633  0.2518 -0.6123
 6809TIP3    H141842   2.945   6.139   1.308  0.1745  2.3629  0.5146
 6809TIP3    H241843   3.079   6.207   1.323  1.4986 -0.2886  1.3289
 6810TIP3   OH241844   0.452   0.182  12.518  0.2568 -0.2615  0.1575
 6810TIP3    H141845   0.490   0.114  12.462 -0.7719 -1.0629  0.3782
 6810TIP3    H241846   0.441   0.258  12.461 -0.0384 -0.8076 -0.5338
 6811TIP3   OH241847   6.445   1.308   2.338  0.3071 -0.3961 -0.0798
 6811TIP3    H141848   6.497   1.378   2.298 -1.0040  1.6621  1.6138
 6811TIP3    H241849   6.504   1.269   2.402  0.1254  1.3421  1.2133
 6812TIP3   OH241850   2.982   0.246  16.390 -0.0622  0.0095 -0.0917
 6812TIP3    H141851   3.032   0.284  16.462 -1.2807  0.8695  0.3327
 6812TIP3    H241852   2.974   0.153  16.412 -1.8216  0.5295  1.7773
 6813TIP3   OH241853   4.220   6.320   0.694 -0.2030 -0.0171 -0.4461
 6813TIP3    H141854   4.206   6.369   0.775  0.7102  0.0714 -0.3377
 6813TIP3    H241855   4.298   6.360   0.655  1.1054 -1.9398  0.0801
 6814TIP3   OH241856   3.799   2.347  14.051 -0.7467 -0.3122 -0.1019
 6814TIP3    H141857   3.765   2.341  14.140 -0.6287  0.1805 -0.0209
 6814TIP3    H241858   3.736   2.299  13.998 -1.2822  0.1290  0.1252
 6815TIP3   OH241859   1.935   0.575  14.005  0.3698 -0.8460 -0.9272
 6815TIP3    H141860   2.013   0.624  13.980 -0.0183 -0.4271 -1.3503
 6815TIP3    H241861   1.967   0.487  14.026  1.2596 -0.0553  1.2135
 6816TIP3   OH241862   3.704   1.707  13.544 -0.2846  0.0415 -0.2731
 6816TIP3    H141863   3.706   1.674  13.455 -0.9893 -1.6549  0.3018
 6816TIP3    H241864   3.793   1.694  13.577 -0.3161 -0.4065 -0.3654
 6817TIP3   OH241865   4.421   3.295  12.953  0.0050 -0.1480  0.4859
 6817TIP3    H141866   4.490   3.288  13.019 -0.8125 -0.4591  1.3350
 6817TIP3    H241867   4.355   3.231  12.982 -1.1636  0.9761  0.3585
 6818TIP3   OH241868   4.332   4.519  15.973 -0.0957  0.0977  0.1395
 6818TIP3    H141869   4.367   4.433  15.948  0.7901  0.7865 -1.0998
 6818TIP3    H241870   4.410   4.575  15.979 -0.8095  1.1977 -0.6866
 6819TIP3   OH241871   4.565   5.796  12.589  0.0008 -0.0852 -0.1370
 6819TIP3    H141872   4.607   5.752  12.515  0.2858 -0.4557  0.2401
 6819TIP3    H241873   4.615   5.876  12.601 -0.4086  0.2599 -0.7135
 6820TIP3   OH241874   5.344   0.838   4.045  0.6221 -0.6261  0.2403
 6820TIP3    H141875   5.365   0.808   4.133  0.0092  0.8578  0.9308
 6820TIP3    H241876   5.255   0.805   4.029 -0.2095  1.0718  1.1566
 6821TIP3   OH241877   4.717   3.597   4.064 -0.4222  0.0046 -0.6304
 6821TIP3    H141878   4.638   3.599   4.010 -1.8872  2.4218  1.3906
 6821TIP3    H241879   4.780   3.650   4.016 -0.6974 -0.2712 -1.3071
 6822TIP3   OH241880   4.422   1.843   5.191 -0.5516 -0.0719 -0.5391
 6822TIP3    H141881   4.373   1.766   5.219  1.0295 -0.2906  1.9386
 6822TIP3    H241882   4.492   1.809   5.135 -0.9621 -0.1798 -0.9979
 6823TIP3   OH241883   2.957   2.772  16.341 -0.1296 -0.4820 -0.0214
 6823TIP3    H141884   2.935   2.864  16.357  2.0032  0.4955 -2.1538
 6823TIP3    H241885   2.979   2.738  16.428 -1.2796  0.8951  0.8681
 6824TIP3   OH241886   4.942   6.720   2.745 -0.2171 -0.2680  0.4080
 6824TIP3    H141887   4.894   6.651   2.700  0.5607 -0.2499 -0.4663
 6824TIP3    H241888   4.875   6.785   2.766 -0.8908 -1.0759  0.8790
 6825TIP3   OH241889   4.289   2.739   6.109 -0.1145  0.9454 -0.3363
 6825TIP3    H141890   4.331   2.725   6.194  1.9424  1.1310 -1.2688
 6825TIP3    H241891   4.233   2.816   6.122  1.6692  2.1807  0.3897
 6826TIP3   OH241892   2.148   5.453  13.178  0.1025 -0.1678 -0.4786
 6826TIP3    H141893   2.066   5.410  13.156  0.7482 -1.4383 -0.5022
 6826TIP3    H241894   2.176   5.495  13.097 -0.2634 -0.1676 -0.6070
 6827TIP3   OH241895   0.977   4.933  12.697  0.1222 -0.7165 -0.3352
 6827TIP3    H141896   1.011   4.988  12.626 -0.2565  0.8509  0.6609
 6827TIP3    H241897   1.037   4.948  12.770 -0.3069 -1.2016  0.1258
 6828TIP3   OH241898   0.522   6.135   5.357  0.1569 -0.0200 -0.5202
 6828TIP3    H141899   0.531   6.215   5.410 -0.8305  0.2144 -0.6844
 6828TIP3    H241900   0.448   6.153   5.299  0.4462 -0.7486 -1.1320
 6829TIP3   OH241901   0.575   4.865  16.327 -0.1202 -0.0864 -1.1203
 6829TIP3    H141902   0.634   4.918  16.381  0.6573 -0.4879 -1.5641
 6829TIP3    H241903   0.554   4.922  16.252 -3.4063  1.5630  0.8412
 6830TIP3   OH241904   6.371   4.863  14.720 -0.8587  0.3540  0.2781
 6830TIP3    H141905   6.284   4.902  14.729 -0.5927  1.2235 -0.7738
 6830TIP3    H241906   6.408   4.903  14.641  0.1376 -0.6982  0.1834
 6831TIP3   OH241907   6.641   3.041  13.743 -0.1872  0.3050 -0.0326
 6831TIP3    H141908   6.638   3.039  13.647  1.8519 -0.5676 -0.1261
 6831TIP3    H241909   6.632   3.133  13.766 -0.8777  0.5066 -1.0293
 6832TIP3   OH241910   1.654   1.466  12.236 -0.3695 -0.2582 -0.0032
 6832TIP3    H141911   1.625   1.515  12.312  1.9400 -0.9384  1.4235
 6832TIP3    H241912   1.679   1.533  12.172 -2.5826  0.3164 -0.3341
 6833TIP3   OH241913   0.553   3.772  12.105 -0.1346 -0.0307  0.7793
 6833TIP3    H141914   0.470   3.765  12.152 -1.4190 -1.5174 -1.4669
 6833TIP3    H241915   0.530   3.814  12.022  1.0478 -1.6039 -0.4306
 6834TIP3   OH241916   4.040   4.364   5.640  0.2179  0.3650 -0.1462
 6834TIP3    H141917   3.969   4.301   5.654 -0.4328  1.0064 -0.4815
 6834TIP3    H241918   4.046   4.373   5.545  0.9078  0.1393 -0.1250
 6835TIP3   OH241919   6.310   4.941   0.176  0.2371  0.2923  0.3101
 6835TIP3    H141920   6.283   4.924   0.086 -0.3685  0.6336  0.4228
 6835TIP3    H241921   6.245   4.895   0.229 -0.6579  1.8300  0.6030
 6836TIP3   OH241922   0.035   4.612   5.633  0.7455  0.3699  0.4288
 6836TIP3    H141923  -0.032   4.585   5.696 -0.6703 -0.9937 -1.5231
 6836TIP3    H241924   0.051   4.534   5.581  1.6653  1.5079 -1.0718
 6837TIP3   OH241925   1.275   1.507   4.753  0.2441  0.1238  0.3545
 6837TIP3    H141926   1.335   1.433   4.740 -0.4340 -0.2707 -0.7754
 6837TIP3    H241927   1.197   1.467   4.792 -0.3106  0.1182 -0.6955
 6838TIP3   OH241928   4.505   6.557  12.184 -0.0319 -0.3352  0.3691
 6838TIP3    H141929   4.435   6.527  12.126  1.6505 -0.1753 -1.8760
 6838TIP3    H241930   4.472   6.640  12.220 -1.5524 -0.9616  0.4897
 6839TIP3   OH241931   2.790   2.638   0.630 -0.4977 -0.1603 -0.7622
 6839TIP3    H141932   2.868   2.601   0.671 -2.1380 -1.5155  1.3145
 6839TIP3    H241933   2.811   2.639   0.536  1.4008 -2.0155 -0.4343
 6840TIP3   OH241934   5.298   5.492  14.720  0.3018  0.3081  0.1882
 6840TIP3    H141935   5.229   5.558  14.721 -2.6446 -2.5403  1.4834
 6840TIP3    H241936   5.360   5.520  14.787 -0.8439  1.7283  0.6887
 6841TIP3   OH241937   3.762   4.424  14.127 -0.1507  0.3534 -0.1982
 6841TIP3    H141938   3.819   4.483  14.177 -1.1919  0.2571  1.1719
 6841TIP3    H241939   3.811   4.341  14.125  1.1527  1.1028 -1.8155
 6842TIP3   OH241940   2.445   4.279   1.994 -0.2480 -0.0115  0.3518
 6842TIP3    H141941   2.385   4.229   1.939 -1.1847 -1.3832  2.4869
 6842TIP3    H241942   2.529   4.233   1.986  0.0214  0.6871 -1.0419
 6843TIP3   OH241943   1.395   0.760   1.724  0.1606  0.1029  0.6330
 6843TIP3    H141944   1.427   0.670   1.723 -0.3636 -0.0913 -0.3375
 6843TIP3    H241945   1.444   0.804   1.654  1.0032  0.8027  1.6304
 6844TIP3   OH241946   2.449   0.989  16.789  0.2137  0.0778  0.1060
 6844TIP3    H141947   2.473   1.081  16.798  0.4467 -0.0566  0.9766
 6844TIP3    H241948   2.520   0.941  16.832  0.4708 -0.5563 -0.9855
 6845TIP3   OH241949   2.101   5.010  14.812  0.2914  0.3508  0.6266
 6845TIP3    H141950   2.139   5.023  14.899  3.3891 -0.0373 -0.5409
 6845TIP3    H241951   2.113   5.094  14.768 -1.2183  0.5330  0.5178
 6846TIP3   OH241952   4.907   1.127   5.384 -0.1491 -0.7678  0.0445
 6846TIP3    H141953   4.818   1.104   5.411 -1.4304  1.7948 -1.5869
 6846TIP3    H241954   4.946   1.170   5.461 -1.0873 -0.0669  0.1381
 6847TIP3   OH241955   6.434   5.120   0.635  0.7205  0.1179 -0.0167
 6847TIP3    H141956   6.485   5.048   0.671 -0.1540 -1.4504 -1.7133
 6847TIP3    H241957   6.346   5.109   0.671  0.9501  1.3868  1.0237
 6848TIP3   OH241958   5.604   1.745   3.554  0.1476 -0.0133 -0.0293
 6848TIP3    H141959   5.544   1.694   3.608 -1.5374  0.5448 -1.2757
 6848TIP3    H241960   5.689   1.702   3.565 -0.2087 -0.2119  2.6048
 6849TIP3   OH241961   5.199   6.547   2.629 -0.2230 -0.4698 -0.0678
 6849TIP3    H141962   5.135   6.593   2.575  0.5677 -0.7223 -1.2699
 6849TIP3    H241963   5.228   6.612   2.693 -0.0050  0.3597 -0.9832
 6850TIP3   OH241964   0.659   0.683   0.475 -0.1930 -0.3190 -0.2295
 6850TIP3    H141965   0.569   0.711   0.492  0.3000  1.0865  0.2454
 6850TIP3    H241966   0.691   0.653   0.561  1.1802  3.4967  0.8303
 6851TIP3   OH241967   2.224   4.474   1.428 -0.2912  0.5410  0.6002
 6851TIP3    H141968   2.220   4.391   1.381 -0.7277  1.1137 -0.4204
 6851TIP3    H241969   2.133   4.499   1.441 -0.1895  1.5463 -0.4129
 6852TIP3   OH241970   3.048   0.346  11.774 -0.3158  0.0786 -0.0056
 6852TIP3    H141971   2.963   0.359  11.732 -0.4782 -1.0765 -0.0731
 6852TIP3    H241972   3.064   0.427  11.822 -0.3267  1.2570 -1.9365
 6853TIP3   OH241973   5.609   2.301  16.543  0.0060  0.1102 -0.1613
 6853TIP3    H141974   5.686   2.260  16.581 -0.5013 -1.3905 -0.6916
 6853TIP3    H241975   5.610   2.390  16.578  2.5357  0.4784 -0.9210
 6854TIP3   OH241976   3.389   2.498   3.583  0.7480 -0.3704  0.1835
 6854TIP3    H141977   3.324   2.537   3.641  0.2271 -0.2285 -0.4716
 6854TIP3    H241978   3.352   2.510   3.495  1.3958 -0.7972 -0.1557
 6855TIP3   OH241979   0.145   0.125   5.472 -0.0931  0.0589  0.8007
 6855TIP3    H141980   0.119   0.045   5.516 -0.2741 -0.6390 -0.5197
 6855TIP3    H241981   0.064   0.160   5.435  0.2368 -0.1044 -0.1175
 6856TIP3   OH241982   1.790   3.879   0.502 -0.2958 -0.1887 -0.5307
 6856TIP3    H141983   1.722   3.887   0.434  1.8319  0.3549 -2.7403
 6856TIP3    H241984   1.836   3.963   0.499  0.6682 -0.6428  0.7191
 6857TIP3   OH241985   6.267   2.710   4.354 -0.2686  0.5859 -0.2452
 6857TIP3    H141986   6.241   2.706   4.262 -0.1594  0.0449 -0.2574
 6857TIP3    H241987   6.302   2.623   4.372  0.2381  0.8679  0.1507
 6858TIP3   OH241988   3.028   0.923  15.885  0.5314 -0.2210  0.8043
 6858TIP3    H141989   3.110   0.966  15.859 -0.1962  0.8100  0.0892
 6858TIP3    H241990   3.020   0.942  15.978  0.4338  0.8732  0.5896
 6859TIP3   OH241991   5.251   0.363   2.699  0.4003  0.0360 -0.2949
 6859TIP3    H141992   5.210   0.285   2.735 -0.3582 -0.1637 -1.5323
 6859TIP3    H241993   5.244   0.352   2.604  0.0982  1.7084 -0.4934
 6860TIP3   OH241994   5.398   0.906  16.848 -0.3138 -0.2588 -0.4966
 6860TIP3    H141995   5.440   0.865  16.773  0.7641  1.6230 -0.9736
 6860TIP3    H241996   5.322   0.850  16.867  0.9719 -2.3279 -1.1855
 6861TIP3   OH241997   0.892   6.394  11.079  0.7154  0.0181 -0.2247
 6861TIP3    H141998   0.944   6.359  11.006 -0.8659 -0.4008 -1.1959
 6861TIP3    H241999   0.802   6.395  11.046  0.0997  0.7803  1.3850
 6862TIP3   OH242000   6.468   6.771   0.718 -0.9013 -0.6277  0.8334
 6862TIP3    H142001   6.490   6.679   0.706 -0.2849 -0.3690 -0.0492
 6862TIP3    H242002   6.379   6.769   0.755 -0.7592 -1.5762  1.1505
 6863TIP3   OH242003   3.744   5.581   4.575 -0.5432 -0.4720 -0.1331
 6863TIP3    H142004   3.803   5.505   4.578  0.3278  0.2189  0.7543
 6863TIP3    H242005   3.751   5.621   4.662 -0.3959  1.0635 -0.8152
 6864TIP3   OH242006   3.624   1.464  15.997 -0.1259 -0.4854  0.1122
 6864TIP3    H142007   3.600   1.544  16.043 -0.7154 -1.2592  1.2045
 6864TIP3    H242008   3.717   1.451  16.019 -0.5204 -1.1028  1.5454
 6865TIP3   OH242009   2.381   5.732  12.798 -0.1516  0.0376 -0.2421
 6865TIP3    H142010   2.356   5.709  12.708  0.2947 -0.1168 -0.3323
 6865TIP3    H242011   2.444   5.804  12.787 -0.5314  0.4030 -0.0242
 6866TIP3   OH242012   4.314   5.364  11.757  0.2427  0.4489 -0.6591
 6866TIP3    H142013   4.253   5.304  11.801 -0.0493  0.8998 -0.4461
 6866TIP3    H242014   4.390   5.367  11.815 -0.5116  1.7710  0.3312
 6867TIP3   OH242015   2.060   1.641  14.290 -0.2551 -0.2135 -0.4875
 6867TIP3    H142016   2.087   1.721  14.335  1.5218 -0.5547 -0.8724
 6867TIP3    H242017   2.072   1.660  14.197 -3.0204  0.1678 -0.8699
 6868TIP3   OH242018   1.628   1.614  12.987  0.1901 -0.8378  0.2303
 6868TIP3    H142019   1.619   1.596  12.893  0.6540 -1.0701  0.2244
 6868TIP3    H242020   1.600   1.533  13.029 -1.3000 -0.2932  0.3569
 6869TIP3   OH242021   4.316   0.783   2.624 -0.1868 -0.3638 -0.3140
 6869TIP3    H142022   4.295   0.735   2.704  1.3287 -0.2421  0.1918
 6869TIP3    H242023   4.327   0.873   2.652 -0.9229 -0.0787 -0.9003
 6870TIP3   OH242024   0.708   2.135   3.309  0.3604 -0.1012  0.4979
 6870TIP3    H142025   0.735   2.223   3.281  0.0222 -0.0866  0.2165
 6870TIP3    H242026   0.791   2.089   3.324  0.5780 -0.3427 -1.2470
 6871TIP3   OH242027   0.609   2.025  15.194  0.2323 -0.5362 -0.6337
 6871TIP3    H142028   0.666   1.953  15.222  2.3150  1.1845 -0.1254
 6871TIP3    H242029   0.601   2.081  15.272 -2.3503 -0.7520 -0.6525
 6872TIP3   OH242030   3.409   1.468  12.023 -0.7319 -0.6532 -0.2317
 6872TIP3    H142031   3.433   1.379  12.050  1.5210  0.2657  1.0857
 6872TIP3    H242032   3.491   1.508  11.995 -1.7677  0.8944 -1.2461
 6873TIP3   OH242033   1.004   4.041  15.247 -0.5136  0.3486  0.0559
 6873TIP3    H142034   1.060   4.062  15.172  0.5410  0.9381  0.9734
 6873TIP3    H242035   1.024   3.950  15.266  0.4208  0.6535  0.5921
 6874TIP3   OH242036   4.416   6.566  11.572  0.0892 -0.1046  0.0139
 6874TIP3    H142037   4.502   6.536  11.602  0.3732  0.8385  0.1971
 6874TIP3    H242038   4.426   6.575  11.477  0.0527 -0.4213 -0.0209
 6875TIP3   OH242039   3.419   4.188   6.066  0.6279 -0.2904 -0.5089
 6875TIP3    H142040   3.465   4.228   6.140 -1.2009  0.5464  0.2396
 6875TIP3    H242041   3.391   4.102   6.100 -0.3062  0.1377 -0.1446
 6876TIP3   OH242042   2.830   2.543  15.064 -0.5745 -0.3411  0.4355
 6876TIP3    H142043   2.811   2.518  15.154 -2.6918  1.1272  0.4559
 6876TIP3    H242044   2.835   2.460  15.017  1.3935 -1.1928  1.9827
 6877TIP3   OH242045   0.817   1.351   4.767 -0.0464 -0.2280 -1.1405
 6877TIP3    H142046   0.751   1.392   4.823  0.2658  0.1205 -1.0286
 6877TIP3    H242047   0.793   1.258   4.767 -0.7289 -0.0524 -1.3659
 6878TIP3   OH242048   1.995   4.159  12.454  0.0030  0.0892 -0.5759
 6878TIP3    H142049   2.067   4.150  12.516 -0.0683  0.5727 -0.4164
 6878TIP3    H242050   1.965   4.070  12.439 -1.4149  0.0773  1.7784
 6879TIP3   OH242051   6.168   5.978  11.235 -0.9080 -0.3358 -0.4228
 6879TIP3    H142052   6.196   6.025  11.157  0.2859  0.4046  0.4283
 6879TIP3    H242053   6.243   5.982  11.294 -2.6259  1.4127  1.8341
 6880TIP3   OH242054   6.529   1.342  12.115 -0.5107 -0.1414  0.9586
 6880TIP3    H142055   6.475   1.353  12.193 -0.4260 -3.9069  1.7562
 6880TIP3    H242056   6.480   1.281  12.061  1.2006 -0.6590 -0.0823
 6881TIP3   OH242057   5.199   5.596   3.459 -0.1283 -0.4267 -0.4263
 6881TIP3    H142058   5.256   5.578   3.534  1.4915 -1.0840 -1.7496
 6881TIP3    H242059   5.198   5.515   3.409 -0.0580  0.3876 -1.8104
 6882TIP3   OH242060   4.428   4.127  13.003  0.0097  0.2371  0.0285
 6882TIP3    H142061   4.362   4.169  12.948 -0.2618 -0.7312 -0.4205
 6882TIP3    H242062   4.377   4.070  13.061  0.4568 -0.8322 -0.5965
 6883TIP3   OH242063   3.836   5.107   5.573  0.1415  0.5704 -0.9655
 6883TIP3    H142064   3.908   5.095   5.511  0.8374  0.4370 -0.1504
 6883TIP3    H242065   3.775   5.036   5.553  0.3262  0.5684 -1.5372
 6884TIP3   OH242066   4.509   1.295  10.664 -0.4634  0.5906 -0.1740
 6884TIP3    H142067   4.424   1.310  10.705 -0.1553 -1.2544  1.3076
 6884TIP3    H242068   4.501   1.209  10.623  1.5444 -1.1688  2.7425
 6885TIP3   OH242069   0.743   0.600   1.109  0.1844 -0.2530  0.0566
 6885TIP3    H142070   0.774   0.514   1.138 -1.1150 -0.9026 -0.4258
 6885TIP3    H242071   0.654   0.585   1.079 -0.2830  1.3797  0.5115
 6886TIP3   OH242072   2.955   4.812  14.875 -0.0322 -0.3978 -0.0991
 6886TIP3    H142073   2.900   4.798  14.953 -0.8052  0.2766 -0.5040
 6886TIP3    H242074   2.898   4.788  14.802  0.7848 -1.2874 -0.4481
 6887TIP3   OH242075   1.451   6.642   1.737  0.2885 -0.1976 -0.0356
 6887TIP3    H142076   1.386   6.581   1.771  0.4250 -0.3132  0.0164
 6887TIP3    H242077   1.503   6.590   1.675  0.7567 -0.2802  0.4216
 6888TIP3   OH242078   2.886   1.743  13.030  0.1196 -0.1138 -0.6341
 6888TIP3    H142079   2.837   1.742  12.948  0.0524 -0.6558 -0.5909
 6888TIP3    H242080   2.974   1.772  13.004  0.0424 -0.0760 -0.8607
 6889TIP3   OH242081   4.426   2.721   3.863 -0.3240  0.4072  0.0203
 6889TIP3    H142082   4.376   2.677   3.932  0.9179 -0.9697  0.1016
 6889TIP3    H242083   4.501   2.760   3.908  1.7235 -2.3854 -0.6951
 6890TIP3   OH242084   3.079   3.388  12.059  0.4851 -0.4011 -0.1927
 6890TIP3    H142085   3.114   3.315  12.111 -1.1545 -2.0121 -1.2142
 6890TIP3    H242086   3.129   3.386  11.978  0.7872 -0.0298 -0.0197
 6891TIP3   OH242087   6.287   3.919  16.598  0.4254  0.0557 -0.3924
 6891TIP3    H142088   6.279   3.826  16.615 -0.9388 -0.1769 -2.0313
 6891TIP3    H242089   6.301   3.925  16.503  2.2763  1.4520 -0.0857
 6892TIP3   OH242090   4.423   5.352  12.848 -0.1803  0.2518  0.0672
 6892TIP3    H142091   4.416   5.372  12.941  2.3525 -1.1852  0.6784
 6892TIP3    H242092   4.358   5.284  12.833  0.3436 -0.5472  1.1977
 6893TIP3   OH242093   0.983   5.751  15.974  0.6607  0.0110 -0.0970
 6893TIP3    H142094   1.038   5.704  16.037  1.5307 -0.6499 -1.2940
 6893TIP3    H242095   0.910   5.784  16.026 -0.5344 -3.4677  0.7294
 6894TIP3   OH242096   3.411   4.036   0.327  0.1083 -0.3678 -0.3769
 6894TIP3    H142097   3.367   4.043   0.412  0.8010 -1.0180  0.0443
 6894TIP3    H242098   3.498   4.002   0.347 -0.0922 -1.5995 -1.4547
 6895TIP3   OH242099   0.460   5.201   0.361 -0.3545  0.5894  0.0551
 6895TIP3    H142100   0.492   5.291   0.369 -0.5664  0.5881  1.0852
 6895TIP3    H242101   0.370   5.205   0.392 -0.6766  0.2013 -0.8245
 6896TIP3   OH242102   3.421   4.459  15.717  0.1719 -0.0831 -0.0027
 6896TIP3    H142103   3.488   4.430  15.655  0.5651 -0.2297  0.4824
 6896TIP3    H242104   3.351   4.394  15.709 -0.4398  0.6996 -1.3473
 6897TIP3   OH242105   3.237   4.909  15.265  0.1989 -0.4583 -0.1719
 6897TIP3    H142106   3.214   4.999  15.244  1.3718 -0.2482 -0.6409
 6897TIP3    H242107   3.332   4.906  15.258  0.2505 -1.5349  0.6511
 6898TIP3   OH242108   2.658   1.472   6.157  0.3290 -0.3231  0.2853
 6898TIP3    H142109   2.706   1.468   6.074  1.6716  1.3962  0.9201
 6898TIP3    H242110   2.726   1.468   6.224 -0.5751  0.2464  1.2623
 6899TIP3   OH242111   3.027   6.708   2.546 -0.8020 -0.1201 -0.1622
 6899TIP3    H142112   3.065   6.750   2.470  0.1067 -0.1216  0.2791
 6899TIP3    H242113   3.009   6.618   2.517 -0.7352 -0.0370 -0.4630
 6900TIP3   OH242114   2.895   2.707  10.562  0.0511 -0.1554 -0.4222
 6900TIP3    H142115   2.972   2.652  10.546  0.1081  0.5649 -3.1308
 6900TIP3    H242116   2.823   2.660  10.519 -0.4515  0.5441 -0.3637
 6901TIP3   OH242117   3.567   6.536   5.688  0.0758  0.1900 -0.3546
 6901TIP3    H142118   3.630   6.480   5.734 -0.1616  1.6763  1.9223
 6901TIP3    H242119   3.538   6.599   5.754 -1.1988  1.7310 -2.2783
 6902TIP3   OH242120   5.837   4.581   5.674 -0.1418  0.3971 -0.3700
 6902TIP3    H142121   5.880   4.510   5.625 -0.3271  0.5273 -0.7284
 6902TIP3    H242122   5.773   4.616   5.612 -1.1744 -0.1768  0.3443
 6903TIP3   OH242123   5.654   6.050   3.683 -0.5679  0.1037 -0.1276
 6903TIP3    H142124   5.566   6.035   3.648 -0.2472  0.8564 -1.3230
 6903TIP3    H242125   5.640   6.064   3.777 -1.7943  0.7453 -0.3750
 6904TIP3   OH242126   1.839   5.417   3.471  0.0245 -0.3858  0.0113
 6904TIP3    H142127   1.856   5.511   3.479 -2.4199  0.2158 -1.0403
 6904TIP3    H242128   1.817   5.404   3.379 -1.4997 -1.6228  0.4985
 6905TIP3   OH242129   2.931   5.814  13.258  0.0087  0.2153 -0.1088
 6905TIP3    H142130   2.922   5.719  13.246 -0.2165  0.3687 -1.1972
 6905TIP3    H242131   2.962   5.823  13.349  1.1434 -0.9543 -0.3435
 6906TIP3   OH242132   5.199   5.389   2.137  0.5598  0.2000  0.5118
 6906TIP3    H142133   5.191   5.296   2.116  0.2946  0.0054  1.4326
 6906TIP3    H242134   5.212   5.391   2.232 -1.9950  1.1818  0.9339
 6907TIP3   OH242135   4.936   2.972   0.176 -0.0120 -0.6248  0.1537
 6907TIP3    H142136   4.851   2.930   0.165 -0.3630  0.6277 -3.0972
 6907TIP3    H242137   4.923   3.036   0.246 -1.4054 -1.2111  0.4561
 6908TIP3   OH242138   2.857   5.731   5.682  0.1364 -0.0681  0.2002
 6908TIP3    H142139   2.841   5.801   5.618 -0.1340 -1.2057 -1.0243
 6908TIP3    H242140   2.769   5.706   5.711  0.2510  0.3179  0.8902
 6909TIP3   OH242141   1.485   5.711   4.590 -0.2698 -0.3158  0.0908
 6909TIP3    H142142   1.448   5.659   4.519 -0.2158  0.7591 -0.7572
 6909TIP3    H242143   1.410   5.736   4.643 -0.6876  1.0457 -1.0798
 6910TIP3   OH242144   4.613   1.243  14.089  0.1140  0.5847 -0.0982
 6910TIP3    H142145   4.526   1.232  14.052  0.0845  1.5816 -0.3549
 6910TIP3    H242146   4.601   1.302  14.163  0.4064 -0.1828  0.5804
 6911TIP3   OH242147   4.765   6.706   4.651 -0.2624 -0.1601 -0.1060
 6911TIP3    H142148   4.773   6.794   4.687 -1.4602 -0.4214  0.8834
 6911TIP3    H242149   4.848   6.690   4.607 -0.0087  1.4379 -0.2634
 6912TIP3   OH242150   3.027   0.867  12.853 -0.1998 -0.3884 -0.2990
 6912TIP3    H142151   3.001   0.900  12.767 -0.8621 -0.0469  0.0245
 6912TIP3    H242152   3.063   0.943  12.898  1.6699 -0.9142 -0.8383
 6913TIP3   OH242153   4.592   4.167   5.045  0.1304  0.5328  0.5449
 6913TIP3    H142154   4.541   4.161   4.964  0.7539 -1.2126  0.2395
 6913TIP3    H242155   4.573   4.085   5.092  0.8290  0.9093  1.5253
 6914TIP3   OH242156   4.038   1.115  12.672 -0.8074  0.0551 -0.4014
 6914TIP3    H142157   3.965   1.069  12.714  0.0376 -0.9193  0.0504
 6914TIP3    H242158   3.997   1.167  12.604 -1.8190 -1.5466 -1.0865
 6915TIP3   OH242159   0.806   0.968  13.244 -0.5961 -0.6110 -0.2790
 6915TIP3    H142160   0.722   0.947  13.203 -1.4563  1.4173  0.3102
 6915TIP3    H242161   0.825   1.057  13.215  0.1657 -0.1723  1.4464
 6916TIP3   OH242162   5.247   2.408   5.148 -0.1536  0.0874 -0.2938
 6916TIP3    H142163   5.197   2.326   5.148 -1.3693  0.7655  1.4245
 6916TIP3    H242164   5.181   2.476   5.131  0.3661  0.9147  0.8786
 6917TIP3   OH242165   4.185   1.504  14.754  0.0404 -0.2592 -0.2745
 6917TIP3    H142166   4.269   1.504  14.800 -0.0179 -0.5588 -0.1651
 6917TIP3    H242167   4.142   1.424  14.783 -0.9962  0.7060  0.9407
 6918TIP3   OH242168   4.225   2.094   5.855 -0.3428 -0.1663  0.2935
 6918TIP3    H142169   4.249   2.056   5.940  0.3972 -0.6556 -0.1303
 6918TIP3    H242170   4.219   2.019   5.796 -1.9652  0.0356  0.1464
 6919TIP3   OH242171   1.366   6.540   3.583  0.4472  0.2422 -0.2200
 6919TIP3    H142172   1.413   6.624   3.582 -0.2448  0.6411 -0.6225
 6919TIP3    H242173   1.429   6.477   3.617  0.9357  0.9571  0.2232
 6920TIP3   OH242174   2.696   0.270   3.552  0.2286 -0.5958 -0.1596
 6920TIP3    H142175   2.649   0.316   3.621  1.2570  0.2856 -0.0235
 6920TIP3    H242176   2.679   0.177   3.570 -0.0613 -0.3602  0.8791
 6921TIP3   OH242177   4.462   0.494  14.131  0.7203 -0.0672  0.5123
 6921TIP3    H142178   4.524   0.426  14.105  0.9507  0.4030 -0.2068
 6921TIP3    H242179   4.376   0.457  14.110  0.8816  0.1407 -0.5831
 6922TIP3   OH242180   6.477   4.287  16.790 -0.4057  0.5704  0.1738
 6922TIP3    H142181   6.493   4.222  16.859 -1.4045  0.6820  0.5260
 6922TIP3    H242182   6.426   4.356  16.833 -2.9985 -0.3765 -1.1105
 6923TIP3   OH242183   1.194   1.199   5.590 -0.0435 -0.6734 -0.3768
 6923TIP3    H142184   1.137   1.244   5.527  0.3057 -0.2310 -0.3831
 6923TIP3    H242185   1.233   1.270   5.641  0.7483 -0.9496 -0.5817
 6924TIP3   OH242186   0.386   3.737   5.859 -0.4288 -0.2687 -0.0681
 6924TIP3    H142187   0.329   3.661   5.874  0.9848 -1.7700 -1.7023
 6924TIP3    H242188   0.412   3.729   5.767  1.8675  0.7012  0.4159
 6925TIP3   OH242189   1.326   3.503  15.681 -0.2099 -0.2475  0.7901
 6925TIP3    H142190   1.418   3.527  15.686 -0.2051 -0.0770  0.0846
 6925TIP3    H242191   1.317   3.460  15.595 -1.0631  1.0141  0.2157
 6926TIP3   OH242192   2.182   4.313   3.908  0.1580 -0.1804 -0.2098
 6926TIP3    H142193   2.201   4.394   3.861 -0.4551 -0.5877 -1.1843
 6926TIP3    H242194   2.091   4.294   3.889  0.1867 -0.9083  0.3152
 6927TIP3   OH242195   0.923   3.612  14.217  0.1691 -0.3209 -0.8824
 6927TIP3    H142196   0.887   3.603  14.129 -0.8030  1.6393 -0.7487
 6927TIP3    H242197   1.014   3.636  14.203 -0.0507  0.2635 -1.3837
 6928TIP3   OH242198   1.813   4.120   0.325  0.1757 -0.0525  0.1466
 6928TIP3    H142199   1.750   4.153   0.261  0.8779 -0.0084 -0.5302
 6928TIP3    H242200   1.894   4.168   0.307 -0.0222  1.1652  2.1284
 6929TIP3   OH242201   2.029   1.474   3.220 -0.7318  0.0616 -0.4985
 6929TIP3    H142202   2.117   1.447   3.196 -0.2682  0.8488  0.2579
 6929TIP3    H242203   2.029   1.569   3.207 -0.8091  0.3612  1.4554
 6930TIP3   OH242204   3.557   2.498  11.594  0.2061  0.3476 -0.5817
 6930TIP3    H142205   3.473   2.455  11.577  0.7443  0.1150 -2.9946
 6930TIP3    H242206   3.542   2.590  11.573  0.8899  0.0550 -2.5712
 6931TIP3   OH242207   4.685   5.889  16.375 -0.6749  0.1189 -0.3677
 6931TIP3    H142208   4.663   5.844  16.457  2.5807  0.6114  0.9349
 6931TIP3    H242209   4.735   5.825  16.325  0.7248  1.0180 -0.1803
 6932TIP3   OH242210   5.720   4.760  12.736  0.1456 -0.0587 -0.0512
 6932TIP3    H142211   5.775   4.838  12.726 -0.6371  0.6188  0.7184
 6932TIP3    H242212   5.640   4.781  12.688 -0.1562 -0.2904  0.3464
 6933TIP3   OH242213   5.086   6.009  12.566  0.4738  0.7761 -0.4807
 6933TIP3    H142214   5.038   6.079  12.610 -0.2727 -0.4415  0.7399
 6933TIP3    H242215   5.108   5.947  12.636  0.9886 -0.2701 -1.5308
 6934TIP3   OH242216   3.615   6.057  12.275  0.2448  0.1137  0.2725
 6934TIP3    H142217   3.649   6.049  12.186  2.1320 -2.6354  1.1018
 6934TIP3    H242218   3.524   6.084  12.264  0.3812 -0.2937 -2.4864
 6935TIP3   OH242219   3.439   6.296   0.645  0.2212  0.0493  0.6382
 6935TIP3    H142220   3.486   6.241   0.708  1.4613 -0.0824 -0.3623
 6935TIP3    H242221   3.360   6.247   0.625  1.6174 -1.7900 -0.7556
 6936TIP3   OH242222   0.890   2.352   0.177 -0.3121  0.7826 -0.1284
 6936TIP3    H142223   0.796   2.354   0.195 -0.5517 -1.2193 -0.8784
 6936TIP3    H242224   0.932   2.366   0.262 -1.3488 -2.0338  0.9695
 6937TIP3   OH242225   4.428   2.084  15.028  0.5498  0.2562 -0.0555
 6937TIP3    H142226   4.359   2.058  14.967  0.4341 -0.4365  0.3636
 6937TIP3    H242227   4.438   2.178  15.013 -0.0643  0.2551 -0.5433
 6938TIP3   OH242228   4.686   3.320  12.108 -0.3766 -0.4597  0.1426
 6938TIP3    H142229   4.661   3.297  12.198  1.0558 -0.4084  0.5756
 6938TIP3    H242230   4.780   3.338  12.113 -0.3125 -0.2720 -1.3379
 6939TIP3   OH242231   3.417   0.648   3.650  0.2105 -0.0846 -0.0483
 6939TIP3    H142232   3.400   0.595   3.727 -1.3507  1.6373  0.8801
 6939TIP3    H242233   3.344   0.627   3.590  0.4882 -0.1800 -0.3566
 6940TIP3   OH242234   4.738   1.414  10.727  0.3526 -0.6658  0.3187
 6940TIP3    H142235   4.796   1.339  10.719  1.7645  0.4941 -1.0385
 6940TIP3    H242236   4.650   1.377  10.717  0.9422 -2.2348  0.6248
 6941TIP3   OH242237   6.022   2.025  11.773  0.1328 -0.5077  0.1458
 6941TIP3    H142238   5.962   2.004  11.701 -0.5292 -0.0333  0.5514
 6941TIP3    H242239   6.091   1.958  11.767  0.3870 -0.1459 -1.2604
 6942TIP3   OH242240   6.074   2.455  11.052  0.1913  1.0347  0.4485
 6942TIP3    H142241   6.094   2.364  11.074 -1.2932  1.3164  3.4481
 6942TIP3    H242242   6.122   2.471  10.971  1.5094 -2.0092  0.4887
 6943TIP3   OH242243   4.076   4.230   4.159  0.2763  0.4156 -0.2254
 6943TIP3    H142244   4.162   4.237   4.118  0.2738 -1.2694 -0.5870
 6943TIP3    H242245   4.084   4.158   4.221 -0.8570  0.2317 -0.2564
 6944TIP3   OH242246   3.869   0.348  15.807  0.4174  0.1764  0.0865
 6944TIP3    H142247   3.897   0.439  15.796  1.7425 -0.3089 -0.7838
 6944TIP3    H242248   3.941   0.296  15.771 -1.0057 -1.1823 -0.9629
 6945TIP3   OH242249   2.901   0.696   4.222 -0.1993  0.0199  0.3514
 6945TIP3    H142250   2.833   0.736   4.168 -1.2278 -1.1143  0.7594
 6945TIP3    H242251   2.892   0.602   4.207  1.2204 -0.1657  0.4967
 6946TIP3   OH242252   6.760   5.072  13.060 -0.2388 -0.5929  0.3712
 6946TIP3    H142253   6.707   5.048  13.136  0.7315 -2.0295  0.6242
 6946TIP3    H242254   6.698   5.116  13.001 -1.9237 -2.7860  0.3727
 6947TIP3   OH242255   1.451   0.237   5.007  0.2232 -0.0522  0.5189
 6947TIP3    H142256   1.428   0.197   5.092  0.1293 -1.4911 -0.1526
 6947TIP3    H242257   1.374   0.289   4.984 -0.2758 -0.6714  0.7298
 6948TIP3   OH242258   5.925   0.557  15.823 -0.0967  0.0701 -0.3209
 6948TIP3    H142259   5.930   0.533  15.915 -1.1331  0.3424 -0.1799
 6948TIP3    H242260   5.860   0.627  15.820  1.2045  1.3175 -1.0204
 6949TIP3   OH242261   4.545   5.965   4.517 -0.4690  0.3864  0.1646
 6949TIP3    H142262   4.528   5.979   4.610  2.1858  1.2110  0.5895
 6949TIP3    H242263   4.508   6.043   4.474 -0.4216  0.7070  0.6927
 6950TIP3   OH242264   5.135   2.299  13.012 -0.1168  0.7676 -0.1149
 6950TIP3    H142265   5.203   2.232  13.012 -1.3761 -0.5577  0.2652
 6950TIP3    H242266   5.146   2.344  13.095 -0.4578 -0.2752  0.5205
 6951TIP3   OH242267   0.966   0.542   2.743 -0.1035 -0.4699 -0.4323
 6951TIP3    H142268   0.977   0.526   2.650 -1.2941 -1.3549 -0.4486
 6951TIP3    H242269   1.053   0.529   2.780  0.4014 -0.0083 -1.4227
 6952TIP3   OH242270   4.917   2.188  11.163 -0.3422 -0.1291 -0.0482
 6952TIP3    H142271   4.992   2.232  11.203  0.5714 -0.5481 -1.2369
 6952TIP3    H242272   4.855   2.259  11.143  0.2150  0.3563 -0.0670
 6953TIP3   OH242273   2.480   3.552  17.046 -0.5704  0.5212  0.1791
 6953TIP3    H142274   2.566   3.591  17.061 -0.4638  1.2442 -1.9205
 6953TIP3    H242275   2.472   3.548  16.950 -1.7520 -2.0652  0.2870
 6954TIP3   OH242276   2.566   4.805  11.832  0.2215 -0.4933  0.2175
 6954TIP3    H142277   2.521   4.864  11.893 -0.7310 -0.8662 -0.1045
 6954TIP3    H242278   2.496   4.768  11.779  0.5210 -3.3541  1.6161
 6955TIP3   OH242279   4.470   0.748   4.381 -0.0512  0.1214  0.2669
 6955TIP3    H142280   4.421   0.717   4.305  0.5607 -0.2510  0.0150
 6955TIP3    H242281   4.560   0.758   4.349 -0.0041  1.0253  0.6539
 6956TIP3   OH242282   2.918   2.917   5.237 -0.0527  1.3064  0.2778
 6956TIP3    H142283   2.870   2.962   5.168 -0.0692  0.5913 -0.1851
 6956TIP3    H242284   2.885   2.957   5.318 -0.9622  1.2860 -0.0638
 6957TIP3   OH242285   4.854   0.576  12.038  0.2140 -0.1309  0.0710
 6957TIP3    H142286   4.804   0.554  12.116 -0.8237  0.5904 -0.3798
 6957TIP3    H242287   4.797   0.633  11.987  0.0577 -2.1106 -2.1719
 6958TIP3   OH242288   3.527   0.526   0.841  0.2025  0.3861  0.6465
 6958TIP3    H142289   3.608   0.541   0.792 -0.0793  0.5877  0.2374
 6958TIP3    H242290   3.492   0.614   0.858  0.5069  0.3415  1.5735
 6959TIP3   OH242291   4.555   5.922  11.612  0.1948 -0.1397 -0.2102
 6959TIP3    H142292   4.631   5.895  11.561  2.3933  1.2195  2.0797
 6959TIP3    H242293   4.579   5.902  11.703 -0.9131  2.9340  0.9044
 6960TIP3   OH242294   5.663   3.395  16.494  0.1790 -0.1406  0.4244
 6960TIP3    H142295   5.595   3.432  16.550 -0.5215 -0.9495  0.1328
 6960TIP3    H242296   5.740   3.389  16.551  0.0551  0.8880  0.7247
 6961TIP3   OH242297   6.371   2.859   5.308 -0.3416 -0.1977 -0.0454
 6961TIP3    H142298   6.349   2.952   5.296  0.5736  0.1805  1.0096
 6961TIP3    H242299   6.456   2.860   5.352  0.0970 -1.5600 -0.7937
 6962TIP3   OH242300   2.488   3.489  13.852  0.1468  0.3022  0.1423
 6962TIP3    H142301   2.481   3.399  13.883  0.1298  0.9038  1.9952
 6962TIP3    H242302   2.450   3.542  13.922  1.0467  1.8321 -0.4652
 6963TIP3   OH242303   4.376   4.690  11.373  0.2987  0.1983  0.1767
 6963TIP3    H142304   4.326   4.647  11.303 -1.1980  0.4485  1.0325
 6963TIP3    H242305   4.309   4.734  11.425  1.4295  0.4142  1.4893
 6964TIP3   OH242306   6.514   0.242   0.937  0.1125  0.0762  0.1207
 6964TIP3    H142307   6.491   0.318   0.990 -1.3298 -0.1413 -0.1618
 6964TIP3    H242308   6.452   0.174   0.964  1.2919 -0.9841  0.2803
 6965TIP3   OH242309   6.017   0.858  14.535  0.2062  0.7384 -0.5987
 6965TIP3    H142310   6.074   0.805  14.480  0.1967  0.7582 -0.6281
 6965TIP3    H242311   6.076   0.911  14.588  0.2176  0.5863 -0.4576
 6966TIP3   OH242312   3.794   4.642   5.307 -0.3360 -0.2020  0.2125
 6966TIP3    H142313   3.732   4.569   5.312  0.1661 -0.6918 -0.5243
 6966TIP3    H242314   3.821   4.657   5.398 -1.9029  0.3521  0.6029
 6967TIP3   OH242315   5.526   1.478  16.370  0.2877 -0.0485  0.2046
 6967TIP3    H142316   5.525   1.555  16.427 -1.4181 -1.2606  1.9374
 6967TIP3    H242317   5.550   1.406  16.428 -0.2988 -1.1388 -0.8736
 6968TIP3   OH242318   6.739   0.723  11.140 -0.3336 -0.3858  0.1378
 6968TIP3    H142319   6.739   0.629  11.156  1.2650 -0.4497  0.0011
 6968TIP3    H242320   6.787   0.759  11.215  2.2731 -0.0999 -1.5192
 6969TIP3   OH242321   6.026   1.950   5.835 -0.1165 -0.3494 -0.6016
 6969TIP3    H142322   5.973   2.020   5.871 -0.6509 -0.8511 -0.3912
 6969TIP3    H242323   6.086   1.925   5.905 -2.4323 -2.6337  0.7191
 6970TIP3   OH242324   4.785   3.564   1.142  0.2631  0.2410 -0.2273
 6970TIP3    H142325   4.788   3.584   1.236 -2.5734 -0.0876  0.0135
 6970TIP3    H242326   4.766   3.471   1.137  0.2754  0.2765 -1.1510
 6971TIP3   OH242327   5.301   5.744   4.840  0.2733 -0.3742  0.7778
 6971TIP3    H142328   5.390   5.779   4.851  0.1662 -0.1024  0.7799
 6971TIP3    H242329   5.314   5.649   4.833  0.7040 -0.2212 -0.8168
 6972TIP3   OH242330   4.677   6.148  11.376  0.0683  0.3662  0.3102
 6972TIP3    H142331   4.740   6.089  11.334 -0.8778 -0.4047 -0.0811
 6972TIP3    H242332   4.726   6.190  11.446  1.6166  1.4244 -1.3228
 6973TIP3   OH242333   2.371   1.805  14.214  0.3741 -0.3302  0.0346
 6973TIP3    H142334   2.296   1.858  14.188  0.9521  1.3382  1.5550
 6973TIP3    H242335   2.441   1.869  14.229  1.4538 -1.6389  0.8018
 6974TIP3   OH242336   2.715   1.038   0.283  0.7577  0.1784 -0.2840
 6974TIP3    H142337   2.633   1.055   0.329  1.5095 -0.2163  1.2738
 6974TIP3    H242338   2.722   0.942   0.281  0.0080  0.1073 -2.6494
 6975TIP3   OH242339   0.980   2.517  10.444 -0.0775 -0.3803  0.2288
 6975TIP3    H142340   0.991   2.612  10.454 -0.2227 -0.2922 -0.4426
 6975TIP3    H242341   0.887   2.502  10.460 -0.5412 -0.0980 -1.9349
 6976TIP3   OH242342   4.425   0.646   4.878 -0.3442  0.2933 -0.1114
 6976TIP3    H142343   4.504   0.691   4.847  0.0294 -0.7428 -0.6948
 6976TIP3    H242344   4.360   0.665   4.810  0.1430 -0.9853 -0.9752
 6977TIP3   OH242345   1.011   5.778  11.597 -0.0971  0.2476  0.5018
 6977TIP3    H142346   0.991   5.785  11.690  2.4772 -0.5097  1.1974
 6977TIP3    H242347   0.992   5.686  11.575  1.5429 -0.2256  0.9342
 6978TIP3   OH242348   5.535   0.562  16.778  0.3988  0.3096  0.2106
 6978TIP3    H142349   5.604   0.496  16.785  0.2904  0.2557  0.8184
 6978TIP3    H242350   5.457   0.520  16.815 -0.0086  0.3202 -0.5926
 6979TIP3   OH242351   3.709   6.373  15.956  0.9420 -0.5480 -0.0105
 6979TIP3    H142352   3.707   6.318  16.034  1.7091 -1.7562 -0.8018
 6979TIP3    H242353   3.681   6.315  15.885 -1.1896  0.9151 -0.4624
 6980TIP3   OH242354   1.913   6.158  17.120  0.2869  0.1804 -0.2546
 6980TIP3    H142355   1.930   6.117  17.204  2.2330 -1.1769 -1.2370
 6980TIP3    H242356   1.817   6.159  17.113  0.0220  1.2400  2.3456
 6981TIP3   OH242357   3.563   6.765   3.688 -0.5320 -0.1197  0.9704
 6981TIP3    H142358   3.555   6.827   3.760 -0.4922  0.0070  0.8661
 6981TIP3    H242359   3.556   6.819   3.609  1.4441  0.0362  0.8565
 6982TIP3   OH242360   0.833   5.775  10.665  0.4242 -0.3528 -0.2202
 6982TIP3    H142361   0.842   5.804  10.574 -1.6184 -0.9833 -0.6741
 6982TIP3    H242362   0.897   5.827  10.714  2.2090 -0.6342 -2.1178
 6983TIP3   OH242363   1.131   1.750   1.268  0.0998 -0.0930  0.4743
 6983TIP3    H142364   1.052   1.803   1.284  0.4952  0.2595  1.2863
 6983TIP3    H242365   1.175   1.746   1.352  1.1627  0.0398 -0.0612
 6984TIP3   OH242366   3.549   6.043   0.171  0.3794 -0.1286  0.6188
 6984TIP3    H142367   3.575   6.076   0.257  0.8926 -2.7351  1.5642
 6984TIP3    H242368   3.463   6.003   0.185  0.4935 -0.6331 -0.0525
 6985TIP3   OH242369   1.223   3.625   6.214  0.6182 -0.0318 -0.1597
 6985TIP3    H142370   1.279   3.702   6.208  1.1322 -0.2917  1.0592
 6985TIP3    H242371   1.134   3.658   6.205  0.6732  1.0241  2.4641
 6986TIP3   OH242372   5.816   4.389   2.144 -0.2329 -0.6227  1.0499
 6986TIP3    H142373   5.878   4.320   2.123 -0.8868 -1.1740  0.8853
 6986TIP3    H242374   5.781   4.416   2.059  0.4052  0.2942  1.0617
 6987TIP3   OH242375   0.686   4.746   2.854  0.0003 -0.5328 -0.9765
 6987TIP3    H142376   0.734   4.798   2.791 -1.0324 -0.3203 -1.6092
 6987TIP3    H242377   0.598   4.784   2.855  0.2460  0.1733  1.3836
 6988TIP3   OH242378   0.034   4.420   4.874 -0.4217  0.2955  0.0349
 6988TIP3    H142379   0.113   4.453   4.829  0.7854  1.5509  2.8310
 6988TIP3    H242380  -0.033   4.484   4.854  0.8001  2.3273  1.9723
 6989TIP3   OH242381   3.023   4.337  10.967 -0.4736 -0.7378 -0.0460
 6989TIP3    H142382   3.085   4.263  10.962  0.4036 -0.0067 -0.2264
 6989TIP3    H242383   2.971   4.320  11.045  0.5912 -0.8871  0.6437
 6990TIP3   OH242384   0.851   6.429  14.141 -0.3876  0.4726 -0.1729
 6990TIP3    H142385   0.766   6.395  14.168 -1.1083  2.4040  0.1552
 6990TIP3    H242386   0.874   6.492  14.210 -0.1516  2.2117 -1.7690
 6991TIP3   OH242387   4.039   5.078   1.810 -0.2805  0.4054  0.2653
 6991TIP3    H142388   4.115   5.052   1.861 -0.2184  1.6345  0.8266
 6991TIP3    H242389   3.972   5.100   1.875 -1.4539 -1.4999 -0.2122
 6992TIP3   OH242390   1.504   5.500  12.012 -0.0025 -0.3068  0.1270
 6992TIP3    H142391   1.538   5.558  12.080  0.0401  0.9738 -0.9460
 6992TIP3    H242392   1.430   5.455  12.053 -0.2487  0.7632  0.8768
 6993TIP3   OH242393   4.926   3.760   3.984 -0.6241 -0.2180 -0.0005
 6993TIP3    H142394   4.984   3.771   3.908  0.1925  0.6344  0.7129
 6993TIP3    H242395   4.965   3.817   4.051 -1.6407 -0.5379  0.8754
 6994TIP3   OH242396   5.481   0.450  11.920 -0.0689 -0.6218  0.4215
 6994TIP3    H142397   5.414   0.412  11.977  1.1313  1.8541  3.8056
 6994TIP3    H242398   5.437   0.523  11.876  0.1030  0.6225  2.1810
 6995TIP3   OH242399   5.038   0.174   2.607  0.1950 -0.3616 -0.3943
 6995TIP3    H142400   4.964   0.161   2.666  1.0159  1.7084  1.1931
 6995TIP3    H242401   5.099   0.103   2.629 -1.2281 -2.1062 -1.7436
 6996TIP3   OH242402   5.280   5.252   3.149 -0.2971  0.5751  0.1692
 6996TIP3    H142403   5.209   5.236   3.086 -0.2727  0.0251  0.2747
 6996TIP3    H242404   5.358   5.218   3.106 -0.3859 -0.3975  0.7528
 6997TIP3   OH242405   1.556   1.517   0.524  0.2796 -0.4673 -0.0055
 6997TIP3    H142406   1.611   1.445   0.492  2.1272  0.6940  0.4523
 6997TIP3    H242407   1.496   1.536   0.451 -0.3309 -2.4976 -0.0963
 6998TIP3   OH242408   5.016   6.103   5.892  0.3123 -0.2419 -0.1318
 6998TIP3    H142409   4.993   6.157   5.816  2.3095 -0.2737 -0.8323
 6998TIP3    H242410   5.073   6.035   5.856  0.9052 -0.5461  1.3280
 6999TIP3   OH242411   0.881   1.804   2.837  0.1713  0.1106 -0.3625
 6999TIP3    H142412   0.944   1.790   2.908 -0.8410  0.2491  0.5817
 6999TIP3    H242413   0.809   1.851   2.878 -0.2864  0.4829 -1.5698
 7000TIP3   OH242414   1.031   2.446  15.635 -0.8922  0.3468  0.3262
 7000TIP3    H142415   0.979   2.457  15.715 -1.2227  1.3051 -0.0093
 7000TIP3    H242416   1.095   2.517  15.639  0.8100 -1.1640  1.0233
 7001TIP3   OH242417   3.080   0.914   2.082  0.7306  0.2837  0.0430
 7001TIP3    H142418   3.006   0.928   2.141  0.4022  0.0667 -0.3119
 7001TIP3    H242419   3.050   0.847   2.021  1.1433  0.3536 -0.2434
 7002TIP3   OH242420   3.974   5.388   0.633 -0.0023  0.1254 -0.2579
 7002TIP3    H142421   3.959   5.357   0.722 -2.1948  1.8442  0.0423
 7002TIP3    H242422   4.006   5.478   0.643 -0.7962  0.5306 -1.1999
 7003TIP3   OH242423   6.233   2.285  13.324 -0.8425  0.6855  0.0588
 7003TIP3    H142424   6.279   2.361  13.358 -0.8349  0.3185  0.9004
 7003TIP3    H242425   6.165   2.267  13.389 -1.1900  0.2971 -0.4006
 7004TIP3   OH242426   0.295   3.795   1.775 -0.1945 -0.1936 -0.0302
 7004TIP3    H142427   0.303   3.740   1.853  1.2330 -0.6542 -0.4821
 7004TIP3    H242428   0.221   3.852   1.795  0.4331  0.0402  1.8828
 7005TIP3   OH242429   6.466   1.435  13.323  0.0436  0.0832 -0.3552
 7005TIP3    H142430   6.500   1.374  13.389 -0.8283  0.9972  0.9892
 7005TIP3    H242431   6.383   1.396  13.296 -0.7530  0.8668  0.8638
 7006TIP3   OH242432   4.920   2.272  14.917 -0.4378  0.2407  0.3905
 7006TIP3    H142433   4.836   2.295  14.956 -0.9929 -0.0923 -0.5843
 7006TIP3    H242434   4.899   2.248  14.827  0.7095  0.2035  0.1195
 7007TIP3   OH242435   3.887   4.164  12.560  0.0369 -0.0193 -0.2299
 7007TIP3    H142436   3.882   4.157  12.655  1.9825  0.2726 -0.0823
 7007TIP3    H242437   3.890   4.258  12.542  0.9720 -0.0890 -0.4806
 7008TIP3   OH242438   4.566   4.479  14.217 -0.2616  0.0252  0.3214
 7008TIP3    H142439   4.615   4.402  14.246  1.0928  0.2957 -1.1639
 7008TIP3    H242440   4.590   4.547  14.280  0.9611  0.0325 -0.1241
 7009TIP3   OH242441   0.216   5.689  15.049 -0.1035 -0.6532  0.1178
 7009TIP3    H142442   0.276   5.616  15.030 -0.8480 -1.5629  1.0790
 7009TIP3    H242443   0.267   5.767  15.031  1.2910 -1.4032  0.5918
 7010TIP3   OH242444   4.201   0.269   1.023 -0.2696 -0.2160 -0.4717
 7010TIP3    H142445   4.202   0.299   1.114 -0.2224 -0.9779 -0.2144
 7010TIP3    H242446   4.127   0.209   1.018 -0.0097 -0.5140 -0.8215
 7011TIP3   OH242447   3.911   5.919   3.986 -0.2848  0.3389 -0.3986
 7011TIP3    H142448   3.934   5.873   4.066  1.6740  0.0319 -1.1008
 7011TIP3    H242449   3.865   5.854   3.933 -1.6261  0.5564  0.4556
 7012TIP3   OH242450   4.837   2.380  16.084 -0.0817  0.0128 -0.0710
 7012TIP3    H142451   4.764   2.319  16.069 -0.7219  0.0790  2.3297
 7012TIP3    H242452   4.818   2.454  16.027 -1.6913 -0.1715  0.1535
 7013TIP3   OH242453   4.133   1.273   4.965  0.2986 -0.1942  0.5446
 7013TIP3    H142454   4.095   1.197   4.920  0.7269 -0.1204  0.0554
 7013TIP3    H242455   4.167   1.237   5.047  1.3871 -0.7263 -0.1201
 7014TIP3   OH242456   6.682   0.934  14.727 -0.1919 -0.3621  0.2929
 7014TIP3    H142457   6.627   1.006  14.759  0.0317  0.1139 -0.3765
 7014TIP3    H242458   6.661   0.929  14.633  0.5116 -0.5282  0.1432
 7015TIP3   OH242459   2.417   3.442   1.615 -0.2810 -0.2166  0.3053
 7015TIP3    H142460   2.487   3.493   1.575 -0.6841  0.6110  0.6406
 7015TIP3    H242461   2.463   3.373   1.663  0.2765 -0.0952 -0.0397
 7016TIP3   OH242462   4.755   2.026  10.970  0.4524 -0.2684 -0.0446
 7016TIP3    H142463   4.797   2.045  11.054 -0.1571 -1.8403  0.6516
 7016TIP3    H242464   4.721   2.110  10.941  0.5955  0.2929  1.3239
 7017TIP3   OH242465   6.031   1.827   5.331  0.3060 -0.1618  0.2387
 7017TIP3    H142466   6.100   1.761   5.322  0.1993 -0.0914 -1.3454
 7017TIP3    H242467   6.028   1.870   5.245 -2.2234 -0.6716 -0.0048
 7018TIP3   OH242468   5.960   0.970  10.987  0.0986 -0.2258 -0.0235
 7018TIP3    H142469   6.010   0.911  10.931  0.2843  0.5463 -0.7026
 7018TIP3    H242470   5.897   1.011  10.927 -1.3125 -1.1189  0.7936
 7019TIP3   OH242471   4.736   6.398  16.165  0.1083  0.7902  0.3427
 7019TIP3    H142472   4.737   6.483  16.120  2.1176  0.0240 -1.2169
 7019TIP3    H242473   4.708   6.419  16.254  1.8254  3.3248  0.4072
 7020TIP3   OH242474   0.372   3.456  14.676  0.5437 -0.1469 -0.1761
 7020TIP3    H142475   0.340   3.492  14.759  2.1375  0.6630  0.1106
 7020TIP3    H242476   0.304   3.394  14.650  1.1187 -2.3621  3.0254
 7021TIP3   OH242477   4.870   1.590   4.985 -0.2960 -0.8154  0.2325
 7021TIP3    H142478   4.913   1.507   5.005 -0.0788 -0.7268  0.1453
 7021TIP3    H242479   4.824   1.575   4.902  0.4417 -0.6066 -0.2287
 7022TIP3   OH242480   6.495   4.006   0.457  0.7670  0.4379  0.2709
 7022TIP3    H142481   6.472   4.061   0.382 -0.8690  2.6696  2.2564
 7022TIP3    H242482   6.460   4.053   0.533  1.3680 -2.2463  2.3614
 7023TIP3   OH242483   6.004   4.869   2.779  0.1559  0.6166  0.2955
 7023TIP3    H142484   5.955   4.868   2.697 -0.1471 -0.1891  0.4855
 7023TIP3    H242485   5.979   4.789   2.824  3.1125 -0.9055 -0.4733
 7024TIP3   OH242486   4.609   6.497  16.387 -0.0782  0.3621 -0.0707
 7024TIP3    H142487   4.622   6.500  16.481 -1.6860 -1.5107  0.2869
 7024TIP3    H242488   4.543   6.428  16.374 -0.5660  1.1828 -2.4883
 7025TIP3   OH242489   2.104   1.644  14.828 -0.3815  0.3874 -0.1317
 7025TIP3    H142490   2.129   1.590  14.903 -1.8908 -1.0652 -0.6121
 7025TIP3    H242491   2.186   1.683  14.798  1.0121 -2.4581 -0.3948
 7026TIP3   OH242492   1.268   5.492   1.806 -0.1474 -0.1778 -0.5791
 7026TIP3    H142493   1.222   5.410   1.825  1.7540 -0.8692  1.4889
 7026TIP3    H242494   1.322   5.471   1.730 -0.5006 -0.5083 -0.7426
 7027TIP3   OH242495   0.082   6.756   1.296  0.1690  0.2889  0.1991
 7027TIP3    H142496   0.064   6.846   1.323 -1.0115  0.3333 -0.6590
 7027TIP3    H242497   0.115   6.763   1.207  1.3461 -0.0502  0.5901
 7028TIP3   OH242498   0.989   3.792   2.256  0.3826 -0.0925 -0.2872
 7028TIP3    H142499   1.051   3.780   2.184  1.5656  0.2444  0.6548
 7028TIP3    H242500   0.911   3.829   2.214 -0.0106 -2.4684 -1.8132
 7029TIP3   OH242501   1.533   3.951   5.311 -0.3680  0.2289 -0.6649
 7029TIP3    H142502   1.578   3.989   5.387  0.0638  0.7893 -1.1879
 7029TIP3    H242503   1.472   3.888   5.349  0.1880  0.1403  0.1226
 7030TIP3   OH242504   5.209   1.949   2.234 -0.5738 -0.6709 -0.2683
 7030TIP3    H142505   5.123   1.989   2.221 -0.3208 -0.0203  0.0140
 7030TIP3    H242506   5.214   1.933   2.328 -0.6676 -1.3702 -0.3754
 7031TIP3   OH242507   4.318   3.318   1.099 -0.0733 -0.2411 -0.4302
 7031TIP3    H142508   4.367   3.378   1.155 -1.3429  0.1301  0.3499
 7031TIP3    H242509   4.303   3.241   1.154 -2.4108  0.6217  0.2989
 7032TIP3   OH242510   4.501   5.957   6.500 -0.5170  0.0944  0.2626
 7032TIP3    H142511   4.408   5.934   6.494 -0.2384 -1.5316  1.4378
 7032TIP3    H242512   4.546   5.886   6.455  0.2319 -0.0121  1.1510
 7033TIP3   OH242513   4.594   6.546  12.508 -0.4419  0.0959  0.5711
 7033TIP3    H142514   4.561   6.481  12.569 -1.2966  1.0991  1.2158
 7033TIP3    H242515   4.562   6.519  12.423  0.3087 -1.0254  0.6282
 7034TIP3   OH242516   3.370   4.815   4.589  0.1640  0.6138  0.1506
 7034TIP3    H142517   3.416   4.831   4.506  1.1985  0.8269  0.7525
 7034TIP3    H242518   3.277   4.813   4.564  0.4928 -0.1148 -1.1339
 7035TIP3   OH242519   1.390   2.691  13.343  0.1350 -0.0905  0.1037
 7035TIP3    H142520   1.405   2.784  13.330  0.6004 -0.0275  1.0230
 7035TIP3    H242521   1.477   2.654  13.358 -0.0405 -0.6801 -0.3202
 7036TIP3   OH242522   4.232   0.771   3.060 -0.2685 -0.2924 -0.1482
 7036TIP3    H142523   4.274   0.766   3.146 -0.1806 -0.9143 -0.2225
 7036TIP3    H242524   4.186   0.855   3.061 -1.5143 -0.9399  1.0906
 7037TIP3   OH242525   4.267   5.868  12.892 -0.2340 -0.0557  0.0048
 7037TIP3    H142526   4.274   5.783  12.936  0.4395  0.8256  1.6781
 7037TIP3    H242527   4.357   5.899  12.884 -0.4781  0.5387 -0.5389
 7038TIP3   OH242528   5.342   0.103   3.900  0.1317 -0.3866 -0.1403
 7038TIP3    H142529   5.409   0.120   3.966  1.4150 -3.0505 -0.6132
 7038TIP3    H242530   5.386   0.050   3.834 -1.7329  0.2004 -1.9681
 7039TIP3   OH242531   1.939   5.405  16.698 -0.2478 -0.0291 -0.0290
 7039TIP3    H142532   2.019   5.431  16.742 -0.3223  1.2368 -0.6013
 7039TIP3    H242533   1.958   5.415  16.604 -0.9536 -0.0740 -0.1893
 7040TIP3   OH242534   1.856   6.113  16.832 -0.5722 -0.1927 -0.7292
 7040TIP3    H142535   1.817   6.200  16.823 -1.9750 -0.8534 -1.2411
 7040TIP3    H242536   1.903   6.116  16.915 -0.8600  0.9494 -0.5961
 7041TIP3   OH242537   2.638   4.323  15.382 -0.4386  0.2694 -0.5184
 7041TIP3    H142538   2.636   4.250  15.320 -1.3181 -0.9421  0.8598
 7041TIP3    H242539   2.731   4.343  15.394 -0.1235 -1.2633 -0.2370
 7042TIP3   OH242540   4.606   3.430   4.291  0.0166  0.2400 -0.7521
 7042TIP3    H142541   4.650   3.457   4.371 -1.7989 -0.6941  0.6448
 7042TIP3    H242542   4.656   3.472   4.220  0.9547  2.0770  0.9101
 7043TIP3   OH242543   1.098   5.708  13.700 -0.0912  0.0458 -0.5754
 7043TIP3    H142544   1.122   5.797  13.672  1.8920  0.5434  2.2238
 7043TIP3    H242545   1.056   5.721  13.786 -1.7151 -1.6356 -1.0498
 7044TIP3   OH242546   2.062   2.844   5.320 -0.0902 -0.4811  0.3992
 7044TIP3    H142547   2.136   2.814   5.268 -1.1282 -0.2474 -1.3045
 7044TIP3    H242548   1.996   2.775   5.310 -0.1403 -0.6532  1.8158
 7045TIP3   OH242549   5.389   2.169  12.930  0.3638  0.2530  0.3084
 7045TIP3    H142550   5.376   2.078  12.956 -0.4469  0.9721  2.7445
 7045TIP3    H242551   5.400   2.166  12.835 -0.7979 -2.2544  0.1690
 7046TIP3   OH242552   4.237   4.717   5.966 -0.1837  0.4865  0.2166
 7046TIP3    H142553   4.298   4.787   5.941  0.6252 -0.4351 -0.4517
 7046TIP3    H242554   4.213   4.675   5.884 -0.0446 -0.5045  0.6677
 7047TIP3   OH242555   3.683   1.682   5.174 -0.0733  0.3409 -0.4174
 7047TIP3    H142556   3.634   1.764   5.172  1.8279  1.5368 -2.0721
 7047TIP3    H242557   3.772   1.706   5.149  0.5265 -2.2618 -1.1386
 7048TIP3   OH242558   1.781   6.550   1.071  0.1259 -0.0844 -0.0529
 7048TIP3    H142559   1.737   6.483   1.123  0.5134 -0.1854  0.1507
 7048TIP3    H242560   1.714   6.581   1.009  0.2761 -1.4635 -0.9254
 7049TIP3   OH242561   4.955   3.293  12.197  0.2317 -0.0104 -0.5041
 7049TIP3    H142562   5.032   3.344  12.174  0.0471  0.2573 -0.5258
 7049TIP3    H242563   4.989   3.219  12.247  0.5143  0.0414 -0.6232
 7050TIP3   OH242564   2.352   3.273   3.079  0.1532  0.8492 -0.5928
 7050TIP3    H142565   2.439   3.240   3.058 -0.8375 -1.5811 -1.2044
 7050TIP3    H242566   2.312   3.291   2.994  0.1289  2.3076 -0.3071
 7051TIP3   OH242567   1.380   2.902  11.362  0.1382 -0.1956 -0.5999
 7051TIP3    H142568   1.349   2.991  11.347 -1.3153 -0.5120  0.2720
 7051TIP3    H242569   1.475   2.908  11.358  0.0576  1.4070 -0.5004
 7052TIP3   OH242570   0.207   1.910  16.173 -0.7386 -0.0602 -0.1800
 7052TIP3    H142571   0.134   1.967  16.196 -1.3352 -0.5195 -0.8496
 7052TIP3    H242572   0.233   1.939  16.085 -0.0270  0.1829  0.1056
 7053TIP3   OH242573   0.444   0.059   2.343  0.4163 -0.1665 -0.1845
 7053TIP3    H142574   0.534   0.028   2.353  1.1055  1.5111 -0.8026
 7053TIP3    H242575   0.448   0.120   2.268 -1.0165  0.7044  0.4116
 7054TIP3   OH242576   4.488   3.318   2.498  0.5413  0.1607 -0.5977
 7054TIP3    H142577   4.439   3.387   2.542  1.9009  1.3355 -0.8491
 7054TIP3    H242578   4.498   3.250   2.564  0.2091  0.7155  0.0406
 7055TIP3   OH242579   4.288   4.247   6.719 -0.1020  0.7186  0.7560
 7055TIP3    H142580   4.203   4.219   6.753 -1.1477  1.4681 -1.1050
 7055TIP3    H242581   4.300   4.335   6.755 -1.4123  1.6863 -1.0267
 7056TIP3   OH242582   3.087   3.479  10.469 -0.3043  1.0113  0.1621
 7056TIP3    H142583   3.150   3.549  10.450 -1.3099  2.2678  1.2713
 7056TIP3    H242584   3.024   3.519  10.529 -2.7877  0.1272 -1.7126
 7057TIP3   OH242585   1.619   1.216   2.040  0.1408  0.2515 -0.2178
 7057TIP3    H142586   1.531   1.208   2.003  0.0555 -1.0873  0.2104
 7057TIP3    H242587   1.675   1.166   1.980  0.5688  0.8653 -0.3377
 7058TIP3   OH242588   5.835   1.933   3.320  0.6995 -0.1095 -0.9758
 7058TIP3    H142589   5.897   1.912   3.250  0.0063 -0.9372 -1.3585
 7058TIP3    H242590   5.888   1.975   3.387  1.8136 -1.3965 -1.0088
 7059TIP3   OH242591   2.151   0.506   4.184  0.2604 -0.3150  0.2396
 7059TIP3    H142592   2.181   0.536   4.270  2.2057 -0.0506 -0.4736
 7059TIP3    H242593   2.205   0.555   4.122  0.2914 -1.9458 -1.0761
 7060TIP3   OH242594   2.016   0.626   0.845 -0.1236  0.7699  0.0203
 7060TIP3    H142595   1.925   0.629   0.876  0.0124  0.9924  0.4013
 7060TIP3    H242596   2.068   0.656   0.919  0.2983  0.2746 -0.0648
 7061TIP3   OH242597   5.102   5.060  16.127 -0.1141 -0.4483  0.0965
 7061TIP3    H142598   5.169   4.992  16.130  0.1502 -0.1775  0.4172
 7061TIP3    H242599   5.150   5.141  16.110 -0.4395 -0.3557 -0.4119
 7062TIP3   OH242600   5.025   5.514   4.157  0.7758 -0.2759 -0.5293
 7062TIP3    H142601   5.020   5.460   4.078 -0.4529 -1.6118  0.4370
 7062TIP3    H242602   5.103   5.482   4.203  0.3734 -0.8490 -0.2398
 7063TIP3   OH242603   1.502   0.121  15.866 -0.4566  0.0280  0.1609
 7063TIP3    H142604   1.577   0.118  15.926  1.0291  1.0114 -1.5570
 7063TIP3    H242605   1.506   0.038  15.819 -0.1239  0.2997 -0.2932
 7064TIP3   OH242606   0.937   2.514  12.643 -0.3244 -0.0444 -0.2627
 7064TIP3    H142607   0.877   2.446  12.612 -1.3551  0.5190  0.4237
 7064TIP3    H242608   0.888   2.558  12.713  1.6254 -0.8426  1.7203
 7065TIP3   OH242609   6.180   3.098  11.816 -0.6307 -0.1642 -0.1965
 7065TIP3    H142610   6.137   3.027  11.769 -0.3086 -0.8435  0.5165
 7065TIP3    H242611   6.213   3.058  11.897  0.7628  0.4781 -0.4155
 7066TIP3   OH242612   4.752   3.857  11.182  0.1979  0.6100  0.3174
 7066TIP3    H142613   4.840   3.891  11.165 -0.3474  1.5973 -0.6773
 7066TIP3    H242614   4.712   3.848  11.095 -0.8387  0.6191  0.7748
 7067TIP3   OH242615   2.588   0.638   4.504 -0.2650  0.6956 -0.4945
 7067TIP3    H142616   2.571   0.580   4.578 -2.0542  1.1034 -0.5579
 7067TIP3    H242617   2.642   0.585   4.445 -4.3610 -2.2736 -2.0566
 7068TIP3   OH242618   2.021   3.115  16.435 -0.2643  0.1504 -0.2482
 7068TIP3    H142619   1.988   3.203  16.417  1.5537  1.0335  0.5021
 7068TIP3    H242620   1.943   3.061  16.443 -1.4469  1.8379  0.0181
 7069TIP3   OH242621   3.164   2.870  10.823 -0.1003  0.5270  0.3701
 7069TIP3    H142622   3.146   2.776  10.827 -1.8066  0.7666 -0.6977
 7069TIP3    H242623   3.165   2.897  10.915  0.4932 -0.5386  0.6987
 7070TIP3   OH242624   1.109   4.131  13.418 -0.0800 -0.7660 -0.6038
 7070TIP3    H142625   1.072   4.164  13.336 -0.4377 -1.0081 -0.5438
 7070TIP3    H242626   1.165   4.058  13.391 -0.1708 -0.8236 -0.6421
 7071TIP3   OH242627   6.485   6.708  14.879 -0.4125  0.2457 -0.2409
 7071TIP3    H142628   6.574   6.677  14.892 -0.3130  0.8151  0.4934
 7071TIP3    H242629   6.495   6.799  14.849 -0.7412  0.2399 -0.3763
 7072TIP3   OH242630   0.914   5.033   4.939  0.0266 -0.0326  0.4310
 7072TIP3    H142631   0.922   5.023   5.034  0.2473  0.4903  0.4695
 7072TIP3    H242632   0.819   5.027   4.923 -0.1250  1.0430  0.8281
 7073TIP3   OH242633   2.840   2.728  16.993 -0.3369  0.5313  0.2306
 7073TIP3    H142634   2.837   2.823  16.981  0.2284  0.5633  0.3409
 7073TIP3    H242635   2.810   2.692  16.909 -1.6979  0.8114  0.5708
 7074TIP3   OH242636   5.614   3.039  15.983  0.3300  0.3293  0.2625
 7074TIP3    H142637   5.589   3.088  16.061  2.5307  0.6490  0.8300
 7074TIP3    H242638   5.652   2.958  16.016  3.5723  1.4751 -0.2068
 7075TIP3   OH242639   6.301   4.548   4.866  0.0438 -0.8457 -0.0004
 7075TIP3    H142640   6.319   4.539   4.773  0.3370 -2.1013  0.1570
 7075TIP3    H242641   6.222   4.495   4.881 -1.0825  0.7972  0.1657
 7076TIP3   OH242642   6.116   4.390  15.780 -0.3058  0.4589 -0.6652
 7076TIP3    H142643   6.131   4.483  15.762  2.2817  0.0195 -1.1325
 7076TIP3    H242644   6.151   4.376  15.868 -0.2141 -0.1754 -0.7986
 7077TIP3   OH242645   1.500   6.020  16.794  0.0526  0.1457  0.1917
 7077TIP3    H142646   1.535   5.958  16.730  2.3024  0.9212  0.6061
 7077TIP3    H242647   1.479   6.098  16.743  0.1467  0.1337  0.1353
 7078TIP3   OH242648   3.790   5.612   0.501  0.6138 -0.0783 -0.3232
 7078TIP3    H142649   3.767   5.704   0.491  0.7994 -0.1148 -1.2057
 7078TIP3    H242650   3.853   5.610   0.573 -0.3390  0.3135  0.5434
 7079TIP3   OH242651   1.518   4.159   2.328 -0.8807  0.1890  0.0620
 7079TIP3    H142652   1.510   4.208   2.246  0.4109 -1.1309 -0.9220
 7079TIP3    H242653   1.436   4.176   2.375 -1.4440  1.3737 -1.2873
 7080TIP3   OH242654   6.025   2.928   1.218 -0.1125 -0.4612 -0.8048
 7080TIP3    H142655   6.052   2.837   1.204 -0.5475 -0.5074 -1.3591
 7080TIP3    H242656   6.005   2.933   1.312 -0.0631 -0.9268 -0.7671
 7081TIP3   OH242657   6.390   0.507  12.734 -0.6903  0.0621  0.1526
 7081TIP3    H142658   6.457   0.488  12.799  0.2399  1.1211 -0.4570
 7081TIP3    H242659   6.410   0.449  12.660  0.3663  1.2664 -0.5403
 7082TIP3   OH242660   4.477   0.938   1.447 -0.5992 -0.0257 -0.0970
 7082TIP3    H142661   4.538   0.936   1.521  0.3880  0.2040 -0.8743
 7082TIP3    H242662   4.411   1.003   1.471 -0.6447 -0.4061  0.8416
 7083TIP3   OH242663   6.479   2.245  17.170  0.0390 -0.0529  0.1298
 7083TIP3    H142664   6.510   2.328  17.207 -0.7822  0.1445  0.3892
 7083TIP3    H242665   6.508   2.179  17.232 -1.1941  0.2605  1.0773
 7084TIP3   OH242666   4.872   3.837  14.935 -0.4671 -0.4712  0.0878
 7084TIP3    H142667   4.956   3.879  14.956  0.6263 -2.5091 -0.0062
 7084TIP3    H242668   4.868   3.839  14.840 -0.2540 -0.8608  0.0691
 7085TIP3   OH242669   0.466   4.122  12.293 -0.0906  0.1746  0.1852
 7085TIP3    H142670   0.432   4.166  12.371  1.8094  0.1938  1.0536
 7085TIP3    H242671   0.543   4.173  12.269  1.1364 -1.6237  0.1394
 7086TIP3   OH242672   0.456   3.346  16.868 -0.2754  0.1586 -0.8726
 7086TIP3    H142673   0.482   3.285  16.937 -1.8270  0.4573 -0.0025
 7086TIP3    H242674   0.531   3.406  16.860 -0.0092  0.0170  0.4242
 7087TIP3   OH242675   5.228   3.938   2.991 -0.5016 -0.0080  0.4139
 7087TIP3    H142676   5.274   3.962   2.911 -0.3065  1.4330  0.9239
 7087TIP3    H242677   5.140   3.975   2.980 -0.1479  1.1517  1.2868
 7088TIP3   OH242678   4.871   4.115  10.318  0.2997 -0.3588  0.1876
 7088TIP3    H142679   4.844   4.204  10.295  2.7946 -0.1966 -2.7760
 7088TIP3    H242680   4.801   4.059  10.285 -0.5546  0.3903  0.6930
 7089TIP3   OH242681   3.311   3.873   3.055  0.3926  0.3388  0.1472
 7089TIP3    H142682   3.277   3.895   2.968  0.3758  0.6105  0.2193
 7089TIP3    H242683   3.305   3.955   3.104 -1.1171 -0.1995  0.9133
 7090TIP3   OH242684   2.587   0.042   4.493  0.2891  0.4124 -0.3340
 7090TIP3    H142685   2.674   0.027   4.454  1.2205  0.3049  1.6685
 7090TIP3    H242686   2.556  -0.046   4.517 -0.0283  0.5247 -0.3304
 7091TIP3   OH242687   5.278   3.441  14.191 -0.1429 -0.1757 -0.5269
 7091TIP3    H142688   5.233   3.381  14.132 -1.6048 -0.5044  0.8492
 7091TIP3    H242689   5.345   3.482  14.136  0.4041 -2.4661 -1.6981
 7092TIP3   OH242690   2.866   2.783  14.975 -0.1827 -0.3539 -0.2731
 7092TIP3    H142691   2.867   2.707  15.033 -0.0406  0.1955  0.4525
 7092TIP3    H242692   2.788   2.832  15.001 -1.3503 -1.1793 -1.9895
 7093TIP3   OH242693   0.242   0.070  15.854 -0.1013 -0.2241  0.2934
 7093TIP3    H142694   0.215   0.151  15.897 -0.4969  0.7893 -1.7504
 7093TIP3    H242695   0.289   0.021  15.922  0.7255  1.9972  1.3997
 7094TIP3   OH242696   2.460   3.861  12.332 -0.3512 -0.5056 -0.0618
 7094TIP3    H142697   2.435   3.790  12.273 -0.4961 -0.9500  0.5182
 7094TIP3    H242698   2.381   3.913  12.344  0.0126  0.3567 -1.2892
 7095TIP3   OH242699   5.288   0.217   4.221 -0.4221  0.0434  0.1562
 7095TIP3    H142700   5.211   0.264   4.189 -0.6635 -0.1863  0.3894
 7095TIP3    H242701   5.257   0.128   4.238  0.0046 -0.1716 -0.1756
 7096TIP3   OH242702   6.209   2.760  10.459  0.2277  0.0449  0.0801
 7096TIP3    H142703   6.163   2.776  10.377  0.4077 -0.7682 -0.1951
 7096TIP3    H242704   6.193   2.667  10.477 -0.3641  0.3692  1.3087
 7097TIP3   OH242705   3.892   3.639   0.142  0.0642 -0.2528 -0.0369
 7097TIP3    H142706   3.808   3.620   0.183 -0.0660  0.8431  0.2460
 7097TIP3    H242707   3.897   3.735   0.140  1.6971 -0.2753  0.8194
 7098TIP3   OH242708   1.774   6.172   0.167 -0.3685 -0.1570 -0.0087
 7098TIP3    H142709   1.703   6.117   0.200  0.5176 -1.1781  0.2432
 7098TIP3    H242710   1.735   6.218   0.093 -1.5625  0.0274  0.7051
 7099TIP3   OH242711   5.418   3.571   2.209 -0.4786 -0.6267  0.4768
 7099TIP3    H142712   5.325   3.580   2.191 -0.5296  0.2451  1.0950
 7099TIP3    H242713   5.427   3.592   2.302  0.4890  0.6278  0.1402
 7100TIP3   OH242714   4.023   2.868  11.365  0.1067 -0.2253 -0.3979
 7100TIP3    H142715   3.989   2.815  11.437  2.0561 -0.1588  0.6352
 7100TIP3    H242716   4.107   2.901  11.397 -0.8850  3.3735 -1.0354
 7101TIP3   OH242717   5.072   4.684  14.421  0.8555  0.5893  0.3316
 7101TIP3    H142718   5.111   4.733  14.349  0.0065  0.5358 -0.1730
 7101TIP3    H242719   5.022   4.748  14.471  0.5094  0.4206  0.2085
 7102TIP3   OH242720   4.600   1.132  14.911 -0.1385  0.4320  0.0290
 7102TIP3    H142721   4.542   1.151  14.837  1.6758  0.4718 -1.4630
 7102TIP3    H242722   4.615   1.218  14.952  0.2187  0.7082 -0.6531
 7103TIP3   OH242723   6.655   4.059  14.872 -0.0107 -0.2022 -0.4252
 7103TIP3    H142724   6.626   4.071  14.782 -0.4982  1.1916 -0.1036
 7103TIP3    H242725   6.750   4.049  14.866  0.0958  1.0380 -0.9971
 7104TIP3   OH242726   3.750   4.528   1.885 -0.7817 -0.4398  0.8978
 7104TIP3    H142727   3.737   4.497   1.975 -0.2511 -2.6092  0.2935
 7104TIP3    H242728   3.843   4.551   1.882 -1.0812  0.8822  1.2264
 7105TIP3   OH242729   3.305   0.976  14.084  0.4065  0.1050  0.1500
 7105TIP3    H142730   3.280   0.884  14.076 -1.1589  0.4927  0.2798
 7105TIP3    H242731   3.226   1.020  14.118  1.3777  1.3570  0.8905
 7106TIP3   OH242732   0.781   2.092  11.565 -0.4159 -0.3033 -0.4178
 7106TIP3    H142733   0.816   2.048  11.642 -0.9547 -1.6978 -0.9358
 7106TIP3    H242734   0.849   2.084  11.499  0.8840  2.6155  0.4072
 7107TIP3   OH242735   0.150   4.029  14.967  0.2582  0.2544  0.4787
 7107TIP3    H142736   0.173   4.009  14.876  0.6153  0.4783  0.5197
 7107TIP3    H242737   0.196   3.963  15.018 -0.3468 -0.1844  0.4676
 7108TIP3   OH242738   5.188   0.782  16.577  0.9297  0.1713 -0.3959
 7108TIP3    H142739   5.147   0.840  16.642 -1.4227 -1.6629 -0.0701
 7108TIP3    H242740   5.139   0.798  16.497  2.7104  1.1953 -1.3456
 7109TIP3   OH242741   4.018   4.257  15.947  0.1819 -0.1583 -0.0881
 7109TIP3    H142742   3.926   4.278  15.929 -0.2417 -2.3671 -0.7503
 7109TIP3    H242743   4.054   4.232  15.861  1.6036  1.2752  0.0486
 7110TIP3   OH242744   3.056   6.376   4.516 -0.1797  0.0421 -0.1228
 7110TIP3    H142745   2.971   6.406   4.549  0.4943  0.5457  1.2352
 7110TIP3    H242746   3.065   6.288   4.552 -0.9485 -0.8137 -1.8752
 7111TIP3   OH242747   1.281   6.547  11.313  0.5408 -0.5122  0.2443
 7111TIP3    H142748   1.228   6.476  11.277 -0.8758 -0.5244  2.1990
 7111TIP3    H242749   1.355   6.556  11.252 -1.3074 -0.9677 -2.1912
 7112TIP3   OH242750   1.211   3.110  14.018  0.7098 -0.0126 -0.1456
 7112TIP3    H142751   1.165   3.169  14.079 -0.1757 -0.9237  0.0959
 7112TIP3    H242752   1.152   3.105  13.943 -0.3556 -2.3227  0.7471
 7113TIP3   OH242753   5.228   6.733   0.754  0.1569 -0.7398  0.1385
 7113TIP3    H142754   5.219   6.765   0.665 -1.4761 -0.9803  0.1849
 7113TIP3    H242755   5.282   6.799   0.798  0.5329 -0.3536 -0.8883
 7114TIP3   OH242756   1.628   0.648  12.533  0.1183 -0.1264  0.1556
 7114TIP3    H142757   1.549   0.624  12.582 -1.0046  0.7709 -1.1413
 7114TIP3    H242758   1.666   0.720  12.583 -0.1154 -0.2777  0.5607
 7115TIP3   OH242759   4.113   1.233   1.113  0.2601 -0.0105 -0.4659
 7115TIP3    H142760   4.094   1.293   1.040  1.1665  0.8742 -0.0008
 7115TIP3    H242761   4.204   1.251   1.135 -0.4874  1.1241  2.0950
 7116TIP3   OH242762   2.395   0.081   2.863  0.6577 -0.2572 -0.5913
 7116TIP3    H142763   2.473   0.121   2.825  0.6195  1.0480  0.5995
 7116TIP3    H242764   2.339   0.059   2.788  1.1416  1.0008 -1.3440
 7117TIP3   OH242765   4.911   1.176   3.874 -0.2016 -0.1857 -0.1312
 7117TIP3    H142766   4.821   1.172   3.907  0.3410 -3.1120  1.3241
 7117TIP3    H242767   4.964   1.135   3.942  2.1447  0.5894 -1.3612
 7118TIP3   OH242768   5.612   0.989   2.271  0.1585  0.2530  0.1791
 7118TIP3    H142769   5.632   0.908   2.318 -0.3392  0.2315  0.3614
 7118TIP3    H242770   5.637   1.059   2.331 -2.0632  0.2358  1.2217
 7119TIP3   OH242771   1.327   1.543  17.143 -0.5566 -0.0068 -0.3077
 7119TIP3    H142772   1.365   1.577  17.062 -1.2425  0.4455 -0.4447
 7119TIP3    H242773   1.380   1.582  17.213 -1.4869  1.5606 -0.4506
 7120TIP3   OH242774   2.418   5.019   0.252 -0.2406 -0.0784 -0.1964
 7120TIP3    H142775   2.401   4.939   0.302 -1.5142  1.2807  1.6993
 7120TIP3    H242776   2.337   5.035   0.204  0.0022  0.1079 -0.5508
 7121TIP3   OH242777   2.344   3.184  12.369 -0.0605 -0.3350 -0.7289
 7121TIP3    H142778   2.385   3.225  12.293  1.5880  0.1393  0.3390
 7121TIP3    H242779   2.389   3.223  12.444 -0.6640 -1.7734  0.4429
 7122TIP3   OH242780   4.912   1.747   6.082  0.0497  0.2812  0.4325
 7122TIP3    H142781   4.953   1.661   6.096  0.2497  0.0979 -1.0764
 7122TIP3    H242782   4.845   1.753   6.150  1.2215 -0.2877  1.6842
 7123TIP3   OH242783   3.775   1.547   1.620 -0.5593  0.2320  0.3191
 7123TIP3    H142784   3.817   1.568   1.703 -1.2511  1.3589  0.3903
 7123TIP3    H242785   3.789   1.624   1.565 -2.4651  0.6418  0.3293
 7124TIP3   OH242786   2.657   0.100   1.524 -0.4435 -0.0336 -0.6664
 7124TIP3    H142787   2.714   0.152   1.580 -1.8339  0.2060  0.5945
 7124TIP3    H242788   2.613   0.165   1.468 -0.4662 -0.0790 -0.7013
 7125TIP3   OH242789   2.814   2.976   5.003 -0.3254 -0.4656 -0.0780
 7125TIP3    H142790   2.861   3.038   4.948 -0.8216  0.2999  0.3529
 7125TIP3    H242791   2.744   2.942   4.947 -0.2424 -0.4113 -0.2133
 7126TIP3   OH242792   2.661   1.492   1.474  0.3423  0.1033  0.0844
 7126TIP3    H142793   2.703   1.425   1.420 -2.5714 -2.3564  0.5728
 7126TIP3    H242794   2.585   1.520   1.423 -2.3656 -2.1178  2.5139
 7127TIP3   OH242795   6.333   4.472  16.938  0.1245 -0.0780  0.6093
 7127TIP3    H142796   6.316   4.460  17.032  2.2403 -0.2528  1.0201
 7127TIP3    H242797   6.371   4.560  16.932  2.4125 -1.0036  0.3539
 7128TIP3   OH242798   3.908   4.372   2.575  0.0348 -0.0254  0.1519
 7128TIP3    H142799   3.915   4.410   2.487  1.0789  0.1871  0.3200
 7128TIP3    H242800   3.946   4.284   2.566 -0.1866 -0.1374  0.3088
 7129TIP3   OH242801   5.510   3.013  16.256  0.2603 -0.2111 -0.4053
 7129TIP3    H142802   5.487   3.075  16.326 -0.5478 -2.2496  1.2290
 7129TIP3    H242803   5.427   2.993  16.213  0.2262 -1.4068  0.1828
 7130TIP3   OH242804   4.474   2.599  12.209 -0.6262 -0.1271 -0.0436
 7130TIP3    H142805   4.429   2.578  12.127 -0.9000  1.3554 -0.3111
 7130TIP3    H242806   4.524   2.521  12.230 -0.2047 -0.3836 -1.8540
 7131TIP3   OH242807   6.211   6.759  13.457 -0.1809 -0.1909  0.1310
 7131TIP3    H142808   6.117   6.746  13.445 -0.0636 -0.3964 -0.6757
 7131TIP3    H242809   6.242   6.679  13.498 -0.2181 -0.5238 -0.4694
 7132TIP3   OH242810   6.488   3.587   4.237  0.8807 -0.0690  0.1001
 7132TIP3    H142811   6.496   3.506   4.186 -1.2992 -0.3955  0.1848
 7132TIP3    H242812   6.394   3.599   4.249  1.2298  1.3601  1.9060
 7133TIP3   OH242813   2.188   6.667  14.668  0.1362 -0.0448  0.3137
 7133TIP3    H142814   2.135   6.745  14.683  1.8416  1.2890 -0.3519
 7133TIP3    H242815   2.184   6.652  14.574  0.7321 -0.1061  0.2987
 7134TIP3   OH242816   5.414   5.008   1.295  0.0904  0.3533  0.1141
 7134TIP3    H142817   5.323   4.979   1.299  0.2897 -0.3909 -0.5597
 7134TIP3    H242818   5.408   5.100   1.267 -0.4254  0.1288 -0.5278
 7135TIP3   OH242819   3.179   0.072   2.358  0.3683  0.2897 -0.0550
 7135TIP3    H142820   3.230   0.118   2.425  0.1331  1.9552 -0.9726
 7135TIP3    H242821   3.230  -0.007   2.340 -0.2026 -0.9114  2.9690
 7136TIP3   OH242822   1.416   5.138   2.640 -0.7088  0.6095  0.1799
 7136TIP3    H142823   1.461   5.194   2.577  0.5735 -0.1560  0.3882
 7136TIP3    H242824   1.370   5.074   2.586  1.8873 -1.2031 -0.0330
 7137TIP3   OH242825   4.707   5.698   1.936 -0.3950  0.4534 -0.6780
 7137TIP3    H142826   4.781   5.662   1.887  0.2453  0.2972  0.3613
 7137TIP3    H242827   4.745   5.770   1.986 -1.3535  1.6405 -1.5791
 7138TIP3   OH242828   1.063   3.647   5.209  0.4077  0.1069 -0.1195
 7138TIP3    H142829   0.975   3.610   5.219  1.0141 -1.0854  1.0692
 7138TIP3    H242830   1.078   3.693   5.292  0.8739  0.3989 -0.3625
 7139TIP3   OH242831   2.256   1.865   0.613  0.0589  0.3337 -0.4641
 7139TIP3    H142832   2.280   1.814   0.690 -1.9990 -0.8726 -0.5535
 7139TIP3    H242833   2.162   1.853   0.604  0.2329  0.2323 -3.3096
 7140TIP3   OH242834   6.715   5.536   2.504  0.2158  0.1347 -0.0783
 7140TIP3    H142835   6.714   5.631   2.493 -1.0806  0.3450  1.4402
 7140TIP3    H242836   6.632   5.506   2.465  0.5576 -0.3645 -0.4340
 7141TIP3   OH242837   1.553   0.665  16.791  0.0541 -0.3228  0.3642
 7141TIP3    H142838   1.580   0.577  16.766 -1.2807 -1.6490  3.1999
 7141TIP3    H242839   1.635   0.710  16.813  0.8531 -0.4099 -2.1264
 7142TIP3   OH242840   2.611   1.701  13.424 -0.1329  0.1086  0.0364
 7142TIP3    H142841   2.671   1.664  13.488 -0.9021 -0.0653  0.6719
 7142TIP3    H242842   2.610   1.637  13.352  1.3083  0.6690 -0.5199
 7143TIP3   OH242843   5.183   5.138  14.914  0.3720  0.4923  0.1570
 7143TIP3    H142844   5.122   5.211  14.905 -0.4654 -0.0635  1.1870
 7143TIP3    H242845   5.148   5.086  14.986  0.4141 -1.4606 -1.1654
 7144TIP3   OH242846   5.166   1.557   1.933 -0.2369 -0.2765 -0.0639
 7144TIP3    H142847   5.210   1.636   1.963  0.7966 -0.4224 -1.1089
 7144TIP3    H242848   5.184   1.492   2.000 -0.1379  0.0754  0.2514
 7145TIP3   OH242849   2.983   5.089  11.382 -0.5636 -0.3833  0.3975
 7145TIP3    H142850   3.041   5.117  11.311 -1.1870  2.6040  0.9458
 7145TIP3    H242851   3.042   5.064  11.453  0.0387 -1.9724 -0.6029
 7146TIP3   OH242852   4.655   2.016  12.171 -0.2425 -0.4109  0.2528
 7146TIP3    H142853   4.588   2.069  12.129 -0.0189  1.1945  1.8016
 7146TIP3    H242854   4.717   2.080  12.207  0.5690 -1.7512  1.3362
 7147TIP3   OH242855   1.389   5.671   0.917 -0.0832  0.3096 -0.0965
 7147TIP3    H142856   1.436   5.663   0.834 -1.3323 -0.4173 -0.7655
 7147TIP3    H242857   1.449   5.635   0.982 -0.2494 -1.9730 -1.1302
 7148TIP3   OH242858   1.693   1.586   2.033 -0.4479  0.5002  0.4255
 7148TIP3    H142859   1.616   1.530   2.025  0.3661 -0.6905  0.6031
 7148TIP3    H242860   1.681   1.652   1.965 -2.1382  1.0027  1.1610
 7149TIP3   OH242861   1.893   0.703  14.267 -0.0378  0.6208  0.2667
 7149TIP3    H142862   1.884   0.607  14.267  0.0533  0.6010  1.2824
 7149TIP3    H242863   1.948   0.722  14.192  2.0599 -0.3604  1.4666
 7150TIP3   OH242864   0.016   4.075  11.360  0.1995  0.7088 -0.1286
 7150TIP3    H142865  -0.052   4.035  11.415 -0.0866  0.9969 -0.2702
 7150TIP3    H242866   0.002   4.170  11.370  0.2555  0.7641 -0.5604
 7151TIP3   OH242867   5.690   3.736   1.117 -0.0645  0.1959 -0.3185
 7151TIP3    H142868   5.745   3.689   1.054 -1.5853 -2.4091  0.1651
 7151TIP3    H242869   5.638   3.668   1.160 -4.8162  2.4573 -1.7702
 7152TIP3   OH242870   5.710   6.672   3.691 -0.2455 -0.0466 -0.5034
 7152TIP3    H142871   5.678   6.648   3.604  0.0322 -0.9696 -0.3579
 7152TIP3    H242872   5.631   6.676   3.745 -0.5390  1.4830 -0.9918
 7153TIP3   OH242873   3.889   3.888  17.117 -0.3877  0.4430  0.4449
 7153TIP3    H142874   3.848   3.974  17.120 -0.5586  0.4437 -0.9982
 7153TIP3    H242875   3.829   3.834  17.065  1.1453  0.3243 -1.3168
 7154TIP3   OH242876   1.630   2.591  13.305 -0.5597  0.0161 -0.7909
 7154TIP3    H142877   1.656   2.512  13.353 -2.7569  0.6455  1.6914
 7154TIP3    H242878   1.708   2.647  13.306  0.6951 -1.6228 -1.6570
 7155TIP3   OH242879   4.540   5.435  16.141 -0.1060  0.1693  0.8282
 7155TIP3    H142880   4.575   5.511  16.094 -2.6760  0.7864 -0.2539
 7155TIP3    H242881   4.613   5.405  16.196  0.9397  3.6460  1.6124
 7156TIP3   OH242882   0.928   0.861  15.597 -0.1327 -0.2765  0.5840
 7156TIP3    H142883   0.862   0.897  15.657  0.4164 -1.1289  1.7360
 7156TIP3    H242884   0.884   0.788  15.554 -0.0139 -0.7166  1.2018
 7157TIP3   OH242885   4.480   0.099   0.403  0.2048  0.3314 -0.1637
 7157TIP3    H142886   4.451   0.143   0.323 -1.0512 -2.2065 -1.2057
 7157TIP3    H242887   4.407   0.108   0.464  0.4313  0.6630  0.0695
 7158TIP3   OH242888   2.468   6.766  16.868  0.0858 -0.3815  0.5390
 7158TIP3    H142889   2.482   6.823  16.944  0.2778  0.8251 -0.3758
 7158TIP3    H242890   2.375   6.775  16.848  0.0336 -0.7063  0.6318
 7159TIP3   OH242891   1.789   4.454   1.644 -0.5428 -0.1300 -0.0843
 7159TIP3    H142892   1.862   4.513   1.664  0.0934 -0.8399 -0.2215
 7159TIP3    H242893   1.822   4.400   1.572 -1.3570 -0.1990 -0.4112
 7160TIP3   OH242894   3.730   2.284   3.961  0.1348 -0.0273  0.2284
 7160TIP3    H142895   3.773   2.200   3.944  0.2700  0.0415  0.2265
 7160TIP3    H242896   3.690   2.308   3.878  0.6767  0.2415  0.0390
 7161TIP3   OH242897   6.510   6.492   0.575  0.0968  0.2420 -0.1913
 7161TIP3    H142898   6.549   6.482   0.488 -0.6398 -0.4731 -0.4507
 7161TIP3    H242899   6.570   6.445   0.634  1.3739  1.9415 -0.0613
 7162TIP3   OH242900   0.049   5.605   5.120 -0.1086 -0.2548  0.5115
 7162TIP3    H142901   0.034   5.667   5.049  2.0399 -0.8091 -0.5356
 7162TIP3    H242902   0.087   5.657   5.190  0.2288 -0.1226  0.2312
 7163TIP3   OH242903   3.149   4.507   3.118  0.0619 -0.1877  0.1387
 7163TIP3    H142904   3.134   4.599   3.096 -0.3042 -0.6067 -1.5455
 7163TIP3    H242905   3.061   4.469   3.122  0.0953 -0.1158  2.6919
 7164TIP3   OH242906   5.462   2.017   2.148 -0.4674  0.2146  0.3358
 7164TIP3    H142907   5.486   1.925   2.145 -1.3937 -0.1291  2.2182
 7164TIP3    H242908   5.369   2.018   2.167 -0.6973  1.5581 -0.6622
 7165TIP3   OH242909   3.627   2.811  13.180 -0.0392 -0.6096 -0.1110
 7165TIP3    H142910   3.664   2.809  13.092  0.8333  0.1666  0.2218
 7165TIP3    H242911   3.536   2.839  13.168  0.1559 -0.2328 -0.7384
 7166TIP3   OH242912   5.280   3.730  13.624  0.3054 -0.2559 -0.1221
 7166TIP3    H142913   5.320   3.670  13.688 -0.2479 -0.6025 -0.0939
 7166TIP3    H242914   5.186   3.722  13.640  0.2039  0.2186 -0.4851
 7167TIP3   OH242915   2.334   4.705  15.795 -0.6919  0.1253  0.6488
 7167TIP3    H142916   2.377   4.780  15.756  1.4357 -1.1791  0.2979
 7167TIP3    H242917   2.350   4.715  15.889  1.0895 -0.6795  0.4767
 7168TIP3   OH242918   3.089   0.047  13.454 -0.0610 -0.4927  0.2988
 7168TIP3    H142919   3.091   0.089  13.368 -0.4809  2.6805  1.6780
 7168TIP3    H242920   3.180   0.027  13.473  0.7479  2.9788  0.8371
 7169TIP3   OH242921   6.748   0.800   4.619  0.1744  0.3731  0.0238
 7169TIP3    H142922   6.779   0.806   4.528  1.5539 -0.8283  0.3923
 7169TIP3    H242923   6.717   0.889   4.639 -0.2143  0.6438 -1.6332
 7170TIP3   OH242924   4.237   3.105   1.240 -0.4899 -0.1323  0.0441
 7170TIP3    H142925   4.146   3.123   1.265 -0.1893 -0.8343  1.8744
 7170TIP3    H242926   4.289   3.143   1.312  0.5092 -1.7499  0.2200
 7171TIP3   OH242927   3.702   2.758  16.239 -0.1208 -0.5763 -0.4506
 7171TIP3    H142928   3.784   2.769  16.191  0.8019  4.6186  1.6300
 7171TIP3    H242929   3.635   2.792  16.179  0.2238  0.7619 -0.1148
 7172TIP3   OH242930   0.004   0.187  12.549  0.3186  0.2979 -0.2288
 7172TIP3    H142931   0.003   0.282  12.540  1.1867  0.3770  0.4030
 7172TIP3    H242932   0.039   0.172  12.637  2.4502 -0.6525 -1.1887
 7173TIP3   OH242933   4.080   3.729  10.706 -0.3019 -0.2141 -0.7727
 7173TIP3    H142934   4.074   3.636  10.686 -0.7735 -0.7386  1.5572
 7173TIP3    H242935   4.173   3.750  10.694 -0.2860 -0.8256 -1.8360
 7174TIP3   OH242936   0.575   1.607  14.503 -0.3793 -0.5180  0.2941
 7174TIP3    H142937   0.548   1.694  14.535 -0.4748 -0.2192 -0.5670
 7174TIP3    H242938   0.650   1.583  14.557  1.7697  1.5683 -1.5213
 7175TIP3   OH242939   3.006   5.583  17.042  0.5271  0.7161 -0.4304
 7175TIP3    H142940   3.029   5.490  17.038 -1.9688 -0.1252  1.4863
 7175TIP3    H242941   2.923   5.589  16.994 -0.8567  1.2713  1.8496
 7176TIP3   OH242942   1.950   4.717   4.532  0.5584  0.8450  0.0362
 7176TIP3    H142943   1.877   4.660   4.508  0.1678  2.0987 -2.0091
 7176TIP3    H242944   2.006   4.720   4.454  1.1589  2.3130  0.4766
 7177TIP3   OH242945   5.814   4.834   2.592  0.0551  0.0124 -0.3322
 7177TIP3    H142946   5.722   4.814   2.611 -0.2616  1.5399 -0.1505
 7177TIP3    H242947   5.823   4.819   2.498 -0.6490  0.8278 -0.5371
 7178TIP3   OH242948   0.227   3.493   5.888 -0.8243 -0.4736  0.1234
 7178TIP3    H142949   0.212   3.520   5.978  0.4916 -0.2014  0.2813
 7178TIP3    H242950   0.268   3.407   5.895  1.1067  0.3712 -0.0948
 7179TIP3   OH242951   1.122   5.270   0.320  0.0741 -0.0863  0.0232
 7179TIP3    H142952   1.120   5.321   0.401 -0.4307 -1.3797  0.8442
 7179TIP3    H242953   1.037   5.289   0.278  0.9751  1.8613 -1.0622
 7180TIP3   OH242954   4.390   1.537  11.460 -0.2859  0.3093 -0.1336
 7180TIP3    H142955   4.364   1.605  11.398 -0.9457  0.5341  0.3720
 7180TIP3    H242956   4.307   1.499  11.490  0.0269  0.1245  0.5167
 7181TIP3   OH242957   4.722   0.703   5.403  0.0268 -0.7658 -0.9744
 7181TIP3    H142958   4.698   0.612   5.384  0.0011 -1.0752  0.4922
 7181TIP3    H242959   4.766   0.700   5.488 -0.2481  0.6428 -0.7540
 7182TIP3   OH242960   3.612   0.831   4.769 -0.2370 -0.5175 -0.1374
 7182TIP3    H142961   3.681   0.780   4.727 -0.7544 -0.7567 -0.7025
 7182TIP3    H242962   3.637   0.922   4.754 -1.0101 -0.5687 -2.0228
 7183TIP3   OH242963   5.775   1.173  17.081  0.3205  0.2361  0.5381
 7183TIP3    H142964   5.739   1.137  17.000  0.6358  1.3879 -0.1390
 7183TIP3    H242965   5.817   1.098  17.124 -3.2409 -1.3114  1.6651
 7184TIP3   OH242966   1.525   3.663  13.381 -0.0267  0.4104 -0.0805
 7184TIP3    H142967   1.469   3.613  13.441 -2.0880  0.9721 -1.4113
 7184TIP3    H242968   1.550   3.600  13.313  0.3454  0.3413  0.1184
 7185TIP3   OH242969   2.737   3.434   4.291  0.1909 -0.6183 -0.3881
 7185TIP3    H142970   2.702   3.379   4.362  1.2581 -0.8396 -0.0113
 7185TIP3    H242971   2.705   3.522   4.312 -1.5013 -1.0481 -0.9779
 7186TIP3   OH242972   6.555   2.352   1.740  0.5701 -0.5779  0.3760
 7186TIP3    H142973   6.555   2.304   1.658 -1.5076 -1.3465  0.7544
 7186TIP3    H242974   6.631   2.319   1.788  1.8378 -0.0781 -1.2093
 7187TIP3   OH242975   1.437   6.682   4.999 -0.2708  0.1951 -0.3472
 7187TIP3    H142976   1.392   6.737   4.936  0.4825 -0.1460 -1.1993
 7187TIP3    H242977   1.530   6.692   4.978 -0.0408 -0.3715  0.3420
 7188TIP3   OH242978   6.260   5.875  15.971  0.3775 -1.0478 -0.2658
 7188TIP3    H142979   6.273   5.838  16.058  0.9124 -0.9377 -0.2955
 7188TIP3    H242980   6.304   5.960  15.973  1.1312 -1.4110 -0.8945
 7189TIP3   OH242981   5.962   2.032   4.817 -0.2274 -0.0006 -0.0067
 7189TIP3    H142982   5.949   1.957   4.759  0.8724 -0.1971 -0.0153
 7189TIP3    H242983   5.889   2.091   4.797 -0.7816 -0.8088 -0.4043
 7190TIP3   OH242984   0.967   4.362  13.792 -0.3207 -0.6044 -0.2628
 7190TIP3    H142985   0.892   4.346  13.849 -0.0310  0.4145  0.4198
 7190TIP3    H242986   1.024   4.420  13.842  0.4475 -0.5452 -1.1722
 7191TIP3   OH242987   4.616   4.716   1.638  0.0612 -0.2969  0.8454
 7191TIP3    H142988   4.564   4.795   1.625  0.2857 -0.4754 -1.5800
 7191TIP3    H242989   4.701   4.748   1.668  0.4330  0.4975 -0.9680
 7192TIP3   OH242990   6.704   0.521  16.021 -0.2051 -0.7358  0.6377
 7192TIP3    H142991   6.608   0.524  16.029 -0.2119  1.1717  0.2538
 7192TIP3    H242992   6.722   0.555  15.933  0.8550 -0.1954  1.0427
 7193TIP3   OH242993   0.677   4.530   0.051 -0.0871  0.1256  0.0771
 7193TIP3    H142994   0.728   4.591   0.104 -1.0665  1.1733 -0.1163
 7193TIP3    H242995   0.616   4.490   0.113 -0.0573  0.0312  0.0452
 7194TIP3   OH242996   3.321   0.333   1.280 -0.1325 -0.3880 -0.3048
 7194TIP3    H142997   3.406   0.304   1.248 -0.1108  0.5809 -1.1540
 7194TIP3    H242998   3.282   0.254   1.317  0.3954 -1.2569 -1.5340
 7195TIP3   OH242999   5.785   5.384  11.660 -0.2037 -0.0836  0.1470
 7195TIP3    H143000   5.722   5.455  11.655  0.5810  0.7138  1.1692
 7195TIP3    H243001   5.777   5.339  11.576 -0.1971  1.6608 -0.8350
 7196TIP3   OH243002   5.482   6.560  10.683  0.6115  0.3052 -0.4851
 7196TIP3    H143003   5.472   6.653  10.661 -0.7276  0.2394 -0.2185
 7196TIP3    H243004   5.567   6.555  10.728 -0.3169  1.8140  1.5927
 7197TIP3   OH243005   3.448   5.303  13.116  0.1895 -0.3625  0.3544
 7197TIP3    H143006   3.527   5.335  13.158  0.3224  0.6269 -0.6247
 7197TIP3    H243007   3.479   5.238  13.053  0.0786 -1.0678  1.0082
 7198TIP3   OH243008   1.848   2.573   4.830  0.8980  0.1692 -0.0033
 7198TIP3    H143009   1.768   2.578   4.883  1.9102  1.0822  1.4833
 7198TIP3    H243010   1.848   2.483   4.796  0.5612 -0.6805  2.1234
 7199TIP3   OH243011   5.085   4.791  16.342 -0.0245  0.3117 -0.2760
 7199TIP3    H143012   5.088   4.862  16.278  1.0461 -0.3143 -0.9635
 7199TIP3    H243013   5.087   4.835  16.427  1.2109  1.1038 -0.6909
 7200TIP3   OH243014   5.690   6.178  13.512  0.2749  0.0312 -0.7136
 7200TIP3    H143015   5.695   6.255  13.569  1.8746 -1.1033  0.7787
 7200TIP3    H243016   5.711   6.212  13.424 -1.2795  1.6497 -0.5049
 7201TIP3   OH243017   6.456   6.280   5.305 -0.4750  0.3050 -0.9809
 7201TIP3    H143018   6.467   6.323   5.390 -1.0537  0.2178 -0.8584
 7201TIP3    H243019   6.496   6.340   5.242 -1.2371  1.0121 -0.8062
 7202TIP3   OH243020   6.694   4.086  15.682 -0.2628  0.2451  0.3388
 7202TIP3    H143021   6.630   4.149  15.649  0.6144  0.8763 -0.2347
 7202TIP3    H243022   6.776   4.136  15.685  0.1830 -0.5177  1.1176
 7203TIP3   OH243023   5.872   4.337   1.256  0.2408  0.5704  0.0140
 7203TIP3    H143024   5.905   4.369   1.340  1.6209 -0.2276 -0.1784
 7203TIP3    H243025   5.949   4.337   1.199 -0.3849 -0.1622 -0.8568
 7204TIP3   OH243026   5.530   3.791  14.295 -0.0368  0.0415 -0.3006
 7204TIP3    H143027   5.624   3.776  14.305  0.1811  1.1849 -0.5655
 7204TIP3    H243028   5.498   3.804  14.384 -0.3268 -2.3582  0.0077
 7205TIP3   OH243029   5.958   4.174   1.963  0.3695  0.3108 -0.3390
 7205TIP3    H143030   6.008   4.105   2.007  1.6874  0.2122 -1.9036
 7205TIP3    H243031   5.965   4.153   1.870 -0.7173  1.5729 -0.7311
 7206TIP3   OH243032   0.212   4.408   1.620  0.2906 -0.1631  0.3088
 7206TIP3    H143033   0.195   4.315   1.635  0.7967 -0.4675 -0.8860
 7206TIP3    H243034   0.125   4.447   1.615  0.0647 -0.6344  0.4844
 7207TIP3   OH243035   3.071   0.280   0.996  0.2881 -0.3964 -0.5794
 7207TIP3    H143036   3.046   0.231   0.918 -0.7619  0.1424 -0.5917
 7207TIP3    H243037   3.125   0.219   1.046 -0.6817 -1.4480 -0.7758
 7208TIP3   OH243038   1.665   3.442   0.281 -0.0412 -0.3254 -0.0434
 7208TIP3    H143039   1.723   3.499   0.230  0.2449 -0.1172  0.5087
 7208TIP3    H243040   1.577   3.470   0.256  0.0912 -0.5557 -0.7900
 7209TIP3   OH243041   3.406   6.086   4.163 -0.0182 -0.3142 -0.2774
 7209TIP3    H143042   3.461   6.146   4.214 -0.0633 -2.1341  2.0867
 7209TIP3    H243043   3.463   6.012   4.143 -1.1267 -1.5821  0.9975
 7210TIP3   OH243044   1.142   2.181   2.958 -0.6630  0.3772  0.3290
 7210TIP3    H143045   1.123   2.261   2.909  0.7895  1.3769  1.2930
 7210TIP3    H243046   1.194   2.128   2.898  0.0284  1.0334  0.3381
 7211TIP3   OH243047   1.959   5.413  13.632 -0.1488  0.0563  0.4807
 7211TIP3    H143048   1.903   5.344  13.597 -0.3066  0.7867 -0.7489
 7211TIP3    H243049   1.915   5.443  13.711  0.3376 -1.7948  1.5350
 7212TIP3   OH243050   1.267   6.109   1.583  0.2902 -0.2834 -0.3118
 7212TIP3    H143051   1.217   6.057   1.520 -3.3263  1.3748  0.9358
 7212TIP3    H243052   1.245   6.070   1.668  1.8467  0.0371  0.2719
 7213TIP3   OH243053   3.498   1.750  14.207  0.5153  0.4034 -0.0928
 7213TIP3    H143054   3.447   1.670  14.190  0.8956  0.1768 -0.1755
 7213TIP3    H243055   3.484   1.767  14.300 -2.0416  1.9749 -0.6739
 7214TIP3   OH243056   2.962   0.548  12.206 -1.0305 -0.0284  0.2606
 7214TIP3    H143057   2.969   0.537  12.301  1.6788 -0.5854  0.0537
 7214TIP3    H243058   3.044   0.514  12.171 -2.7865 -1.8123 -2.5005
 7215TIP3   OH243059   1.543   3.455  17.106 -0.7639  0.0753 -0.5056
 7215TIP3    H143060   1.522   3.492  17.192  0.9134  0.9636 -0.4295
 7215TIP3    H243061   1.553   3.361  17.122 -0.7168  0.1988  0.2324
 7216TIP3   OH243062   0.020   3.645  15.648  0.2129 -0.4391 -0.1565
 7216TIP3    H143063   0.019   3.728  15.694 -1.1206 -0.2913 -0.4036
 7216TIP3    H243064  -0.039   3.658  15.574  0.5015 -1.3972 -0.5695
 7217TIP3   OH243065   0.123   1.188   5.483 -0.1420  0.0118 -0.1844
 7217TIP3    H143066   0.206   1.224   5.452 -1.9921  2.2940 -2.9972
 7217TIP3    H243067   0.102   1.240   5.561 -0.5261  1.9857 -1.5171
 7218TIP3   OH243068   3.771   4.237   4.844  0.2006  0.0195 -0.3830
 7218TIP3    H143069   3.716   4.297   4.794 -1.6334 -0.2238  1.2027
 7218TIP3    H243070   3.742   4.150   4.819 -0.4810 -0.1087  0.7685
 7219TIP3   OH243071   0.813   2.982   2.541  0.1627 -0.3346 -0.0542
 7219TIP3    H143072   0.788   3.054   2.598  1.5659  0.0717  0.0923
 7219TIP3    H243073   0.753   2.988   2.467 -0.8049 -0.0446  0.7407
 7220TIP3   OH243074   6.054   3.722   2.691 -0.0931  0.7907  0.1715
 7220TIP3    H143075   6.022   3.804   2.730  0.0222  0.8474  0.1459
 7220TIP3    H243076   6.149   3.725   2.703 -0.1887  0.0869  1.3042
 7221TIP3   OH243077   4.122   3.865   6.151  0.4333  0.6557  0.6682
 7221TIP3    H143078   4.212   3.848   6.178  0.4654 -0.3606 -0.0062
 7221TIP3    H243079   4.068   3.828   6.221  0.5389  1.2381  1.0579
 7222TIP3   OH243080   3.170   5.695   4.695  0.0396  0.7249 -0.0112
 7222TIP3    H143081   3.191   5.626   4.632 -0.0819  0.0804  0.6336
 7222TIP3    H243082   3.221   5.771   4.666 -0.1962  0.5160 -1.0154
 7223TIP3   OH243083   6.022   2.523  14.096  0.4663 -0.4811 -0.5856
 7223TIP3    H143084   6.045   2.616  14.095 -1.8402  0.1614 -1.8330
 7223TIP3    H243085   5.973   2.511  14.177  1.7969 -0.9489  0.1842
 7224TIP3   OH243086   1.784   4.193   4.887 -0.3779  0.3823 -0.6537
 7224TIP3    H143087   1.728   4.153   4.820  0.0792  1.2195 -1.5614
 7224TIP3    H243088   1.829   4.264   4.841  1.4834 -0.3039  0.0437
 7225TIP3   OH243089   1.690   4.843   2.559  0.5951 -0.1454 -0.0563
 7225TIP3    H143090   1.737   4.784   2.500  0.5633  0.1446 -0.3791
 7225TIP3    H243091   1.694   4.929   2.515  1.1574  0.2181  0.6908
 7226TIP3   OH243092   5.381   0.350  10.757  0.3930  0.4119  0.1325
 7226TIP3    H143093   5.440   0.411  10.802  0.1887  0.6085  0.1382
 7226TIP3    H243094   5.425   0.266  10.762  0.8799  0.6355 -0.2330
 7227TIP3   OH243095   5.121   2.049   5.236 -0.4762  0.4225  0.3256
 7227TIP3    H143096   5.054   1.981   5.232  0.3572 -0.3486 -2.1230
 7227TIP3    H243097   5.167   2.032   5.318 -1.4912 -0.7812  0.6714
 7228TIP3   OH243098   1.580   1.821   0.440  0.1424  0.0669 -0.2596
 7228TIP3    H143099   1.558   1.825   0.347  0.0143 -1.2805 -0.3022
 7228TIP3    H243100   1.508   1.773   0.479  1.0786 -0.9619  0.2425
 7229TIP3   OH243101   3.633   6.295   1.805 -0.2997  0.1499  0.2300
 7229TIP3    H143102   3.604   6.358   1.871 -2.6466 -1.5096  0.9355
 7229TIP3    H243103   3.577   6.311   1.729  0.0599 -0.1613 -0.1122
 7230TIP3   OH243104   4.431   3.297   2.219 -0.2412 -0.1688  0.2998
 7230TIP3    H143105   4.443   3.256   2.305 -0.8920  0.0394  0.4923
 7230TIP3    H243106   4.498   3.366   2.216 -0.7961  0.4224  1.0204
 7231TIP3   OH243107   2.515   3.958   2.114 -0.0900  0.3713  0.3796
 7231TIP3    H143108   2.457   4.002   2.176 -0.3561  1.5221 -0.6385
 7231TIP3    H243109   2.456   3.915   2.052  0.1709 -0.9422  0.9982
 7232TIP3   OH243110   3.492   1.390   3.762  0.0816  0.3699  0.0361
 7232TIP3    H143111   3.563   1.453   3.775  0.4487  0.3085 -1.5193
 7232TIP3    H243112   3.417   1.431   3.806  1.0422  0.4192  1.7313
 7233TIP3   OH243113   3.837   4.894   2.527  0.6307 -0.4033 -0.2404
 7233TIP3    H143114   3.814   4.802   2.514 -1.0443  0.1684 -1.7382
 7233TIP3    H243115   3.901   4.912   2.459  1.5522 -0.6384  0.5493
 7234TIP3   OH243116   3.714   5.641  11.827 -0.0627  0.2665  0.1168
 7234TIP3    H143117   3.649   5.695  11.782 -1.3967 -0.0608  1.5604
 7234TIP3    H243118   3.798   5.681  11.805 -1.0355  4.0594  2.4215
 7235TIP3   OH243119   4.700   2.127  16.791 -0.2353  0.1644 -0.0160
 7235TIP3    H143120   4.796   2.131  16.787 -0.1863 -1.2016 -0.6966
 7235TIP3    H243121   4.680   2.149  16.882  0.9110 -1.8390  0.7983
 7236TIP3   OH243122   1.115   6.592   3.207  0.3692 -0.1296 -0.2559
 7236TIP3    H143123   1.195   6.617   3.160  0.0021  1.3491 -0.1534
 7236TIP3    H243124   1.083   6.674   3.244 -0.9235 -0.7874  0.1354
 7237TIP3   OH243125   3.308   5.023  14.249 -0.1913  0.2819 -0.4485
 7237TIP3    H143126   3.253   5.008  14.326  0.6419  1.1021  0.3362
 7237TIP3    H243127   3.386   5.065  14.283  1.1550 -1.2448 -1.4654
 7238TIP3   OH243128   3.106   5.353   6.090  0.1176 -0.0624  0.3137
 7238TIP3    H143129   3.199   5.366   6.070 -0.4854  1.0943 -2.2227
 7238TIP3    H243130   3.096   5.383   6.180  2.0512  0.6482  0.3487
 7239TIP3   OH243131   0.117   0.925   5.525  0.2930  0.6803 -0.3703
 7239TIP3    H143132   0.067   0.886   5.453  2.7982 -0.4569 -1.6133
 7239TIP3    H243133   0.118   1.018   5.505  0.4308  0.4551 -1.5159
 7240TIP3   OH243134   1.533   6.031  11.222 -0.2506  0.1003 -0.1039
 7240TIP3    H143135   1.601   5.983  11.269 -0.1778  0.0609 -0.2485
 7240TIP3    H243136   1.479   5.963  11.181  0.3126  0.1537 -0.9566
 7241TIP3   OH243137   4.963   1.485   3.639 -0.4840  0.1508  1.2545
 7241TIP3    H143138   4.973   1.563   3.585  1.6844 -0.5972  0.4846
 7241TIP3    H243139   4.939   1.416   3.577  0.2823 -0.3465  1.5045
 7242TIP3   OH243140   6.251   6.511  12.779  0.5608  0.2650  0.0125
 7242TIP3    H143141   6.304   6.438  12.747  0.9227  1.3943 -2.0752
 7242TIP3    H243142   6.313   6.580  12.800  0.0329  1.1502 -1.2465
 7243TIP3   OH243143   2.162   1.048   4.784  0.0536 -0.3628 -0.2829
 7243TIP3    H143144   2.198   1.034   4.872 -0.8001 -1.2462 -0.0568
 7243TIP3    H243145   2.235   1.084   4.734 -0.1111  2.5831  1.4011
 7244TIP3   OH243146   3.038   1.781  15.125  0.1690  0.1164  0.1645
 7244TIP3    H143147   2.979   1.851  15.097 -0.4904  0.7398  2.8521
 7244TIP3    H243148   2.993   1.738  15.197  1.0056 -2.4923 -0.7491
 7245TIP3   OH243149   0.608   3.936  11.436  0.2066  0.1050 -0.3209
 7245TIP3    H143150   0.557   3.972  11.509 -1.0703 -0.2718 -1.0022
 7245TIP3    H243151   0.650   4.012  11.396 -0.0502  0.4597  0.0750
 7246TIP3   OH243152   2.767   0.013   5.528 -0.1515 -0.2491  0.2514
 7246TIP3    H143153   2.801   0.099   5.504 -1.1808  0.4670  1.2306
 7246TIP3    H243154   2.766  -0.036   5.446 -0.2987  0.9334 -0.4874
 7247TIP3   OH243155   2.458   3.822  13.632  0.0456 -0.2315 -0.1106
 7247TIP3    H143156   2.509   3.785  13.705  1.2713  0.6693 -0.4761
 7247TIP3    H243157   2.475   3.762  13.559  2.0926  1.0199 -0.7238
 7248TIP3   OH243158   0.857   0.412   4.932  0.4549  1.0983 -0.1142
 7248TIP3    H143159   0.765   0.436   4.921 -0.3996 -2.0942 -0.8848
 7248TIP3    H243160   0.896   0.427   4.846  0.1502  0.5465 -0.3510
 7249TIP3   OH243161   3.552   5.003   1.557 -0.2433  0.1144  0.2828
 7249TIP3    H143162   3.490   5.003   1.484  0.1499 -4.0051 -0.3039
 7249TIP3    H243163   3.499   4.980   1.633 -0.2531  2.0891  0.9244
 7250TIP3   OH243164   3.817   5.570  14.137 -0.4492 -0.5609  0.5674
 7250TIP3    H143165   3.868   5.649  14.151  0.5616 -1.5606  3.0070
 7250TIP3    H243166   3.882   5.502  14.121 -1.0839 -1.5310  1.9551
 7251TIP3   OH243167   3.029   5.312  14.129  0.0561 -0.6891 -0.1723
 7251TIP3    H143168   2.956   5.367  14.101 -0.1214 -0.7337  0.1999
 7251TIP3    H243169   3.031   5.320  14.224  0.6711 -0.5180 -0.1915
 7252TIP3   OH243170   0.252   3.087   6.660  0.4071  0.5912  0.2154
 7252TIP3    H143171   0.340   3.126   6.655  0.6698 -0.1252 -1.1878
 7252TIP3    H243172   0.268   2.993   6.660 -0.3613  0.4595  0.1926
 7253TIP3   OH243173   6.553   2.313   2.139 -0.3248  0.6091  0.0530
 7253TIP3    H143174   6.543   2.294   2.233  1.0852  0.5375  0.2018
 7253TIP3    H243175   6.468   2.349   2.113 -0.6744  0.8150  1.4023
 7254TIP3   OH243176   0.135   5.692   1.152 -0.4480  0.5141  0.5369
 7254TIP3    H143177   0.039   5.690   1.146 -0.5254  0.8682  1.4053
 7254TIP3    H243178   0.155   5.781   1.180  0.1440  0.4590  0.2992
 7255TIP3   OH243179   0.315   0.333  15.342 -0.3839 -0.2765  0.3211
 7255TIP3    H143180   0.362   0.272  15.398 -0.2643 -0.9846 -0.5244
 7255TIP3    H243181   0.266   0.277  15.281  0.9457  0.4250 -1.4964
 7256TIP3   OH243182   4.152   0.610  15.204  0.3284 -0.1421  0.6934
 7256TIP3    H143183   4.066   0.652  15.203  0.1511 -0.0058  4.6623
 7256TIP3    H243184   4.214   0.680  15.185 -0.3184  0.2050 -0.1964
 7257TIP3   OH243185   1.644   1.156  13.491  0.3126 -0.4666 -0.6661
 7257TIP3    H143186   1.594   1.092  13.439 -0.5884 -0.7712  0.5373
 7257TIP3    H243187   1.709   1.103  13.537 -0.4968 -0.5502  0.4055
 7258TIP3   OH243188   5.122   3.076  12.245 -0.4470 -0.3041  0.1463
 7258TIP3    H143189   5.044   3.022  12.235 -0.4772 -0.4260  0.9667
 7258TIP3    H243190   5.194   3.013  12.254 -0.4696 -0.2181  1.0101
 7259TIP3   OH243191   3.732   3.105  11.184 -0.8260 -0.6907  0.3444
 7259TIP3    H143192   3.759   3.020  11.220 -0.4198 -0.5926  0.2719
 7259TIP3    H243193   3.701   3.085  11.096  2.5665 -0.3327 -1.0928
 7260TIP3   OH243194   5.443   6.567   0.425 -0.3710 -0.2437 -0.3247
 7260TIP3    H143195   5.527   6.529   0.398  0.0347  0.8901 -0.7337
 7260TIP3    H243196   5.432   6.643   0.368 -0.7608  0.7165  0.9881
 7261TIP3   OH243197   6.636   3.574  12.267 -0.0888 -1.2163 -0.5484
 7261TIP3    H143198   6.639   3.619  12.352 -2.7170 -1.2278 -0.3591
 7261TIP3    H243199   6.635   3.481  12.290 -1.5639 -1.2144 -0.4818
 7262TIP3   OH243200   0.986   6.529  12.326  0.3585  0.4108 -0.2935
 7262TIP3    H143201   0.926   6.555  12.256 -1.4958 -0.2242  0.9764
 7262TIP3    H243202   1.051   6.474  12.282 -1.5019 -1.0665 -1.3602
 7263TIP3   OH243203   3.845   4.726  12.034 -0.1784  0.4682  0.6160
 7263TIP3    H143204   3.860   4.739  11.940  0.9876  0.8215  0.8381
 7263TIP3    H243205   3.854   4.814  12.072  2.5884 -0.0666  1.4511
 7264TIP3   OH243206   6.782   4.983  12.223  0.5742 -0.3417 -0.1387
 7264TIP3    H143207   6.796   4.993  12.317 -1.7559 -0.6483  0.2848
 7264TIP3    H243208   6.852   4.924  12.195 -0.2043 -2.3934  1.9171
 7265TIP3   OH243209   2.218   4.438  14.861 -0.0695  0.2256  0.0039
 7265TIP3    H143210   2.206   4.344  14.846  0.5410  0.2179 -0.4993
 7265TIP3    H243211   2.156   4.480  14.802  0.1714  0.1464 -0.3091
 7266TIP3   OH243212   5.898   0.079   2.296  0.1930  0.1403  0.0020
 7266TIP3    H143213   5.857   0.083   2.382  0.1540 -1.4379  0.0859
 7266TIP3    H243214   5.977   0.134   2.305  0.1257  0.0998  0.9987
 7267TIP3   OH243215   6.759   4.672   6.368 -0.2799  0.0984  0.4454
 7267TIP3    H143216   6.708   4.751   6.354 -0.5931  0.5259  3.3779
 7267TIP3    H243217   6.843   4.703   6.402 -0.5726 -0.7937  2.0726
 7268TIP3   OH243218   5.854   1.590   4.612  0.1430 -0.0524  0.1981
 7268TIP3    H143219   5.760   1.601   4.601  0.2056  0.4366  0.1446
 7268TIP3    H243220   5.888   1.581   4.523  0.5280  2.9372 -0.0567
 7269TIP3   OH243221   0.785   1.233   3.452 -0.4130 -0.4448  0.2428
 7269TIP3    H143222   0.744   1.199   3.532  1.3344 -0.7856  1.0351
 7269TIP3    H243223   0.764   1.168   3.385 -1.0902 -0.6524  0.6470
 7270TIP3   OH243224   6.011   6.399  12.307  0.3596 -0.0172 -0.1405
 7270TIP3    H143225   6.038   6.434  12.222  0.0474 -0.0440 -0.2500
 7270TIP3    H243226   6.026   6.305  12.301 -1.6273 -0.3395 -0.9256
 7271TIP3   OH243227   0.512   3.561   5.067 -0.0532 -0.2218  0.2209
 7271TIP3    H143228   0.529   3.480   5.018  1.7006  0.0540  0.3137
 7271TIP3    H243229   0.437   3.600   5.022 -0.2294 -1.3463 -0.5187
 7272TIP3   OH243230   3.247   6.724  12.168 -0.4500  0.3476  0.4158
 7272TIP3    H143231   3.249   6.792  12.101  0.2510  0.0706  0.1504
 7272TIP3    H243232   3.331   6.679  12.160 -1.5761 -1.7018 -0.6436
 7273TIP3   OH243233   0.293   0.660  13.350  0.4735  0.1752  0.9517
 7273TIP3    H143234   0.210   0.654  13.398  0.8987 -0.0136  1.6716
 7273TIP3    H243235   0.287   0.743  13.303 -0.4234 -0.1666  0.4271
 7274TIP3   OH243236   1.719   0.385   4.537  0.3054  0.1113  0.0400
 7274TIP3    H143237   1.710   0.386   4.632  0.5373  1.9642  0.0830
 7274TIP3    H243238   1.641   0.430   4.505  1.2493  1.4464 -0.4900
 7275TIP3   OH243239   4.834   2.825  16.908  0.2619  0.1610 -0.2807
 7275TIP3    H143240   4.911   2.847  16.961 -0.0871  0.9743 -0.1010
 7275TIP3    H243241   4.781   2.905  16.909  0.1693  0.1348 -1.7098
 7276TIP3   OH243242   2.740   2.359  13.939  0.6817  0.1748  0.8596
 7276TIP3    H143243   2.776   2.277  13.904  1.5867  0.9453 -0.0463
 7276TIP3    H243244   2.777   2.365  14.027 -0.5071 -1.0734  1.4962
 7277TIP3   OH243245   2.618   2.378   4.889 -0.1783  0.1967  0.4402
 7277TIP3    H143246   2.679   2.444   4.923  0.9557 -0.7775  0.3689
 7277TIP3    H243247   2.543   2.428   4.858  0.7376  1.4772  0.2201
 7278TIP3   OH243248   4.675   1.669  16.234 -0.3810 -0.0066 -0.3577
 7278TIP3    H143249   4.756   1.714  16.210 -1.1541  0.7944 -1.6346
 7278TIP3    H243250   4.701   1.604  16.299  1.1538  0.7379 -0.1850
 7279TIP3   OH243251   3.795   1.847  17.128  0.0591 -0.1573  0.1843
 7279TIP3    H143252   3.855   1.892  17.186 -0.0994 -0.2680  0.4347
 7279TIP3    H243253   3.796   1.756  17.157 -0.1582 -0.1786  0.1294
 7280TIP3   OH243254   2.901   0.650   5.396 -0.3971 -0.2229 -0.0587
 7280TIP3    H143255   2.949   0.629   5.316  0.8460  0.4649  0.4666
 7280TIP3    H243256   2.950   0.723   5.435 -1.6827  0.2699  0.6999
 7281TIP3   OH243257   5.505   5.125  16.021  0.6056 -0.1009  0.0781
 7281TIP3    H143258   5.514   5.144  15.928  0.0424  0.1701  0.0728
 7281TIP3    H243259   5.577   5.174  16.063  1.2209 -0.6956 -0.2583
 7282TIP3   OH243260   5.942   5.434  16.687 -0.4698 -0.1537  0.1050
 7282TIP3    H143261   5.992   5.509  16.719 -0.2021  0.0982 -0.8797
 7282TIP3    H243262   6.009   5.371  16.659 -0.7014 -0.0500 -0.6809
 7283TIP3   OH243263   1.742   2.809  11.129  0.3370  0.1700  0.2620
 7283TIP3    H143264   1.746   2.904  11.122  0.1160  0.0697 -2.3264
 7283TIP3    H243265   1.759   2.778  11.040 -2.0307 -2.1372  0.4827
 7284TIP3   OH243266   0.734   0.929  15.761  0.2553  0.6269  0.6772
 7284TIP3    H143267   0.742   0.969  15.848 -1.4262  0.7897  0.7814
 7284TIP3    H243268   0.650   0.883  15.763 -0.1464  1.2057 -1.0800
 7285TIP3   OH243269   3.514   4.301   1.135  0.2245  0.2008  0.6809
 7285TIP3    H143270   3.492   4.338   1.050 -3.7121 -1.7969  0.6035
 7285TIP3    H243271   3.509   4.375   1.196 -0.0884  1.0738 -0.3792
 7286TIP3   OH243272   0.639   6.660  10.742  0.1121 -0.1158 -0.2323
 7286TIP3    H143273   0.591   6.584  10.710  0.1285 -0.3667  0.3321
 7286TIP3    H243274   0.652   6.715  10.664 -0.6598 -0.2722 -0.4763
 7287TIP3   OH243275   5.318   3.452  15.498  0.1078  0.2401 -0.1219
 7287TIP3    H143276   5.279   3.404  15.571  1.9218  0.4480  1.0511
 7287TIP3    H243277   5.379   3.390  15.458  0.9569  0.8804  0.1342
 7288TIP3   OH243278   5.390   5.907  12.598  0.4059 -0.7461  0.6661
 7288TIP3    H143279   5.390   5.999  12.627  2.0071 -0.9627  1.5067
 7288TIP3    H243280   5.314   5.868  12.640 -0.0227  0.0820  0.6828
 7289TIP3   OH243281   5.529   6.217   4.811  0.0148  0.4635 -0.3180
 7289TIP3    H143282   5.566   6.162   4.880 -0.2447  1.3426  0.5350
 7289TIP3    H243283   5.454   6.167   4.778  1.4112 -0.9543 -1.4994
 7290TIP3   OH243284   1.964   3.414  14.689 -0.2033  0.2464 -0.0999
 7290TIP3    H143285   1.986   3.450  14.603 -1.4700  0.6702 -0.2641
 7290TIP3    H243286   1.890   3.467  14.719  0.6302  0.5447  1.5549
 7291TIP3   OH243287   6.522   1.833  12.805 -0.4602  0.8117 -0.3894
 7291TIP3    H143288   6.579   1.763  12.773 -0.4487  0.6537 -0.0233
 7291TIP3    H243289   6.481   1.797  12.884  0.1508  1.4829  0.2595
 7292TIP3   OH243290   4.040   5.275   5.412 -0.2798  0.0993 -0.3524
 7292TIP3    H143291   4.078   5.301   5.495  0.4182 -1.7121 -0.0662
 7292TIP3    H243292   4.047   5.179   5.410 -0.5607  0.0597 -2.3524
 7293TIP3   OH243293   2.339   1.572  14.051 -0.2445 -0.1293  0.3853
 7293TIP3    H143294   2.388   1.632  14.108 -1.5806 -1.2818  2.9127
 7293TIP3    H243295   2.254   1.614  14.038  0.2175  0.3660 -1.2981
 7294TIP3   OH243296   1.333   0.480  14.382  0.4481 -0.1575  0.2042
 7294TIP3    H143297   1.238   0.484  14.388  0.2962  0.5129 -1.8801
 7294TIP3    H243298   1.362   0.454  14.470 -1.5707  0.8730  1.2352
 7295TIP3   OH243299   5.960   6.032   2.759  0.4614 -0.1100 -0.1471
 7295TIP3    H143300   6.035   5.984   2.794 -0.2290 -0.5240  0.8241
 7295TIP3    H243301   5.987   6.123   2.759  1.5353 -0.4097 -1.3368
 7296TIP3   OH243302   0.448   0.094  15.454  0.4690  0.2310 -0.7336
 7296TIP3    H143303   0.483   0.065  15.539  1.0997  0.3341 -0.9511
 7296TIP3    H243304   0.391   0.023  15.426  0.2329  0.2059 -0.2122
 7297TIP3   OH243305   3.939   5.897  11.985  0.2694 -0.0635  0.1490
 7297TIP3    H143306   3.984   5.822  11.946  0.9272  0.0659  0.6385
 7297TIP3    H243307   4.008   5.946  12.029 -0.1096  0.9755 -0.3722
 7298TIP3   OH243308   2.175   6.657   1.017 -1.0446 -0.2574  0.1577
 7298TIP3    H143309   2.236   6.669   0.945  0.5772  1.3270  1.6901
 7298TIP3    H243310   2.103   6.718   0.998 -0.1220  0.9299  0.3456
 7299TIP3   OH243311   2.054   1.258   4.150 -0.1327  0.4491  0.4884
 7299TIP3    H143312   1.984   1.294   4.096  0.9922  0.8025 -0.7757
 7299TIP3    H243313   2.059   1.166   4.124  0.1983  0.5419  0.2243
 7300TIP3   OH243314   0.068   4.387  15.457 -0.0060  0.2713 -0.1260
 7300TIP3    H143315   0.125   4.395  15.381  1.6057  2.6508  1.2118
 7300TIP3    H243316  -0.010   4.438  15.434  0.3497  0.7414 -0.3110
 7301TIP3   OH243317   6.016   2.953   0.010 -0.0284 -1.0275 -0.1542
 7301TIP3    H143318   6.054   3.002   0.082  0.2102  0.6078 -1.3460
 7301TIP3    H243319   5.922   2.949   0.030  0.1964 -1.6861  0.8384
 7302TIP3   OH243320   4.949   6.606  14.472  0.8108  0.4164 -0.1525
 7302TIP3    H143321   5.010   6.533  14.460 -1.3224 -1.3421 -1.0864
 7302TIP3    H243322   4.986   6.678  14.421  1.8743 -0.7420 -1.0584
 7303TIP3   OH243323   3.294   3.469   5.780 -0.3801  0.0143 -0.0199
 7303TIP3    H143324   3.372   3.429   5.820 -0.6009 -0.1549  0.2467
 7303TIP3    H243325   3.324   3.554   5.750  0.2698 -0.5884 -1.1675
 7304TIP3   OH243326   5.494   6.223  14.148 -0.1502 -0.1649  0.0791
 7304TIP3    H143327   5.411   6.224  14.101  0.1275  0.9568 -0.4177
 7304TIP3    H243328   5.505   6.312  14.180  1.4804  0.0763 -1.0018
 7305TIP3   OH243329   2.489   5.604  14.285 -0.3252  0.3534 -0.1317
 7305TIP3    H143330   2.429   5.676  14.303 -0.0578  0.8102 -0.9894
 7305TIP3    H243331   2.434   5.526  14.285 -0.3761  0.3130  2.3875
 7306TIP3   OH243332   5.155   0.737   3.371 -0.1471  0.1661 -0.0696
 7306TIP3    H143333   5.227   0.680   3.400  0.3362  1.0586  0.5228
 7306TIP3    H243334   5.156   0.810   3.433 -1.7660  0.0443  0.1211
 7307TIP3   OH243335   2.497   4.478   4.023  0.3307 -0.1086  0.1927
 7307TIP3    H143336   2.530   4.567   4.009 -1.0493  0.9224  2.7280
 7307TIP3    H243337   2.423   4.471   3.962  2.3626 -0.8310 -2.3655
 7308TIP3   OH243338   5.743   0.718   4.318  0.1012  0.2698  0.2130
 7308TIP3    H143339   5.688   0.647   4.349 -0.8320  1.3521  1.1214
 7308TIP3    H243340   5.683   0.792   4.305  1.0274  0.8825 -0.7834
 7309TIP3   OH243341   3.189   3.709   2.265  0.4154  0.2734  0.6818
 7309TIP3    H143342   3.257   3.701   2.332  0.5065  0.6868  0.6383
 7309TIP3    H243343   3.146   3.623   2.265 -0.5745  0.7230  2.3499
 7310TIP3   OH243344   2.616   1.141   5.894 -0.1512 -1.0403  0.3825
 7310TIP3    H143345   2.540   1.187   5.929 -1.5244 -2.0787 -1.0348
 7310TIP3    H243346   2.690   1.198   5.913 -1.5922  1.2117 -0.2841
 7311TIP3   OH243347   4.984   2.859   1.518 -0.0884 -0.0264 -0.3430
 7311TIP3    H143348   5.073   2.881   1.490 -0.3818  1.3702 -0.2622
 7311TIP3    H243349   4.931   2.865   1.438 -0.4694  1.3291 -0.0107
 7312TIP3   OH243350   4.010   3.892   0.168 -0.3445  0.3995 -0.2296
 7312TIP3    H143351   4.092   3.842   0.164  0.2552  1.3405  0.0407
 7312TIP3    H243352   3.993   3.920   0.078 -0.7856 -0.4282 -0.4165
 7313TIP3   OH243353   1.659   4.540   4.098  0.2018 -0.0752  0.2936
 7313TIP3    H143354   1.675   4.551   4.004  1.0926  3.0052  0.6928
 7313TIP3    H243355   1.658   4.446   4.111 -2.1819 -0.7447 -3.1461
 7314TIP3   OH243356   2.207   6.404  14.653 -0.2854 -0.2082 -0.2610
 7314TIP3    H143357   2.181   6.491  14.681 -1.8610 -0.2821 -1.3937
 7314TIP3    H243358   2.273   6.420  14.585  1.5616 -0.0027  1.4635
 7315TIP3   OH243359   0.640   6.118  12.398  0.1438 -0.2126 -0.0361
 7315TIP3    H143360   0.714   6.177  12.412 -1.2648  1.6717 -0.1871
 7315TIP3    H243361   0.678   6.043  12.352  2.0896  0.3054  0.6175
 7316TIP3   OH243362   5.196   6.531   0.285  0.3436 -0.4287 -0.1768
 7316TIP3    H143363   5.242   6.476   0.221 -1.0733 -0.4962 -1.1676
 7316TIP3    H243364   5.265   6.557   0.347  2.1903  1.0756 -2.6420
 7317TIP3   OH243365   6.400   4.640  14.158 -0.1517 -0.4775  0.0580
 7317TIP3    H143366   6.462   4.670  14.092 -0.4530  1.1857  0.4751
 7317TIP3    H243367   6.453   4.597  14.225  0.2571 -1.2535 -0.7437
 7318TIP3   OH243368   0.457   1.057  13.444 -0.0696  0.1118  0.4791
 7318TIP3    H143369   0.536   1.004  13.456  0.0407  0.7847  3.3437
 7318TIP3    H243370   0.485   1.146  13.465 -1.2787  0.6007  0.0959
 7319TIP3   OH243371   4.133   4.836   5.213 -0.2223 -0.1400  0.3591
 7319TIP3    H143372   4.188   4.781   5.156 -1.4630 -0.2658 -0.7738
 7319TIP3    H243373   4.091   4.773   5.272 -2.1188 -0.6079 -1.3327
 7320TIP3   OH243374   5.614   4.818  15.922  0.0624 -0.3162  0.4001
 7320TIP3    H143375   5.544   4.849  15.865  1.3109 -0.5759 -1.3580
 7320TIP3    H243376   5.663   4.898  15.944  1.3782 -0.5086 -1.4987
 7321TIP3   OH243377   1.338   3.213   6.737 -0.3964 -0.9236 -0.0188
 7321TIP3    H143378   1.311   3.176   6.652 -1.3826  1.0049 -0.5999
 7321TIP3    H243379   1.259   3.254   6.772  0.9192  2.1013 -0.2565
 7322TIP3   OH243380   0.547   5.753  13.260  0.0785  0.0916  0.3281
 7322TIP3    H143381   0.523   5.680  13.203 -0.5492  0.1551  0.5033
 7322TIP3    H243382   0.637   5.775  13.235  0.9804 -1.9571  1.5267
 7323TIP3   OH243383   6.568   3.758  13.557  0.4079  0.4529  0.3170
 7323TIP3    H143384   6.478   3.787  13.572 -0.5857 -2.0312 -0.3262
 7323TIP3    H243385   6.621   3.836  13.570 -1.9534  2.3397 -0.7339
 7324TIP3   OH243386   0.434   1.226   3.782 -0.5270  0.3458  0.1129
 7324TIP3    H143387   0.387   1.179   3.713 -1.4225 -0.3823  1.1834
 7324TIP3    H243388   0.504   1.165   3.808 -1.3376 -0.1829  1.1090
 7325TIP3   OH243389   4.120   0.914   5.326  0.2737  0.3841  0.3095
 7325TIP3    H143390   4.197   0.902   5.272 -0.1169 -2.8312  0.2926
 7325TIP3    H243391   4.058   0.847   5.297 -1.3852  0.9238  2.2762
 7326TIP3   OH243392   5.534   2.517   0.689 -0.3538  0.5860 -0.0408
 7326TIP3    H143393   5.603   2.455   0.667  0.2906  0.9467  0.8904
 7326TIP3    H243394   5.540   2.585   0.622 -0.2699  0.2618 -0.3652
 7327TIP3   OH243395   0.159   2.249  12.147  0.7889 -0.2830  0.1468
 7327TIP3    H143396   0.092   2.251  12.216  1.3455  2.5401  0.7288
 7327TIP3    H243397   0.118   2.201  12.075 -0.7876 -1.0328  1.4796
 7328TIP3   OH243398   2.131   5.172  17.135  0.2419 -0.4956  0.0510
 7328TIP3    H143399   2.039   5.196  17.136 -0.4564 -2.8916 -0.8196
 7328TIP3    H243400   2.163   5.193  17.223 -0.7961  1.4092  0.0130
 7329TIP3   OH243401   0.226   5.365  11.211 -0.0582  0.4133  0.4821
 7329TIP3    H143402   0.183   5.388  11.128  2.4403 -1.9461 -1.6553
 7329TIP3    H243403   0.248   5.450  11.250  2.3701  1.8249 -3.4027
 7330TIP3   OH243404   0.580   2.816   0.511  0.7222  0.4402  0.6907
 7330TIP3    H143405   0.648   2.883   0.517  0.5186  0.5809  1.5830
 7330TIP3    H243406   0.500   2.864   0.492  0.8370  0.2825 -0.2699
 7331TIP3   OH243407   1.723   4.368  16.207  0.1399  0.0780 -0.2961
 7331TIP3    H143408   1.775   4.440  16.172 -0.1213  0.3248 -0.1798
 7331TIP3    H243409   1.636   4.380  16.169 -0.1305  0.3091  0.3648
 7332TIP3   OH243410   4.709   3.070  16.890 -0.4743 -0.2173 -0.2107
 7332TIP3    H143411   4.703   3.085  16.984  0.6512  1.6322 -0.3726
 7332TIP3    H243412   4.622   3.092  16.857 -0.6621 -0.1400  0.3309
 7333TIP3   OH243413   1.919   6.228  12.488 -0.3036 -0.5515  0.1480
 7333TIP3    H143414   1.941   6.302  12.433 -1.8908  0.5249  0.8956
 7333TIP3    H243415   1.998   6.213  12.541  0.1956  0.2966 -0.3409
 7334TIP3   OH243416   0.454   0.674  14.460  0.4571 -0.2300 -0.2036
 7334TIP3    H143417   0.432   0.747  14.517 -0.3273 -0.7950  0.2393
 7334TIP3    H243418   0.488   0.606  14.519 -0.9971 -1.0734 -0.2657
 7335TIP3   OH243419   6.532   0.050   3.033 -0.3290  0.9001  0.3138
 7335TIP3    H143420   6.586   0.126   3.053  0.3006  0.4709  0.2545
 7335TIP3    H243421   6.469   0.046   3.106  0.4660  0.7166  1.0006
 7336TIP3   OH243422   1.641   5.047   3.283 -0.0987  0.0492 -0.7111
 7336TIP3    H143423   1.566   5.031   3.225 -0.6139  0.9387 -0.3128
 7336TIP3    H243424   1.704   5.094   3.228 -0.5751  0.8683 -0.5728
 7337TIP3   OH243425   5.290   4.312   4.853 -0.0036  0.5326  0.0668
 7337TIP3    H143426   5.214   4.273   4.811  0.1842 -2.0521  1.9617
 7337TIP3    H243427   5.269   4.315   4.946  1.6268  1.1791  0.4621
 7338TIP3   OH243428   6.780   4.056   0.172 -0.2087  0.2602  0.2604
 7338TIP3    H143429   6.693   4.031   0.141 -0.7066  0.2178  1.6250
 7338TIP3    H243430   6.827   4.083   0.093 -1.5342  0.5099 -0.4696
 7339TIP3   OH243431   6.519   2.951  11.344  0.2857 -0.0577 -1.1099
 7339TIP3    H143432   6.595   3.008  11.337 -1.1608  2.1484 -0.0172
 7339TIP3    H243433   6.473   2.981  11.422 -0.3490 -3.1050 -0.1523
 7340TIP3   OH243434   6.631   6.405   3.867  0.0931 -0.1345 -0.2566
 7340TIP3    H143435   6.624   6.329   3.924  1.1274  0.0984  0.2034
 7340TIP3    H243436   6.546   6.449   3.874 -0.5889 -1.3301 -0.6842
 7341TIP3   OH243437   0.373   1.831   1.884 -0.0658  0.2616  0.6180
 7341TIP3    H143438   0.456   1.807   1.924 -0.1088  0.4900  0.8470
 7341TIP3    H243439   0.340   1.749   1.846  0.1681  0.1306  0.6963
 7342TIP3   OH243440   4.894   1.643  15.887  0.1359 -0.3335  0.6024
 7342TIP3    H143441   4.807   1.603  15.889 -0.3697  0.6993  0.0245
 7342TIP3    H243442   4.902   1.686  15.972 -0.8875  1.5134 -0.1903
 7343TIP3   OH243443   6.351   6.254  15.598  0.2650 -0.9795 -0.0790
 7343TIP3    H143444   6.376   6.179  15.544  0.3626 -1.1335  0.1798
 7343TIP3    H243445   6.426   6.268  15.655  2.3554  2.2536 -3.1733
 7344TIP3   OH243446   4.220   1.687   0.009  0.0254  0.7892 -0.0808
 7344TIP3    H143447   4.174   1.631  -0.054 -0.7287 -0.5400  1.5997
 7344TIP3    H243448   4.305   1.643   0.022 -1.5689 -1.7399  3.3258
 7345TIP3   OH243449   1.659   4.277   6.231  0.3841 -0.8264 -0.4857
 7345TIP3    H143450   1.630   4.338   6.164  1.6259  2.4140  1.7066
 7345TIP3    H243451   1.754   4.273   6.221  0.8683  1.3520  2.1659
 7346TIP3   OH243452   2.555   6.123  15.759 -0.5434  0.1703  1.1714
 7346TIP3    H143453   2.568   6.057  15.826 -0.4312 -1.0207  0.0224
 7346TIP3    H243454   2.461   6.121  15.740 -0.6261  0.7202  1.4825
 7347TIP3   OH243455   0.272   0.049  13.554 -0.2785 -0.2140 -0.4868
 7347TIP3    H143456   0.321   0.073  13.475  0.4811  1.8729  0.5377
 7347TIP3    H243457   0.339   0.020  13.616 -0.6380 -0.0447 -0.0088
 7348TIP3   OH243458   0.815   0.736   2.290  0.4786  0.0732  0.0394
 7348TIP3    H143459   0.724   0.710   2.308 -0.1282  0.4473 -2.2097
 7348TIP3    H243460   0.868   0.668   2.331 -0.8863 -1.1768 -0.1865
 7349TIP3   OH243461   2.897   4.356  16.869 -0.8601 -0.0146  0.3479
 7349TIP3    H143462   2.806   4.345  16.843 -0.9579 -0.8379  0.9996
 7349TIP3    H243463   2.898   4.340  16.963 -0.3192  1.7697  0.6700
 7350TIP3   OH243464   5.286   6.123  14.579  0.3021 -0.4592  0.8700
 7350TIP3    H143465   5.298   6.032  14.603  1.6613 -1.0946 -1.7979
 7350TIP3    H243466   5.370   6.150  14.542 -0.6400  1.2642 -0.1897
 7351TIP3   OH243467   5.648   1.374   4.656 -0.3388 -0.1906  0.1272
 7351TIP3    H143468   5.617   1.456   4.694 -0.6434  0.9718 -2.4286
 7351TIP3    H243469   5.743   1.381   4.658 -0.3530 -0.1696  0.7344
 7352TIP3   OH243470   5.087   4.201   4.686  0.0366  0.7753 -0.0256
 7352TIP3    H143471   5.084   4.265   4.615  1.8575  1.4311  0.4260
 7352TIP3    H243472   5.115   4.120   4.644 -0.2126  0.8134 -0.2674
 7353TIP3   OH243473   6.757   3.008   4.207  0.4626 -0.1547  0.1905
 7353TIP3    H143474   6.679   2.971   4.247  1.1611 -2.9149 -0.7229
 7353TIP3    H243475   6.827   2.993   4.271  1.0748 -2.1565 -0.8471
 7354TIP3   OH243476   2.330   3.533   5.041 -0.0506  0.0718  0.0598
 7354TIP3    H143477   2.397   3.551   5.107  0.7501  0.6872 -0.8894
 7354TIP3    H243478   2.377   3.534   4.958 -1.5669  2.9801 -0.8976
 7355TIP3   OH243479   0.334   0.758   0.315 -0.2580  0.1063 -0.8561
 7355TIP3    H143480   0.266   0.822   0.293  0.5649 -0.1121 -4.7585
 7355TIP3    H243481   0.302   0.675   0.280  0.6271 -0.6996  0.1588
 7356TIP3   OH243482   2.266   1.908   2.754 -0.0209  0.0507  0.6091
 7356TIP3    H143483   2.315   1.913   2.837 -1.8655  0.5114  1.7350
 7356TIP3    H243484   2.306   1.975   2.699  1.5694 -0.5947  0.9233
 7357TIP3   OH243485   5.022   0.729  11.770 -0.3077 -0.0503 -0.2842
 7357TIP3    H143486   5.044   0.781  11.847 -0.6878 -0.7242  0.3006
 7357TIP3    H243487   4.958   0.783  11.722 -1.2816 -0.2720  0.7089
 7358TIP3   OH243488   5.080   5.123   6.003 -0.3307 -0.5514 -0.3841
 7358TIP3    H143489   5.016   5.097   6.069 -1.0320 -0.5350 -1.0455
 7358TIP3    H243490   5.071   5.218   5.996 -0.6462 -0.6148 -0.8886
 7359TIP3   OH243491   4.289   2.358   2.602 -0.2040  0.1333  0.1833
 7359TIP3    H143492   4.336   2.347   2.519 -1.0342  1.1127 -0.4415
 7359TIP3    H243493   4.328   2.292   2.660 -0.7746 -1.7625 -1.4731
 7360TIP3   OH243494   2.374   6.224  13.342 -0.7892 -0.7812  0.0141
 7360TIP3    H143495   2.441   6.211  13.275 -1.0613  1.2696 -0.7199
 7360TIP3    H243496   2.391   6.311  13.376 -2.5958 -0.5255  0.3594
 7361TIP3   OH243497   0.063   5.218   4.943  0.2268  0.0261  0.0417
 7361TIP3    H143498   0.091   5.290   5.000 -0.2424 -1.3180  2.1068
 7361TIP3    H243499   0.009   5.259   4.876  0.9168  1.7073  0.4689
 7362TIP3   OH243500   3.461   1.028   4.600 -0.2274  0.4786  0.2954
 7362TIP3    H143501   3.555   1.045   4.607 -0.1019  0.0457 -0.3292
 7362TIP3    H243502   3.428   1.040   4.690  0.5665 -0.2579  0.6942
 7363TIP3   OH243503   5.180   1.376  11.294 -0.2383 -0.1866  0.0685
 7363TIP3    H143504   5.221   1.291  11.309 -0.1335 -0.4348 -1.5296
 7363TIP3    H243505   5.234   1.418  11.228 -0.6162  0.9054  0.4346
 7364TIP3   OH243506   4.729   0.853  12.861 -0.0894  0.0113 -0.5388
 7364TIP3    H143507   4.774   0.773  12.887  0.6900  0.6010 -0.0375
 7364TIP3    H243508   4.714   0.843  12.767 -0.2376 -0.8349 -0.4273
 7365TIP3   OH243509   3.028   4.084  14.101  0.0189  0.6188  0.0790
 7365TIP3    H143510   3.021   4.137  14.180 -0.2852  1.3185 -0.4122
 7365TIP3    H243511   2.979   4.004  14.122 -0.4386  0.9889  0.4423
 7366TIP3   OH243512   4.279   1.048  12.574 -0.2713  0.0336 -0.0819
 7366TIP3    H143513   4.192   1.075  12.603 -0.2800 -0.6689  0.5891
 7366TIP3    H243514   4.315   1.125  12.530 -2.0894 -0.3216 -2.3884
 7367TIP3   OH243515   5.277   5.144  15.532 -0.4895 -0.1649  0.2511
 7367TIP3    H143516   5.269   5.135  15.437 -2.6404  3.5831 -0.1126
 7367TIP3    H243517   5.195   5.109  15.567  0.1841 -1.2867  0.7836
 7368TIP3   OH243518   6.464   5.999  16.210  0.8831 -0.5375  0.1207
 7368TIP3    H143519   6.390   5.938  16.219  1.9610 -1.9222 -0.1379
 7368TIP3    H243520   6.458   6.055  16.287  0.0356 -1.1548  0.5186
 7369TIP3   OH243521   0.779   2.285   2.325  0.0861 -0.1018 -0.3330
 7369TIP3    H143522   0.687   2.274   2.303  0.2498  1.1914 -1.8198
 7369TIP3    H243523   0.791   2.231   2.403 -1.8838 -0.3988 -0.1765
 7370TIP3   OH243524   3.185   6.590   1.155 -0.5797 -0.3114  0.4898
 7370TIP3    H143525   3.147   6.667   1.198 -0.6525 -0.7564  1.2367
 7370TIP3    H243526   3.171   6.606   1.062 -0.0987  0.8360  0.5956
 7371TIP3   OH243527   1.909   2.837  12.044 -0.2796  0.1850 -0.1727
 7371TIP3    H143528   1.968   2.904  12.011  0.9894 -0.7996 -0.0133
 7371TIP3    H243529   1.967   2.774  12.088 -1.6408  0.1704  1.7356
 7372TIP3   OH243530   2.678   4.006   1.004 -0.0567 -0.3282  0.2495
 7372TIP3    H143531   2.636   4.039   1.084 -0.1693 -1.2001  0.5600
 7372TIP3    H243532   2.721   3.925   1.032  2.1409  0.7043  0.0149
 7373TIP3   OH243533   4.717   6.569   1.752  0.1381  0.2178 -0.2086
 7373TIP3    H143534   4.787   6.614   1.704 -0.9181  0.1086 -1.9489
 7373TIP3    H243535   4.686   6.501   1.691 -1.6025  0.3860  0.4246
 7374TIP3   OH243536   4.046   1.541   4.906 -0.1840 -0.0923  0.7476
 7374TIP3    H143537   4.013   1.550   4.817  0.7289 -0.3250  0.3839
 7374TIP3    H243538   4.056   1.447   4.919  0.3801 -0.0185  0.8472
 7375TIP3   OH243539   5.326   6.577  10.937  0.3483  0.1647 -0.0482
 7375TIP3    H143540   5.364   6.544  11.018 -0.0568 -2.5985 -0.9035
 7375TIP3    H243541   5.399   6.582  10.876  0.1036 -0.9728 -0.4477
 7376TIP3   OH243542   2.125   6.214   4.884  0.4923  0.4498 -0.7151
 7376TIP3    H143543   2.206   6.253   4.917  0.5105  0.8174 -1.1904
 7376TIP3    H243544   2.056   6.275   4.911  0.1107 -0.8476  1.4444
 7377TIP3   OH243545   0.981   5.995   4.753  0.1726  0.4935 -0.4185
 7377TIP3    H143546   1.002   6.073   4.804  2.8481  0.4943 -1.3657
 7377TIP3    H243547   0.939   5.936   4.815 -0.1396  1.9438  0.7939
 7378TIP3   OH243548   5.308   4.624  16.348 -0.5060 -0.4655  0.0539
 7378TIP3    H143549   5.244   4.694  16.333  0.2196  0.0155 -0.8994
 7378TIP3    H243550   5.349   4.610  16.263  2.6792  1.2874  1.1443
 7379TIP3   OH243551   2.954   2.211   0.140  0.0042 -0.2252  0.4149
 7379TIP3    H143552   2.886   2.146   0.123 -0.7346  0.6118  0.1053
 7379TIP3    H243553   2.968   2.254   0.056  0.9422 -0.4027  0.4707
 7380TIP3   OH243554   2.499   1.816  14.498  0.4451  0.4836  0.2295
 7380TIP3    H143555   2.458   1.790  14.416 -1.4695 -0.4400  1.4257
 7380TIP3    H243556   2.575   1.758  14.506  0.4485  0.3460 -0.7075
 7381TIP3   OH243557   0.908   4.553  15.342 -0.2382  0.4707 -0.7404
 7381TIP3    H143558   0.829   4.501  15.359  0.5540 -1.0953 -1.6205
 7381TIP3    H243559   0.943   4.573  15.429 -1.7934  1.5537 -0.3216
 7382TIP3   OH243560   0.369   1.085   1.597 -0.4161  0.0956  0.7143
 7382TIP3    H143561   0.372   1.001   1.550 -0.5725 -0.1060  1.0616
 7382TIP3    H243562   0.327   1.145   1.535 -1.7153 -0.4587  1.0181
 7383TIP3   OH243563   5.120   4.744  12.335 -0.0254  0.3311  0.3656
 7383TIP3    H143564   5.122   4.652  12.362  2.6075  0.1573 -0.1488
 7383TIP3    H243565   5.120   4.792  12.418  0.0723 -0.1524  0.6546
 7384TIP3   OH243566   3.773   6.654   1.923 -0.1181 -0.4047  0.1380
 7384TIP3    H143567   3.829   6.615   1.856  0.7899 -1.1096  1.2631
 7384TIP3    H243568   3.773   6.590   1.994  0.3429  1.0482  1.5143
 7385TIP3   OH243569   2.570   3.650   3.040 -0.4698  0.1720  0.2316
 7385TIP3    H143570   2.512   3.661   2.965  0.1285  0.0683 -0.2507
 7385TIP3    H243571   2.636   3.587   3.011 -1.1793 -1.1528  1.3978
 7386TIP3   OH243572   2.305   4.272   1.719 -0.1282 -0.1897 -0.3802
 7386TIP3    H143573   2.355   4.194   1.697  1.1902  0.6076 -0.2946
 7386TIP3    H243574   2.350   4.343   1.673 -2.6581  0.2638 -2.4296
 7387TIP3   OH243575   4.085   2.741   3.017 -0.1350 -0.0713  0.3454
 7387TIP3    H143576   4.073   2.648   3.036  0.1879  0.1344  1.6798
 7387TIP3    H243577   4.156   2.768   3.075  1.1054  0.5884 -1.3845
 7388TIP3   OH243578   4.849   4.580  13.799  0.2095 -0.1263 -0.1052
 7388TIP3    H143579   4.925   4.637  13.795 -0.3464  0.6376 -0.0650
 7388TIP3    H243580   4.774   4.639  13.785 -0.7155 -0.0723  3.8904
 7389TIP3   OH243581   2.304   6.399  13.876 -0.3478  0.5703 -0.6939
 7389TIP3    H143582   2.383   6.450  13.894  1.2996 -1.8554 -0.5286
 7389TIP3    H243583   2.240   6.432  13.939  1.7025  0.1642  1.7876
 7390TIP3   OH243584   0.798   5.362   4.706  0.1510 -0.4074  0.5577
 7390TIP3    H143585   0.880   5.361   4.755  0.9571 -1.5686 -0.7544
 7390TIP3    H243586   0.803   5.285   4.649 -0.5610  1.0460 -1.5961
 7391TIP3   OH243587   0.914   6.174  16.410 -0.3253 -0.4755  0.2931
 7391TIP3    H143588   1.005   6.159  16.383 -0.3528  0.1338 -0.1364
 7391TIP3    H243589   0.863   6.110  16.360  0.0615 -2.3447  2.1197
 7392TIP3   OH243590   0.360   3.169   1.205  0.1432  0.1996  0.2882
 7392TIP3    H143591   0.434   3.129   1.252 -0.4902 -0.9540  0.3394
 7392TIP3    H243592   0.328   3.099   1.148 -0.5493  0.8773 -0.1692
 7393TIP3   OH243593   0.588   0.394  15.935 -0.1882 -0.2802 -0.4446
 7393TIP3    H143594   0.627   0.316  15.894 -1.8936 -1.9703  0.9399
 7393TIP3    H243595   0.508   0.409  15.884  0.7535  1.4639 -1.5313
 7394TIP3   OH243596   2.327   2.461  16.424 -0.9277  0.1779  0.4210
 7394TIP3    H143597   2.395   2.466  16.491  0.8722  0.5296 -1.3287
 7394TIP3    H243598   2.250   2.500  16.465  0.1292  0.5019  2.2168
 7395TIP3   OH243599   4.953   6.156  17.074  0.4438  0.9996 -0.4877
 7395TIP3    H143600   5.005   6.202  17.139  1.7618 -0.7598 -0.2390
 7395TIP3    H243601   5.005   6.161  16.993 -1.1596  3.1445 -1.4876
 7396TIP3   OH243602   2.861   4.903   4.609  0.0465 -0.6083 -0.0581
 7396TIP3    H143603   2.786   4.861   4.566  0.1273  1.2096 -2.1844
 7396TIP3    H243604   2.826   4.940   4.689 -1.5953  0.8635 -1.3701
 7397TIP3   OH243605   6.252   0.827   0.618 -0.2306  0.1933  0.0158
 7397TIP3    H143606   6.268   0.773   0.541  0.8710 -0.3330  0.5833
 7397TIP3    H243607   6.194   0.897   0.587 -0.6299 -0.5741 -1.0365
 7398TIP3   OH243608   4.336   1.059   3.280 -0.3840  0.0706 -0.1171
 7398TIP3    H143609   4.318   1.147   3.312 -0.1329  0.1747 -0.2606
 7398TIP3    H243610   4.428   1.044   3.302 -0.2362  0.1021 -0.6987
 7399TIP3   OH243611   6.657   5.306   5.727  0.0881  0.4550  0.4018
 7399TIP3    H143612   6.730   5.252   5.696  1.8098  2.8483 -0.0738
 7399TIP3    H243613   6.645   5.281   5.818  0.5817 -0.9276  0.1077
 7400TIP3   OH243614   1.553   1.950  13.434 -0.3829  0.5524  0.4242
 7400TIP3    H143615   1.500   1.874  13.409  2.9719 -2.2630  1.0549
 7400TIP3    H243616   1.606   1.968  13.357  0.2156  0.9775  0.9286
 7401TIP3   OH243617   5.359   3.712  12.630  0.1436  0.2193 -0.2060
 7401TIP3    H143618   5.398   3.680  12.549  1.1408  2.7067 -0.7847
 7401TIP3    H243619   5.279   3.756  12.602 -0.2289 -0.0927  0.3445
 7402TIP3   OH243620   0.016   5.135   2.237  0.3987  0.3928 -0.1224
 7402TIP3    H143621  -0.048   5.203   2.214  1.1456  1.4151  0.7560
 7402TIP3    H243622   0.020   5.137   2.332  2.7399  1.3271 -0.1699
 7403TIP3   OH243623   5.741   5.673  11.860 -0.0552 -0.5437  0.2903
 7403TIP3    H143624   5.688   5.595  11.873  0.5320 -0.7388  1.6388
 7403TIP3    H243625   5.791   5.682  11.941  0.7576  0.5623 -0.3119
 7404TIP3   OH243626   5.353   2.437   2.740  0.4557 -0.5253  0.3700
 7404TIP3    H143627   5.301   2.364   2.705 -0.8956  0.3508  0.4971
 7404TIP3    H243628   5.366   2.415   2.833  1.8918 -1.6176 -0.0523
 7405TIP3   OH243629   5.204   3.107  13.269 -0.4782  0.0114 -0.1510
 7405TIP3    H143630   5.291   3.076  13.292  0.4307  1.0877 -1.9327
 7405TIP3    H243631   5.182   3.058  13.189 -1.1111  0.4160 -0.2308
 7406TIP3   OH243632   4.258   3.377  15.917 -0.0827 -0.0978  0.8321
 7406TIP3    H143633   4.342   3.343  15.886  0.1966  1.5092 -0.2921
 7406TIP3    H243634   4.281   3.424  15.998  0.0039 -0.1496  0.8389
 7407TIP3   OH243635   2.836   3.532  16.594 -0.3876 -0.0425 -0.2425
 7407TIP3    H143636   2.864   3.613  16.636 -0.2905  0.2452 -0.8550
 7407TIP3    H243637   2.912   3.475  16.598 -0.0511  0.3561 -0.9534
 7408TIP3   OH243638   4.194   4.715  13.388 -0.3708  0.0018  0.1473
 7408TIP3    H143639   4.254   4.649  13.353 -0.2594 -0.0300  0.3961
 7408TIP3    H243640   4.117   4.665  13.416  0.0490 -0.1289  1.0994
 7409TIP3   OH243641   0.338   6.076   0.067  0.4263 -0.1814  0.1784
 7409TIP3    H143642   0.408   6.028   0.024  0.8195  0.3443  0.2225
 7409TIP3    H243643   0.343   6.164   0.031  0.1956  0.0295  0.6511
 7410TIP3   OH243644   1.285   2.647   2.164  0.4419 -0.0973 -0.1911
 7410TIP3    H143645   1.190   2.658   2.158  0.3609 -0.7371 -0.2287
 7410TIP3    H243646   1.310   2.692   2.245  0.1068  0.0703 -0.1801
 7411TIP3   OH243647   4.493   4.894  16.403 -0.9092  0.4011 -0.3170
 7411TIP3    H143648   4.405   4.911  16.370 -1.2935 -0.3808  0.2885
 7411TIP3    H243649   4.527   4.826  16.345 -1.5551 -0.9165  0.7891
 7412TIP3   OH243650   4.162   0.403   1.354 -0.4145  0.0232 -0.1720
 7412TIP3    H143651   4.084   0.390   1.408 -0.7615 -1.0254 -0.8948
 7412TIP3    H243652   4.233   0.364   1.404 -1.2050 -3.7067 -1.6677
 7413TIP3   OH243653   5.203   6.454  14.409 -0.0237  0.3650 -0.1652
 7413TIP3    H143654   5.297   6.465  14.394  0.4744  1.5210  2.9222
 7413TIP3    H243655   5.162   6.509  14.343  1.5882  1.3129 -0.4410
 7414TIP3   OH243656   3.377   6.427  15.909 -0.1278  0.2894  0.2804
 7414TIP3    H143657   3.399   6.394  15.996 -1.1416  0.9423  0.8003
 7414TIP3    H243658   3.324   6.358  15.870 -0.0529  0.1885  0.3562
 7415TIP3   OH243659   1.455   3.285  14.010  0.2005 -0.1077  0.4197
 7415TIP3    H143660   1.414   3.199  14.019 -0.2214  0.1177  0.6639
 7415TIP3    H243661   1.392   3.337  13.962 -1.2277  1.1653  3.4454
 7416TIP3   OH243662   6.657   5.229  10.921 -0.5605  0.0471 -0.2913
 7416TIP3    H143663   6.697   5.149  10.887  2.0606  1.1275  0.0271
 7416TIP3    H243664   6.607   5.200  10.998 -0.7042 -1.4211 -0.9009
 7417TIP3   OH243665   4.525   0.517   5.880 -0.4236 -0.7202  0.4205
 7417TIP3    H143666   4.432   0.532   5.865 -0.3035 -1.0532 -0.7251
 7417TIP3    H243667   4.529   0.487   5.971 -1.1730  1.3968  1.2283
 7418TIP3   OH243668   1.077   5.526   1.172 -0.0646  0.6902  0.5052
 7418TIP3    H143669   1.030   5.518   1.255  1.3463  4.3723  1.8946
 7418TIP3    H243670   1.009   5.532   1.106 -1.4242  1.5390  1.9121
 7419TIP3   OH243671   3.402   3.536  16.566  0.5744  0.1750  0.1234
 7419TIP3    H143672   3.496   3.551  16.576  0.8942 -0.1865 -1.9458
 7419TIP3    H243673   3.364   3.624  16.559  0.9873  0.2897 -0.7407
 7420TIP3   OH243674   4.177   2.955  16.001 -0.3100 -1.1490  0.8078
 7420TIP3    H143675   4.236   2.921  15.934  1.8032  0.6657  1.6246
 7420TIP3    H243676   4.158   2.880  16.057  0.7356 -1.9208  0.1647
 7421TIP3   OH243677   0.385   3.261   3.985 -0.3197 -0.6117  0.0228
 7421TIP3    H143678   0.454   3.315   4.024  0.1989 -0.3443 -1.2321
 7421TIP3    H243679   0.429   3.180   3.961 -0.4090 -0.4086 -0.8603
 7422TIP3   OH243680   5.846   1.906  12.437 -0.2654 -0.1713  0.0744
 7422TIP3    H143681   5.881   1.932  12.522 -0.4473 -0.2039  0.1605
 7422TIP3    H243682   5.820   1.988  12.395  0.9955 -0.0323 -0.4808
 7423TIP3   OH243683   4.236   5.769   5.733  0.6711 -0.2891  0.2465
 7423TIP3    H143684   4.325   5.765   5.697  1.0420 -1.1890  1.2069
 7423TIP3    H243685   4.241   5.716   5.812 -0.3285  0.9950  1.1894
 7424TIP3   OH243686   4.808   5.282   5.603 -0.3344  0.0981 -0.4711
 7424TIP3    H143687   4.743   5.214   5.581  1.5944 -2.0804  0.1357
 7424TIP3    H243688   4.756   5.361   5.618 -3.0599 -1.9004  1.6558
 7425TIP3   OH243689   1.391   1.664   3.877 -0.0550 -0.2694  0.8672
 7425TIP3    H143690   1.464   1.647   3.937  0.3658  3.4722  1.6695
 7425TIP3    H243691   1.320   1.692   3.934 -0.9336 -0.3674 -0.1563
 7426TIP3   OH243692   0.871   5.925  15.486  0.3916  0.0269 -0.1730
 7426TIP3    H143693   0.857   5.831  15.489  0.4751  0.0312  0.4750
 7426TIP3    H243694   0.963   5.937  15.507  1.2304  0.0795 -3.3494
 7427TIP3   OH243695   2.312   1.953  17.174 -0.6004 -0.1553  0.1493
 7427TIP3    H143696   2.378   1.972  17.240  0.3563  0.9552 -1.0749
 7427TIP3    H243697   2.246   1.901  17.220 -0.1017  0.7956  2.0272
 7428TIP3   OH243698   0.147   2.105   0.894 -0.0064 -0.0512  0.1534
 7428TIP3    H143699   0.097   2.079   0.816 -0.0156  0.7647 -0.1209
 7428TIP3    H243700   0.239   2.100   0.867  0.3143 -3.6913  1.2793
 7429TIP3   OH243701   0.055   1.476   2.795  0.0639  0.3385  0.0332
 7429TIP3    H143702   0.146   1.464   2.823 -0.1993 -0.5063  0.5714
 7429TIP3    H243703   0.017   1.388   2.799  0.1305  0.0124 -3.5310
 7430TIP3   OH243704   5.934   5.760  12.964  0.4822  0.0520 -0.1786
 7430TIP3    H143705   6.009   5.804  13.003 -0.5748  0.4629  1.4699
 7430TIP3    H243706   5.969   5.720  12.884  2.4687  0.1479  0.5846
 7431TIP3   OH243707   4.362   2.572   1.491  0.1062  0.5026 -0.2066
 7431TIP3    H143708   4.281   2.576   1.542  1.0560  0.2752  1.3819
 7431TIP3    H243709   4.336   2.535   1.407 -1.3102 -0.3204  0.5663
 7432TIP3   OH243710   6.325   0.012  16.274 -0.1664  0.0681  0.0662
 7432TIP3    H143711   6.351   0.016  16.182 -1.2365 -0.4976 -0.2800
 7432TIP3    H243712   6.238  -0.027  16.273 -0.5415  0.8105  1.2609
 7433TIP3   OH243713   6.591   0.701  10.231  0.0656  0.2258 -0.4358
 7433TIP3    H143714   6.501   0.731  10.221  0.0271  0.7150  1.1629
 7433TIP3    H243715   6.619   0.736  10.315  1.3359 -0.9642 -0.3261
 7434TIP3   OH243716   1.394   3.407  12.293 -0.1928  0.0947  0.8178
 7434TIP3    H143717   1.346   3.325  12.283  0.7363 -0.3674  0.0382
 7434TIP3    H243718   1.485   3.381  12.305  0.1993  1.0213 -0.0143
 7435TIP3   OH243719   2.362   0.767  10.908  0.1988 -0.5587 -0.4083
 7435TIP3    H143720   2.284   0.775  10.962  0.8926  0.5758  0.4527
 7435TIP3    H243721   2.330   0.774  10.818 -0.6496  0.3584 -0.0472
 7436TIP3   OH243722   0.018   2.226   1.843  0.4746 -0.9129 -0.6981
 7436TIP3    H143723   0.076   2.281   1.896 -0.8178 -0.8152  0.6817
 7436TIP3    H243724   0.041   2.136   1.867 -2.5615 -0.9315  3.0784
 7437TIP3   OH243725   1.587   5.835   3.464 -0.1828 -0.9351  0.7484
 7437TIP3    H143726   1.592   5.744   3.491  0.5263 -1.3406 -0.6521
 7437TIP3    H243727   1.511   5.838   3.405 -0.5134 -0.4941  1.1831
 7438TIP3   OH243728   6.717   5.650   2.910 -0.1481 -0.1549  0.0099
 7438TIP3    H143729   6.788   5.598   2.947 -1.2130 -1.8709 -0.2547
 7438TIP3    H243730   6.749   5.740   2.914  1.8415 -0.8222  0.3103
 7439TIP3   OH243731   3.667   2.263   4.221 -0.1969 -0.0524 -0.1448
 7439TIP3    H143732   3.676   2.301   4.133  0.3280 -1.7815 -0.8815
 7439TIP3    H243733   3.731   2.310   4.274  1.7920 -1.1218 -1.4738
 7440TIP3   OH243734   2.952   4.730  16.163  0.4342  0.4974  0.2747
 7440TIP3    H143735   2.908   4.648  16.184 -2.7509  2.0451  0.2951
 7440TIP3    H243736   2.988   4.760  16.247 -0.1831  0.0623  0.7071
 7441TIP3   OH243737   0.834   3.815  13.391 -0.1254  0.9084 -0.5135
 7441TIP3    H143738   0.920   3.778  13.370 -1.3458 -2.0686 -0.8044
 7441TIP3    H243739   0.807   3.861  13.312  0.3914  0.1210 -1.1639
 7442TIP3   OH243740   5.030   5.733   4.930  0.0428  0.1917  0.1225
 7442TIP3    H143741   5.123   5.753   4.915  0.9625 -0.6184  3.6548
 7442TIP3    H243742   4.999   5.806   4.984 -2.0021  1.3830 -2.4794
 7443TIP3   OH243743   1.111   6.315  13.201  0.0681  0.3403  0.1144
 7443TIP3    H143744   1.032   6.308  13.256  0.4101 -1.4415  0.4546
 7443TIP3    H243745   1.092   6.259  13.126  0.6653  0.5930 -0.2263
 7444TIP3   OH243746   3.062   3.583   3.326  0.7201  0.5496  0.4168
 7444TIP3    H143747   3.124   3.563   3.257 -1.9936 -1.3300 -1.6675
 7444TIP3    H243748   3.060   3.504   3.381  1.5589  1.3619  1.6751
 7445TIP3   OH243749   4.102   4.638  16.845  0.1321 -0.6216 -0.2280
 7445TIP3    H143750   4.139   4.725  16.859  1.2184 -0.6874 -2.3664
 7445TIP3    H243751   4.018   4.654  16.802  0.3950 -0.6337 -0.7455
 7446TIP3   OH243752   1.552   0.362   3.748 -0.9623  0.1075  0.0519
 7446TIP3    H143753   1.494   0.360   3.673 -0.5709 -0.9692 -0.2549
 7446TIP3    H243754   1.494   0.362   3.824 -1.4634  4.4950 -0.1177
 7447TIP3   OH243755   3.028   2.355  16.540  0.2179  0.0179  0.2448
 7447TIP3    H143756   2.965   2.337  16.470  1.1789 -0.3611 -0.5352
 7447TIP3    H243757   3.049   2.269  16.577  1.0732  0.0146 -0.2136
 7448TIP3   OH243758   4.809   1.099   2.671 -0.8222  0.5055 -0.0199
 7448TIP3    H143759   4.813   1.151   2.590  1.3234 -1.0877 -1.0124
 7448TIP3    H243760   4.898   1.099   2.704 -1.0953 -1.1930  0.8173
 7449TIP3   OH243761   0.742   1.081  16.313  0.1144 -0.5291 -0.5132
 7449TIP3    H143762   0.663   1.121  16.276  1.5661  1.2010 -2.0037
 7449TIP3    H243763   0.803   1.155  16.322  1.7215 -1.8759  0.0873
 7450TIP3   OH243764   0.031   1.256   4.138 -0.3635  0.1438  0.6338
 7450TIP3    H143765   0.024   1.303   4.221 -0.9562 -1.0173  1.2744
 7450TIP3    H243766   0.074   1.318   4.079 -0.8328  1.3602  1.5140
 7451TIP3   OH243767   5.502   6.516  13.437  0.2206 -0.2677  0.1434
 7451TIP3    H143768   5.440   6.582  13.470  0.0702 -0.4871  0.3025
 7451TIP3    H243769   5.446   6.451  13.396  0.3282 -0.6080  0.5327
 7452TIP3   OH243770   2.335   6.315   1.253  0.0918  0.3922  0.2901
 7452TIP3    H143771   2.407   6.340   1.311 -0.5422 -0.6326  1.5629
 7452TIP3    H243772   2.374   6.314   1.166  1.7526 -0.6291  1.0024
 7453TIP3   OH243773   6.259   6.282   0.629  0.1489 -0.3425  0.7522
 7453TIP3    H143774   6.190   6.271   0.563 -1.1958 -0.3763  2.0868
 7453TIP3    H243775   6.314   6.352   0.595 -0.7274 -0.1044 -0.2410
 7454TIP3   OH243776   4.740   3.030   3.271  0.1590  0.4052 -0.1215
 7454TIP3    H143777   4.662   3.076   3.240 -0.3203 -0.4490 -0.2129
 7454TIP3    H243778   4.807   3.098   3.277 -0.8506  1.3495  0.9013
 7455TIP3   OH243779   4.007   1.570   0.329 -0.2293  0.3920  0.0652
 7455TIP3    H143780   3.938   1.599   0.389 -0.9828  0.3298 -0.7614
 7455TIP3    H243781   4.074   1.639   0.335 -1.2778  1.5181 -0.6675
 7456TIP3   OH243782   0.727   3.786   4.794 -0.1212  0.3856 -0.0359
 7456TIP3    H143783   0.675   3.708   4.777  0.6108  0.2530 -1.8831
 7456TIP3    H243784   0.817   3.755   4.794  0.1234  1.0893  0.0406
 7457TIP3   OH243785   6.736   2.531   4.893 -0.0288 -0.4817  0.4456
 7457TIP3    H143786   6.701   2.445   4.868  0.3904 -0.5646  0.1227
 7457TIP3    H243787   6.676   2.563   4.960 -1.6689  0.0908 -1.1941
 7458TIP3   OH243788   6.258   0.141   1.712  0.1993 -0.1531 -0.0719
 7458TIP3    H143789   6.271   0.230   1.677 -0.2112 -0.3332 -0.6953
 7458TIP3    H243790   6.346   0.112   1.735  0.7083 -0.5849 -2.3335
 7459TIP3   OH243791   4.188   5.008  15.268  0.3156 -0.0834  0.1772
 7459TIP3    H143792   4.141   5.091  15.275 -2.2708 -1.4381  0.2327
 7459TIP3    H243793   4.132   4.954  15.211  0.9604 -2.3542  1.5688
 7460TIP3   OH243794   6.238   5.323  16.845 -0.4213  0.2576  0.2678
 7460TIP3    H143795   6.334   5.319  16.850 -0.3932  1.0313  0.6380
 7460TIP3    H243796   6.218   5.323  16.752 -0.1256 -1.0016  0.1959
 7461TIP3   OH243797   6.121   4.627   2.139  0.7450  0.2976 -0.0415
 7461TIP3    H143798   6.175   4.550   2.126  0.2667 -0.2204  0.9576
 7461TIP3    H243799   6.079   4.642   2.054 -0.3732 -1.4953  0.1394
 7462TIP3   OH243800   4.827   4.956  16.416  0.5811  0.4316 -0.1579
 7462TIP3    H143801   4.780   4.873  16.424 -1.1908  1.5017  1.2492
 7462TIP3    H243802   4.917   4.935  16.440 -0.0303 -0.8947  1.1196
 7463TIP3   OH243803   3.036   1.622   4.502 -0.4175  0.2845 -0.5025
 7463TIP3    H143804   2.976   1.683   4.460 -1.4664 -1.2993 -1.3950
 7463TIP3    H243805   2.979   1.558   4.545  0.6437  0.2537  0.9576
 7464TIP3   OH243806   4.580   1.146  11.534 -0.2470  0.4180 -0.1698
 7464TIP3    H143807   4.577   1.180  11.623  2.9336  0.0863  0.1901
 7464TIP3    H243808   4.569   1.051  11.544 -0.6606  0.4570 -0.2335
 7465TIP3   OH243809   5.136   4.532   2.350 -0.4885 -0.0211 -0.2662
 7465TIP3    H143810   5.116   4.477   2.426 -1.3966 -0.6984 -0.9694
 7465TIP3    H243811   5.052   4.540   2.303  0.4051 -1.1712 -2.1900
 7466TIP3   OH243812   1.336   1.031   3.069  0.3778  0.9590 -0.4046
 7466TIP3    H143813   1.263   1.025   3.130 -0.7175 -1.0729 -1.8080
 7466TIP3    H243814   1.324   1.116   3.026 -0.0904  1.4445  0.6513
 7467TIP3   OH243815   4.833   5.629  11.823  0.0880 -0.6255 -0.2912
 7467TIP3    H143816   4.821   5.708  11.770  0.1836 -1.8890 -2.2944
 7467TIP3    H243817   4.928   5.627  11.840 -0.2552  1.3005  2.5283
 7468TIP3   OH243818   1.932   2.266  12.136  0.2784  0.1237 -0.3793
 7468TIP3    H143819   1.936   2.254  12.231  1.4123  2.1572 -0.0991
 7468TIP3    H243820   2.023   2.260  12.107 -0.2042 -1.9897 -1.6118
 7469TIP3   OH243821   3.661   0.733   3.502 -0.3505  0.0306  0.5022
 7469TIP3    H143822   3.617   0.795   3.445  0.6015  0.3095  0.0547
 7469TIP3    H243823   3.600   0.659   3.508 -0.6957  0.2225 -0.4412
 7470TIP3   OH243824   3.199   3.506  11.535 -0.5252 -0.8531 -0.1321
 7470TIP3    H143825   3.247   3.548  11.464  0.3987 -0.2734  0.7970
 7470TIP3    H243826   3.173   3.578  11.592 -1.9785 -1.2271 -0.2866
 7471TIP3   OH243827   6.611   5.225  16.615  0.3905  0.5265  0.3160
 7471TIP3    H143828   6.571   5.233  16.528  1.1286  0.9191  0.0011
 7471TIP3    H243829   6.705   5.228  16.598  0.5350  1.3927  1.2038
 7472TIP3   OH243830   5.698   6.298  16.649 -0.5610  0.0606  0.1920
 7472TIP3    H143831   5.758   6.265  16.715 -1.3210 -1.3342  0.2311
 7472TIP3    H243832   5.628   6.232  16.645  0.4062 -0.9660 -3.3388
 7473TIP3   OH243833   4.087   0.356   1.771  0.4674 -0.8743  0.5992
 7473TIP3    H143834   4.171   0.402   1.777  0.5958 -0.9374 -0.5372
 7473TIP3    H243835   4.024   0.418   1.810  0.8695 -0.3694  0.4620
 7474TIP3   OH243836   5.464   0.777  16.201 -0.6570  0.1704 -1.0406
 7474TIP3    H143837   5.398   0.820  16.255 -0.7076  0.5862 -1.4339
 7474TIP3    H243838   5.474   0.690  16.241  0.0945  0.8343  0.2941
 7475TIP3   OH243839   3.368   4.908  16.850 -0.0676  0.1824  0.1721
 7475TIP3    H143840   3.409   4.873  16.771 -1.2604 -1.3991  0.1979
 7475TIP3    H243841   3.404   4.855  16.921  1.3867  1.9231  0.8189
 7476TIP3   OH243842   4.481   2.129  12.000  0.1335 -0.4620  0.6454
 7476TIP3    H143843   4.414   2.076  11.956 -0.0639 -0.3366  0.7957
 7476TIP3    H243844   4.475   2.215  11.958  0.9648 -0.7579 -0.1284
 7477TIP3   OH243845   1.269   4.282   2.394 -0.1303 -0.5212  0.4983
 7477TIP3    H143846   1.225   4.260   2.312  4.7499 -1.6007 -2.2140
 7477TIP3    H243847   1.260   4.377   2.400 -0.8036 -0.4336 -1.1898
 7478TIP3   OH243848   2.322   5.826  17.162  0.0641  0.4021  0.2885
 7478TIP3    H143849   2.372   5.746  17.146  1.0602  0.6687  1.9067
 7478TIP3    H243850   2.378   5.897  17.132 -0.8994  0.5359 -1.3324
 7479TIP3   OH243851   6.566   0.181  13.150  0.4042 -0.1093  0.1613
 7479TIP3    H143852   6.493   0.212  13.203  0.8151  1.4696 -0.1294
 7479TIP3    H243853   6.626   0.140  13.212  1.8983  3.5690  1.4423
 7480TIP3   OH243854   4.862   5.401  10.639 -0.1286  0.1132  0.6780
 7480TIP3    H143855   4.836   5.339  10.570  2.2767  0.2604 -0.4449
 7480TIP3    H243856   4.822   5.366  10.719 -0.4607 -1.7894 -0.2731
 7481TIP3   OH243857   3.970   1.688  15.908  0.1325  0.3199 -0.7835
 7481TIP3    H143858   3.971   1.703  16.002  1.3758 -1.6659 -0.4333
 7481TIP3    H243859   4.050   1.640  15.890  0.0173  0.8028 -2.9076
 7482TIP3   OH243860   5.823   3.662  11.981  0.3973 -0.6538  0.4570
 7482TIP3    H143861   5.848   3.665  12.073  1.2345 -1.1585  0.2580
 7482TIP3    H243862   5.763   3.736  11.969  1.1883  0.1160  1.1395
 7483TIP3   OH243863   2.339   2.984   5.635  0.3265 -0.4454  0.3525
 7483TIP3    H143864   2.267   2.979   5.698 -0.2747 -2.8795 -0.4182
 7483TIP3    H243865   2.398   3.050   5.671 -3.1512  3.2451  0.0710
 7484TIP3   OH243866   4.595   3.228   3.156  0.0915  0.2029 -0.1652
 7484TIP3    H143867   4.504   3.255   3.148 -0.6296 -1.2399  2.1697
 7484TIP3    H243868   4.643   3.309   3.176 -1.2602  0.5660  1.9328
 7485TIP3   OH243869   2.012   6.796  11.999  0.4947 -0.0742 -0.0459
 7485TIP3    H143870   2.095   6.762  11.965  0.2947 -1.6771  0.9498
 7485TIP3    H243871   1.945   6.741  11.958  0.0382  0.1651  0.3676
 7486TIP3   OH243872   6.011   5.594  13.941  0.0540  0.1510 -0.0232
 7486TIP3    H143873   5.917   5.602  13.952  0.3593  2.1140  1.6117
 7486TIP3    H243874   6.029   5.639  13.858 -0.3766  0.3052 -0.0361
 7487TIP3   OH243875   5.915   4.535  17.039  0.2784  0.2001 -0.3465
 7487TIP3    H143876   5.969   4.611  17.017 -0.3832  0.1059 -2.6368
 7487TIP3    H243877   5.904   4.489  16.955 -2.0756 -0.5884  0.3112
 7488TIP3   OH243878   4.568   4.802  14.807 -0.3804 -0.1878 -0.2812
 7488TIP3    H143879   4.647   4.795  14.754 -0.4160 -1.8247 -0.1783
 7488TIP3    H243880   4.594   4.770  14.894 -0.9077  0.2138  0.0313
 7489TIP3   OH243881   1.815   4.395   1.119  0.3827 -0.2494  0.4817
 7489TIP3    H143882   1.725   4.387   1.088  0.0621  0.4937  1.1988
 7489TIP3    H243883   1.868   4.352   1.051 -0.3867  0.4897 -0.6034
 7490TIP3   OH243884   0.240   1.323  12.062  0.0794  0.3719  0.2267
 7490TIP3    H143885   0.224   1.253  11.998 -0.9363 -0.9936  1.8824
 7490TIP3    H243886   0.333   1.342  12.053  0.4667 -1.4388 -0.0762
 7491TIP3   OH243887   5.919   5.667  16.838  0.4114  0.6119 -0.4795
 7491TIP3    H143888   5.913   5.643  16.930 -2.0191 -0.8040 -0.9300
 7491TIP3    H243889   5.860   5.742  16.828 -1.3664 -0.8309 -1.3012
 7492TIP3   OH243890   6.572   0.553  16.708 -0.1764 -0.1692  0.1701
 7492TIP3    H143891   6.620   0.489  16.760  0.5862 -1.4741 -1.9840
 7492TIP3    H243892   6.638   0.593  16.652 -1.3951 -1.7343 -2.6014
 7493TIP3   OH243893   4.457   1.002  13.501 -0.6209  0.5698 -0.8653
 7493TIP3    H143894   4.430   0.927  13.554 -0.2758  0.1620 -1.2654
 7493TIP3    H243895   4.445   0.974  13.411 -0.4239  0.9709 -1.0178
 7494TIP3   OH243896   5.020   2.911   5.198  0.0198  0.2813  0.1386
 7494TIP3    H143897   5.082   2.921   5.125 -0.3093  0.9556 -0.0602
 7494TIP3    H243898   5.070   2.864   5.265  0.6982  0.6552 -0.0869
 7495TIP3   OH243899   0.479   5.452  14.553 -0.9838  0.5166  0.0360
 7495TIP3    H143900   0.445   5.542  14.557  0.1426  0.9379  0.6765
 7495TIP3    H243901   0.572   5.461  14.577 -0.9773 -0.8862  0.6127
 7496TIP3   OH243902   6.574   2.769  13.744 -0.8722 -0.5473  0.0621
 7496TIP3    H143903   6.615   2.855  13.750  0.3367 -1.1136  0.3163
 7496TIP3    H243904   6.489   2.779  13.787 -0.8195  0.5591 -0.0799
 7497TIP3   OH243905   4.215   6.063  15.347 -0.7806  0.5048 -0.1356
 7497TIP3    H143906   4.218   5.972  15.376  1.8498  0.7550  0.5549
 7497TIP3    H243907   4.249   6.061  15.257  0.4056  0.9182  0.2873
 7498TIP3   OH243908   3.696   4.572   0.608 -0.3049 -0.7234 -0.2668
 7498TIP3    H143909   3.768   4.546   0.665  0.7775 -0.8867 -1.6489
 7498TIP3    H243910   3.673   4.660   0.638  0.5559 -0.6204  0.1168
 7499TIP3   OH243911   6.750   4.211   4.207 -0.5240  0.2358  0.2611
 7499TIP3    H143912   6.738   4.173   4.294 -1.3525  0.6224  0.3195
 7499TIP3    H243913   6.797   4.293   4.223  0.8137 -0.4755  0.1789
 7500TIP3   OH243914   3.896   2.631  14.322 -0.0515  0.5715  0.2903
 7500TIP3    H143915   3.885   2.536  14.328  1.1897  0.4408  0.5900
 7500TIP3    H243916   3.910   2.659  14.412 -0.9508  1.1297  0.2732
 7501TIP3   OH243917   2.720   1.765   3.955 -0.1294  0.0191 -0.3347
 7501TIP3    H143918   2.804   1.724   3.934 -0.8024 -0.9253 -1.2817
 7501TIP3    H243919   2.683   1.711   4.025 -1.0611 -1.1225 -1.6502
 7502TIP3   OH243920   0.844   2.582  16.862  0.6411 -0.2064 -0.4594
 7502TIP3    H143921   0.891   2.632  16.928  1.3967 -3.3889  1.6144
 7502TIP3    H243922   0.766   2.549  16.906  0.4005 -1.2390 -1.5852
 7503TIP3   OH243923   2.847   5.929   5.466 -0.1238  0.0116 -0.0624
 7503TIP3    H143924   2.850   6.024   5.454 -0.6560 -0.0711 -0.9137
 7503TIP3    H243925   2.935   5.900   5.443 -0.6194  0.0565 -2.2054
 7504TIP3   OH243926   2.013   6.270  14.500 -0.1680  0.1707 -0.7161
 7504TIP3    H143927   1.952   6.336  14.533  2.3938  2.7254 -0.6310
 7504TIP3    H243928   2.090   6.278  14.557  0.3656 -2.8352 -0.8517
 7505TIP3   OH243929   2.523   0.877   2.394  0.1820  0.0649 -0.0711
 7505TIP3    H143930   2.516   0.793   2.438  0.0633 -0.1428 -0.4811
 7505TIP3    H243931   2.617   0.886   2.375  0.1883  0.0037 -0.0691
 7506TIP3   OH243932   1.861   1.275  11.912  0.9020 -0.3512 -0.5383
 7506TIP3    H143933   1.785   1.225  11.940  1.5788 -1.4160 -0.5761
 7506TIP3    H243934   1.911   1.215  11.856  0.6453  1.0330 -2.3647
 7507TIP3   OH243935   3.197   2.413  12.583  0.1552 -0.2607 -0.3204
 7507TIP3    H143936   3.255   2.390  12.510  1.4172 -2.0904  1.1534
 7507TIP3    H243937   3.256   2.428  12.657 -1.0833  1.5604  0.3791
 7508TIP3   OH243938   0.777   3.628  13.588  0.7529  0.6263  0.7766
 7508TIP3    H143939   0.805   3.716  13.561 -4.2956  2.4145  0.4545
 7508TIP3    H243940   0.716   3.599  13.521  1.8398 -3.0630  1.1491
 7509TIP3   OH243941   2.722   5.862   2.986  0.0643 -0.0398  0.2869
 7509TIP3    H143942   2.817   5.856   2.992  0.1104  1.3650  1.7027
 7509TIP3    H243943   2.705   5.911   2.905  0.4808 -1.1192 -0.4682
 7510TIP3   OH243944   0.697   5.560  12.847 -0.3733 -0.0155 -0.2702
 7510TIP3    H143945   0.652   5.584  12.928  1.8721  0.4862  0.9181
 7510TIP3    H243946   0.733   5.642  12.815  0.8815 -0.5908 -0.3819
 7511TIP3   OH243947   0.840   4.632   0.772 -0.0396 -0.1605 -0.1611
 7511TIP3    H143948   0.849   4.658   0.864 -0.4478 -1.9194  0.4158
 7511TIP3    H243949   0.869   4.709   0.723  2.3722  0.0719  1.4452
 7512TIP3   OH243950   4.879   2.576  12.941  0.1815  0.2930 -0.0682
 7512TIP3    H143951   4.966   2.568  12.981  0.5055 -0.3052 -0.8755
 7512TIP3    H243952   4.819   2.546  13.009  0.7258 -0.6718  0.0096
 7513TIP3   OH243953   6.511   4.491   2.521 -0.1775  0.3370 -0.2261
 7513TIP3    H143954   6.574   4.560   2.541 -0.1496 -0.0603  1.1544
 7513TIP3    H243955   6.472   4.469   2.605 -2.1050  0.4868 -1.0268
 7514TIP3   OH243956   5.843   0.270  16.596  0.2792 -0.1349  0.0308
 7514TIP3    H143957   5.888   0.189  16.621  0.2501 -0.7641 -1.8172
 7514TIP3    H243958   5.823   0.313  16.679  1.4183 -1.4092  1.0084
 7515TIP3   OH243959   0.383   4.155  12.587  0.1023  0.3955  0.6184
 7515TIP3    H143960   0.290   4.146  12.568  0.3634 -1.8294  0.1671
 7515TIP3    H243961   0.396   4.249  12.599 -1.8673  0.9307 -0.9580
 7516TIP3   OH243962   1.259   6.369  15.083  0.3275  0.2403 -0.1035
 7516TIP3    H143963   1.254   6.361  14.988  1.0380 -0.9805 -0.0561
 7516TIP3    H243964   1.254   6.279  15.115 -2.1535  0.7277  1.1628
 7517TIP3   OH243965   3.681   3.831  15.099  0.1433  0.2041  0.7154
 7517TIP3    H143966   3.690   3.748  15.051 -0.9663 -0.1229  1.0400
 7517TIP3    H243967   3.764   3.842  15.144  0.5921 -0.3383  0.0372
 7518TIP3   OH243968   6.579   4.956  13.227  0.3044 -0.0873 -0.9980
 7518TIP3    H143969   6.540   5.036  13.261  2.8330  0.0184  2.1494
 7518TIP3    H243970   6.522   4.886  13.258  0.2095  0.2944 -0.2881
 7519TIP3   OH243971   2.115   5.674   2.896 -0.2855  0.5938  0.6383
 7519TIP3    H143972   2.132   5.748   2.955  1.5211 -1.4967  2.9002
 7519TIP3    H243973   2.160   5.698   2.815 -1.7995  2.9896  0.3869
 7520TIP3   OH243974   4.726   1.859  10.749  0.7266 -0.1241  0.3725
 7520TIP3    H143975   4.806   1.897  10.714  0.5824  0.6358  0.8462
 7520TIP3    H243976   4.702   1.916  10.822  0.4892 -1.1180  1.0927
 7521TIP3   OH243977   4.857   5.901  11.651  0.4079 -0.1744 -0.0578
 7521TIP3    H143978   4.888   5.918  11.740  1.0002 -0.6951 -0.1543
 7521TIP3    H243979   4.891   5.974  11.599  0.7380 -0.2840 -0.0001
 7522TIP3   OH243980   2.855   2.657  11.574 -0.2332  0.2782  0.1972
 7522TIP3    H143981   2.869   2.743  11.536  2.3377  0.1652  0.7125
 7522TIP3    H243982   2.914   2.599  11.526 -0.1327 -0.7120  1.4582
 7523TIP3   OH243983   5.568   3.424   4.195 -0.2264 -0.1141  0.1123
 7523TIP3    H143984   5.602   3.447   4.108 -0.6250 -0.8822 -0.2564
 7523TIP3    H243985   5.643   3.437   4.254  0.1634  0.0297 -0.4073
 7524TIP3   OH243986   3.365   1.380   5.956 -0.4419  0.1649  0.3532
 7524TIP3    H143987   3.405   1.321   6.020  1.9691 -2.3618 -3.1148
 7524TIP3    H243988   3.439   1.432   5.923 -1.6817  1.6650 -0.1611
 7525TIP3   OH243989   1.649   0.785  13.581  0.1215  0.2158 -0.4786
 7525TIP3    H143990   1.714   0.852  13.562  0.2409  0.1488 -0.3059
 7525TIP3    H243991   1.592   0.825  13.646 -1.1000  0.9540 -1.9414
 7526TIP3   OH243992   0.206   3.483  15.726 -0.0630 -0.1156 -0.6406
 7526TIP3    H143993   0.286   3.530  15.702  0.2508 -0.4013 -0.1599
 7526TIP3    H243994   0.135   3.546  15.709  0.5188  1.7626  2.9360
 7527TIP3   OH243995   3.151   0.352  11.009  0.2289 -0.1779 -0.5065
 7527TIP3    H143996   3.151   0.277  10.950 -0.9973 -0.4179 -0.2380
 7527TIP3    H243997   3.060   0.359  11.039  0.6504  0.4420  0.7043
 7528TIP3   OH243998   2.492   2.176  13.392  0.4732  0.5222 -0.4244
 7528TIP3    H143999   2.550   2.247  13.365 -1.8518  1.6247 -2.9563
 7528TIP3    H244000   2.425   2.219  13.446 -0.0643 -0.0105 -0.6560
 7529TIP3   OH244001   6.140   2.181   2.486 -1.0353 -0.4708  0.2656
 7529TIP3    H144002   6.148   2.153   2.395  1.9167 -1.2426  0.6444
 7529TIP3    H244003   6.054   2.152   2.513 -2.1515  0.0992 -2.3555
 7530TIP3   OH244004   0.386   0.654  15.088  0.2369 -0.5783 -0.1693
 7530TIP3    H144005   0.424   0.603  15.159  2.0961  0.1570 -0.5955
 7530TIP3    H244006   0.326   0.715  15.132 -0.4330 -1.6898  0.5133
 7531TIP3   OH244007   1.408   6.377   1.287  0.1217  0.3650  0.0911
 7531TIP3    H144008   1.418   6.390   1.193 -0.5063 -3.5538 -0.7359
 7531TIP3    H244009   1.341   6.440   1.313  0.9579  2.1639 -1.8730
 7532TIP3   OH244010   6.255   4.921   3.323  0.1770 -0.0359  0.4494
 7532TIP3    H144011   6.233   4.828   3.327 -2.0763  0.3740 -1.1264
 7532TIP3    H244012   6.190   4.964   3.378 -0.4064  0.8252 -0.8719
 7533TIP3   OH244013   0.754   5.830   3.360 -0.4488 -0.1156  0.5975
 7533TIP3    H144014   0.741   5.812   3.267 -0.4743 -0.7901  0.7278
 7533TIP3    H244015   0.671   5.806   3.401 -0.4914  0.3273  0.7793
 7534TIP3   OH244016   1.336   5.902   5.518  0.1022 -0.5742 -0.1359
 7534TIP3    H144017   1.378   5.843   5.455  0.4951 -0.0099 -0.4129
 7534TIP3    H244018   1.265   5.850   5.556 -0.5396 -0.7085 -1.4908
 7535TIP3   OH244019   4.612   2.525  16.778  0.5135  0.3451  0.3148
 7535TIP3    H144020   4.579   2.525  16.868 -1.0737 -1.1551 -0.2160
 7535TIP3    H244021   4.562   2.457  16.734  2.5193 -0.1976 -1.2724
 7536TIP3   OH244022   1.482   3.072   3.978  0.9251  0.4585 -0.5815
 7536TIP3    H144023   1.481   3.055   4.073 -1.5134 -0.4145 -0.6938
 7536TIP3    H244024   1.448   3.161   3.969  3.3275  1.4521 -0.5865
 7537TIP3   OH244025   3.584   2.327  16.471 -0.2530  0.5762  1.0422
 7537TIP3    H144026   3.565   2.397  16.408 -1.4591 -0.6887 -0.0787
 7537TIP3    H244027   3.675   2.303  16.454 -0.6590  0.0328 -0.4768
 7538TIP3   OH244028   1.271   2.654   2.993  0.2161  0.3118  0.5013
 7538TIP3    H144029   1.256   2.652   3.087  1.5461 -2.3066  0.7435
 7538TIP3    H244030   1.218   2.583   2.958  0.3644  0.7313 -0.6206
 7539TIP3   OH244031   2.925   4.908  15.634  0.0398  0.6640 -0.2997
 7539TIP3    H144032   2.999   4.847  15.637 -2.3432 -2.5220 -1.3020
 7539TIP3    H244033   2.891   4.910  15.723 -1.1030 -1.2661 -0.6344
 7540TIP3   OH244034   3.718   1.324   4.957  0.2800  0.5058 -0.0762
 7540TIP3    H144035   3.752   1.271   5.028  0.4602 -1.6452 -1.6591
 7540TIP3    H244036   3.733   1.415   4.984  1.1011 -0.2577  2.1961
 7541TIP3   OH244037   5.673   4.003  11.405  0.0851 -0.4986 -0.5738
 7541TIP3    H144038   5.604   3.988  11.471 -0.6416  1.1296 -0.9262
 7541TIP3    H244039   5.654   3.940  11.336 -1.8662  0.7444 -1.2507
 7542TIP3   OH244040   5.730   4.302  13.953  0.3766 -0.2430 -1.2094
 7542TIP3    H144041   5.708   4.379  14.005  2.8221 -0.6220  0.6088
 7542TIP3    H244042   5.781   4.337  13.879  1.9174 -0.0576 -0.1197
 7543TIP3   OH244043   1.224   1.079  13.277  0.0447 -0.1768  0.1969
 7543TIP3    H144044   1.157   1.111  13.338  0.7817  0.9601  0.4544
 7543TIP3    H244045   1.181   1.010  13.227 -1.4679  0.8515  0.0254
 7544TIP3   OH244046   2.220   1.168  13.743 -0.0489 -0.6125  0.0671
 7544TIP3    H144047   2.182   1.082  13.729 -1.4233 -0.2450  1.2356
 7544TIP3    H244048   2.304   1.151  13.786  0.7405 -1.4070 -1.6778
 7545TIP3   OH244049   5.075   4.550   4.789 -0.0796 -0.3945 -0.8142
 7545TIP3    H144050   5.026   4.473   4.818  1.0045 -0.9155 -0.3352
 7545TIP3    H244051   5.146   4.559   4.852  0.1425  0.6638 -1.1958
 7546TIP3   OH244052   1.313   5.728  15.412 -0.3345 -0.5435 -0.1773
 7546TIP3    H144053   1.258   5.651  15.395  0.4940 -0.9490 -1.2115
 7546TIP3    H244054   1.387   5.694  15.462 -0.8206 -0.0756  0.8796
 7547TIP3   OH244055   3.245   1.622   4.324  0.3667 -0.1017 -0.3915
 7547TIP3    H144056   3.227   1.710   4.292 -2.5101 -1.3727 -2.7398
 7547TIP3    H244057   3.173   1.603   4.384  0.9285 -0.8934  0.0610
 7548TIP3   OH244058   3.212   5.042   0.793  0.1347  0.1647 -0.3642
 7548TIP3    H144059   3.299   5.063   0.759  0.2561  0.5169  0.1600
 7548TIP3    H244060   3.194   5.110   0.859 -1.1528  0.9838 -1.4935
 7549TIP3   OH244061   2.175   6.767   4.085  0.4006 -0.1542  0.1267
 7549TIP3    H144062   2.113   6.730   4.021  1.7934 -1.3014 -0.6164
 7549TIP3    H244063   2.164   6.862   4.077  1.8580 -0.1307 -3.2853
 7550TIP3   OH244064   1.714   5.335  12.051  0.4063 -1.2648 -0.9261
 7550TIP3    H144065   1.661   5.263  12.086 -0.6579 -1.1632 -2.2758
 7550TIP3    H244066   1.651   5.401  12.025  1.3137 -0.3414 -0.8343
 7551TIP3   OH244067   2.019   0.441  11.591  0.2446 -0.1581  0.2040
 7551TIP3    H144068   1.954   0.509  11.576  0.1084 -0.4293 -0.4767
 7551TIP3    H244069   2.035   0.403  11.504  1.5956  0.1614  0.2926
 7552TIP3   OH244070   3.736   1.147   1.353 -0.4126  0.3014  0.5816
 7552TIP3    H144071   3.767   1.067   1.396 -0.1307  1.2593  2.2370
 7552TIP3    H244072   3.817   1.193   1.329 -0.5196 -0.8316 -2.3198
 7553TIP3   OH244073   6.455   3.157  13.157 -0.5434  0.1741  0.8834
 7553TIP3    H144074   6.437   3.139  13.065  1.1878  0.4923  0.4442
 7553TIP3    H244075   6.419   3.082  13.204  3.3941 -2.9387 -0.5596
 7554TIP3   OH244076   0.063   5.199  11.386 -0.4024  0.0323 -0.3634
 7554TIP3    H144077   0.044   5.253  11.462 -2.5620 -1.5605  0.3082
 7554TIP3    H244078   0.126   5.251  11.335 -0.9972  2.3481  1.1102
 7555TIP3   OH244079   5.983   6.142  11.377  0.0344  0.4800 -0.3993
 7555TIP3    H144080   6.048   6.200  11.416  0.7219  0.2271 -1.1397
 7555TIP3    H244081   6.034   6.078  11.327 -0.6532 -1.3771  1.1484
 7556TIP3   OH244082   5.343   1.516   1.132  0.5641 -0.3522 -0.3839
 7556TIP3    H144083   5.339   1.543   1.224 -0.8920 -1.2370 -0.1477
 7556TIP3    H244084   5.382   1.590   1.086  2.2845 -0.2756  1.0735
 7557TIP3   OH244085   3.977   2.777   0.341 -0.0621 -0.1588 -0.4880
 7557TIP3    H144086   4.029   2.852   0.313  0.8477 -1.0414 -1.2333
 7557TIP3    H244087   3.893   2.789   0.298 -0.3684  1.0521  0.3802
 7558TIP3   OH244088   0.851   2.337  16.439 -0.4700  0.0109  0.1247
 7558TIP3    H144089   0.905   2.265  16.406  1.2017  1.3498 -0.2177
 7558TIP3    H244090   0.792   2.359  16.367 -2.5012 -2.3348  0.9556
 7559TIP3   OH244091   0.992   4.845   3.497 -0.2836  0.7859 -0.3828
 7559TIP3    H144092   1.004   4.770   3.439  1.7663  0.5484  0.2515
 7559TIP3    H244093   1.068   4.901   3.479 -1.7631  2.7430 -0.8427
 7560TIP3   OH244094   5.852   3.204  15.912 -0.1181 -0.2436  0.1777
 7560TIP3    H144095   5.814   3.287  15.881  0.3978  0.0732  0.3778
 7560TIP3    H244096   5.778   3.144  15.916 -0.1297 -0.5015 -2.3389
 7561TIP3   OH244097   0.284   1.893  12.450 -0.1742 -0.1121 -0.4333
 7561TIP3    H144098   0.274   1.837  12.528  0.3509 -0.4403 -0.5930
 7561TIP3    H244099   0.227   1.968  12.467 -2.0756 -1.3900 -0.8822
 7562TIP3   OH244100   6.341   6.068   4.830  0.1530 -0.2603 -0.1567
 7562TIP3    H144101   6.358   5.995   4.889  0.9772 -0.3624 -0.5073
 7562TIP3    H244102   6.322   6.142   4.888  0.1141 -0.5612  0.2167
 7563TIP3   OH244103   3.530   5.759   4.901 -0.0082 -0.3598 -0.3614
 7563TIP3    H144104   3.626   5.763   4.899  0.1621  2.1781  3.4670
 7563TIP3    H244105   3.510   5.674   4.861  3.8713 -1.5408 -0.2856
 7564TIP3   OH244106   5.392   6.635   6.579  0.2774  0.1603 -0.5207
 7564TIP3    H144107   5.411   6.545   6.555  0.2711 -0.0071  0.0841
 7564TIP3    H244108   5.461   6.659   6.641 -0.8006 -0.0823  0.8245
 7565TIP3   OH244109   0.170   4.754   0.514  0.2180 -0.0280  0.4415
 7565TIP3    H144110   0.239   4.727   0.574 -0.1170  2.4398  2.0597
 7565TIP3    H244111   0.198   4.839   0.480 -1.9940  1.1058  1.2241
 7566TIP3   OH244112   6.775   1.841   5.142 -0.2699 -0.2406 -0.0765
 7566TIP3    H144113   6.707   1.848   5.210 -1.2726 -0.1458 -1.0564
 7566TIP3    H244114   6.847   1.894   5.175 -0.2917 -1.0853  1.4253
 7567TIP3   OH244115   3.047   0.368  14.023 -0.3879  0.2000 -0.3473
 7567TIP3    H144116   3.094   0.317  13.957  2.0120  3.4290 -1.3723
 7567TIP3    H244117   3.078   0.334  14.107 -0.6018 -1.4521 -0.9007
 7568TIP3   OH244118   0.320   4.498  16.354 -0.1520  0.2506  1.1016
 7568TIP3    H144119   0.226   4.513  16.339  0.1613  0.2184 -1.0945
 7568TIP3    H244120   0.324   4.414  16.399 -1.1974  0.5369  1.7719
 7569TIP3   OH244121   5.961   0.690   2.122  0.6334  0.2417  0.0770
 7569TIP3    H144122   5.896   0.721   2.186  0.1839 -0.3681 -0.0732
 7569TIP3    H244123   6.038   0.744   2.138 -0.0630  1.3110 -0.0565
 7570TIP3   OH244124   1.969   6.106   5.288 -0.2522 -0.4225 -0.3559
 7570TIP3    H144125   1.903   6.144   5.346  1.2105 -0.6019  1.5424
 7570TIP3    H244126   1.942   6.132   5.200 -2.8584 -0.5840  0.3285
 7571TIP3   OH244127   6.555   6.465  14.049 -0.2106  0.1125 -0.0407
 7571TIP3    H144128   6.604   6.523  13.989  1.0336 -1.3002 -0.4414
 7571TIP3    H244129   6.539   6.519  14.126  3.3345  0.2590  0.7517
 7572TIP3   OH244130   1.247   3.722  14.689  0.1410 -0.1338  0.1826
 7572TIP3    H144131   1.327   3.671  14.675 -0.3175 -1.3845  1.8109
 7572TIP3    H244132   1.211   3.734  14.601  2.2121  0.6753 -0.6065
 7573TIP3   OH244133   0.191   3.134   1.632  0.0346  0.3901  0.1230
 7573TIP3    H144134   0.111   3.159   1.585 -0.1482 -0.3984  0.0075
 7573TIP3    H244135   0.240   3.082   1.568  0.3454  0.3327  0.4085
 7574TIP3   OH244136   4.104   6.718   3.970 -0.3765 -0.0315  0.4274
 7574TIP3    H144137   4.070   6.637   3.932 -1.8508  1.1422 -0.8622
 7574TIP3    H244138   4.080   6.786   3.907 -1.6151  1.8125  2.7396
 7575TIP3   OH244139   1.535   1.682   1.376 -0.4818 -0.6276  0.1751
 7575TIP3    H144140   1.491   1.605   1.411  0.2279 -0.8165  0.6671
 7575TIP3    H244141   1.609   1.697   1.434 -3.5847  3.8229  3.7439
 7576TIP3   OH244142   4.082   5.054  12.153 -0.1403  0.0432 -0.1279
 7576TIP3    H144143   4.010   5.113  12.131 -0.6873 -0.8816 -0.9124
 7576TIP3    H244144   4.076   5.041  12.248 -1.4317 -0.5392 -0.2714
 7577TIP3   OH244145   2.121   2.588  16.808  0.2603 -0.2260  0.0051
 7577TIP3    H144146   2.127   2.536  16.889 -0.0026  0.7987  0.6973
 7577TIP3    H244147   2.032   2.622  16.808  0.0389 -0.7590 -1.0808
 7578TIP3   OH244148   3.937   5.035   4.532  0.3300 -0.4959  0.7576
 7578TIP3    H144149   3.884   4.973   4.482  0.5952 -1.5964  1.7881
 7578TIP3    H244150   3.908   5.023   4.623  0.1344  1.1694  0.9422
 7579TIP3   OH244151   0.658   4.175   4.016 -0.7722  0.3378  0.3528
 7579TIP3    H144152   0.579   4.199   4.065 -0.2301 -0.3034  1.5760
 7579TIP3    H244153   0.658   4.080   4.016  0.6176  0.3091  1.4393
 7580TIP3   OH244154   0.694   6.682  15.139 -0.1268  0.4990  0.1859
 7580TIP3    H144155   0.605   6.649  15.127 -0.0896  0.4491  0.0561
 7580TIP3    H244156   0.745   6.642  15.069  0.6892 -2.0004  2.0288
 7581TIP3   OH244157   0.195   1.407  13.327 -0.6257  0.2196  0.1611
 7581TIP3    H144158   0.137   1.475  13.291 -0.4171  0.3531  0.0745
 7581TIP3    H244159   0.264   1.398  13.261  0.6900  1.6487  1.2506
 7582TIP3   OH244160   2.107   0.231   4.826  0.3454 -0.6824 -0.1658
 7582TIP3    H144161   2.048   0.236   4.751  0.0230 -0.4939  0.0963
 7582TIP3    H244162   2.116   0.322   4.856 -1.4633 -0.9928  1.4946
 7583TIP3   OH244163   5.264   4.564  12.692 -0.0275  0.1734 -0.5391
 7583TIP3    H144164   5.235   4.591  12.779 -1.0459  1.0173 -1.1211
 7583TIP3    H244165   5.359   4.562  12.698 -0.0959 -0.9102  0.9133
 7584TIP3   OH244166   2.325   3.767   4.506 -0.1428  0.1611  0.1664
 7584TIP3    H144167   2.357   3.798   4.421 -2.7035  1.4734 -0.4183
 7584TIP3    H244168   2.386   3.805   4.569  2.0264 -1.1248 -1.0173
 7585TIP3   OH244169   6.068   3.618  15.776  0.5506  0.0682 -0.4160
 7585TIP3    H144170   6.034   3.689  15.723  0.4441  0.0145 -0.4203
 7585TIP3    H244171   6.153   3.649  15.807 -0.2682  0.9529  1.0915
 7586TIP3   OH244172   1.510   2.269   0.410  0.8264  0.2049 -0.2097
 7586TIP3    H144173   1.581   2.210   0.435  1.7333  1.8269  1.2615
 7586TIP3    H244174   1.539   2.355   0.440 -1.7272  0.9441  0.3287
 7587TIP3   OH244175   0.278   5.718   5.760  0.1416  0.3475  0.1044
 7587TIP3    H144176   0.205   5.698   5.819 -0.4847 -0.3428 -0.8803
 7587TIP3    H244177   0.278   5.813   5.754 -0.6135  0.3585  0.2014
 7588TIP3   OH244178   3.834   5.424   5.220 -0.1634 -0.8881 -0.5365
 7588TIP3    H144179   3.870   5.341   5.191  0.6433 -0.3247 -1.1944
 7588TIP3    H244180   3.817   5.412   5.313  2.1382 -1.0593 -0.0863
 7589TIP3   OH244181   6.389   2.658   5.506 -0.2635 -0.5212 -0.5964
 7589TIP3    H144182   6.365   2.704   5.426  0.1360  0.8667  0.0589
 7589TIP3    H244183   6.318   2.595   5.520 -1.0405  0.1790 -1.3002
 7590TIP3   OH244184   2.552   0.772  12.210 -0.3314 -0.1233  0.1899
 7590TIP3    H144185   2.539   0.727  12.126 -2.7230  1.2560 -0.2842
 7590TIP3    H244186   2.588   0.858  12.185 -1.9523  0.6617  0.4241
 7591TIP3   OH244187   3.183   5.286  13.161 -0.8767 -0.2970  0.8497
 7591TIP3    H144188   3.278   5.297  13.159 -1.0379  1.2409 -0.0543
 7591TIP3    H244189   3.162   5.248  13.076 -0.9462 -2.2060  1.6723
 7592TIP3   OH244190   1.605   2.892  10.828 -0.3311  0.4286  0.0854
 7592TIP3    H144191   1.693   2.855  10.839  0.3735  1.5869 -1.3357
 7592TIP3    H244192   1.546   2.818  10.845  0.8398 -0.0616  2.3334
 7593TIP3   OH244193   5.507   2.228  10.793 -0.2161  0.1938  0.0610
 7593TIP3    H144194   5.470   2.273  10.716 -1.5316 -0.4361  0.2953
 7593TIP3    H244195   5.433   2.179  10.830 -0.1240  1.9104  2.8177
 7594TIP3   OH244196   5.875   4.903  14.505 -0.9407 -0.0470  0.0289
 7594TIP3    H144197   5.851   4.996  14.511 -0.1289  0.0843  1.6698
 7594TIP3    H244198   5.792   4.856  14.519 -1.7643  0.3615 -2.7863
 7595TIP3   OH244199   5.112   6.438   2.848 -0.1276 -0.2460  0.4062
 7595TIP3    H144200   5.151   6.443   2.761 -1.8635 -0.5009 -0.4285
 7595TIP3    H244201   5.121   6.527   2.884 -0.4482  0.1652 -0.5099
 7596TIP3   OH244202   3.553   1.653  16.799 -0.2102  0.2431  0.5925
 7596TIP3    H144203   3.518   1.680  16.713 -1.0515 -0.6726  0.6184
 7596TIP3    H244204   3.480   1.606  16.840  0.4844 -0.1228  1.4358
 7597TIP3   OH244205   3.455   1.488   5.206  0.0848 -0.3510 -0.0240
 7597TIP3    H144206   3.504   1.553   5.156  0.6336  0.3247  1.3409
 7597TIP3    H244207   3.364   1.517   5.201  0.3432  0.6153  0.6853
 7598TIP3   OH244208   5.682   5.476  14.498 -0.4559  0.4489 -0.2815
 7598TIP3    H144209   5.772   5.505  14.508  1.1094 -3.2553 -1.6532
 7598TIP3    H244210   5.677   5.444  14.408 -3.5300  1.4901 -0.5988
 7599TIP3   OH244211   4.868   2.596  12.346  0.4473 -0.1434  0.1569
 7599TIP3    H144212   4.849   2.600  12.253 -0.3610 -1.7305  0.2130
 7599TIP3    H244213   4.888   2.686  12.371  2.0862  0.1157 -1.8076
 7600TIP3   OH244214   0.337   5.441   0.073  0.3525 -0.2618  0.2726
 7600TIP3    H144215   0.396   5.454   0.148 -0.1367  0.6432  0.5211
 7600TIP3    H244216   0.368   5.504   0.008 -0.5200  0.4674  0.5339
 7601TIP3   OH244217   5.285   6.447  13.223 -0.3206  0.2668 -0.5031
 7601TIP3    H144218   5.286   6.505  13.148 -0.3272  1.2103  0.2122
 7601TIP3    H244219   5.325   6.366  13.192  0.4787  0.9477 -1.2661
 7602TIP3   OH244220   2.067   4.865   5.489  0.0147  0.4566 -0.2633
 7602TIP3    H144221   1.999   4.798   5.497  0.1177  0.3595 -0.1895
 7602TIP3    H244222   2.075   4.882   5.395 -0.3467  0.7116 -0.2492
 7603TIP3   OH244223   1.741   2.672  15.990 -0.0823 -0.5185  0.3323
 7603TIP3    H144224   1.817   2.684  15.933 -0.3222 -0.3085  0.0510
 7603TIP3    H244225   1.676   2.734  15.956 -0.8677 -1.6362 -0.2811
 7604TIP3   OH244226   1.220   6.289  13.934 -0.3698  0.3312  0.2414
 7604TIP3    H144227   1.302   6.247  13.908 -2.4520 -3.0713 -1.5236
 7604TIP3    H244228   1.204   6.354  13.866 -0.3846 -0.9196 -1.0189
 7605TIP3   OH244229   3.360   0.359   5.307  0.3783  0.0186  0.4737
 7605TIP3    H144230   3.386   0.272   5.338  1.2330  0.5698  1.3861
 7605TIP3    H244231   3.426   0.417   5.344 -0.9613  1.2269  1.0312
 7606TIP3   OH244232   3.058   5.479  11.718  0.1895 -0.2735 -0.0183
 7606TIP3    H144233   3.126   5.449  11.657 -0.0660  2.2836 -1.7077
 7606TIP3    H244234   2.988   5.415  11.707 -0.4306  0.8011 -3.6518
 7607TIP3   OH244235   1.407   1.512   1.069 -0.7347  0.2892 -0.0222
 7607TIP3    H144236   1.488   1.514   1.019 -1.6206 -0.7127 -1.5570
 7607TIP3    H244237   1.429   1.558   1.151  1.6880 -0.9215  0.1151
 7608TIP3   OH244238   1.450   3.677  14.161 -0.3431 -0.4231 -0.2591
 7608TIP3    H144239   1.523   3.623  14.131 -0.8187 -0.9473 -0.4788
 7608TIP3    H244240   1.396   3.618  14.214 -0.8267 -0.1473 -0.4391
 7609TIP3   OH244241   4.830   0.569  17.049  0.2724  0.2271  0.2040
 7609TIP3    H144242   4.858   0.478  17.041 -0.3036  0.1367 -1.0816
 7609TIP3    H244243   4.850   0.593  17.140  1.2548 -0.8912  0.3035
 7610TIP3   OH244244   2.059   6.169   5.604  0.8067  0.0806 -0.2269
 7610TIP3    H144245   1.966   6.161   5.584  0.5865  2.0177 -0.2117
 7610TIP3    H244246   2.072   6.263   5.620  2.5999 -0.2620  0.5885
 7611TIP3   OH244247   3.697   5.186   2.450  0.1497 -0.0133  0.0857
 7611TIP3    H144248   3.650   5.231   2.519  1.2477 -0.5315  1.2241
 7611TIP3    H244249   3.682   5.093   2.467 -1.4185 -0.1706 -1.7464
 7612TIP3   OH244250   0.688   2.290   2.846 -0.5350 -0.1441  0.3267
 7612TIP3    H144251   0.717   2.380   2.859  1.2918 -0.4980 -1.0106
 7612TIP3    H244252   0.599   2.289   2.881  0.4967  1.3508  3.4166
 7613TIP3   OH244253   6.406   5.621   1.110 -0.2418 -0.4330  0.2416
 7613TIP3    H144254   6.419   5.570   1.031 -0.8901  0.8469 -0.7291
 7613TIP3    H244255   6.333   5.578   1.155 -0.2514 -0.8174 -0.1401
 7614TIP3   OH244256   6.091   6.299  14.490  0.0845  0.5845  0.3879
 7614TIP3    H144257   6.127   6.220  14.531  1.4092  0.5277 -0.8098
 7614TIP3    H244258   6.006   6.311  14.533  0.3016 -0.8946  1.3258
 7615TIP3   OH244259   0.085   2.451   0.415  0.1283 -0.2946  0.1837
 7615TIP3    H144260   0.104   2.407   0.332 -2.4499 -0.7911 -0.2245
 7615TIP3    H244261   0.140   2.407   0.479  2.5761  0.4357 -1.2631
 7616TIP3   OH244262   0.884   2.961  12.046  0.5783  0.4223 -0.6349
 7616TIP3    H144263   0.811   2.905  12.020  0.7004  0.1025 -0.2891
 7616TIP3    H244264   0.962   2.913  12.019  0.8195 -0.9547  2.2193
 7617TIP3   OH244265   4.902   6.514  12.284  0.1383 -0.2340 -0.2048
 7617TIP3    H144266   4.844   6.541  12.213 -0.1870  0.7652  0.4262
 7617TIP3    H244267   4.876   6.424  12.304 -0.8512  0.0259 -0.2799
 7618TIP3   OH244268   4.976   4.725   3.135 -0.0219 -0.2138 -0.3522
 7618TIP3    H144269   4.893   4.769   3.154  0.8928  1.8976 -0.9379
 7618TIP3    H244270   4.990   4.738   3.042  2.0026  1.4914  0.1120
 7619TIP3   OH244271   3.532   2.463  15.774  0.6531  0.5464  0.2361
 7619TIP3    H144272   3.501   2.493  15.689 -0.8910 -0.4389  0.4143
 7619TIP3    H244273   3.563   2.542  15.818  5.0257  0.7282 -2.5075
 7620TIP3   OH244274   3.282   5.754   1.218  0.7158 -0.1731  0.7629
 7620TIP3    H144275   3.253   5.779   1.306  2.9523 -0.6565  1.6928
 7620TIP3    H244276   3.323   5.668   1.229  0.3259 -0.6190 -0.9236
 7621TIP3   OH244277   3.527   1.392  16.266 -0.5217 -0.4913  0.0126
 7621TIP3    H144278   3.559   1.450  16.197  0.7915 -1.8918 -0.6314
 7621TIP3    H244279   3.439   1.424  16.286  0.2490  1.8583 -0.0941
 7622TIP3   OH244280   5.781   5.046  15.696 -0.3550  0.4116 -0.0369
 7622TIP3    H144281   5.846   4.977  15.708 -1.2935 -1.1182 -2.8503
 7622TIP3    H244282   5.697   5.000  15.692 -1.1911  1.8953 -0.4205
 7623TIP3   OH244283   3.407   0.652   4.788 -0.0709 -0.2905 -0.3107
 7623TIP3    H144284   3.496   0.686   4.780 -0.4499  0.4272 -1.9431
 7623TIP3    H244285   3.398   0.592   4.714 -1.1091  0.0417 -0.4656
 7624TIP3   OH244286   0.454   6.001   2.102 -0.9156  0.0160  0.0463
 7624TIP3    H144287   0.489   5.912   2.111 -2.3933 -0.7690 -1.4162
 7624TIP3    H244288   0.383   6.006   2.166 -0.9277  0.0885  0.0277
 7625TIP3   OH244289   3.521   4.917  15.313 -0.0180 -0.0403 -0.3036
 7625TIP3    H144290   3.540   4.992  15.370  0.4319  0.3274 -0.9225
 7625TIP3    H244291   3.543   4.841  15.367  2.0572  0.3274 -0.5156
 7626TIP3   OH244292   3.699   1.211   2.500 -0.1096 -0.1941 -0.1032
 7626TIP3    H144293   3.745   1.262   2.433 -1.6384  0.7744 -0.4736
 7626TIP3    H244294   3.628   1.268   2.529 -0.2879 -1.1278  1.3938
 7627TIP3   OH244295   0.248   0.724  11.651  0.4193 -0.0236  0.3912
 7627TIP3    H144296   0.338   0.703  11.625  0.9207  2.2297  0.0977
 7627TIP3    H244297   0.257   0.795  11.714 -1.1573 -0.3026  0.9893
 7628TIP3   OH244298   6.713   0.901  13.881  0.1906 -0.7749  0.0484
 7628TIP3    H144299   6.750   0.965  13.820  0.0618  0.3851  1.1733
 7628TIP3    H244300   6.786   0.878  13.938 -0.5148  0.7519  1.6287
 7629TIP3   OH244301   1.131   1.280  16.746 -0.1590  0.9869  0.1411
 7629TIP3    H144302   1.053   1.295  16.800  0.9842 -0.1418  2.2273
 7629TIP3    H244303   1.108   1.204  16.692 -0.8343  1.2730  0.0177
 7630TIP3   OH244304   0.141   0.486   5.701 -0.2422  0.3491  0.6595
 7630TIP3    H144305   0.235   0.471   5.684 -0.5425  0.6205 -1.5838
 7630TIP3    H244306   0.140   0.540   5.780  1.3695 -1.4312  1.9999
 7631TIP3   OH244307   3.840   2.913   4.822 -0.2126 -0.6861  0.6683
 7631TIP3    H144308   3.839   2.836   4.764 -0.7372 -0.3035  0.1532
 7631TIP3    H244309   3.875   2.983   4.767 -3.8243  0.5453 -0.3891
 7632TIP3   OH244310   1.857   2.837   0.549  0.4259 -0.0078 -0.3203
 7632TIP3    H144311   1.849   2.788   0.467  1.3313 -0.0041 -0.4282
 7632TIP3    H244312   1.803   2.915   0.536 -0.9005 -0.8714 -0.2066
 7633TIP3   OH244313   5.156   3.085   3.821  0.7212 -0.0335  0.1579
 7633TIP3    H144314   5.241   3.043   3.831  1.1734  0.9264  0.4090
 7633TIP3    H244315   5.125   3.100   3.910  1.1017  1.2169  0.1016
 7634TIP3   OH244316   6.134   4.140  11.321  0.6834  0.2275  0.0565
 7634TIP3    H144317   6.133   4.127  11.226 -0.7822 -1.2205  0.2245
 7634TIP3    H244318   6.075   4.214  11.335  0.8838  0.4293 -0.1665
 7635TIP3   OH244319   1.514   3.121  10.722  0.2509  0.6419 -0.6330
 7635TIP3    H144320   1.552   3.038  10.754 -0.5870  0.7592  0.7389
 7635TIP3    H244321   1.547   3.129  10.632  0.4678 -1.1028 -0.7455
 7636TIP3   OH244322   3.761   2.873   5.400 -0.1549  0.6767 -0.3082
 7636TIP3    H144323   3.825   2.818   5.445 -0.0201  0.0036 -1.2827
 7636TIP3    H244324   3.811   2.949   5.370 -0.2184  1.0621  0.5396
 7637TIP3   OH244325   0.489   2.530   4.630  0.0066 -0.0710  0.2332
 7637TIP3    H144326   0.445   2.589   4.569  1.4921  1.9888  1.0277
 7637TIP3    H244327   0.420   2.503   4.690 -0.9941 -0.2600 -0.9548
 7638TIP3   OH244328   1.197   3.033  14.786  0.2856  0.4602  0.2249
 7638TIP3    H144329   1.228   2.943  14.775  1.5104  0.9400 -0.5028
 7638TIP3    H244330   1.253   3.070  14.853 -0.2667  0.6731  0.5792
 7639TIP3   OH244331   3.947   4.964  11.620  0.0902 -0.1047 -0.4307
 7639TIP3    H144332   3.877   4.999  11.565  0.2665  1.6531  0.3715
 7639TIP3    H244333   4.026   5.010  11.589  0.8998 -1.8775 -1.1684
 7640TIP3   OH244334   5.718   2.957  12.085 -0.9028 -0.5143  0.1962
 7640TIP3    H144335   5.812   2.971  12.089 -1.0401  0.2705  0.8229
 7640TIP3    H244336   5.707   2.863  12.103 -0.3382 -0.3113  1.7339
 7641TIP3   OH244337   3.314   3.961   6.215  0.3036  0.2511 -0.1292
 7641TIP3    H144338   3.338   3.871   6.237 -1.3137 -0.5407 -1.3866
 7641TIP3    H244339   3.223   3.969   6.244  0.0204  1.0422 -1.1614
 7642TIP3   OH244340   1.784   1.800   3.556  0.0781 -0.4727  0.0913
 7642TIP3    H144341   1.789   1.737   3.628 -0.6387  0.0929  0.6582
 7642TIP3    H244342   1.746   1.878   3.596  1.8428  0.6878 -0.3546
 7643TIP3   OH244343   1.977   1.987   4.930 -0.3175  0.1295  0.5472
 7643TIP3    H144344   2.029   1.915   4.895  0.2663  0.7423  0.1364
 7643TIP3    H244345   2.041   2.045   4.970 -0.7364  0.6760  0.4275
 7644TIP3   OH244346   2.612   2.519  11.586 -0.8326  0.4332  0.2534
 7644TIP3    H144347   2.651   2.435  11.611 -0.1612  0.7760  0.3838
 7644TIP3    H244348   2.687   2.577  11.575 -1.3592  1.5460  2.1109
 7645TIP3   OH244349   1.725   4.999   1.628  0.1596  0.0819  0.0763
 7645TIP3    H144350   1.700   4.907   1.616  2.0996 -0.3559 -1.1440
 7645TIP3    H244351   1.699   5.043   1.548 -0.4228  0.5315  0.5040
 7646TIP3   OH244352   5.201   3.430  13.710  0.3110  0.0515 -0.4507
 7646TIP3    H144353   5.294   3.446  13.728  1.0450  1.1833 -4.3320
 7646TIP3    H244354   5.199   3.340  13.677  1.0000  1.3530 -4.6031
 7647TIP3   OH244355   4.332   1.908   2.771 -0.4501  0.0423  0.1667
 7647TIP3    H144356   4.275   1.920   2.846 -0.3718 -0.6523  0.3463
 7647TIP3    H244357   4.391   1.836   2.797 -0.5941 -0.3812 -0.6520
 7648TIP3   OH244358   5.469   0.239  15.671 -0.2976  0.4033 -0.3427
 7648TIP3    H144359   5.479   0.293  15.750  0.7768 -0.2124 -0.0343
 7648TIP3    H244360   5.439   0.155  15.703 -0.8640  0.4635 -0.7062
 7649TIP3   OH244361   3.019   4.504  16.381  0.3457  0.0242  0.3326
 7649TIP3    H144362   3.066   4.577  16.420 -2.2285  1.2918  1.3323
 7649TIP3    H244363   3.036   4.430  16.439  0.6456  0.5915  0.9729
 7650TIP3   OH244364   3.961   1.208  13.239  0.0205 -0.3191  0.2010
 7650TIP3    H144365   3.904   1.166  13.173 -1.0677  0.9880  0.2660
 7650TIP3    H244366   3.908   1.207  13.319 -0.0822  1.2268  0.1785
 7651TIP3   OH244367   2.219   3.972  12.329  0.4426 -0.2127  0.2285
 7651TIP3    H144368   2.162   4.004  12.259  1.1270 -0.6830 -0.5566
 7651TIP3    H244369   2.168   3.984  12.409 -1.1884 -1.6061 -0.5519
 7652TIP3   OH244370   5.024   1.486  14.642 -0.4886  0.7367 -0.3992
 7652TIP3    H144371   5.112   1.467  14.611 -0.3397  0.9306 -0.0952
 7652TIP3    H244372   5.036   1.532  14.725 -0.8573  1.3902 -0.6974
 7653TIP3   OH244373   5.350   6.794  15.648 -0.5370 -0.1247  0.3787
 7653TIP3    H144374   5.324   6.825  15.561  1.8591  2.1822  0.3918
 7653TIP3    H244375   5.404   6.717  15.631 -0.9491 -0.3230 -0.0702
 7654TIP3   OH244376   3.036   1.239   5.104  0.0074  0.2389  0.6701
 7654TIP3    H144377   3.030   1.291   5.024  2.2518 -0.5857 -0.0980
 7654TIP3    H244378   2.987   1.160   5.086 -1.2351  0.9233  0.9085
 7655TIP3   OH244379   0.567   3.493   1.294  0.4502  0.0026 -0.2554
 7655TIP3    H144380   0.635   3.560   1.284  1.3293 -0.8439 -0.1675
 7655TIP3    H244381   0.613   3.420   1.335 -1.0309  0.1924  1.8983
 7656TIP3   OH244382   5.542   1.961  11.913  0.1263 -0.6294 -0.1772
 7656TIP3    H144383   5.636   1.942  11.921  0.2690  0.2660  0.3210
 7656TIP3    H244384   5.538   2.037  11.855 -0.2797 -0.4945  0.0280
 7657TIP3   OH244385   3.770   4.478  16.753 -0.5132  0.0277 -0.6300
 7657TIP3    H144386   3.753   4.562  16.795  1.0623  0.1946 -0.2857
 7657TIP3    H244387   3.746   4.413  16.819 -0.2960  0.2375 -0.3413
 7658TIP3   OH244388   4.307   5.249  17.131 -0.3350 -0.1651  0.2084
 7658TIP3    H144389   4.315   5.156  17.108 -0.0343  0.0736 -0.7043
 7658TIP3    H244390   4.225   5.276  17.089 -1.7896 -0.5955  2.5724
 7659TIP3   OH244391   1.143   5.504   6.472 -0.7401 -0.3890  0.4928
 7659TIP3    H144392   1.137   5.427   6.528  1.9228  0.7530  2.5188
 7659TIP3    H244393   1.215   5.484   6.412 -0.9795 -0.0052  0.0706
 7660TIP3   OH244394   1.145   3.180   6.520  0.1459  0.5446  0.4804
 7660TIP3    H144395   1.129   3.115   6.452  2.7254 -0.3560  0.6178
 7660TIP3    H244396   1.099   3.258   6.491 -1.0730 -0.6243 -0.8820
 7661TIP3   OH244397   1.105   1.965   5.240 -0.1525  0.0957  0.0360
 7661TIP3    H144398   1.175   1.923   5.190  0.5822 -0.1725  1.2432
 7661TIP3    H244399   1.121   2.059   5.231  0.5315  0.0299  0.5309
 7662TIP3   OH244400   0.997   3.615   3.547 -0.2234  0.7376  0.4748
 7662TIP3    H144401   0.917   3.577   3.511  0.1472  0.9606 -0.6459
 7662TIP3    H244402   0.969   3.658   3.628 -1.1210  0.3031  0.4093
 7663TIP3   OH244403   0.625   6.228  14.220  0.1406 -0.5304  0.2026
 7663TIP3    H144404   0.587   6.270  14.296 -0.1506 -1.1618  0.4144
 7663TIP3    H244405   0.556   6.230  14.154  0.5333  0.3946 -0.1998
 7664TIP3   OH244406   6.121   5.298   4.117 -0.2055 -0.4585  0.4052
 7664TIP3    H144407   6.118   5.253   4.201 -0.7684 -2.4396 -0.6333
 7664TIP3    H244408   6.030   5.321   4.098 -0.0393  0.2893  0.4806
 7665TIP3   OH244409   6.207   0.741  15.521  0.7117 -0.9432  0.1195
 7665TIP3    H144410   6.207   0.714  15.613  0.5629 -1.3848 -0.0032
 7665TIP3    H244411   6.254   0.671  15.476 -0.3664 -1.4161 -0.3168
 7666TIP3   OH244412   6.734   0.834   3.888  0.1369  0.3508 -0.0803
 7666TIP3    H144413   6.794   0.764   3.914  0.0827  0.4865  0.4296
 7666TIP3    H244414   6.791   0.901   3.849  0.1959  0.0499 -0.5095
 7667TIP3   OH244415   4.293   5.176   5.827 -0.4123 -0.5148 -0.1631
 7667TIP3    H144416   4.344   5.095   5.832  1.8068  0.7793 -0.5194
 7667TIP3    H244417   4.327   5.230   5.899 -0.0325  1.0457 -1.4699
 7668TIP3   OH244418   6.634   3.353  13.128  0.4236  0.0706 -0.1552
 7668TIP3    H144419   6.721   3.337  13.166 -0.0182  1.1069  1.4087
 7668TIP3    H244420   6.575   3.298  13.180 -0.0454  0.6073 -0.1151
 7669TIP3   OH244421   0.965   1.471   5.992 -0.1520 -0.2262  0.2342
 7669TIP3    H144422   1.001   1.389   6.024  0.1619  0.1329  0.8236
 7669TIP3    H244423   0.870   1.458   5.993 -0.0996 -0.6232  0.1997
 7670TIP3   OH244424   1.173   0.811   3.321  0.1228  0.2767  0.3669
 7670TIP3    H144425   1.230   0.834   3.394 -1.1284 -0.9215  1.7784
 7670TIP3    H244426   1.123   0.735   3.352 -1.1787  0.3583 -1.3652
 7671TIP3   OH244427   0.963   2.598  14.697 -0.2095 -0.2134  0.4935
 7671TIP3    H144428   0.908   2.585  14.620  0.5684 -1.0621  0.0653
 7671TIP3    H244429   1.051   2.572  14.668  0.7369  2.4099  0.7237
 7672TIP3   OH244430   2.246   0.831  13.388  0.2496  0.0505 -0.2266
 7672TIP3    H144431   2.160   0.795  13.409 -0.4066  1.7615  0.2020
 7672TIP3    H244432   2.250   0.827  13.292  0.2460 -1.1776 -0.1986
 7673TIP3   OH244433   0.792   5.233   6.564  0.0652  0.4848 -0.6847
 7673TIP3    H144434   0.697   5.240   6.578 -0.2529  0.5263 -2.5043
 7673TIP3    H244435   0.800   5.177   6.487  1.5950 -0.4090  0.0787
 7674TIP3   OH244436   3.593   0.213  10.399  0.5261  0.1778 -0.3649
 7674TIP3    H144437   3.688   0.222  10.408  0.6591 -1.0689 -0.2701
 7674TIP3    H244438   3.558   0.245  10.482  0.9056  0.1450 -0.1911
 7675TIP3   OH244439   0.399   4.943   6.336 -0.1956 -0.1451  0.3716
 7675TIP3    H144440   0.473   4.949   6.276 -1.6436  0.2411 -1.4945
 7675TIP3    H244441   0.387   5.031   6.370 -0.6046  0.1132 -0.4076
 7676TIP3   OH244442   4.741   0.311  11.280  0.4417  0.3878  0.8202
 7676TIP3    H144443   4.826   0.269  11.293  1.1371  1.4924  0.0184
 7676TIP3    H244444   4.736   0.376  11.351  0.1800  0.1969  0.9773
 7677TIP3   OH244445   2.474   0.848   4.240 -0.0790 -0.6084  0.2069
 7677TIP3    H144446   2.500   0.830   4.330 -0.5208  2.0616  0.9461
 7677TIP3    H244447   2.394   0.900   4.248  0.2804  0.3104 -1.6901
 7678TIP3   OH244448   5.554   5.041   1.950 -0.5507 -0.4211 -0.4735
 7678TIP3    H144449   5.599   5.022   2.033 -1.3528 -1.4695 -0.2474
 7678TIP3    H244450   5.607   4.998   1.884 -0.4688 -0.4714 -0.3759
 7679TIP3   OH244451   5.270   1.930  11.954 -0.0728 -0.0134 -0.1421
 7679TIP3    H144452   5.316   1.903  12.034  0.2167 -2.0703 -0.9458
 7679TIP3    H244453   5.340   1.948  11.892 -0.3025 -0.5599 -0.5686
 7680TIP3   OH244454   5.863   6.796   5.447 -0.3162  0.1559 -0.2039
 7680TIP3    H144455   5.863   6.745   5.528 -0.6094 -1.7081 -1.3094
 7680TIP3    H244456   5.949   6.839   5.445  0.4259 -1.2532  0.2249
 7681TIP3   OH244457   1.640   5.883   0.535 -0.6426 -0.0162  0.1287
 7681TIP3    H144458   1.733   5.904   0.530 -0.3429 -0.8978  1.4260
 7681TIP3    H244459   1.596   5.963   0.507  0.4977  0.6371  0.1345
 7682TIP3   OH244460   4.126   5.531   4.528 -0.4773 -0.5533  0.1806
 7682TIP3    H144461   4.213   5.497   4.505 -1.2215 -3.3536  1.1483
 7682TIP3    H244462   4.070   5.454   4.531 -2.5477  0.9066  1.6793
 7683TIP3   OH244463   2.828   2.966   2.113 -0.2759  0.4861 -0.3036
 7683TIP3    H144464   2.791   2.878   2.109 -1.9413  1.0542  1.4260
 7683TIP3    H244465   2.916   2.956   2.077 -0.5289 -1.8148 -0.4480
 7684TIP3   OH244466   2.999   1.995  11.361 -0.5312 -0.0947 -0.5092
 7684TIP3    H144467   3.016   1.901  11.354 -0.4909  0.0144 -2.0663
 7684TIP3    H244468   3.046   2.034  11.288 -0.8182  1.1119 -0.0757
 7685TIP3   OH244469   3.795   6.622   0.924 -0.0167 -0.2154  0.0112
 7685TIP3    H144470   3.743   6.616   0.843  1.2219  0.0692 -0.8391
 7685TIP3    H244471   3.769   6.705   0.962 -0.7476 -0.4341  0.0145
 7686TIP3   OH244472   4.617   6.430  14.579 -0.0118 -0.6276  0.6997
 7686TIP3    H144473   4.640   6.457  14.668  0.3175 -0.6633  0.6267
 7686TIP3    H244474   4.611   6.335  14.583 -3.2431 -0.4944  1.4594
 7687TIP3   OH244475   2.804   3.138  10.943 -0.2659  0.1209  0.3945
 7687TIP3    H144476   2.727   3.148  10.888  1.2969 -1.3585 -2.2934
 7687TIP3    H244477   2.869   3.197  10.905  1.2416 -1.8033 -0.2438
 7688TIP3   OH244478   3.725   0.528  15.055 -0.7197 -0.6562 -0.4404
 7688TIP3    H144479   3.683   0.613  15.047  1.9669  0.7713 -0.6047
 7688TIP3    H244480   3.790   0.527  14.984 -0.8111 -2.9554 -0.5738
 7689TIP3   OH244481   6.675   4.342   1.118  0.2996  0.1259 -0.0797
 7689TIP3    H144482   6.636   4.348   1.031 -0.9832 -2.3176  0.2596
 7689TIP3    H244483   6.674   4.432   1.151 -2.7100  0.5734 -1.1263
 7690TIP3   OH244484   3.437   6.374   2.272 -0.4392  0.6067  0.4651
 7690TIP3    H144485   3.426   6.374   2.176 -3.0825 -0.5870  0.6801
 7690TIP3    H244486   3.522   6.415   2.286 -1.0274  3.1741 -2.2681
 7691TIP3   OH244487   1.697   6.466   5.511  0.2749  0.3697  0.2810
 7691TIP3    H144488   1.713   6.534   5.576  0.8459  1.3333 -0.8225
 7691TIP3    H244489   1.714   6.509   5.427 -1.9453 -0.4005 -0.6161
 7692TIP3   OH244490   5.813   0.198  12.028  0.4330 -0.4678 -0.4907
 7692TIP3    H144491   5.870   0.267  12.060 -0.3847 -0.2866  0.6343
 7692TIP3    H244492   5.773   0.234  11.949  1.0148 -0.1723 -0.6520
 7693TIP3   OH244493   4.299   6.631   5.938  0.0434 -0.2534  0.7593
 7693TIP3    H144494   4.363   6.561   5.927  0.2922 -0.3581  2.5900
 7693TIP3    H244495   4.319   6.694   5.869  0.8087 -1.2376  0.0636
 7694TIP3   OH244496   4.453   1.802   5.511  0.7484 -0.2010  0.1158
 7694TIP3    H144497   4.364   1.830   5.490 -0.2220 -0.4126  3.5096
 7694TIP3    H244498   4.463   1.719   5.465 -1.4189 -0.9446  0.8614
 7695TIP3   OH244499   4.848   6.789   0.782 -0.0202 -0.0178 -0.1974
 7695TIP3    H144500   4.814   6.764   0.696  0.1061 -0.1268 -0.2167
 7695TIP3    H244501   4.877   6.879   0.772  0.9515 -0.3557 -0.5607
 7696TIP3   OH244502   2.393   0.030  15.897 -0.3363  0.4236 -0.0741
 7696TIP3    H144503   2.298   0.044  15.901 -0.3478  0.4170 -0.3233
 7696TIP3    H244504   2.430   0.118  15.903 -0.3162  0.3372  1.2768
 7697TIP3   OH244505   5.701   1.275   4.378 -0.2381  0.0755  0.3257
 7697TIP3    H144506   5.681   1.267   4.471 -0.8994  1.0052  0.2776
 7697TIP3    H244507   5.793   1.301   4.375 -0.7808  2.1993  0.8224
 7698TIP3   OH244508   1.705   5.207   1.862  0.6320  0.0019  0.1984
 7698TIP3    H144509   1.666   5.207   1.775 -0.5380  2.1634  0.6562
 7698TIP3    H244510   1.699   5.117   1.892  0.0598 -0.5543 -1.5222
 7699TIP3   OH244511   5.464   5.153   0.696  0.1610 -0.3437  0.1801
 7699TIP3    H144512   5.423   5.128   0.779  0.1966 -0.6316  0.1104
 7699TIP3    H244513   5.461   5.249   0.697  3.3720 -0.1065  2.1415
 7700TIP3   OH244514   3.131   3.689   4.495  0.5080 -0.2721 -0.2539
 7700TIP3    H144515   3.146   3.783   4.489  1.4024 -0.3539  0.4262
 7700TIP3    H244516   3.188   3.660   4.567 -0.1116 -1.2525 -0.1366
 7701TIP3   OH244517   2.673   0.813  16.769  0.6125  0.3456 -0.1640
 7701TIP3    H144518   2.658   0.724  16.802  1.5390  0.2091 -0.0924
 7701TIP3    H244519   2.703   0.800  16.679 -0.6601  0.6651 -0.6594
 7702TIP3   OH244520   0.510   4.285  13.051 -0.5185 -0.2159 -0.3484
 7702TIP3    H144521   0.433   4.310  13.000 -0.7635  0.8311  0.5057
 7702TIP3    H244522   0.558   4.225  12.994 -1.1358  0.3810 -1.5220
 7703TIP3   OH244523   0.790   5.886   1.009 -0.1351  0.0284  0.4677
 7703TIP3    H144524   0.729   5.951   0.977  0.0505 -0.4046 -0.8233
 7703TIP3    H244525   0.810   5.913   1.098  0.5653  2.1913 -0.2917
 7704TIP3   OH244526   0.847   4.483  16.617 -0.3504 -0.2894 -0.2092
 7704TIP3    H144527   0.931   4.475  16.573  0.2790  1.8177  0.4911
 7704TIP3    H244528   0.856   4.430  16.697  1.1672  1.5756  0.9542
 7705TIP3   OH244529   3.427   6.584   6.529 -0.0117 -0.3115 -0.3670
 7705TIP3    H144530   3.412   6.587   6.623  1.0856  1.8762 -0.2018
 7705TIP3    H244531   3.348   6.623   6.491 -0.1422 -0.5284 -0.3235
 7706TIP3   OH244532   4.380   1.644   2.804 -0.2093 -0.0259 -0.3618
 7706TIP3    H144533   4.463   1.599   2.823  0.6342  1.3933 -0.5597
 7706TIP3    H244534   4.325   1.627   2.881  0.8007  0.2506  0.4341
 7707TIP3   OH244535   4.121   0.105   4.736  0.4783  0.3281  0.0295
 7707TIP3    H144536   4.136   0.047   4.811  1.6248  1.4822  0.7289
 7707TIP3    H244537   4.055   0.167   4.766 -0.8602 -0.6675 -0.7695
 7708TIP3   OH244538   5.650   2.887   1.220 -0.2440 -0.1304  0.3310
 7708TIP3    H144539   5.667   2.800   1.185  0.6014 -0.8725  2.4008
 7708TIP3    H244540   5.706   2.945   1.168 -0.3379 -0.8919 -0.6496
 7709TIP3   OH244541   3.594   4.586  12.079  0.4160 -0.3507  0.2292
 7709TIP3    H144542   3.674   4.639  12.087  0.6536 -0.9460  2.3166
 7709TIP3    H244543   3.591   4.535  12.159 -2.2260 -0.1669  0.3213
 7710TIP3   OH244544   6.791   0.821   4.347  0.2041 -0.3268 -0.0360
 7710TIP3    H144545   6.865   0.865   4.304  0.2300  2.7096  2.7400
 7710TIP3    H244546   6.715   0.844   4.294  0.7513 -0.3257 -0.8334
 7711TIP3   OH244547   6.407   0.693  10.693  0.6661  1.1801 -0.2515
 7711TIP3    H144548   6.316   0.665  10.703  0.8457  0.6065 -0.1553
 7711TIP3    H244549   6.423   0.750  10.768 -0.0925  2.6222 -1.1539
 7712TIP3   OH244550   6.573   2.126   3.165  0.0149 -0.4730  0.2854
 7712TIP3    H144551   6.568   2.118   3.070  0.7240 -1.5724  0.3187
 7712TIP3    H244552   6.562   2.219   3.182  4.0801  0.4991 -1.1956
 7713TIP3   OH244553   2.267   1.525  17.090  0.3802 -0.0797  0.5077
 7713TIP3    H144554   2.326   1.596  17.114 -0.4861  0.3507  1.4718
 7713TIP3    H244555   2.254   1.534  16.996  0.0542  1.2291  0.6663
 7714TIP3   OH244556   0.384   4.112   3.323  0.9055  1.4852  0.5686
 7714TIP3    H144557   0.469   4.097   3.282 -0.5351 -1.8356 -1.6066
 7714TIP3    H244558   0.395   4.083   3.414  1.2986 -2.5824 -0.6155
 7715TIP3   OH244559   6.614   3.664   3.772  0.0386  0.2770  0.4960
 7715TIP3    H144560   6.538   3.697   3.821  0.5148  2.3499 -0.0453
 7715TIP3    H244561   6.605   3.704   3.685  0.9836 -0.6537 -0.0518
 7716TIP3   OH244562   2.155   2.648  11.391 -0.0238  0.6516  0.5437
 7716TIP3    H144563   2.214   2.637  11.465 -0.2780  0.7623  0.7622
 7716TIP3    H244564   2.210   2.632  11.314 -0.0482 -0.7714  0.7949
 7717TIP3   OH244565   4.409   5.164  12.580  0.0393 -0.0155  0.4109
 7717TIP3    H144566   4.453   5.249  12.575  0.0576 -0.0833 -1.0941
 7717TIP3    H244567   4.425   5.123  12.495 -0.3480 -1.3484  0.9436
 7718TIP3   OH244568   2.295   1.156   3.379  0.2599  0.0123 -0.3880
 7718TIP3    H144569   2.215   1.134   3.331  0.5587  0.0900 -0.9369
 7718TIP3    H244570   2.366   1.140   3.316  0.5004  2.6743 -0.9178
 7719TIP3   OH244571   3.204   6.747  15.692  0.1227 -0.0354  0.0779
 7719TIP3    H144572   3.289   6.745  15.649  0.2328 -1.6735  0.2918
 7719TIP3    H244573   3.224   6.755  15.786  0.0806 -0.8969  0.1687
 7720TIP3   OH244574   4.230   4.678  15.581 -0.6215  0.1189  0.3233
 7720TIP3    H144575   4.254   4.768  15.604  0.8487 -0.1836  0.0877
 7720TIP3    H244576   4.195   4.641  15.662  1.6612 -0.0062  1.3385
 7721TIP3   OH244577   5.449   3.839   1.009 -0.3379 -0.1756  0.2731
 7721TIP3    H144578   5.447   3.912   1.072 -0.1405  0.6969 -0.6958
 7721TIP3    H244579   5.526   3.788   1.033  0.2553  0.6652  0.2005
 7722TIP3   OH244580   1.713   6.212   3.462  0.7701 -0.0154  0.1686
 7722TIP3    H144581   1.736   6.121   3.477  1.0274 -0.3524 -1.9471
 7722TIP3    H244582   1.771   6.262   3.521  0.6627 -1.1886  1.2976
 7723TIP3   OH244583   5.336   5.183  13.446 -0.0009 -0.4810 -0.3252
 7723TIP3    H144584   5.288   5.238  13.507  1.3778 -1.3303  1.6115
 7723TIP3    H244585   5.271   5.119  13.416 -0.5635 -0.4189  0.7260
 7724TIP3   OH244586   3.116   3.449   6.181 -0.2411 -0.1348 -0.3065
 7724TIP3    H144587   3.133   3.390   6.255 -0.8085  0.1966  0.0981
 7724TIP3    H244588   3.179   3.422   6.114 -0.1428 -0.8546  0.0641
 7725TIP3   OH244589   6.354   2.634   6.025  0.0498 -0.5972  0.2763
 7725TIP3    H144590   6.268   2.628   5.983 -0.0026 -0.4015  0.3533
 7725TIP3    H244591   6.416   2.604   5.958 -0.0803 -0.7580  0.2277
 7726TIP3   OH244592   3.184   3.497  13.608 -0.1499  0.5295 -0.6038
 7726TIP3    H144593   3.207   3.590  13.608  0.3459  0.4272  0.6692
 7726TIP3    H244594   3.267   3.451  13.593 -0.4368  0.2867 -1.5116
 7727TIP3   OH244595   6.795   1.134  16.271  0.2278 -0.3741  0.1890
 7727TIP3    H144596   6.838   1.058  16.309  0.3731 -1.1878 -1.5236
 7727TIP3    H244597   6.737   1.098  16.204 -0.1041  0.9970 -0.2971
 7728TIP3   OH244598   4.970   2.166  15.502  1.2452 -0.3168  0.0280
 7728TIP3    H144599   5.039   2.193  15.562  0.2667  0.3472  0.8998
 7728TIP3    H244600   4.895   2.221  15.526 -0.6276 -3.1518  1.3060
 7729TIP3   OH244601   5.927   0.334   1.139  0.0559  0.1784 -0.1043
 7729TIP3    H144602   6.004   0.277   1.149 -1.2726 -1.6778 -0.0789
 7729TIP3    H244603   5.925   0.384   1.221  1.0437  0.0228  0.0354
 7730TIP3   OH244604   4.641   3.554   4.773 -0.0368 -0.1206  0.3982
 7730TIP3    H144605   4.622   3.632   4.721 -0.1703  0.5702  1.4611
 7730TIP3    H244606   4.574   3.491   4.746  0.3042 -0.0069 -0.7449
 7731TIP3   OH244607   5.772   5.888   4.714 -0.0961  0.4391 -0.5329
 7731TIP3    H144608   5.748   5.980   4.700 -0.7663  0.2227 -0.8185
 7731TIP3    H244609   5.792   5.855   4.627 -1.1789 -0.0473 -0.6088
 7732TIP3   OH244610   1.937   6.017   3.271 -0.0011  0.3814 -0.2781
 7732TIP3    H144611   1.916   5.961   3.345  0.4484  1.2439  0.5163
 7732TIP3    H244612   1.852   6.032   3.227  0.0242 -1.8806 -1.2481
 7733TIP3   OH244613   4.259   1.963  12.230  0.1224 -0.3166 -0.0458
 7733TIP3    H144614   4.339   1.947  12.181  1.4216  3.5425  0.5296
 7733TIP3    H244615   4.288   2.005  12.311 -2.4459  3.6699 -0.9120
 7734TIP3   OH244616   5.585   1.512   6.098 -0.5361 -0.4302  0.2114
 7734TIP3    H144617   5.506   1.459   6.082 -1.7907  1.2604  0.5138
 7734TIP3    H244618   5.571   1.591   6.047 -0.0020  0.7920  1.8853
 7735TIP3   OH244619   0.236   0.873  10.896  0.0131  0.0014 -0.1206
 7735TIP3    H144620   0.204   0.888  10.985 -1.2548  0.4814 -0.6343
 7735TIP3    H244621   0.229   0.958  10.853  1.3970 -0.0331 -0.4530
 7736TIP3   OH244622   1.506   4.815   1.333 -0.1323 -0.4186 -0.0962
 7736TIP3    H144623   1.601   4.803   1.334 -0.1786 -0.8213 -0.2804
 7736TIP3    H244624   1.485   4.848   1.420  0.4703  2.0478 -0.8252
 7737TIP3   OH244625   1.233   5.243   4.343  0.0931  0.0216 -0.5875
 7737TIP3    H144626   1.240   5.148   4.352 -0.1774 -0.1248 -1.7728
 7737TIP3    H244627   1.153   5.257   4.292  0.0844  0.8889 -0.3618
 7738TIP3   OH244628   1.676   6.053  16.218  0.5633  0.2603 -0.0031
 7738TIP3    H144629   1.623   5.997  16.161 -0.2647  1.9871 -0.9977
 7738TIP3    H244630   1.619   6.071  16.293  0.2316  1.0126 -0.4269
 7739TIP3   OH244631   4.731   2.819  12.503 -0.2333 -0.6805  0.0994
 7739TIP3    H144632   4.642   2.795  12.476 -0.0030 -0.5337 -0.8254
 7739TIP3    H244633   4.751   2.758  12.573 -2.1669  1.1664  2.4666
 7740TIP3   OH244634   1.658   4.469   6.021 -0.2372  0.0167 -0.2148
 7740TIP3    H144635   1.753   4.475   6.017  0.1279 -3.0553  1.1465
 7740TIP3    H244636   1.629   4.472   5.930  1.2016  0.4452 -0.6795
 7741TIP3   OH244637   1.207   3.546   3.701 -0.0450 -0.2846 -0.0599
 7741TIP3    H144638   1.238   3.628   3.741  0.8097 -1.0651  0.9672
 7741TIP3    H244639   1.146   3.574   3.633  0.4868  1.2179  0.0283
 7742TIP3   OH244640   1.173   0.299   3.261 -0.0586  0.0638  0.3235
 7742TIP3    H144641   1.169   0.203   3.265  0.0804  0.0545  0.2365
 7742TIP3    H244642   1.127   0.322   3.181 -0.2355  0.0797  0.4287
 7743TIP3   OH244643   5.430   3.700   3.321  0.1746  0.3275  0.1712
 7743TIP3    H144644   5.518   3.685   3.356 -0.7205 -0.5210  2.2186
 7743TIP3    H244645   5.429   3.792   3.296  1.0530  0.8782  2.0232
 7744TIP3   OH244646   6.762   6.647   3.829  0.2691  0.4243  0.3347
 7744TIP3    H144647   6.802   6.633   3.915 -0.1433 -0.8253  0.3418
 7744TIP3    H244648   6.729   6.561   3.804 -0.2020  0.9168 -0.7869
 7745TIP3   OH244649   2.906   3.431   0.420 -0.3469 -0.3743 -0.0141
 7745TIP3    H144650   2.851   3.359   0.450 -0.2941  0.1812  1.4754
 7745TIP3    H244651   2.985   3.389   0.386 -1.5125 -1.1590 -1.8712
 7746TIP3   OH244652   5.586   3.186   2.733 -0.1920 -0.7307  0.5161
 7746TIP3    H144653   5.536   3.105   2.743  0.0771 -0.7559  1.8668
 7746TIP3    H244654   5.656   3.164   2.672 -1.1285 -1.0205 -0.4753
 7747TIP3   OH244655   0.215   1.349  12.509  1.0328  0.2937  0.1461
 7747TIP3    H144656   0.233   1.261  12.478 -0.9917 -0.1933  0.2613
 7747TIP3    H244657   0.203   1.401  12.429  1.5255  0.3271  0.0897
 7748TIP3   OH244658   2.000   4.886  13.594  0.6327  0.3106  0.0390
 7748TIP3    H144659   2.011   4.902  13.688 -0.6343 -0.5741  0.3725
 7748TIP3    H244660   1.919   4.835  13.588 -0.9813  2.8581 -1.7877
 7749TIP3   OH244661   5.456   6.768  10.407  0.0529  0.1847 -0.1921
 7749TIP3    H144662   5.457   6.799  10.498  0.9714  2.9748 -1.0448
 7749TIP3    H244663   5.464   6.848  10.355 -0.9153 -1.3056 -2.7652
 7750TIP3   OH244664   3.637   6.720  16.718 -0.5507  0.0473  0.0367
 7750TIP3    H144665   3.730   6.734  16.739 -0.7887  0.7649  0.6605
 7750TIP3    H244666   3.620   6.629  16.740  0.1716 -0.2883 -0.7274
 7751TIP3   OH244667   6.560   1.147   0.817  0.1721 -0.0720  1.0227
 7751TIP3    H144668   6.473   1.138   0.777  0.2960 -0.7657  0.9017
 7751TIP3    H244669   6.547   1.121   0.908  0.3435 -0.6183  0.8944
 7752TIP3   OH244670   0.033   3.578   4.774  0.4252 -0.1124  0.4469
 7752TIP3    H144671   0.046   3.652   4.832 -0.0481  0.9682 -0.7849
 7752TIP3    H244672   0.074   3.604   4.692  3.3046 -2.5729  0.9262
 7753TIP3   OH244673   0.977   3.338  15.221 -0.0988 -0.7476  0.3888
 7753TIP3    H144674   1.031   3.364  15.296  0.5277 -2.6308  0.6473
 7753TIP3    H244675   0.921   3.413  15.204 -0.1637 -0.2170  2.6634
 7754TIP3   OH244676   4.925   3.946   1.869 -0.4013 -0.3507 -0.0197
 7754TIP3    H144677   4.971   3.871   1.831 -0.1936 -0.2066 -0.0580
 7754TIP3    H244678   4.838   3.913   1.891  0.0693 -0.9269  1.0593
 7755TIP3   OH244679   4.395   1.575  16.885  0.2026 -0.7563  0.2999
 7755TIP3    H144680   4.335   1.543  16.951  1.4198 -1.1310  1.2634
 7755TIP3    H244681   4.341   1.627  16.825 -0.9438 -0.5439  1.4965
 7756TIP3   OH244682   4.116   5.140  11.858 -0.7376  0.7693 -0.0062
 7756TIP3    H144683   4.144   5.108  11.944  0.9343 -0.2855 -0.8993
 7756TIP3    H244684   4.021   5.139  11.862 -0.7241 -1.1919  1.1642
 7757TIP3   OH244685   4.170   4.519  17.090 -0.2041  0.4225 -0.1895
 7757TIP3    H144686   4.149   4.572  17.014  1.5769 -2.0442 -2.6062
 7757TIP3    H244687   4.264   4.530  17.102 -0.3863  0.4630  1.4577
 7758TIP3   OH244688   6.103   4.917   3.074  0.3470 -0.4977 -0.4706
 7758TIP3    H144689   6.091   4.830   3.036 -0.5836 -0.4799 -0.2454
 7758TIP3    H244690   6.166   4.904   3.145 -2.3584 -1.7406  1.9232
 7759TIP3   OH244691   5.047   2.494  10.963  0.0751 -0.0518  0.0014
 7759TIP3    H144692   5.107   2.568  10.957 -1.1913  0.9823 -0.5008
 7759TIP3    H244693   5.060   2.460  11.052  1.3748  0.1412 -0.0943
 7760TIP3   OH244694   3.916   4.677  14.881 -0.0981 -0.0288  0.7257
 7760TIP3    H144695   3.857   4.653  14.952  0.3806  0.2599  1.2242
 7760TIP3    H244696   3.870   4.649  14.802 -0.8692  0.1260  1.1111
 7761TIP3   OH244697   2.435   2.620   1.488 -0.1248  0.0024 -0.5588
 7761TIP3    H144698   2.498   2.556   1.520  0.5807  0.0165 -1.8793
 7761TIP3    H244699   2.429   2.604   1.394 -1.3836  0.6267 -0.6022
 7762TIP3   OH244700   3.104   3.846  15.119  0.4587  0.0782 -0.7067
 7762TIP3    H144701   3.192   3.817  15.145  1.1449  2.7426  0.2143
 7762TIP3    H244702   3.050   3.830  15.196  0.4152 -0.3855 -0.8302
 7763TIP3   OH244703   0.554   6.258  13.633 -0.2102  0.0082 -0.2285
 7763TIP3    H144704   0.619   6.316  13.672  0.1849 -0.2547 -0.4988
 7763TIP3    H244705   0.592   6.171  13.639 -0.3009 -0.0772 -0.8880
 7764TIP3   OH244706   1.808   3.258  14.475  0.4759 -0.1569  0.5121
 7764TIP3    H144707   1.782   3.174  14.514  2.1746 -1.1405 -0.3533
 7764TIP3    H244708   1.841   3.235  14.388  1.7569  1.2916  0.5661
 7765TIP3   OH244709   5.329   2.497   4.145  0.7087  0.2072 -0.3970
 7765TIP3    H144710   5.420   2.470   4.159  0.5634  0.1023  0.3846
 7765TIP3    H244711   5.280   2.415   4.136  0.4394  0.2136  0.8661
 7766TIP3   OH244712   2.782   2.065   1.254 -0.0712  0.2054  0.0334
 7766TIP3    H144713   2.767   2.145   1.205 -2.0842 -0.0256  0.1995
 7766TIP3    H244714   2.765   2.089   1.345  0.1325 -0.2193  0.1893
 7767TIP3   OH244715   6.743   0.286   5.361 -0.4446 -0.0091 -0.1666
 7767TIP3    H144716   6.736   0.372   5.320 -1.2949  0.3799  0.7588
 7767TIP3    H244717   6.667   0.237   5.327 -0.1213 -0.3088 -0.4691
 7768TIP3   OH244718   5.014   6.665  16.702 -0.0620 -0.1474 -0.6028
 7768TIP3    H144719   4.940   6.717  16.734 -0.9772 -0.2743 -2.3743
 7768TIP3    H244720   4.973   6.595  16.651  1.1226 -2.7052  1.7188
 7769TIP3   OH244721   2.159   4.715   1.139 -0.2849  0.4441  0.2466
 7769TIP3    H144722   2.065   4.700   1.133  0.2093 -2.7908 -1.8756
 7769TIP3    H244723   2.198   4.628   1.128  2.9935  1.7994  0.0823
 7770TIP3   OH244724   0.573   3.332   3.137 -0.0422 -0.1194  0.2765
 7770TIP3    H144725   0.662   3.298   3.128  0.0032  0.2264 -0.7684
 7770TIP3    H244726   0.553   3.370   3.051 -0.8740  0.5877  0.7602
 7771TIP3   OH244727   2.573   4.935   6.570  0.0937  0.4056  0.8256
 7771TIP3    H144728   2.590   5.015   6.620  0.7139 -1.0767  3.1315
 7771TIP3    H244729   2.660   4.896   6.557 -0.1243  0.4127 -0.8904
 7772TIP3   OH244730   4.863   5.921  12.416  0.1031  0.0439 -0.3908
 7772TIP3    H144731   4.954   5.944  12.433  0.0129 -0.2442  0.5259
 7772TIP3    H244732   4.813   5.972  12.480 -0.3568 -0.0332 -0.6839
 7773TIP3   OH244733   5.168   6.740   5.847  0.0743 -0.7038 -0.2945
 7773TIP3    H144734   5.229   6.744   5.773 -1.3873 -2.4050 -1.6759
 7773TIP3    H244735   5.216   6.779   5.920  2.2754 -0.7008 -1.6639
 7774TIP3   OH244736   0.967   4.058   1.955 -0.3193  0.1488 -0.7014
 7774TIP3    H144737   0.930   4.082   2.040  1.7359 -0.0103  0.3115
 7774TIP3    H244738   0.980   4.142   1.910  2.4126  0.7046  0.8969
 7775TIP3   OH244739   0.016   4.140  12.823 -0.2902  0.3592 -0.1115
 7775TIP3    H144740   0.035   4.092  12.742  2.0181 -0.3246  0.7573
 7775TIP3    H244741   0.076   4.214  12.822 -1.3793  1.2731  0.2460
 7776TIP3   OH244742   0.794   6.018  15.231 -0.2248  0.6876  0.0231
 7776TIP3    H144743   0.820   6.003  15.322  1.8252  1.3684 -0.3894
 7776TIP3    H244744   0.873   6.054  15.189 -1.3847  1.2483 -1.8087
 7777TIP3   OH244745   2.531   4.178  14.275 -0.3309 -1.0324  0.6854
 7777TIP3    H144746   2.529   4.227  14.357 -1.6079  1.6620 -0.8171
 7777TIP3    H244747   2.569   4.093  14.299  0.5552  0.0825  3.7707
 7778TIP3   OH244748   0.018   2.620   0.856  0.1838 -0.7236  0.7872
 7778TIP3    H144749   0.067   2.541   0.879 -0.3242 -1.5449 -0.7915
 7778TIP3    H244750   0.040   2.683   0.925  1.4008 -1.9013  1.5253
 7779TIP3   OH244751   2.679   1.579   4.130  0.0825  0.1844 -0.0759
 7779TIP3    H144752   2.672   1.582   4.225  0.0723 -0.3522 -0.0563
 7779TIP3    H244753   2.763   1.538   4.113 -0.6606 -1.3301 -0.2849
 7780TIP3   OH244754   1.347   2.177   4.781  0.2102  0.5320  0.6948
 7780TIP3    H144755   1.346   2.120   4.858  0.6483  2.2007  2.0155
 7780TIP3    H244756   1.423   2.147   4.730 -1.8368 -2.5902 -0.7920
 7781TIP3   OH244757   6.576   0.286  15.113 -0.1727  0.1377  0.4537
 7781TIP3    H144758   6.645   0.219  15.114 -0.6237 -0.3319  1.8067
 7781TIP3    H244759   6.546   0.291  15.204 -2.2622 -0.0285 -0.1736
 7782TIP3   OH244760   4.729   2.764  14.093  0.3958  0.3288 -0.7441
 7782TIP3    H144761   4.642   2.749  14.129  0.3341  1.2451 -0.4789
 7782TIP3    H244762   4.788   2.734  14.163  0.3154 -0.7021 -1.0969
 7783TIP3   OH244763   1.405   1.940   5.411 -0.6910 -0.0619  0.1676
 7783TIP3    H144764   1.442   2.010   5.356 -0.9350  1.2273  1.5671
 7783TIP3    H244765   1.315   1.932   5.382 -0.5699 -0.0396 -0.2249
 7784TIP3   OH244766   3.688   0.266   3.179 -0.3082  0.1861 -0.3120
 7784TIP3    H144767   3.652   0.343   3.223  0.0121  0.9460 -1.3494
 7784TIP3    H244768   3.612   0.221   3.143 -0.4153  0.6724 -0.7150
 7785TIP3   OH244769   5.584   3.298  11.317 -0.6481 -0.4758 -0.2479
 7785TIP3    H144770   5.543   3.228  11.266 -1.4331  1.0719 -1.8670
 7785TIP3    H244771   5.621   3.357  11.252  1.6987 -0.3039  1.1162
 7786TIP3   OH244772   5.060   0.077   4.733  0.5641 -0.3929 -0.8272
 7786TIP3    H144773   5.137   0.045   4.687  0.3851 -0.3377 -1.1728
 7786TIP3    H244774   5.094   0.125   4.809  0.9649  1.6656 -2.2314
 7787TIP3   OH244775   3.627   6.293  11.988  0.4853  0.3339 -0.3076
 7787TIP3    H144776   3.665   6.209  12.013 -1.6648 -0.3821  0.7238
 7787TIP3    H244777   3.579   6.274  11.907 -2.6501 -0.3231  1.5365
 7788TIP3   OH244778   4.754   1.734   2.668  0.5036 -0.0394  0.2600
 7788TIP3    H144779   4.699   1.770   2.598  0.7181 -2.1288 -1.0686
 7788TIP3    H244780   4.692   1.711   2.737 -0.1408 -0.8946 -0.5753
 7789TIP3   OH244781   0.271   4.491  13.029 -0.3629  0.5326  0.1554
 7789TIP3    H144782   0.241   4.472  12.940 -0.0211  2.3365 -0.3821
 7789TIP3    H244783   0.216   4.563  13.059  1.2417  1.7231  0.3829
 7790TIP3   OH244784   5.552   0.010   4.878  0.4253 -0.3319  0.1397
 7790TIP3    H144785   5.554  -0.001   4.973  2.0433 -1.3785  0.0237
 7790TIP3    H244786   5.488  -0.055   4.848 -0.7353  0.5827  0.5391
 7791TIP3   OH244787   6.065   1.499  16.086  0.0213  0.8216  0.2409
 7791TIP3    H144788   6.148   1.453  16.071  0.3966  1.6423 -0.2448
 7791TIP3    H244789   6.090   1.577  16.135 -0.5721  0.7012  0.7508
 7792TIP3   OH244790   1.967   5.838   2.204 -0.4298  0.4793 -0.3208
 7792TIP3    H144791   1.964   5.813   2.112  1.6765  1.1347 -0.6285
 7792TIP3    H244792   2.058   5.824   2.229 -1.4001 -1.9311  2.3532
 7793TIP3   OH244793   1.149   2.680   1.588 -0.2848 -0.0487  0.9126
 7793TIP3    H144794   1.151   2.597   1.540 -3.0481  0.4594 -0.2700
 7793TIP3    H244795   1.240   2.711   1.585  0.5816 -2.3858  0.2886
 7794TIP3   OH244796   1.805   1.623  16.509 -0.0190 -0.1625 -0.0641
 7794TIP3    H144797   1.729   1.569  16.533  0.3578 -1.1180 -0.9263
 7794TIP3    H244798   1.785   1.653  16.420  0.2745  0.2107 -0.0048
 7795TIP3   OH244799   3.583   5.735   5.839  0.2924 -0.1856 -0.5053
 7795TIP3    H144800   3.625   5.758   5.756 -1.6533 -0.6963 -1.6710
 7795TIP3    H244801   3.558   5.643   5.830 -1.5561  0.2381 -0.0996
 7796TIP3   OH244802   4.626   1.018   1.930  0.1343  0.1603  0.0454
 7796TIP3    H144803   4.670   1.080   1.871  0.6881 -0.4337 -0.1864
 7796TIP3    H244804   4.542   1.059   1.950  0.4116  0.8977 -0.2516
 7797TIP3   OH244805   1.959   0.366   3.881  0.3661 -0.3207  0.0810
 7797TIP3    H144806   1.908   0.367   3.800  1.6778  0.7946 -0.7969
 7797TIP3    H244807   1.921   0.296   3.934 -0.7625 -0.8259 -1.3490
 7798TIP3   OH244808   5.944   6.427  14.757 -0.4657  0.2671  0.2183
 7798TIP3    H144809   5.941   6.407  14.850 -0.1318 -0.8684  0.0013
 7798TIP3    H244810   5.863   6.390  14.722  1.2103 -2.9725 -0.5754
 7799TIP3   OH244811   2.590   5.190  16.250 -0.2971 -0.4953 -0.8429
 7799TIP3    H144812   2.591   5.096  16.269  1.8152 -0.8166 -2.1452
 7799TIP3    H244813   2.511   5.203  16.198 -1.6222 -1.1465  0.8926
 7800TIP3   OH244814   1.899   3.258   1.203 -0.4113  0.0012 -0.0776
 7800TIP3    H144815   1.988   3.287   1.182 -1.0397  1.6152 -0.7310
 7800TIP3    H244816   1.899   3.247   1.298  0.3521  0.4749 -0.0099
 7801TIP3   OH244817   0.796   5.762  12.552 -0.3299  0.7669  0.3276
 7801TIP3    H144818   0.705   5.753  12.525 -0.0998  0.4627 -0.3476
 7801TIP3    H244819   0.790   5.798  12.641 -1.0831  2.4162 -0.3380
 7802TIP3   OH244820   1.905   5.826   3.450  0.1363 -0.5469  0.4725
 7802TIP3    H144821   1.968   5.760   3.421  2.1750  1.2470  0.6092
 7802TIP3    H244822   1.857   5.783   3.520  0.1875 -2.4504 -0.5865
 7803TIP3   OH244823   3.803   3.029  16.670 -0.5607  0.0143  0.5986
 7803TIP3    H144824   3.828   3.011  16.760  1.1063 -0.3713  0.0978
 7803TIP3    H244825   3.781   2.943  16.634  0.8125 -0.1515  0.0883
 7804TIP3   OH244826   6.393   2.989  15.005 -0.0693  0.5918  0.4436
 7804TIP3    H144827   6.321   3.033  14.960 -0.6773 -1.2324 -0.4797
 7804TIP3    H244828   6.433   2.934  14.937  0.5143 -0.4179  1.5764
 7805TIP3   OH244829   2.190   2.981  10.138 -0.5720  0.1612  0.2955
 7805TIP3    H144830   2.154   3.063  10.174 -0.1595  0.7071 -0.5008
 7805TIP3    H244831   2.273   3.007  10.098 -0.2746 -0.7154  0.3233
 7806TIP3   OH244832   5.461   2.160  12.404 -0.2179 -0.3897 -0.4534
 7806TIP3    H144833   5.375   2.121  12.421 -1.7146  2.5211 -0.7743
 7806TIP3    H244834   5.472   2.153  12.309 -0.4109 -0.2156 -0.4904
 7807TIP3   OH244835   0.115   1.511  14.970 -0.1812 -0.0652 -0.3429
 7807TIP3    H144836   0.166   1.565  15.030 -0.6333  0.3801 -0.3480
 7807TIP3    H244837   0.031   1.499  15.014  0.0887 -1.2066 -0.1125
 7808TIP3   OH244838   4.019   1.037   0.882  0.7192  0.3146  0.2238
 7808TIP3    H144839   3.939   0.998   0.846  1.2438 -0.5607 -0.0200
 7808TIP3    H244840   4.037   1.112   0.825 -0.6026  1.2728  1.0241
 7809TIP3   OH244841   4.343   2.359   6.426  0.1514  0.5229 -0.4256
 7809TIP3    H144842   4.304   2.318   6.348 -0.0535  1.3010 -0.7417
 7809TIP3    H244843   4.310   2.448   6.425 -0.5328  0.2999  1.0406
 7810TIP3   OH244844   5.655   4.193   1.889  0.4669 -0.0786  0.0627
 7810TIP3    H144845   5.605   4.274   1.890  0.3707  0.0094 -2.9557
 7810TIP3    H244846   5.736   4.215   1.934 -0.1867  1.2461  0.6456
 7811TIP3   OH244847   1.307   1.299  13.682  0.6093 -0.1670 -0.1852
 7811TIP3    H144848   1.362   1.305  13.760  0.3602 -0.2665 -0.0026
 7811TIP3    H244849   1.338   1.221  13.637 -0.1960 -0.9161  0.5443
 7812TIP3   OH244850   3.457   1.607  11.402  0.5096  0.0298 -0.1709
 7812TIP3    H144851   3.378   1.660  11.395 -0.1637 -1.1617 -2.5417
 7812TIP3    H244852   3.527   1.670  11.419 -0.6670  1.3106  0.1412
 7813TIP3   OH244853   6.545   4.023  13.796  0.1826  0.1345 -0.0518
 7813TIP3    H144854   6.526   4.099  13.852  0.5539 -1.3778  2.2879
 7813TIP3    H244855   6.548   4.059  13.707 -0.7748  2.6358  0.8265
 7814TIP3   OH244856   2.774   6.800  15.172  0.4722  0.2006  0.2786
 7814TIP3    H144857   2.809   6.730  15.226  0.2376 -0.9805 -1.0505
 7814TIP3    H244858   2.847   6.861  15.161  1.7322 -1.4398 -1.1494
 7815TIP3   OH244859   4.163   3.739  17.016  0.8624 -0.2628 -0.3491
 7815TIP3    H144860   4.099   3.669  17.006 -0.2052  0.6730 -0.3038
 7815TIP3    H244861   4.116   3.808  17.063  1.6741  0.7343 -0.9497
 7816TIP3   OH244862   6.553   5.603   3.675  0.3272  0.1939  0.0926
 7816TIP3    H144863   6.522   5.663   3.608 -0.7629  0.8645  1.1479
 7816TIP3    H244864   6.479   5.593   3.735  0.8193 -1.4219  0.5034
 7817TIP3   OH244865   1.051   1.138  13.985  0.2981  0.2587  0.2038
 7817TIP3    H144866   0.981   1.204  13.986  0.7408  0.7466  1.0716
 7817TIP3    H244867   1.127   1.185  14.020  1.3004 -0.0258 -1.4847
 7818TIP3   OH244868   5.659   2.381   1.243  0.6502 -0.2558 -0.4437
 7818TIP3    H144869   5.613   2.341   1.317 -0.5883 -0.7865 -1.4672
 7818TIP3    H244870   5.638   2.325   1.168  1.0112  0.8665 -1.4153
 7819TIP3   OH244871   3.600   1.222   3.405  0.1830  0.5022  0.1287
 7819TIP3    H144872   3.679   1.188   3.447  0.9336  1.1562 -0.7286
 7819TIP3    H244873   3.530   1.163   3.435  0.9208  0.1360  1.1835
 7820TIP3   OH244874   0.306   5.276   3.477 -0.2345  0.6435 -0.2206
 7820TIP3    H144875   0.363   5.235   3.542 -1.4784 -0.8247  0.0052
 7820TIP3    H244876   0.298   5.210   3.408 -1.0516  1.1135 -0.5865
 7821TIP3   OH244877   2.593   2.044  16.768 -0.2993 -0.2998  0.0481
 7821TIP3    H144878   2.645   1.997  16.833 -1.3541 -1.4575  0.0699
 7821TIP3    H244879   2.504   2.042  16.802 -0.1762  3.5564  1.1477
 7822TIP3   OH244880   0.419   2.711  16.555 -0.2367  0.3214  0.0556
 7822TIP3    H144881   0.425   2.772  16.629  0.4961 -1.1399  1.2339
 7822TIP3    H244882   0.493   2.652  16.566 -0.4975 -0.3448 -1.4934
 7823TIP3   OH244883   0.918   3.175   3.402  0.3074 -0.0287  0.1373
 7823TIP3    H144884   0.867   3.223   3.466  1.0644 -0.4366  1.0675
 7823TIP3    H244885   1.008   3.206   3.414  0.8474 -1.7871  0.8950
 7824TIP3   OH244886   0.257   6.586  12.676 -0.1629 -0.3320  0.0944
 7824TIP3    H144887   0.205   6.642  12.618  0.8251  0.2289 -0.2788
 7824TIP3    H244888   0.310   6.647  12.727  0.7563 -0.8989 -0.1443
 7825TIP3   OH244889   2.888   3.206  16.207 -0.4166  0.1205 -0.3258
 7825TIP3    H144890   2.954   3.180  16.144 -1.5615 -3.3733 -0.2862
 7825TIP3    H244891   2.809   3.222  16.155 -0.6062  0.2014 -0.0220
 7826TIP3   OH244892   0.561   3.432   3.572  0.2090 -0.0965 -0.6718
 7826TIP3    H144893   0.479   3.383   3.584 -0.3355  0.1143 -3.0185
 7826TIP3    H244894   0.587   3.457   3.660 -1.6456 -1.1594  0.2403
 7827TIP3   OH244895   0.156   4.154  17.172 -0.2915 -0.2267  0.0806
 7827TIP3    H144896   0.148   4.248  17.154 -0.6321 -0.3874 -0.6337
 7827TIP3    H244897   0.247   4.134  17.151 -0.5126 -0.2768 -0.8896
 7828TIP3   OH244898   0.633   6.395  10.956  0.4618 -0.5342  0.1349
 7828TIP3    H144899   0.606   6.427  10.870  0.1603 -0.1945  0.3545
 7828TIP3    H244900   0.665   6.306  10.939 -0.4960 -0.8307 -0.1912
 7829TIP3   OH244901   5.130   2.558  15.779 -0.2622 -0.0834 -0.0876
 7829TIP3    H144902   5.124   2.489  15.844  1.8155 -1.0223 -0.8300
 7829TIP3    H244903   5.049   2.550  15.728 -1.1766 -0.3453  1.3464
 7830TIP3   OH244904   5.396   4.651   5.838  0.4849 -0.7597 -0.0262
 7830TIP3    H144905   5.367   4.563   5.814  1.5016 -1.4607  1.2033
 7830TIP3    H244906   5.354   4.708   5.774 -1.5868 -1.9516  0.1744
 7831TIP3   OH244907   3.062   2.521  14.061  0.0436  0.2523  0.1104
 7831TIP3    H144908   3.102   2.468  13.991 -1.3208  0.3623 -0.7737
 7831TIP3    H244909   3.052   2.608  14.023 -0.0436  0.5053  0.7002
 7832TIP3   OH244910   3.757   4.340  10.860  0.0586 -0.4415  0.3030
 7832TIP3    H144911   3.720   4.259  10.895 -0.1982  0.1082  1.3690
 7832TIP3    H244912   3.834   4.312  10.811 -0.5807 -1.4080 -0.1787
 7833TIP3   OH244913   4.275   6.430   4.284  0.1487 -0.3212  0.1518
 7833TIP3    H144914   4.238   6.518   4.293 -0.3446 -0.3159 -1.5359
 7833TIP3    H244915   4.302   6.425   4.192 -0.4979 -2.1875  0.0196
 7834TIP3   OH244916   1.524   5.643   5.415 -0.0525  0.4010 -0.3756
 7834TIP3    H144917   1.559   5.554   5.412 -0.3589  0.2524  0.3691
 7834TIP3    H244918   1.512   5.662   5.508 -1.5838  0.5728 -0.5736
 7835TIP3   OH244919   3.095   2.153   1.961 -0.3465  0.0292 -0.2953
 7835TIP3    H144920   3.074   2.220   2.026 -1.2096  1.5902 -2.1025
 7835TIP3    H244921   3.050   2.074   1.994 -0.6565  0.7235  1.0375
 7836TIP3   OH244922   2.971   1.833  16.088 -0.0048 -0.6383  0.1674
 7836TIP3    H144923   2.904   1.813  16.154  0.1075 -1.8624 -0.0792
 7836TIP3    H244924   2.940   1.791  16.008  0.1779  0.3104 -0.4177
 7837TIP3   OH244925   0.381   2.682  14.407  0.5734  0.2032  0.4095
 7837TIP3    H144926   0.306   2.675  14.348 -0.8808  0.1401  2.1666
 7837TIP3    H244927   0.361   2.621  14.478  2.5821 -0.2246  0.6580
 7838TIP3   OH244928   4.185   1.642   3.097  0.1589  0.0628 -0.2937
 7838TIP3    H144929   4.160   1.717   3.149 -0.4717 -0.8760  0.7939
 7838TIP3    H244930   4.123   1.641   3.024 -0.7712 -0.2355  0.4846
 7839TIP3   OH244931   0.940   1.980   3.207  0.2287  0.1794  0.2952
 7839TIP3    H144932   0.959   1.916   3.139 -1.3443  0.3793 -0.3744
 7839TIP3    H244933   0.890   2.049   3.163  0.4908  1.0811  1.3354
 7840TIP3   OH244934   4.471   3.279   1.553  0.1778 -0.3264  0.5422
 7840TIP3    H144935   4.382   3.244   1.556 -0.5020  1.1936 -0.4850
 7840TIP3    H244936   4.481   3.327   1.635 -0.5236  0.7479  0.0168
 7841TIP3   OH244937   6.103   1.545   3.268  0.3464 -0.0022  0.5307
 7841TIP3    H144938   6.085   1.486   3.195  1.6234  0.4371 -0.1568
 7841TIP3    H244939   6.074   1.631   3.238  0.9984  0.2048  0.4804
 7842TIP3   OH244940   1.149   1.009   5.071 -0.1673 -0.2323  0.2556
 7842TIP3    H144941   1.235   1.025   5.031  0.6444 -0.4096  1.8525
 7842TIP3    H244942   1.090   1.068   5.024  0.5527 -0.9639 -1.6975
 7843TIP3   OH244943   3.215   4.949  11.289 -0.1395 -0.6573  0.1778
 7843TIP3    H144944   3.132   4.903  11.296  0.5081 -1.8464  0.3326
 7843TIP3    H244945   3.270   4.910  11.358  0.2069  0.8659  0.8044
 7844TIP3   OH244946   3.746   2.296  12.781 -0.3578 -0.5533  0.2344
 7844TIP3    H144947   3.716   2.329  12.696  1.7651  0.6239 -0.1179
 7844TIP3    H244948   3.668   2.298  12.837 -1.3020  0.7185 -1.0780
 7845TIP3   OH244949   5.215   1.955  13.756  0.2517 -0.1194  0.4744
 7845TIP3    H144950   5.136   1.901  13.749 -0.0520  0.5339 -1.9408
 7845TIP3    H244951   5.282   1.905  13.709 -0.2319  1.8313 -2.5148
 7846TIP3   OH244952   6.627   4.679  13.700  0.0326  0.2502  0.0501
 7846TIP3    H144953   6.640   4.744  13.631  3.1708  0.7844  0.9936
 7846TIP3    H244954   6.643   4.595  13.657  2.3279  0.5977  0.0946
 7847TIP3   OH244955   5.079   6.199  11.405  0.2915  0.2243  0.1411
 7847TIP3    H144956   5.148   6.206  11.338 -1.6056  0.7332 -1.8691
 7847TIP3    H244957   5.045   6.110  11.396 -0.2397  0.4214  0.1426
 7848TIP3   OH244958   2.312   5.713   5.803 -0.4462 -0.3038 -0.4481
 7848TIP3    H144959   2.363   5.789   5.831  0.5292 -0.3197 -2.0655
 7848TIP3    H244960   2.292   5.730   5.711 -1.2409 -1.4764 -0.5185
 7849TIP3   OH244961   3.994   1.703  13.864 -0.1182 -0.0964 -0.0132
 7849TIP3    H144962   4.022   1.771  13.925  1.2795 -0.6440 -0.0152
 7849TIP3    H244963   4.042   1.625  13.891 -0.5511 -0.7068 -0.9533
 7850TIP3   OH244964   2.171   5.119   0.247  0.1730 -0.5295  0.3416
 7850TIP3    H144965   2.229   5.122   0.323  0.4498  0.8077  0.1130
 7850TIP3    H244966   2.109   5.191   0.261 -1.2493 -1.7322  0.4270
 7851TIP3   OH244967   5.253   5.915  15.338  0.1015 -0.0353 -0.4261
 7851TIP3    H144968   5.277   5.861  15.262  0.1109 -0.8049  0.1106
 7851TIP3    H244969   5.277   5.862  15.414  1.0336  1.1393  0.1408
 7852TIP3   OH244970   0.916   4.172  11.980 -0.5905 -0.3731 -0.4084
 7852TIP3    H144971   0.860   4.109  12.027 -0.3347  0.6148  1.2853
 7852TIP3    H244972   0.860   4.204  11.909 -1.0968 -1.6740 -0.6395
 7853TIP3   OH244973   2.939   2.530   5.200  0.2425  0.2629  0.3229
 7853TIP3    H144974   2.948   2.466   5.270  2.0591 -0.8546 -0.8620
 7853TIP3    H244975   2.845   2.551   5.199  0.1608  0.3614  3.0522
 7854TIP3   OH244976   0.810   1.208  14.565 -0.2682  0.0079  0.0835
 7854TIP3    H144977   0.845   1.294  14.588 -1.7684  0.4623  0.7448
 7854TIP3    H244978   0.841   1.150  14.635  1.2102 -0.1414 -0.6546
 7855TIP3   OH244979   5.174   5.976   0.028  0.1579 -0.3918 -0.1077
 7855TIP3    H144980   5.199   5.887   0.053 -0.5065 -0.9562 -1.3524
 7855TIP3    H244981   5.082   5.983   0.053  0.5597  0.4425  1.2236
 7856TIP3   OH244982   2.933   0.895  15.638  0.2476 -0.1066 -0.5149
 7856TIP3    H144983   2.945   0.898  15.733 -1.2321 -2.2997 -0.1903
 7856TIP3    H244984   2.895   0.980  15.617 -2.5308 -0.7231  1.4251
 7857TIP3   OH244985   3.749   6.303   4.660 -0.0512 -0.0033  0.0297
 7857TIP3    H144986   3.822   6.243   4.673 -2.4996 -3.1910  0.4524
 7857TIP3    H244987   3.723   6.328   4.748 -0.9182 -0.8603  0.0309
 7858TIP3   OH244988   6.655   3.381   5.559 -0.0243  0.1349  0.2418
 7858TIP3    H144989   6.577   3.349   5.603 -0.1343 -1.5508 -1.0755
 7858TIP3    H244990   6.654   3.476   5.573 -0.7320 -0.1804  2.6748
 7859TIP3   OH244991   6.592   5.217  12.928 -0.2204  0.0173 -0.2891
 7859TIP3    H144992   6.583   5.304  12.888 -1.4203  0.1475  0.2179
 7859TIP3    H244993   6.516   5.169  12.898  0.0856 -0.6430 -0.0146
 7860TIP3   OH244994   6.656   6.061   0.556  0.0986  0.6052 -0.8176
 7860TIP3    H144995   6.611   5.977   0.553 -1.7886  1.5824 -2.4462
 7860TIP3    H244996   6.596   6.119   0.603  1.4017  1.0561  0.3426
 7861TIP3   OH244997   3.349   4.058  15.852  0.2732  0.3778  0.0161
 7861TIP3    H144998   3.421   4.073  15.913  0.1648 -0.6308  0.4103
 7861TIP3    H244999   3.294   4.136  15.860  0.5918  0.5398  0.7388
 7862TIP3   OH245000   1.347   6.763   3.350  0.4950 -0.3706 -0.2655
 7862TIP3    H145001   1.289   6.828   3.311  0.9700 -0.6655 -1.4982
 7862TIP3    H245002   1.291   6.713   3.410  0.5522  2.5338  2.4942
 7863TIP3   OH245003   4.877   1.638  12.782 -0.2153  0.1307  0.3057
 7863TIP3    H145004   4.832   1.721  12.768 -1.2610 -0.5113 -0.2795
 7863TIP3    H245005   4.809   1.572  12.770  0.9535 -0.8946 -0.9881
 7864TIP3   OH245006   6.400   5.993   1.144  0.3335  0.2775  0.2442
 7864TIP3    H145007   6.420   6.040   1.225  0.2183  1.0413 -0.1528
 7864TIP3    H245008   6.319   6.034   1.113  1.1782  1.0623 -1.0288
 7865TIP3   OH245009   2.454   4.150   0.788  0.4610  0.2886 -0.2560
 7865TIP3    H145010   2.479   4.058   0.800 -1.0610 -0.0866  0.2474
 7865TIP3    H245011   2.505   4.179   0.713  1.9740 -0.5652  0.3870
 7866TIP3   OH245012   1.940   2.731  16.951  0.3582 -0.1143  0.2885
 7866TIP3    H145013   1.971   2.676  17.023  0.7842  1.3237  1.2272
 7866TIP3    H245014   1.956   2.821  16.980 -0.7615  0.5384 -1.0126
 7867TIP3   OH245015   1.315   2.257   0.194  0.1858  0.1701  0.0429
 7867TIP3    H145016   1.374   2.253   0.119  1.8354 -2.4726  1.3428
 7867TIP3    H245017   1.372   2.273   0.269 -0.9054 -0.8595  1.1421
 7868TIP3   OH245018   5.060   0.951  14.062 -0.0324 -0.2808 -0.1818
 7868TIP3    H145019   4.994   1.019  14.048  1.0610  0.7575 -0.4885
 7868TIP3    H245020   5.073   0.913  13.975  1.8293  1.5173 -0.7758
 7869TIP3   OH245021   2.769   3.154  14.612  0.0938  0.6625  0.2948
 7869TIP3    H145022   2.808   3.103  14.682  0.2338 -1.5551 -1.3060
 7869TIP3    H245023   2.707   3.095  14.569  0.9353  1.4660 -2.2313
 7870TIP3   OH245024   0.543   2.656   2.129 -0.0934 -0.3880 -0.1316
 7870TIP3    H145025   0.605   2.588   2.100  1.7603  1.0347  0.3024
 7870TIP3    H245026   0.576   2.682   2.215  0.0102  1.9328 -0.8249
 7871TIP3   OH245027   6.201   5.213  15.677 -0.4858  0.3453  0.3412
 7871TIP3    H145028   6.289   5.234  15.645 -0.9436  2.0763  0.1575
 7871TIP3    H245029   6.214   5.188  15.768  0.0885  1.6019  0.6181
 7872TIP3   OH245030   5.718   1.092  15.994  0.3741 -0.2751  0.2181
 7872TIP3    H145031   5.747   1.046  16.073  1.4562  0.3714  0.2122
 7872TIP3    H245032   5.774   1.169  15.989  0.2983 -0.2904 -1.1692
 7873TIP3   OH245033   3.929   3.834   3.900 -0.2204 -0.1606 -0.3798
 7873TIP3    H145034   3.914   3.915   3.948  2.1447  0.5122 -0.6649
 7873TIP3    H245035   3.929   3.859   3.808  1.4243 -0.2724 -0.4366
 7874TIP3   OH245036   5.299   1.713  16.344 -0.4430  0.0402 -0.8786
 7874TIP3    H145037   5.343   1.793  16.316  0.7441 -0.7655 -1.4281
 7874TIP3    H245038   5.346   1.643  16.299 -0.5058 -1.0770  0.6912
 7875TIP3   OH245039   0.677   6.782   4.344  0.1134 -0.0287 -0.2279
 7875TIP3    H145040   0.660   6.811   4.434  0.5743 -0.4819  0.0066
 7875TIP3    H245041   0.598   6.808   4.296  0.3738  1.3362  0.0380
 7876TIP3   OH245042   5.203   0.885  12.493  0.0358  0.3859 -0.2467
 7876TIP3    H145043   5.178   0.854  12.406 -0.0211  0.6468 -0.3226
 7876TIP3    H245044   5.123   0.878  12.545  0.3796 -1.0088  0.1384
 7877TIP3   OH245045   0.086   4.942   4.981  0.1731 -0.0053 -0.0229
 7877TIP3    H145046   0.071   5.036   4.988  3.3586  0.6743 -0.9147
 7877TIP3    H245047   0.073   4.922   4.888 -1.5033 -0.7409  0.3159
 7878TIP3   OH245048   3.962   2.706   0.611 -0.1193 -0.4448  0.2550
 7878TIP3    H145049   3.880   2.740   0.647 -0.8562 -0.1776 -1.5655
 7878TIP3    H245050   3.954   2.719   0.516  1.5804 -1.4029 -0.0645
 7879TIP3   OH245051   5.986   0.488  11.523 -0.0012  0.7435  0.2791
 7879TIP3    H145052   6.006   0.405  11.479  0.0384 -0.7421  2.9059
 7879TIP3    H245053   6.034   0.553  11.473 -0.4582 -0.6730 -2.2218
 7880TIP3   OH245054   2.411   3.314   0.648  0.1805 -0.2095  0.5006
 7880TIP3    H145055   2.431   3.241   0.589 -0.6809 -0.3356  0.3547
 7880TIP3    H245056   2.409   3.391   0.591 -0.3278 -0.2832  0.4180
 7881TIP3   OH245057   2.522   1.243  14.368 -0.1661 -0.0509 -0.7544
 7881TIP3    H145058   2.461   1.307  14.405  2.0324  1.5905  0.3566
 7881TIP3    H245059   2.469   1.189  14.309 -2.9091  0.3178  1.1784
 7882TIP3   OH245060   5.427   3.972   0.770 -0.0735  0.4041  0.2577
 7882TIP3    H145061   5.426   3.937   0.859  0.5522 -0.7516 -0.1598
 7882TIP3    H245062   5.505   3.932   0.730 -0.5619  0.5866 -0.9241
 7883TIP3   OH245063   1.601   1.483   5.025 -0.2975  0.0650  0.0215
 7883TIP3    H145064   1.640   1.518   4.945  0.4835 -2.0534 -0.6086
 7883TIP3    H245065   1.510   1.511   5.022 -0.1346  0.5247 -1.3273
 7884TIP3   OH245066   6.654   2.838  12.648  0.2717 -0.1349  1.0425
 7884TIP3    H145067   6.708   2.848  12.726  0.9960 -0.8067  0.6413
 7884TIP3    H245068   6.709   2.789  12.587  0.4689  2.0262 -0.6327
 7885TIP3   OH245069   3.572   0.074  12.224  0.1247  0.2193  0.2655
 7885TIP3    H145070   3.522   0.002  12.188  1.5181 -0.2281 -0.8879
 7885TIP3    H245071   3.619   0.036  12.298 -0.1782  0.2944  0.4980
 7886TIP3   OH245072   4.418   2.094   5.479  0.7211 -1.4758 -0.8594
 7886TIP3    H145073   4.430   2.002   5.456  0.3858 -2.1535  1.4499
 7886TIP3    H245074   4.486   2.111   5.544 -0.9242 -0.9083  0.7887
 7887TIP3   OH245075   3.838   0.197  12.345  0.1082 -0.3956  0.0037
 7887TIP3    H145076   3.927   0.163  12.351  0.6935  0.7634 -1.4763
 7887TIP3    H245077   3.788   0.124  12.306  0.1771 -1.3580  1.6360
 7888TIP3   OH245078   6.304   1.625  15.175  0.1382  0.7633  0.0256
 7888TIP3    H145079   6.345   1.632  15.089  1.4393 -1.0960  0.4183
 7888TIP3    H245080   6.362   1.674  15.233  0.3325  0.4188  0.1301
 7889TIP3   OH245081   2.351   1.866   6.386 -0.1973 -0.3366 -0.0902
 7889TIP3    H145082   2.364   1.772   6.375 -0.8030 -0.3720 -0.6002
 7889TIP3    H245083   2.269   1.873   6.435 -0.6210 -0.0740 -0.8090
 7890TIP3   OH245084   5.182   1.173  13.747  0.3835  0.5411  0.0343
 7890TIP3    H145085   5.237   1.113  13.797 -0.6012  0.1514  0.6756
 7890TIP3    H245086   5.144   1.120  13.678  0.7127  0.7834 -0.3368
 7891TIP3   OH245087   3.689   0.132   3.881  0.1314 -0.0232  0.3872
 7891TIP3    H145088   3.690   0.218   3.923  0.6045  0.8459 -1.3078
 7891TIP3    H245089   3.779   0.099   3.892 -0.1132 -0.4408  1.2524
 7892TIP3   OH245090   0.663   2.113   0.900  0.7149 -0.2910  0.1118
 7892TIP3    H145091   0.567   2.113   0.899  0.6224  0.1420 -3.4934
 7892TIP3    H245092   0.687   2.028   0.938 -0.8980  0.8427  4.1273
 7893TIP3   OH245093   4.707   0.445  13.595  0.3674 -0.6888  0.4349
 7893TIP3    H145094   4.709   0.396  13.513  2.7174  2.4649 -1.7017
 7893TIP3    H245095   4.639   0.511  13.582 -1.5167 -2.1194  2.4872
 7894TIP3   OH245096   5.888   1.137   4.599 -0.2214 -0.1085 -0.2704
 7894TIP3    H145097   5.937   1.114   4.521 -1.7471  1.3027 -1.7281
 7894TIP3    H245098   5.827   1.064   4.611 -0.1973 -0.1815 -0.5882
 7895TIP3   OH245099   2.506   1.523   5.705 -0.0713  0.0784 -0.0447
 7895TIP3    H145100   2.447   1.592   5.676 -2.3746 -1.8923 -0.3290
 7895TIP3    H245101   2.502   1.526   5.801  0.4742  0.8179 -0.0370
 7896TIP3   OH245102   3.121   1.862   0.632  0.2575  0.5839 -0.2495
 7896TIP3    H145103   3.087   1.835   0.717  1.0515 -1.0767 -0.4079
 7896TIP3    H245104   3.054   1.835   0.570 -0.5054  2.1578 -0.1567
 7897TIP3   OH245105   0.777   2.042  10.825  0.4061  0.3236 -0.3707
 7897TIP3    H145106   0.836   1.975  10.860 -1.6427 -1.5466 -0.3036
 7897TIP3    H245107   0.708   2.050  10.891  0.0151  1.6936 -0.9169
 7898TIP3   OH245108   1.917   0.487  15.598 -0.5704  0.1942  0.2132
 7898TIP3    H145109   1.873   0.414  15.554 -0.5736 -0.1916  0.8271
 7898TIP3    H245110   1.849   0.552  15.611 -0.9093 -0.2730  0.8834
 7899TIP3   OH245111   2.587   5.683  15.363  0.3450  0.2978 -0.0728
 7899TIP3    H145112   2.634   5.752  15.315  1.5381 -0.6592 -0.3089
 7899TIP3    H245113   2.496   5.714  15.364  0.9912  2.3672  0.7156
 7900TIP3   OH245114   2.131   4.117  14.368 -0.4356 -0.1038  0.1433
 7900TIP3    H145115   2.130   4.170  14.288  1.1619  1.3342  1.0139
 7900TIP3    H245116   2.082   4.170  14.432  0.9553  0.2530  0.9510
 7901TIP3   OH245117   4.943   5.425  16.163 -0.3093 -0.2787  0.0834
 7901TIP3    H145118   4.907   5.342  16.134  0.4023  0.0329 -1.8676
 7901TIP3    H245119   5.009   5.402  16.229 -0.9918 -1.1474  0.4698
 7902TIP3   OH245120   0.799   0.381   3.930 -0.3541  0.5440  0.0952
 7902TIP3    H145121   0.821   0.434   4.006 -0.1408  1.6909 -0.7367
 7902TIP3    H245122   0.711   0.408   3.906  0.3300  1.7322 -1.2698
 7903TIP3   OH245123   2.090   1.096   3.718  0.1371  0.1931 -0.0946
 7903TIP3    H145124   2.143   1.175   3.705  1.2982 -0.6015 -0.3120
 7903TIP3    H245125   2.008   1.115   3.672 -0.5496  2.1675  1.7689
 7904TIP3   OH245126   0.900   4.980  14.651 -0.1136 -0.4886 -1.0201
 7904TIP3    H145127   0.854   4.898  14.636  0.0439 -0.8482  0.3714
 7904TIP3    H245128   0.944   4.998  14.567 -2.0092 -0.5899 -2.0863
 7905TIP3   OH245129   2.881   2.903   6.526  0.2490  0.0759  0.0281
 7905TIP3    H145130   2.915   2.921   6.613 -1.3907  0.9270  0.5512
 7905TIP3    H245131   2.880   2.808   6.519  0.1692 -0.0057  1.0383
 7906TIP3   OH245132   5.455   5.326   4.026 -0.1361 -0.2071 -0.9990
 7906TIP3    H145133   5.515   5.334   3.952  0.4473 -0.6384 -0.5720
 7906TIP3    H245134   5.502   5.275   4.091 -1.0334 -0.7371 -0.7371
 7907TIP3   OH245135   2.993   6.592   3.346  0.3159  0.9245 -0.0972
 7907TIP3    H145136   2.979   6.667   3.404 -2.3084  0.6015 -0.1969
 7907TIP3    H245137   3.084   6.567   3.362  0.5617  2.6346  1.7005
 7908TIP3   OH245138   5.516   0.477  16.270 -0.0088  0.1307 -0.4302
 7908TIP3    H145139   5.461   0.398  16.270  0.7750 -0.4289  0.3386
 7908TIP3    H245140   5.578   0.464  16.342  1.4363  0.5488 -1.5584
 7909TIP3   OH245141   2.395   2.467   2.376 -0.0925  0.3897 -0.4030
 7909TIP3    H145142   2.300   2.461   2.385 -0.2743  2.2728 -0.6144
 7909TIP3    H245143   2.420   2.383   2.336 -1.2634 -1.2885  2.0969
 7910TIP3   OH245144   1.857   1.898  12.306 -0.4123  0.0363 -0.5883
 7910TIP3    H145145   1.842   1.969  12.243  1.8651  2.1499  1.0362
 7910TIP3    H245146   1.876   1.943  12.388  0.0368 -2.5315  0.8262
 7911TIP3   OH245147   2.104   4.954  10.906 -0.2979  0.1557 -0.0654
 7911TIP3    H145148   2.057   4.878  10.873 -1.9371 -0.5618  3.4373
 7911TIP3    H245149   2.179   4.918  10.952 -0.0328  0.8005  0.0131
 7912TIP3   OH245150   4.981   5.641  11.302 -0.1434 -0.6165 -0.5528
 7912TIP3    H145151   4.894   5.677  11.288  0.7900  3.7013  2.5124
 7912TIP3    H245152   5.037   5.688  11.241  0.3031 -2.6373 -1.8065
 7913TIP3   OH245153   5.998   0.246   0.435 -0.1204 -0.1687 -0.0420
 7913TIP3    H145154   6.025   0.206   0.518 -0.3569  0.2399  0.2417
 7913TIP3    H245155   6.078   0.287   0.401 -0.7359  3.0620  1.9484
 7914TIP3   OH245156   6.152   3.250  13.015  0.8179  0.0171 -0.1262
 7914TIP3    H145157   6.097   3.186  12.969  0.3471  1.2390 -1.3261
 7914TIP3    H245158   6.137   3.232  13.108 -1.2793 -0.0167 -0.4208
 7915TIP3   OH245159   2.762   4.763  14.066 -0.1183 -0.0127  0.2829
 7915TIP3    H145160   2.767   4.771  13.971 -1.1817 -0.0042  0.2163
 7915TIP3    H245161   2.669   4.755  14.085  0.0443  0.4306  1.3631
 7916TIP3   OH245162   0.175   6.107   2.642  0.7246  0.1546 -1.3179
 7916TIP3    H145163   0.186   6.012   2.640  0.2681  0.0932 -1.0705
 7916TIP3    H245164   0.083   6.121   2.621  0.7048  0.5231 -0.9939
 7917TIP3   OH245165   3.668   4.796   1.855  0.1938  0.1984 -0.3721
 7917TIP3    H145166   3.676   4.821   1.947  0.7927 -0.2275 -0.3023
 7917TIP3    H245167   3.672   4.700   1.856  0.8633  0.2103 -0.8932
 7918TIP3   OH245168   4.745   0.228   3.887  0.8565  0.1755 -0.2741
 7918TIP3    H145169   4.736   0.321   3.907 -0.2283  0.1848 -0.7472
 7918TIP3    H245170   4.795   0.192   3.960 -0.1923  0.8165  0.7923
 7919TIP3   OH245171   1.751   5.371   1.214 -0.1701  0.4900  0.0602
 7919TIP3    H145172   1.836   5.360   1.171 -1.1957 -2.7514 -1.4799
 7919TIP3    H245173   1.687   5.364   1.143 -1.8277  3.3017  1.1066
 7920TIP3   OH245174   1.889   5.660  11.866 -0.6571 -0.4644 -0.0159
 7920TIP3    H145175   1.849   5.728  11.811  1.5573  0.6287 -0.3558
 7920TIP3    H245176   1.889   5.697  11.954  0.7047  0.0942 -0.2289
 7921TIP3   OH245177   3.912   6.234  13.473  0.6999  0.9192  0.2525
 7921TIP3    H145178   3.950   6.150  13.450 -1.2721 -0.4337  1.6345
 7921TIP3    H245179   3.822   6.230  13.442  0.7505  2.8544 -0.3176
 7922TIP3   OH245180   3.592   2.477   0.538 -0.2659 -0.1786  0.3794
 7922TIP3    H145181   3.585   2.409   0.605  0.5436  0.4529  1.1412
 7922TIP3    H245182   3.619   2.555   0.587 -2.2406  0.9959 -0.2998
 7923TIP3   OH245183   2.552   3.844   5.509  0.3731  0.3309  0.4934
 7923TIP3    H145184   2.523   3.935   5.515  0.1570  0.3455 -0.5881
 7923TIP3    H245185   2.643   3.846   5.540  0.2474  0.8423  0.8490
 7924TIP3   OH245186   6.607   6.334  12.338  0.2799 -0.0627 -0.0468
 7924TIP3    H145187   6.582   6.301  12.252 -0.3886  1.3510 -0.4190
 7924TIP3    H245188   6.701   6.317  12.344  0.2424 -0.5850 -0.8619
 7925TIP3   OH245189   0.749   3.437  11.163  0.4716 -0.6105  0.2247
 7925TIP3    H145190   0.795   3.369  11.212  1.4625 -0.3236 -0.2956
 7925TIP3    H245191   0.698   3.390  11.097 -2.5974 -1.2121  2.7415
 7926TIP3   OH245192   1.133   1.036   4.048 -0.3302 -0.4113 -0.2272
 7926TIP3    H145193   1.222   1.060   4.024 -0.6247 -0.6614 -1.6974
 7926TIP3    H245194   1.079   1.069   3.976 -1.4304 -0.2745  0.6256
 7927TIP3   OH245195   3.162   2.722   6.610 -0.0533 -0.0710  0.0706
 7927TIP3    H145196   3.073   2.692   6.588 -1.0118  0.6065  2.6476
 7927TIP3    H245197   3.184   2.675   6.690  1.8460 -0.0151 -0.3745
 7928TIP3   OH245198   5.717   2.757  13.309 -0.4925 -0.4460  0.4155
 7928TIP3    H145199   5.734   2.722  13.221  0.8802 -1.8290  1.1856
 7928TIP3    H245200   5.786   2.820  13.324  0.5337 -1.7132  1.2521
 7929TIP3   OH245201   3.556   3.465  11.890  0.0566 -0.4957  0.2985
 7929TIP3    H145202   3.534   3.513  11.810 -2.2799 -1.1844  0.4333
 7929TIP3    H245203   3.612   3.525  11.939  0.3450  0.5281 -1.2009
 7930TIP3   OH245204   2.349   6.103   4.614 -0.1842 -0.5640  0.1910
 7930TIP3    H145205   2.428   6.156   4.626  0.3554 -0.7492 -1.9555
 7930TIP3    H245206   2.346   6.046   4.691  2.0731 -0.8726  0.1275
 7931TIP3   OH245207   4.744   5.982   5.203 -0.0031  0.8552 -0.2671
 7931TIP3    H145208   4.801   5.983   5.280  0.4756  0.6687 -0.6146
 7931TIP3    H245209   4.662   6.021   5.233  0.4314  1.4703  0.1433
 7932TIP3   OH245210   4.399   2.632  11.940  0.5335 -0.1603  0.3399
 7932TIP3    H145211   4.358   2.711  11.976  0.8751 -0.0774  0.5556
 7932TIP3    H245212   4.418   2.654  11.849  1.8109  0.4869  0.7390
 7933TIP3   OH245213   0.880   0.281   2.827 -0.3906 -0.1834  0.1608
 7933TIP3    H145214   0.847   0.324   2.747 -1.7894  2.4326  1.9932
 7933TIP3    H245215   0.810   0.220   2.852  0.3537 -1.5333 -0.9105
 7934TIP3   OH245216   4.704   1.690   4.328  0.0279 -0.2892 -0.2202
 7934TIP3    H145217   4.645   1.620   4.357  0.0620  0.3323  1.4245
 7934TIP3    H245218   4.779   1.684   4.387 -0.0214  1.1886  0.0362
 7935TIP3   OH245219   2.268   3.256  15.090  0.4848  0.0706  0.1906
 7935TIP3    H145220   2.293   3.297  15.173  0.1693  0.2462  0.1962
 7935TIP3    H245221   2.237   3.327  15.035  0.7827 -0.0301 -0.1188
 7936TIP3   OH245222   5.021   6.460   3.509 -0.1178 -0.2035 -0.0460
 7936TIP3    H145223   4.998   6.458   3.416  0.4577  0.8560 -0.2314
 7936TIP3    H245224   4.944   6.498   3.551 -0.2133 -0.2858 -0.1441
 7937TIP3   OH245225   0.774   4.929  10.209  0.2766 -0.0873 -0.0306
 7937TIP3    H145226   0.801   4.860  10.149  0.0684 -2.3849  2.3100
 7937TIP3    H245227   0.683   4.910  10.230  0.2105  0.8834  0.6671
 7938TIP3   OH245228   2.285   5.489   4.129  0.1737  0.0963 -0.7156
 7938TIP3    H145229   2.228   5.545   4.076 -1.1986 -0.5630 -0.0025
 7938TIP3    H245230   2.350   5.548   4.166  0.7692  0.6715 -2.5712
 7939TIP3   OH245231   3.238   3.297   1.566  0.1017 -0.3351 -0.0046
 7939TIP3    H145232   3.208   3.375   1.613 -0.8358 -1.2260  0.9268
 7939TIP3    H245233   3.185   3.226   1.602  1.2815 -1.4869 -0.4874
 7940TIP3   OH245234   5.220   4.650   0.517  0.1452  0.6014  0.1247
 7940TIP3    H145235   5.126   4.656   0.504  0.2832  0.2006 -1.2361
 7940TIP3    H245236   5.250   4.593   0.446  1.2173 -0.5374  1.4206
 7941TIP3   OH245237   3.354   4.278   5.133  0.1671  0.8288  0.1461
 7941TIP3    H145238   3.355   4.280   5.229 -0.9047 -0.2752  0.1897
 7941TIP3    H245239   3.284   4.339   5.108 -0.4354  0.1267  0.1090
 7942TIP3   OH245240   2.402   0.767  15.627  0.6073  0.1581 -0.2009
 7942TIP3    H145241   2.365   0.804  15.707  1.3572 -0.0608  0.2631
 7942TIP3    H245242   2.386   0.832  15.560  0.3859  0.5581  0.2358
 7943TIP3   OH245243   2.738   3.038   5.881  0.2747 -0.3146  0.0028
 7943TIP3    H145244   2.723   3.124   5.842 -2.2311 -0.1474  1.1289
 7943TIP3    H245245   2.787   3.057   5.961 -1.8900  0.3985  1.2583
 7944TIP3   OH245246   2.019   1.895  14.963  0.3066  0.2647 -0.0680
 7944TIP3    H145247   2.093   1.872  15.020 -1.0324 -1.6970  0.9655
 7944TIP3    H245248   2.029   1.839  14.887 -0.4801 -0.5417  0.4044
 7945TIP3   OH245249   5.772   0.725   2.885 -0.2123  0.5306 -0.2794
 7945TIP3    H145250   5.833   0.668   2.932 -0.2582  1.4681  0.9620
 7945TIP3    H245251   5.788   0.705   2.793 -1.5898 -2.9239  0.0659
 7946TIP3   OH245252   5.701   3.451   3.614 -0.0361  0.3864  0.1311
 7946TIP3    H145253   5.654   3.528   3.581 -1.2481  0.1134  1.1036
 7946TIP3    H245254   5.776   3.487   3.661 -1.3545  1.1270  1.7986
 7947TIP3   OH245255   1.860   4.982  10.560  0.1550  0.2747  0.8480
 7947TIP3    H145256   1.873   5.075  10.579 -0.7916  0.5930  0.0502
 7947TIP3    H245257   1.796   4.981  10.489  0.6858 -0.9733  0.3547
 7948TIP3   OH245258   2.057   1.011   4.009  0.2568  0.1364  0.2637
 7948TIP3    H145259   2.032   1.021   3.917 -2.4051  1.9278  1.0770
 7948TIP3    H245260   2.054   0.917   4.024 -3.3271 -0.0162 -0.5498
 7949TIP3   OH245261   6.108   1.261  11.011  0.9270  0.1361  0.5083
 7949TIP3    H145262   6.171   1.206  10.964 -0.2892 -0.5290 -0.3982
 7949TIP3    H245263   6.023   1.238  10.974 -0.0257  0.0969  2.5750
 7950TIP3   OH245264   4.463   3.456   3.395 -0.5241  0.1728  0.3728
 7950TIP3    H145265   4.378   3.429   3.360 -0.1692 -0.4312 -0.0175
 7950TIP3    H245266   4.512   3.488   3.319 -0.0514 -0.3776  0.4432
 7951TIP3   OH245267   0.862   0.623   1.554 -0.2420 -0.2842 -0.1359
 7951TIP3    H145268   0.851   0.670   1.637  0.0761  1.0697 -0.8312
 7951TIP3    H245269   0.956   0.611   1.545 -0.3680 -2.1683  0.5956
 7952TIP3   OH245270   3.462   3.022   5.032  0.0926 -0.1991  0.6885
 7952TIP3    H145271   3.474   3.100   5.085  0.4192  0.3182 -0.1283
 7952TIP3    H245272   3.385   2.978   5.070 -2.3558  2.3372 -0.9694
 7953TIP3   OH245273   6.312   5.337  15.391 -0.3381  0.3517 -0.0300
 7953TIP3    H145274   6.407   5.345  15.389 -0.3830  0.7501 -2.0715
 7953TIP3    H245275   6.282   5.411  15.445  0.5333 -0.6690  1.9635
 7954TIP3   OH245276   6.556   2.696  13.446  0.1993 -0.0790 -0.3863
 7954TIP3    H145277   6.559   2.773  13.389  0.9897  0.1750 -0.0098
 7954TIP3    H245278   6.576   2.730  13.533 -1.7831 -0.3133  0.2223
 7955TIP3   OH245279   2.127   0.061  16.010 -0.7407 -0.2143 -0.5164
 7955TIP3    H145280   2.186   0.027  16.076  0.3715 -1.6655 -2.1759
 7955TIP3    H245281   2.089   0.140  16.050  2.1038  0.6653  0.7056
 7956TIP3   OH245282   3.322   3.819   2.000 -0.2198 -0.1164 -0.1775
 7956TIP3    H145283   3.230   3.819   2.027 -0.3595  0.3808 -0.6510
 7956TIP3    H245284   3.338   3.729   1.972 -0.3676 -0.3772  0.5444
 7957TIP3   OH245285   1.772   4.810  15.954  0.2662  0.2192 -0.1766
 7957TIP3    H145286   1.820   4.738  15.995 -0.5093  0.2806  0.8907
 7957TIP3    H245287   1.768   4.787  15.861  1.2438 -0.4023 -0.0764
 7958TIP3   OH245288   5.910   2.585  11.863 -0.0965  0.0918  0.1845
 7958TIP3    H145289   5.905   2.545  11.777 -2.1496  0.7741 -0.0820
 7958TIP3    H245290   5.990   2.638  11.861 -0.2797  0.3402 -1.4087
 7959TIP3   OH245291   3.157   6.372   2.657  0.7282  0.1324 -0.2743
 7959TIP3    H145292   3.221   6.432   2.618  0.5323 -0.6603 -1.9203
 7959TIP3    H245293   3.081   6.377   2.598 -0.2172  0.0659  0.9103
 7960TIP3   OH245294   4.372   1.376   1.523  0.6093 -0.1642 -0.5622
 7960TIP3    H145295   4.423   1.304   1.486  1.0650  0.0701 -0.3953
 7960TIP3    H245296   4.373   1.361   1.617 -1.5722 -1.4474 -0.6678
 7961TIP3   OH245297   2.826   5.694   2.488  0.2920 -0.0773  0.1894
 7961TIP3    H145298   2.902   5.750   2.506  0.2500  0.4480 -1.1179
 7961TIP3    H245299   2.862   5.605   2.488  0.4969 -0.0213  1.5772
 7962TIP3   OH245300   2.694   0.109   2.704 -0.0616  0.4745  0.4515
 7962TIP3    H145301   2.637   0.177   2.669  1.8079  1.4410 -0.9221
 7962TIP3    H245302   2.782   0.137   2.679  0.9034 -1.6915  1.1946
 7963TIP3   OH245303   5.637   0.417   5.683  0.6707 -0.3846 -0.9088
 7963TIP3    H145304   5.691   0.420   5.762 -0.3395 -2.1738 -0.0741
 7963TIP3    H245305   5.639   0.506   5.649  2.4231  0.0746  0.2360
 7964TIP3   OH245306   2.647   3.708   1.963 -0.3957 -1.1346 -0.0017
 7964TIP3    H145307   2.607   3.621   1.964 -0.7245 -1.0167 -1.2274
 7964TIP3    H245308   2.642   3.738   2.054 -1.3383 -1.9223  0.2267
 7965TIP3   OH245309   2.581   6.635   3.185  0.1751 -0.3755 -0.2702
 7965TIP3    H145310   2.614   6.681   3.108 -0.6515  1.0770  0.1772
 7965TIP3    H245311   2.538   6.704   3.237 -2.0506 -1.8119 -0.0427
 7966TIP3   OH245312   5.240   2.129  15.972  0.2533 -0.3445  0.1016
 7966TIP3    H145313   5.177   2.196  15.947  1.8618  0.2814 -2.7625
 7966TIP3    H245314   5.195   2.046  15.956 -1.1344 -0.0113  1.9537
 7967TIP3   OH245315   4.814   2.462  12.101  0.1238 -0.1762 -0.1921
 7967TIP3    H145316   4.826   2.374  12.135  3.3502 -0.1244 -0.9417
 7967TIP3    H245317   4.753   2.452  12.028 -0.1668 -1.6125  0.2243
 7968TIP3   OH245318   3.917   5.188   5.877  0.0351 -0.0983 -0.3602
 7968TIP3    H145319   3.970   5.205   5.799 -0.1853 -0.1755 -0.5254
 7968TIP3    H245320   3.827   5.206   5.850  0.0956  1.3537  0.2908
 7969TIP3   OH245321   6.624   6.190  13.177  0.1584  0.3873 -0.2674
 7969TIP3    H145322   6.678   6.114  13.157 -0.5382 -0.4418  0.8760
 7969TIP3    H245323   6.584   6.214  13.093 -1.3787 -1.9377 -0.3040
 7970TIP3   OH245324   6.523   4.761   0.321  0.3200 -0.0658 -0.1112
 7970TIP3    H145325   6.569   4.803   0.248  1.8751 -0.3752  0.6559
 7970TIP3    H245326   6.567   4.793   0.399 -0.9389 -0.2089  0.6800
 7971TIP3   OH245327   4.292   5.625  13.013  0.0997 -0.6423 -0.1381
 7971TIP3    H145328   4.228   5.561  12.982  1.4552 -0.9817 -2.5188
 7971TIP3    H245329   4.347   5.576  13.073 -0.4452 -0.9905  0.0873
 7972TIP3   OH245330   4.561   4.589  14.558 -0.2457 -0.2241  0.0314
 7972TIP3    H145331   4.508   4.643  14.499  1.7472  0.0476 -1.6463
 7972TIP3    H245332   4.500   4.559  14.625 -2.4817  0.1164 -1.7282
 7973TIP3   OH245333   5.210   6.755  17.025  0.1062  0.1406  0.0292
 7973TIP3    H145334   5.203   6.664  17.053  0.7309  0.4849  1.4258
 7973TIP3    H245335   5.189   6.805  17.104  2.0561  1.1884 -0.0757
 7974TIP3   OH245336   0.805   4.440   4.038 -0.2279 -0.3840  0.6471
 7974TIP3    H145337   0.709   4.436   4.033 -0.2964 -1.4045  2.1975
 7974TIP3    H245338   0.827   4.397   4.120  1.5853 -0.2074  0.3015
 7975TIP3   OH245339   2.596   2.951   1.864 -0.3048 -0.3589  0.2324
 7975TIP3    H145340   2.668   2.940   1.926  0.7497  0.0082 -0.9105
 7975TIP3    H245341   2.581   2.864   1.828  0.9986 -0.0784 -1.0664
 7976TIP3   OH245342   4.885   2.122   1.145  0.2488  0.3023 -0.1569
 7976TIP3    H145343   4.878   2.214   1.120 -2.3751  0.3692  0.4745
 7976TIP3    H245344   4.829   2.114   1.223  3.0830 -1.1935  1.8774
 7977TIP3   OH245345   1.103   0.665   1.700  0.2324  0.2605 -0.2161
 7977TIP3    H145346   1.056   0.655   1.782 -2.1762  0.2820 -1.5007
 7977TIP3    H245347   1.181   0.715   1.722 -0.8107  1.0501  1.8917
 7978TIP3   OH245348   1.363   4.008   5.071 -0.2151  0.8032  0.3018
 7978TIP3    H145349   1.339   3.934   5.015  1.2244  0.9211 -0.5149
 7978TIP3    H245350   1.386   3.968   5.155 -1.7163  0.5657  0.6331
 7979TIP3   OH245351   1.112   0.396  16.267  0.6756 -0.1246 -0.0338
 7979TIP3    H145352   1.141   0.307  16.246 -0.5395 -0.7195  0.6569
 7979TIP3    H245353   1.094   0.437  16.183 -0.8125 -1.2879 -0.3324
 7980TIP3   OH245354   5.781   1.503  16.246  0.2462  0.1991  1.0466
 7980TIP3    H145355   5.695   1.467  16.225  1.7937 -1.7911 -2.9305
 7980TIP3    H245356   5.834   1.427  16.267  2.2972  0.4909 -2.3089
 7981TIP3   OH245357   2.256   5.636  16.858 -0.6570 -0.1054 -0.3074
 7981TIP3    H145358   2.172   5.617  16.900 -1.5066  0.2311 -1.7830
 7981TIP3    H245359   2.257   5.582  16.779 -0.0787  0.8729 -0.9946
 7982TIP3   OH245360   3.511   1.856   3.962 -0.1048  0.7301  0.6289
 7982TIP3    H145361   3.526   1.766   3.990 -0.3159  0.2060 -0.8735
 7982TIP3    H245362   3.538   1.909   4.038  3.3277 -0.3985  0.3988
 7983TIP3   OH245363   4.281   2.288   2.976 -0.0960  0.1884  0.4508
 7983TIP3    H145364   4.337   2.310   2.901 -0.0398 -0.6686  0.2250
 7983TIP3    H245365   4.341   2.288   3.051  0.0909 -0.1207  0.3044
 7984TIP3   OH245366   0.249   1.927   1.428 -0.2149  0.2936  0.0892
 7984TIP3    H145367   0.296   1.847   1.452  2.3524  1.1187 -1.8001
 7984TIP3    H245368   0.185   1.899   1.363  0.5985 -0.2582 -0.4848
 7985TIP3   OH245369   1.573   6.440  13.439  0.0847 -0.4251 -0.1273
 7985TIP3    H145370   1.511   6.440  13.365  1.1691  1.5227 -1.1234
 7985TIP3    H245371   1.532   6.497  13.504  0.6531  0.5775 -0.6389
 7986TIP3   OH245372   0.309   3.402   5.446  0.1422 -0.1890  0.1685
 7986TIP3    H145373   0.393   3.358   5.435 -0.5643 -1.4546 -0.4608
 7986TIP3    H245374   0.244   3.333   5.431 -1.0071  0.6172  1.1997
 7987TIP3   OH245375   4.340   4.064  15.620 -0.6439 -0.6153  0.6057
 7987TIP3    H145376   4.427   4.044  15.656 -2.0070 -1.6535  3.6989
 7987TIP3    H245377   4.314   4.145  15.663 -1.6835 -0.9807  0.7020
 7988TIP3   OH245378   4.540   6.532  17.156  0.3965  0.1877 -0.3016
 7988TIP3    H145379   4.466   6.593  17.154  0.1198 -0.1135 -2.7857
 7988TIP3    H245380   4.616   6.586  17.133  1.0124  0.4577  2.0654
 7989TIP3   OH245381   3.492   5.994   1.739  0.1117 -0.0923 -0.4393
 7989TIP3    H145382   3.446   5.929   1.687  1.3340 -0.2925 -1.3146
 7989TIP3    H245383   3.581   5.996   1.703  1.3240 -0.8913  2.2185
 7990TIP3   OH245384   5.562   0.944  14.744 -0.2734  0.3347 -0.8384
 7990TIP3    H145385   5.593   0.871  14.692  2.2906  0.8004 -0.1166
 7990TIP3    H245386   5.530   1.008  14.680  0.5944 -0.0649 -1.6978
 7991TIP3   OH245387   0.857   5.566   1.354  0.7563  0.4295  0.1297
 7991TIP3    H145388   0.913   5.644   1.358  0.4392  0.6918 -0.4515
 7991TIP3    H245389   0.768   5.601   1.358  0.5855  0.1805 -1.1913
 7992TIP3   OH245390   5.813   1.883  16.903  0.1269 -0.6494  0.0032
 7992TIP3    H145391   5.906   1.869  16.918  0.5504  1.0747 -0.7216
 7992TIP3    H245392   5.791   1.957  16.960 -0.3831  0.0127 -1.0170
 7993TIP3   OH245393   6.177   2.466  12.297 -0.2843  0.0486 -0.2226
 7993TIP3    H145394   6.272   2.468  12.307 -0.2803 -0.0101 -0.2523
 7993TIP3    H245395   6.152   2.377  12.320 -0.0822 -0.6713 -2.5321
 7994TIP3   OH245396   5.759   3.816   1.841  0.1166  0.3488  0.0099
 7994TIP3    H145397   5.829   3.850   1.785  0.9834 -0.3736  0.6335
 7994TIP3    H245398   5.767   3.866   1.922  0.7794 -0.6559  0.5740
 7995TIP3   OH245399   6.488   5.944   2.443 -0.2556 -0.1934 -0.0022
 7995TIP3    H145400   6.440   5.962   2.524 -1.7086 -1.6489 -0.4840
 7995TIP3    H245401   6.453   6.008   2.381 -1.5591 -1.1794 -0.3223
 7996TIP3   OH245402   5.883   4.256  11.668  0.2354  0.4189  0.9572
 7996TIP3    H145403   5.973   4.228  11.648  0.0565  0.4653  0.0480
 7996TIP3    H245404   5.870   4.228  11.758  1.8951  2.2758  1.8412
 7997TIP3   OH245405   3.682   2.859  13.643  0.3240 -0.1685  0.2158
 7997TIP3    H145406   3.609   2.920  13.640 -0.6409 -1.1710  2.2132
 7997TIP3    H245407   3.643   2.774  13.663  1.6100 -1.5690 -2.6370
 7998TIP3   OH245408   0.463   1.619  16.062  0.4770  0.1949 -0.3585
 7998TIP3    H145409   0.468   1.710  16.092  0.3395 -0.4999  1.9750
 7998TIP3    H245410   0.430   1.626  15.972 -1.7148  2.3782  0.4753
 7999TIP3   OH245411   1.716   3.930  16.572  0.2401 -0.5029  0.6551
 7999TIP3    H145412   1.771   3.862  16.613 -0.2114 -1.3817 -0.1481
 7999TIP3    H245413   1.651   3.881  16.522  2.1684  0.4138 -3.1099
 8000TIP3   OH245414   3.959   3.334  16.587  0.2418  0.1123  0.3107
 8000TIP3    H145415   3.944   3.424  16.558  1.3871  0.3335  0.3303
 8000TIP3    H245416   3.998   3.291  16.511  1.2909  0.1209  0.8210
 8001TIP3   OH245417   6.762   6.534  11.334  0.2072 -0.5687  0.2105
 8001TIP3    H145418   6.795   6.449  11.362  1.6747  0.2177  1.0118
 8001TIP3    H245419   6.816   6.597  11.382  0.4562  0.8204 -1.7765
 8002TIP3   OH245420   2.446   1.828  10.875 -0.2619 -0.2460 -0.5240
 8002TIP3    H145421   2.433   1.752  10.819 -2.5416  0.2639 -0.8048
 8002TIP3    H245422   2.440   1.794  10.964 -0.3907 -0.5153 -0.6368
 8003TIP3   OH245423   0.024   6.001  14.068  0.0264 -0.1789 -0.0947
 8003TIP3    H145424   0.105   6.052  14.073 -0.2222  0.3435 -1.1201
 8003TIP3    H245425  -0.045   6.066  14.056 -0.1059 -0.7556 -3.3334
 8004TIP3   OH245426   3.480   5.228  15.028  0.0800  0.2436 -0.1745
 8004TIP3    H145427   3.423   5.165  14.985  1.4333 -1.3777  0.3268
 8004TIP3    H245428   3.469   5.309  14.978 -1.5274 -0.4281 -0.9648
 8005TIP3   OH245429   2.364   4.605   5.568 -0.0047  0.2477 -0.0347
 8005TIP3    H145430   2.326   4.558   5.643  0.8026 -1.7318 -0.7886
 8005TIP3    H245431   2.427   4.543   5.531  2.4802  2.6272 -0.0720
 8006TIP3   OH245432   5.341   4.288  12.564 -0.9125  0.0043  0.4292
 8006TIP3    H145433   5.316   4.354  12.629 -1.8013  1.2345 -1.1002
 8006TIP3    H245434   5.263   4.234  12.552 -0.6476 -0.4271  0.6068
 8007TIP3   OH245435   5.276   2.680   1.113  0.1820  0.9200 -0.1951
 8007TIP3    H145436   5.324   2.731   1.179 -0.5969 -0.6375  1.6678
 8007TIP3    H245437   5.277   2.591   1.147 -2.4796  0.5121 -0.9928
 8008TIP3   OH245438   2.091   6.246  12.884 -1.0341 -0.6688 -0.1649
 8008TIP3    H145439   2.002   6.213  12.893 -1.5853  1.0343  0.9955
 8008TIP3    H245440   2.080   6.336  12.856  0.2560  0.1156  1.6801
 8009TIP3   OH245441   6.315   5.685  14.364  0.0878 -0.0584  0.0074
 8009TIP3    H145442   6.256   5.691  14.288 -2.4663 -0.3659  1.8221
 8009TIP3    H245443   6.362   5.603  14.352  0.0606  0.1080 -1.4298
 8010TIP3   OH245444   6.244   1.691   4.359  0.1843 -0.3598 -0.1107
 8010TIP3    H145445   6.319   1.683   4.419  0.1571  0.5656  0.0573
 8010TIP3    H245446   6.270   1.760   4.297  0.2522 -1.3635 -1.2394
 8011TIP3   OH245447   0.208   4.317   5.742  0.1475  0.0737 -0.1765
 8011TIP3    H145448   0.137   4.317   5.807 -0.7391 -1.6113 -1.0774
 8011TIP3    H245449   0.182   4.250   5.678  3.0193 -1.3236 -0.0323
 8012TIP3   OH245450   4.007   3.345   4.123  0.4283  0.1743 -0.0970
 8012TIP3    H145451   4.094   3.310   4.103  0.6388  0.1986  0.7413
 8012TIP3    H245452   4.023   3.422   4.177 -0.1375 -0.6960  1.3827
 8013TIP3   OH245453   0.536   2.549   3.139  0.4715 -0.0621  0.6295
 8013TIP3    H145454   0.624   2.543   3.101  0.0477 -0.3430 -0.3332
 8013TIP3    H245455   0.493   2.619   3.091 -0.4159 -1.1082 -0.1473
 8014TIP3   OH245456   6.107   2.904  13.039  0.0207  0.3226 -0.5990
 8014TIP3    H145457   6.037   2.887  13.102  1.4112  0.9928  1.2011
 8014TIP3    H245458   6.083   2.851  12.963 -0.8370 -1.9274  1.1088
 8015TIP3   OH245459   6.761   2.307   5.831 -0.2397  0.4185  0.4145
 8015TIP3    H145460   6.779   2.224   5.876 -1.0108 -0.2048 -0.3971
 8015TIP3    H245461   6.815   2.371   5.877  1.1678 -0.7106  0.4005
 8016TIP3   OH245462   4.899   4.871   1.320 -0.5263 -0.3344  0.3734
 8016TIP3    H145463   4.825   4.811   1.321  0.7448 -2.0431 -1.0494
 8016TIP3    H245464   4.974   4.818   1.345  0.6124  0.7002 -0.6919
 8017TIP3   OH245465   4.275   6.042  10.946  0.2054  0.1094 -0.6335
 8017TIP3    H145466   4.273   6.099  11.022 -0.8087 -1.6374  0.7494
 8017TIP3    H245467   4.185   6.007  10.939  0.3912 -0.1550 -2.3368
 8018TIP3   OH245468   2.239   0.541  11.996 -0.1821  0.1861 -0.3428
 8018TIP3    H145469   2.317   0.593  11.977  1.5468 -2.0700  0.1254
 8018TIP3    H245470   2.239   0.533  12.092 -1.0280  0.1989 -0.3356
 8019TIP3   OH245471   1.686   5.127   5.139 -0.6634  0.0328  0.7342
 8019TIP3    H145472   1.770   5.174   5.142  0.0472 -1.1835  0.6074
 8019TIP3    H245473   1.627   5.187   5.093  0.3607  0.5721  0.0659
 8020TIP3   OH245474   6.374   3.300  15.946 -0.0959 -0.2700  0.1554
 8020TIP3    H145475   6.285   3.298  15.910 -0.4337  2.0278  0.7127
 8020TIP3    H245476   6.413   3.217  15.917 -2.4929 -1.5169  0.1865
 8021TIP3   OH245477   5.898   1.548  13.349 -0.0819  0.1693 -0.7875
 8021TIP3    H145478   5.950   1.468  13.348  0.2275  0.2686 -4.1548
 8021TIP3    H245479   5.909   1.583  13.437  0.6654 -2.8763  0.4513
 8022TIP3   OH245480   1.435   6.279  12.465 -0.3410  0.6488  0.0716
 8022TIP3    H145481   1.508   6.226  12.434  0.0191  0.3100  1.4502
 8022TIP3    H245482   1.457   6.368  12.437 -0.0525  0.3633 -0.6528
 8023TIP3   OH245483   1.612   3.293   2.899  0.1785  0.8915  0.1469
 8023TIP3    H145484   1.619   3.246   2.982 -0.2595  1.4472  0.5065
 8023TIP3    H245485   1.565   3.373   2.921 -0.5461  0.7315 -0.7572
 8024TIP3   OH245486   6.659   6.024   4.545  0.1936 -0.3361 -0.0639
 8024TIP3    H145487   6.571   6.039   4.510  0.3117 -0.9230 -0.6253
 8024TIP3    H245488   6.662   6.076   4.626 -0.7835 -0.5861  0.1391
 8025TIP3   OH245489   1.939   0.500   5.155  0.2916  0.4120 -0.1181
 8025TIP3    H145490   1.915   0.462   5.239 -0.6956 -0.2347 -0.6692
 8025TIP3    H245491   1.881   0.575   5.145  0.8177  0.8456  0.0370
 8026TIP3   OH245492   5.284   5.579  11.394  0.6879  0.4448  0.2666
 8026TIP3    H145493   5.330   5.576  11.310 -0.8013  1.6529 -0.6398
 8026TIP3    H245494   5.223   5.505  11.390  1.5692 -0.3470  0.9093
 8027TIP3   OH245495   1.367   5.923  12.030 -0.2629 -0.1373  0.2828
 8027TIP3    H145496   1.404   5.946  11.945 -1.0066 -0.2868 -0.0973
 8027TIP3    H245497   1.284   5.880  12.009  0.9202 -3.0251  0.9495
 8028TIP3   OH245498   3.586   0.985  15.237  0.2654 -0.0071  0.1695
 8028TIP3    H145499   3.606   1.075  15.213 -0.5724  0.3234  0.6771
 8028TIP3    H245500   3.636   0.969  15.317  0.9977 -0.2441 -0.3294
 8029TIP3   OH245501   3.180   2.539  14.795  0.2707  0.2178  0.0229
 8029TIP3    H145502   3.266   2.574  14.817 -0.0956  0.4726  1.1718
 8029TIP3    H245503   3.156   2.583  14.714  0.0570  2.2956  1.1346
 8030TIP3   OH245504   4.953   5.365  16.498 -0.4323  0.3054  0.4120
 8030TIP3    H145505   5.035   5.390  16.454  0.9138 -1.9849  1.4191
 8030TIP3    H245506   4.948   5.424  16.573 -0.3522  1.2450 -0.2981
 8031TIP3   OH245507   2.806   1.444   4.578 -0.2365  0.0088  1.2012
 8031TIP3    H145508   2.758   1.501   4.638 -0.5331 -1.2638  2.2105
 8031TIP3    H245509   2.746   1.430   4.505 -0.0538  1.1772  0.7962
 8032TIP3   OH245510   3.543   2.085   3.620 -0.3358 -0.4952  0.0563
 8032TIP3    H145511   3.600   2.117   3.550  1.2502  1.2740  2.0070
 8032TIP3    H245512   3.580   2.000   3.643  1.5734  0.5798  1.2223
 8033TIP3   OH245513   1.098   4.189  14.687 -0.3007 -0.2114 -0.1156
 8033TIP3    H145514   1.156   4.204  14.612 -0.3870  0.7913  0.0050
 8033TIP3    H245515   1.154   4.197  14.763 -0.2396 -1.1064 -0.0486
 8034TIP3   OH245516   5.862   2.260   4.096 -0.4051  0.3203 -0.4180
 8034TIP3    H145517   5.818   2.281   4.179 -3.1574 -3.2649 -0.7482
 8034TIP3    H245518   5.807   2.299   4.029  0.5368  1.1860 -0.7246
 8035TIP3   OH245519   0.864   5.607   5.387  0.3535  0.0660  0.1725
 8035TIP3    H145520   0.910   5.544   5.442 -0.2666 -1.6292 -1.1732
 8035TIP3    H245521   0.773   5.577   5.387  0.1041  0.7914 -0.7299
 8036TIP3   OH245522   1.160   3.450  17.139  0.0135  0.5082 -0.7411
 8036TIP3    H145523   1.147   3.372  17.085 -1.8555 -1.2405  1.9640
 8036TIP3    H245524   1.227   3.424  17.203  0.1030  1.4761 -0.4268
 8037TIP3   OH245525   2.928   4.992  15.239 -0.2779 -0.4947 -0.5578
 8037TIP3    H145526   2.947   4.996  15.146 -2.0788  1.7587 -0.9300
 8037TIP3    H245527   3.009   5.020  15.282 -0.0354  0.4143 -1.5776
 8038TIP3   OH245528   6.334   6.225  14.157 -0.3998 -0.3819  0.1558
 8038TIP3    H145529   6.394   6.202  14.085  0.6539  3.2072 -0.2992
 8038TIP3    H245530   6.391   6.232  14.234 -0.2424  2.1440 -0.0952
 8039TIP3   OH245531   2.690   2.710   1.243 -0.2383  0.1640 -0.0072
 8039TIP3    H145532   2.656   2.798   1.229  0.5604  0.4897  0.0436
 8039TIP3    H245533   2.785   2.719   1.233 -0.0914 -0.5652  0.6295
 8040TIP3   OH245534   2.862   0.388   0.223 -0.4097  0.2065  0.2961
 8040TIP3    H145535   2.816   0.401   0.140 -0.1215  0.8916  0.2403
 8040TIP3    H245536   2.954   0.378   0.199 -0.4843 -0.8671  0.4334
 8041TIP3   OH245537   0.647   0.544  10.429  0.1056  0.3540 -0.1842
 8041TIP3    H145538   0.610   0.622  10.470  0.7793  0.7623 -0.3398
 8041TIP3    H245539   0.742   0.556  10.436  0.2164 -0.4774 -0.1565
 8042TIP3   OH245540   4.935   5.539  12.468 -0.2490  0.3197 -0.3983
 8042TIP3    H145541   4.914   5.451  12.438 -0.9191 -0.0864  1.1950
 8042TIP3    H245542   5.030   5.537  12.481  0.1801  0.6722 -2.8563
 8043TIP3   OH245543   1.819   2.395   0.141 -0.1537  0.4357  0.0232
 8043TIP3    H145544   1.729   2.375   0.114 -0.9018 -0.8829  3.0162
 8043TIP3    H245545   1.845   2.320   0.194  2.5417  1.0582 -0.2762
 8044TIP3   OH245546   0.819   1.831  14.715  0.1059 -0.2119  0.0052
 8044TIP3    H145547   0.779   1.746  14.698  0.8204 -0.7578  0.9963
 8044TIP3    H245548   0.747   1.884  14.751  0.1987 -1.1690  1.7118
 8045TIP3   OH245549   3.148   1.058   3.259  0.0660  0.1870  0.4089
 8045TIP3    H145550   3.188   1.144   3.246 -0.1376  0.1377 -0.6637
 8045TIP3    H245551   3.088   1.070   3.332  0.4592  0.8111  0.6334
 8046TIP3   OH245552   1.347   3.712  12.282  0.1596 -0.3835  0.0534
 8046TIP3    H145553   1.376   3.700  12.372 -1.1998 -0.5074  0.4989
 8046TIP3    H245554   1.345   3.624  12.246  0.0074 -0.4098  0.1263
 8047TIP3   OH245555   4.899   3.358  13.052 -0.6943 -0.2341 -0.6011
 8047TIP3    H145556   4.946   3.378  12.971 -1.5470 -2.3057 -1.6844
 8047TIP3    H245557   4.861   3.271  13.037 -4.1468  0.9116  0.5081
 8048TIP3   OH245558   0.799   5.296   1.325 -0.4081  0.0922  0.5198
 8048TIP3    H145559   0.814   5.388   1.345  2.2408 -0.4228  1.3185
 8048TIP3    H245560   0.743   5.297   1.248 -1.8613  2.3108  1.5095
 8049TIP3   OH245561   5.155   6.458  13.742 -0.2628  0.2887 -0.2437
 8049TIP3    H145562   5.232   6.401  13.743 -1.7497 -1.8511  1.9102
 8049TIP3    H245563   5.144   6.481  13.650  0.9254 -2.2203 -1.0962
 8050TIP3   OH245564   2.495   1.817  16.588 -0.3665 -0.0058 -0.2500
 8050TIP3    H145565   2.568   1.879  16.593 -0.5229  0.2043 -0.6014
 8050TIP3    H245566   2.417   1.870  16.607 -0.3729 -0.3486  0.7587
 8051TIP3   OH245567   3.111   2.677   6.130  0.3420  0.2346  0.3587
 8051TIP3    H145568   3.027   2.638   6.156  0.2934  0.4284  0.4959
 8051TIP3    H245569   3.096   2.708   6.041  0.5866 -0.6604 -0.0060
 8052TIP3   OH245570   4.997   3.335   0.519  0.9811  0.0870  0.2526
 8052TIP3    H145571   4.944   3.262   0.489 -0.3483  0.7334  0.9369
 8052TIP3    H245572   5.078   3.295   0.551 -0.1090 -1.2087  1.5205
 8053TIP3   OH245573   5.497   6.469   2.259 -0.4075  0.3736 -0.2505
 8053TIP3    H145574   5.573   6.528   2.260 -0.2304  0.1536  0.9318
 8053TIP3    H245575   5.425   6.525   2.228  0.2923  0.4752 -1.7840
 8054TIP3   OH245576   4.181   2.426  15.802  0.4697 -0.1150 -0.3545
 8054TIP3    H145577   4.100   2.386  15.832  1.9162 -2.7423  0.3798
 8054TIP3    H245578   4.186   2.403  15.709 -0.1391  1.0180 -0.6772
 8055TIP3   OH245579   6.264   3.503   4.063  0.2899 -0.2640  0.1700
 8055TIP3    H145580   6.193   3.504   3.999 -0.7397 -0.4975  1.2658
 8055TIP3    H245581   6.256   3.418   4.107  1.7961 -0.6595 -0.2540
 8056TIP3   OH245582   6.580   2.087  14.600  0.1519 -0.2920  0.0352
 8056TIP3    H145583   6.584   2.182  14.595  0.4404 -0.3025  0.0766
 8056TIP3    H245584   6.540   2.069  14.686 -0.3889 -0.2014 -0.1935
 8057TIP3   OH245585   3.409   4.906  17.113 -0.0396 -0.6710  0.4112
 8057TIP3    H145586   3.369   4.838  17.167  1.0964 -0.3722  1.6894
 8057TIP3    H245587   3.357   4.984  17.131  0.6474 -0.4495  1.5105
 8058TIP3   OH245588   0.814   5.252   5.932  0.3632  0.4891 -0.2924
 8058TIP3    H145589   0.731   5.216   5.964 -0.3612  0.0150 -2.4835
 8058TIP3    H245590   0.789   5.333   5.887  1.0415  0.3008 -1.0334
 8059TIP3   OH245591   2.719   5.799   3.796  0.1996 -0.2627  0.2401
 8059TIP3    H145592   2.788   5.782   3.731 -1.3013 -1.0942 -1.2242
 8059TIP3    H245593   2.732   5.890   3.822  2.3106 -0.6146  0.6324
 8060TIP3   OH245594   0.067   1.682   4.478  0.1883  0.3955 -0.2663
 8060TIP3    H145595   0.088   1.590   4.497  0.8939  1.0902  2.9302
 8060TIP3    H245596  -0.027   1.682   4.460 -0.0170 -0.8578  0.6774
 8061TIP3   OH245597   5.795   1.558   0.379  0.4084 -0.3834 -0.2184
 8061TIP3    H145598   5.778   1.652   0.388  1.0083 -0.2311 -0.6167
 8061TIP3    H245599   5.709   1.517   0.390  0.1890  0.1864  0.2872
 8062TIP3   OH245600   2.872   4.727   0.469 -0.8919  0.4986  0.0293
 8062TIP3    H145601   2.866   4.780   0.390 -1.1236 -0.3008 -0.5051
 8062TIP3    H245602   2.931   4.656   0.446 -0.7813  0.3823  0.6486
 8063TIP3   OH245603   1.325   2.437  13.775  0.0644  0.1970  0.1084
 8063TIP3    H145604   1.308   2.515  13.721  0.2532 -0.1126 -0.4109
 8063TIP3    H245605   1.258   2.440  13.843 -0.3372  0.4728 -0.2917
 8064TIP3   OH245606   0.147   0.575  14.968  0.0516 -0.9381 -0.2549
 8064TIP3    H145607   0.242   0.571  14.979  0.2404  1.5300 -0.5255
 8064TIP3    H245608   0.131   0.659  14.926 -2.5685  1.0025  3.9512
 8065TIP3   OH245609   0.894   6.572  14.915 -0.1919 -0.5108 -0.0088
 8065TIP3    H145610   0.837   6.527  14.853 -0.7647  0.2525 -0.0603
 8065TIP3    H245611   0.981   6.568  14.877 -0.5833  0.1955 -1.0150
 8066TIP3   OH245612   1.945   3.629  12.993 -0.3936  0.3701  0.2200
 8066TIP3    H145613   2.030   3.623  13.036  0.4663  1.5415 -1.2323
 8066TIP3    H245614   1.924   3.539  12.969  0.4952  0.0876  0.4725
 8067TIP3   OH245615   5.498   1.279  15.965  0.5049  0.4551 -0.0196
 8067TIP3    H145616   5.562   1.208  15.956 -0.7222 -0.8745  1.2620
 8067TIP3    H245617   5.423   1.250  15.912  0.1976  1.0490  0.0882
 8068TIP3   OH245618   3.386   2.304   3.242  0.2034 -0.0591  0.4908
 8068TIP3    H145619   3.364   2.219   3.281  1.2965 -1.1642 -1.1547
 8068TIP3    H245620   3.408   2.283   3.151  0.8511  1.9570  0.1425
 8069TIP3   OH245621   0.484   2.727   1.551  0.1418 -0.0838 -0.2019
 8069TIP3    H145622   0.494   2.634   1.570  2.0725  0.2366  0.5898
 8069TIP3    H245623   0.565   2.751   1.505  0.0650  1.3759  0.3645
 8070TIP3   OH245624   6.339   2.843   4.866  0.1424 -0.0788  0.3501
 8070TIP3    H145625   6.272   2.912   4.869 -0.9723 -1.0607 -1.0088
 8070TIP3    H245626   6.341   2.809   4.955  1.0790  1.9953  1.1970
 8071TIP3   OH245627   1.274   1.529  15.260 -0.2350  0.5833 -0.3932
 8071TIP3    H145628   1.295   1.439  15.284 -3.1663  0.1127  0.8279
 8071TIP3    H245629   1.351   1.559  15.212  1.5173 -1.9992  0.5556
 8072TIP3   OH245630   2.735   1.068  14.969 -0.7451  0.5611 -0.0372
 8072TIP3    H145631   2.796   1.077  15.043 -1.2890  0.7102  0.4022
 8072TIP3    H245632   2.697   0.981  14.980 -0.2718  0.2846 -0.5760
 8073TIP3   OH245633   1.103   6.508   4.666  0.6211 -0.6314  0.5041
 8073TIP3    H145634   1.168   6.494   4.734  1.4139 -1.7900 -0.4525
 8073TIP3    H245635   1.021   6.476   4.703  1.2372 -2.2146  0.5735
 8074TIP3   OH245636   1.902   5.054  14.372 -0.2223  0.1096 -0.4534
 8074TIP3    H145637   1.836   5.124  14.374  0.4196  0.7225  1.0485
 8074TIP3    H245638   1.867   4.987  14.431 -2.4095 -2.4594 -4.2580
 8075TIP3   OH245639   5.713   2.936  10.953  0.0332  0.0417  0.1457
 8075TIP3    H145640   5.725   2.899  10.865  0.1419  2.1040 -0.7731
 8075TIP3    H245641   5.800   2.967  10.977 -0.1635  0.2108  0.6401
 8076TIP3   OH245642   3.458   3.541   4.411  0.8652  0.0443  0.2924
 8076TIP3    H145643   3.528   3.558   4.475  1.2971  0.4135 -0.2695
 8076TIP3    H245644   3.422   3.456   4.437 -1.5882  1.7849  3.4183
 8077TIP3   OH245645   1.854   6.383   6.565 -0.1320 -0.0008  0.5367
 8077TIP3    H145646   1.882   6.301   6.525  1.3241  0.8435 -0.2699
 8077TIP3    H245647   1.840   6.442   6.491 -0.5521  0.6569  1.1313
 8078TIP3   OH245648   2.903   3.216   0.752 -0.0436  0.2956  0.0867
 8078TIP3    H145649   2.991   3.247   0.773  0.1954 -0.9505  1.0276
 8078TIP3    H245650   2.871   3.176   0.833 -1.7941  1.3971 -0.0118
 8079TIP3   OH245651   3.733   3.785   5.684  0.1986 -0.3983 -0.1373
 8079TIP3    H145652   3.701   3.827   5.764  1.6502 -0.6164  0.5877
 8079TIP3    H245653   3.669   3.810   5.617  0.9091  2.9465  0.2561
 8080TIP3   OH245654   2.168   0.053   0.523 -0.3129 -0.1620 -0.2959
 8080TIP3    H145655   2.167   0.149   0.514  1.7414  0.0613  1.0690
 8080TIP3    H245656   2.244   0.036   0.578 -0.7199 -2.6012 -0.4097
 8081TIP3   OH245657   1.905   1.137   5.300  0.5604 -0.2222  0.3773
 8081TIP3    H145658   1.898   1.047   5.334 -0.5016 -0.1080  0.5050
 8081TIP3    H245659   1.833   1.144   5.237  2.3453 -0.3497 -1.7759
 8082TIP3   OH245660   2.588   4.582  12.664 -0.3216 -0.4970 -0.3902
 8082TIP3    H145661   2.651   4.592  12.592 -0.1397 -2.4394 -0.5539
 8082TIP3    H245662   2.639   4.541  12.734 -0.7485  0.4620  0.5160
 8083TIP3   OH245663   0.048   5.599   1.828 -0.0021  0.4446 -0.4012
 8083TIP3    H145664   0.132   5.622   1.867  0.7694 -1.7487 -0.6445
 8083TIP3    H245665   0.008   5.684   1.805  1.5664  1.5734  0.8399
 8084TIP3   OH245666   1.295   2.488   4.017  0.3547  0.1557  0.6932
 8084TIP3    H145667   1.211   2.531   4.002  0.1873 -0.1005  0.8975
 8084TIP3    H245668   1.273   2.396   4.033  0.5075  0.3724  2.4069
 8085TIP3   OH245669   4.120   4.255  15.245 -0.3432 -0.2057  0.3062
 8085TIP3    H145670   4.116   4.164  15.275 -0.0987 -0.7424 -1.1902
 8085TIP3    H245671   4.194   4.257  15.185  0.3981  1.2884  1.1926
 8086TIP3   OH245672   2.354   3.595  12.872  0.2223  0.4449 -0.0225
 8086TIP3    H145673   2.321   3.674  12.913 -0.4313  0.1945 -0.0592
 8086TIP3    H245674   2.433   3.573  12.921 -0.2396  0.4622  0.7402
 8087TIP3   OH245675   3.296   5.042   4.139 -0.0693 -0.2957  0.0380
 8087TIP3    H145676   3.202   5.051   4.123 -0.4459  0.6565  2.3517
 8087TIP3    H245677   3.307   4.950   4.163 -0.8705  0.0643  1.9794
 8088TIP3   OH245678   0.802   4.017   6.425  0.0668  0.2704 -0.2816
 8088TIP3    H145679   0.816   3.991   6.333 -1.9131 -1.7521 -0.1110
 8088TIP3    H245680   0.723   4.071   6.422  1.2173  2.0442  0.0358
 8089TIP3   OH245681   1.710   5.818   3.110 -0.1097 -0.2542 -0.3546
 8089TIP3    H145682   1.654   5.830   3.034  0.0210 -0.0636 -0.4234
 8089TIP3    H245683   1.700   5.900   3.160  0.5780  0.0431 -0.6811
 8090TIP3   OH245684   5.340   5.633  16.766  0.0060 -0.3688 -0.0145
 8090TIP3    H145685   5.290   5.558  16.796 -0.5632  0.1327  0.3102
 8090TIP3    H245686   5.362   5.681  16.846 -0.6959  0.4617 -0.3000
 8091TIP3   OH245687   1.829   3.657   2.462 -0.6934 -0.0184 -0.0291
 8091TIP3    H145688   1.866   3.658   2.373  2.9735 -0.2875  1.3105
 8091TIP3    H245689   1.827   3.749   2.488 -1.3361  0.0226 -0.2114
 8092TIP3   OH245690   6.301   3.413   3.078 -0.2852  0.3330  0.6212
 8092TIP3    H145691   6.288   3.502   3.109 -2.4890 -0.2288  1.5100
 8092TIP3    H245692   6.251   3.359   3.139  1.8577 -1.6460  0.7501
 8093TIP3   OH245693   3.179   5.602  12.333  0.5397  0.4252 -0.2601
 8093TIP3    H145694   3.092   5.563  12.321  0.9784 -0.4539 -0.6233
 8093TIP3    H245695   3.171   5.653  12.414 -0.2296  0.1138 -0.1303
 8094TIP3   OH245696   3.398   0.405  12.570  0.1591 -0.1455 -0.2348
 8094TIP3    H145697   3.412   0.330  12.627  0.6958  0.6813  0.7507
 8094TIP3    H245698   3.485   0.445  12.561  0.2064 -0.5821 -2.1186
 8095TIP3   OH245699   5.412   6.528  15.270 -0.0029 -0.4047 -0.3087
 8095TIP3    H145700   5.363   6.596  15.317  0.1937 -0.3537 -0.1772
 8095TIP3    H245701   5.360   6.511  15.192  0.1028  0.1124 -0.4921
 8096TIP3   OH245702   1.428   5.096  13.533  0.2357 -0.2341  0.7167
 8096TIP3    H145703   1.518   5.122  13.517  0.0999 -0.0220  0.2735
 8096TIP3    H245704   1.418   5.012  13.489  0.0052  0.1062  0.1096
 8097TIP3   OH245705   0.875   4.893   1.943  0.6259 -0.7549 -0.3276
 8097TIP3    H145706   0.845   4.931   1.860  1.1709 -1.4360 -0.8552
 8097TIP3    H245707   0.970   4.909   1.944  0.4910  0.0332  0.5910
 8098TIP3   OH245708   4.693   4.127  14.043 -0.0524 -1.0232 -0.1136
 8098TIP3    H145709   4.671   4.187  13.972 -0.4774 -1.9969 -0.8273
 8098TIP3    H245710   4.761   4.071  14.006 -0.5945 -1.8264  0.0707
 8099TIP3   OH245711   6.791   3.744   1.837 -0.0480  0.2116 -0.0942
 8099TIP3    H145712   6.702   3.771   1.857  0.5222  1.7855  0.4913
 8099TIP3    H245713   6.789   3.648   1.841 -1.6789  0.2228 -0.0368
 8100TIP3   OH245714   2.323   1.594  11.074  0.5342  0.6454  0.1741
 8100TIP3    H145715   2.328   1.608  11.169 -1.7542  1.4278  0.2346
 8100TIP3    H245716   2.410   1.561  11.051  0.4367 -2.0476  2.9361
 8101TIP3   OH245717   5.460   4.464  14.057  0.4582 -0.6793 -0.0568
 8101TIP3    H145718   5.538   4.477  14.003  1.4553 -3.0858  0.6637
 8101TIP3    H245719   5.395   4.427  13.997  1.2348 -2.3988  0.0856
 8102TIP3   OH245720   6.482   0.023   5.722  0.0857 -0.3269 -0.0656
 8102TIP3    H145721   6.483  -0.062   5.678 -0.1729 -0.3251 -0.0750
 8102TIP3    H245722   6.507   0.004   5.813  1.2523 -0.2490 -0.3503
 8103TIP3   OH245723   3.454   4.808  15.827 -1.0853  0.8948  0.7455
 8103TIP3    H145724   3.380   4.751  15.845  1.1050 -1.8162  2.0897
 8103TIP3    H245725   3.438   4.886  15.880 -2.3798 -0.1877  2.0283
 8104TIP3   OH245726   5.567   0.315  15.423  0.3320  0.7377  0.5457
 8104TIP3    H145727   5.615   0.394  15.448 -0.9704  1.6412  0.2781
 8104TIP3    H245728   5.525   0.287  15.504  2.6297 -1.0926  1.2302
 8105TIP3   OH245729   1.061   5.719   2.403  0.7474 -0.8216 -0.2258
 8105TIP3    H145730   1.140   5.725   2.350  0.1701 -0.7604 -1.0873
 8105TIP3    H245731   1.086   5.662   2.477  2.2231  0.9001  0.6819
 8106TIP3   OH245732   5.112   1.820  12.529 -0.2323 -0.4855 -0.4108
 8106TIP3    H145733   5.190   1.870  12.555 -0.6299 -0.0170 -0.1043
 8106TIP3    H245734   5.045   1.846  12.592 -0.5472 -1.1476 -0.4605
 8107TIP3   OH245735   5.247   4.807   2.726  0.1957 -0.2599 -0.1051
 8107TIP3    H145736   5.227   4.890   2.771 -1.7991 -1.7407  1.9721
 8107TIP3    H245737   5.162   4.776   2.694  1.0741 -1.0266 -1.8516
 8108TIP3   OH245738   6.291   2.753   6.345  0.2095 -0.0847  0.7970
 8108TIP3    H145739   6.286   2.680   6.406 -0.3790 -1.7575 -1.1536
 8108TIP3    H245740   6.333   2.823   6.396  1.3000 -1.9062  2.5850
 8109TIP3   OH245741   6.299   1.327   0.519  0.5957 -1.0091 -0.2695
 8109TIP3    H145742   6.335   1.239   0.510  1.8542 -0.4639 -0.6754
 8109TIP3    H245743   6.370   1.386   0.495 -0.6413  0.1066 -1.3910
 8110TIP3   OH245744   4.169   5.505   2.785 -0.1729 -0.5287  0.1528
 8110TIP3    H145745   4.122   5.431   2.823  1.1825 -1.3984  0.2123
 8110TIP3    H245746   4.119   5.526   2.706 -0.2351 -1.9619 -0.2342
 8111TIP3   OH245747   4.916   2.423   4.160 -0.6610  0.3050  0.0422
 8111TIP3    H145748   4.963   2.385   4.086  1.3406  1.0749  0.8404
 8111TIP3    H245749   4.913   2.353   4.225 -0.0349  0.4392  0.2224
 8112TIP3   OH245750   4.319   3.108  14.131 -0.5635  0.1593  0.6115
 8112TIP3    H145751   4.333   3.018  14.100 -2.1453 -0.0244  0.3737
 8112TIP3    H245752   4.355   3.163  14.061  4.6849 -0.1082  2.6154
 8113TIP3   OH245753   2.169   5.355   4.581 -0.0337 -0.2491 -0.3632
 8113TIP3    H145754   2.263   5.356   4.602 -0.4992 -0.5852  1.9482
 8113TIP3    H245755   2.152   5.443   4.547  1.0290 -0.0151 -0.3392
 8114TIP3   OH245756   6.386   0.758   1.837 -0.2768 -0.4276 -0.9995
 8114TIP3    H145757   6.407   0.849   1.814  0.0931 -0.2800 -0.1411
 8114TIP3    H245758   6.312   0.735   1.781 -0.3412  0.3874 -1.2630
 8115TIP3   OH245759   0.301   4.738  11.222 -0.5798 -0.3578  0.2004
 8115TIP3    H145760   0.226   4.760  11.278 -1.8906 -2.0658 -0.7840
 8115TIP3    H245761   0.338   4.660  11.262 -1.4284 -1.5005 -1.1640
 8116TIP3   OH245762   4.698   0.274  15.814  0.1122 -0.0926  0.2878
 8116TIP3    H145763   4.790   0.296  15.803  0.1499 -0.0909  0.6108
 8116TIP3    H245764   4.684   0.273  15.908 -0.1388 -0.4289  0.2483
 8117TIP3   OH245765   6.278   2.878  14.415 -0.2360 -0.2075  0.7161
 8117TIP3    H145766   6.188   2.845  14.407 -0.2493 -0.2887  1.1445
 8117TIP3    H245767   6.332   2.799  14.415 -0.1018 -0.1252 -0.2460
 8118TIP3   OH245768   3.171   6.442   1.506 -0.1100 -0.5791 -0.5873
 8118TIP3    H145769   3.160   6.400   1.421 -0.8574 -0.7198 -0.4251
 8118TIP3    H245770   3.160   6.372   1.570  3.9049 -1.2731 -0.3758
 8119TIP3   OH245771   5.319   1.421   0.856 -0.2275 -0.0710  0.5533
 8119TIP3    H145772   5.406   1.390   0.831  0.2371  1.1113  0.6069
 8119TIP3    H245773   5.336   1.486   0.924 -0.9457  1.8048 -0.9374
 8120TIP3   OH245774   4.789   1.489   4.148 -0.2064 -0.7690 -0.0840
 8120TIP3    H145775   4.750   1.423   4.090 -1.4885 -0.4615  0.3872
 8120TIP3    H245776   4.714   1.533   4.188  0.6402  0.1693  0.5260
 8121TIP3   OH245777   5.223   2.374   1.980  0.5254  0.3070 -0.0312
 8121TIP3    H145778   5.184   2.296   2.020 -1.9478  1.3860 -0.1623
 8121TIP3    H245779   5.297   2.340   1.929 -0.9173 -2.0602 -0.6974
 8122TIP3   OH245780   2.332   5.402   3.716  0.2777  0.0031  0.0248
 8122TIP3    H145781   2.384   5.476   3.750 -1.4780  1.5727 -0.5563
 8122TIP3    H245782   2.357   5.395   3.624  1.4303 -1.0594  0.3873
 8123TIP3   OH245783   2.384   4.109  15.895 -0.0194  0.6051 -0.3539
 8123TIP3    H145784   2.317   4.174  15.917  0.7454  1.5064 -0.6176
 8123TIP3    H245785   2.459   4.133  15.950  0.3727  0.1157 -0.6653
 8124TIP3   OH245786   0.036   5.098   5.648 -0.4836  0.1888  0.1267
 8124TIP3    H145787   0.051   5.009   5.618 -0.7086  0.3104 -0.3642
 8124TIP3    H245788   0.058   5.153   5.572 -1.5401  0.4730  0.0116
 8125TIP3   OH245789   3.189   3.147   0.797 -0.2376  0.1822 -0.4342
 8125TIP3    H145790   3.130   3.086   0.754 -0.8832  1.0984 -0.8901
 8125TIP3    H245791   3.175   3.133   0.890  0.6543 -1.3289 -0.4928
 8126TIP3   OH245792   3.687   2.506  13.634  0.1702 -0.0993  0.0919
 8126TIP3    H145793   3.772   2.463  13.620  0.0081 -0.3920  0.0105
 8126TIP3    H245794   3.662   2.479  13.722  0.3789  0.3626  0.2997
 8127TIP3   OH245795   4.145   2.762  13.172  0.0790 -0.4846  0.1651
 8127TIP3    H145796   4.228   2.734  13.132  1.4064  0.0025  2.3822
 8127TIP3    H245797   4.117   2.686  13.223  0.6639  0.2601  1.6341
 8128TIP3   OH245798   6.652   4.338   2.331  0.0219  0.0317 -0.0261
 8128TIP3    H145799   6.595   4.326   2.255  0.1446  0.8642 -0.2506
 8128TIP3    H245800   6.598   4.387   2.394 -0.6048 -1.9073  1.0376
 8129TIP3   OH245801   4.752   1.389  16.228 -0.5884 -0.2725 -0.2081
 8129TIP3    H145802   4.839   1.419  16.252 -0.3747 -1.9914  1.4116
 8129TIP3    H245803   4.763   1.346  16.143  0.2706 -1.0227  0.2783
 8130TIP3   OH245804   4.156   6.284  16.871  0.9033  0.4181  0.5359
 8130TIP3    H145805   4.085   6.330  16.915  0.3283  0.4502 -0.3862
 8130TIP3    H245806   4.220   6.266  16.940  0.6126  1.5638  1.1272
 8131TIP3   OH245807   2.776   4.661   2.454  0.6461  0.1036  0.1261
 8131TIP3    H145808   2.716   4.719   2.499  0.2055 -0.5126  0.3492
 8131TIP3    H245809   2.779   4.582   2.508 -1.7622 -1.6518 -2.0329
 8132TIP3   OH245810   1.446   0.947  13.178 -0.1484 -0.5347 -0.1216
 8132TIP3    H145811   1.462   0.926  13.270  1.0270  0.7702 -0.0078
 8132TIP3    H245812   1.380   1.017  13.180  0.8654  0.4471 -0.1867
 8133TIP3   OH245813   1.086   2.553   1.844 -0.4287  0.1429  0.6384
 8133TIP3    H145814   1.019   2.612   1.877  1.1331  2.7729 -0.5899
 8133TIP3    H245815   1.066   2.542   1.752  0.6136  0.6976  0.3277
 8134TIP3   OH245816   5.543   2.627   2.638 -0.1123 -0.1572  0.8313
 8134TIP3    H145817   5.492   2.554   2.673  1.1422 -0.6880  1.6077
 8134TIP3    H245818   5.508   2.641   2.550 -0.2929 -1.7777  0.6200
 8135TIP3   OH245819   1.598   5.319  15.833  0.0837  0.5129 -0.4104
 8135TIP3    H145820   1.592   5.372  15.912  0.1664  1.0329 -0.7444
 8135TIP3    H245821   1.635   5.235  15.862  2.6271  1.5795 -0.2789
 8136TIP3   OH245822   1.453   1.136  15.639  0.0731 -0.0965  0.4859
 8136TIP3    H145823   1.369   1.150  15.595 -0.3237 -1.9742  0.5495
 8136TIP3    H245824   1.518   1.166  15.575 -0.5349 -1.7408 -0.9909
 8137TIP3   OH245825   4.814   3.876   5.966  1.1642 -0.4428 -0.4372
 8137TIP3    H145826   4.757   3.952   5.952  0.6253 -0.9852 -1.2836
 8137TIP3    H245827   4.845   3.886   6.056 -0.0585  0.0159 -0.0380
 8138TIP3   OH245828   3.940   2.134   2.822  0.1557  0.0505 -0.1834
 8138TIP3    H145829   3.926   2.229   2.823  0.3880  0.1014 -1.1022
 8138TIP3    H245830   4.015   2.121   2.880  0.6953  0.5308 -0.7594
 8139TIP3   OH245831   6.059   0.874  13.499  0.2635 -0.2321 -0.4598
 8139TIP3    H145832   6.007   0.797  13.477 -0.4583  0.0762  0.1175
 8139TIP3    H245833   6.119   0.844  13.568  0.2192 -0.3649 -0.4797
 8140TIP3   OH245834   2.702   6.057   2.384  0.8941 -0.5853 -0.1886
 8140TIP3    H145835   2.620   6.096   2.354  1.3369 -0.2123 -0.9392
 8140TIP3    H245836   2.679   5.967   2.407  0.6263 -1.0429 -2.1072
 8141TIP3   OH245837   5.063   4.149  12.566  0.1388  0.1113  0.4568
 8141TIP3    H145838   5.093   4.067  12.528 -0.5179 -0.2045  0.5916
 8141TIP3    H245839   5.007   4.188  12.499 -3.3517 -1.7867  1.9370
 8142TIP3   OH245840   4.556   4.972  13.507  0.2837  0.0714  0.1120
 8142TIP3    H145841   4.506   4.969  13.589  0.0239 -1.2431 -0.0751
 8142TIP3    H245842   4.491   4.962  13.438  0.6954 -0.7828 -0.1677
 8143TIP3   OH245843   4.353   6.753  16.459 -0.0250  0.5501 -0.1433
 8143TIP3    H145844   4.373   6.847  16.467  1.6960  0.3962 -1.8359
 8143TIP3    H245845   4.409   6.712  16.525 -0.8739  0.6992  0.6879
 8144TIP3   OH245846   6.509   1.260   5.414 -0.7296 -0.0884  0.0682
 8144TIP3    H145847   6.544   1.195   5.475  0.7313  0.3026 -0.3280
 8144TIP3    H245848   6.427   1.221   5.383 -0.8168 -0.8945  1.2386
 8145TIP3   OH245849   6.378   0.000  10.715  0.1093 -0.5925  0.1350
 8145TIP3    H145850   6.384  -0.068  10.649 -0.6634 -0.7518  0.2222
 8145TIP3    H245851   6.302  -0.024  10.768 -0.3957  0.5181 -0.0471
 8146TIP3   OH245852   3.744   1.495  14.420  0.0565 -0.1456 -0.2134
 8146TIP3    H145853   3.790   1.439  14.482 -0.9583 -1.6441 -0.7603
 8146TIP3    H245854   3.688   1.550  14.474  0.7573  0.0893  0.3012
 8147TIP3   OH245855   0.812   0.425   2.186 -0.0345  0.0976 -0.0552
 8147TIP3    H145856   0.782   0.448   2.274 -0.0638 -0.2118  0.0176
 8147TIP3    H245857   0.908   0.433   2.191 -0.1461  2.5231 -0.6964
 8148TIP3   OH245858   2.872   1.303   5.455 -0.5344 -0.0619 -0.3460
 8148TIP3    H145859   2.855   1.303   5.549 -0.3536 -0.4525 -0.3121
 8148TIP3    H245860   2.883   1.211   5.432  0.1540  0.0782 -0.6157
 8149TIP3   OH245861   5.633   4.513   2.775 -0.4195  0.1830 -0.2344
 8149TIP3    H145862   5.604   4.589   2.827  2.1804  1.3549 -0.3217
 8149TIP3    H245863   5.710   4.480   2.822 -0.4075 -1.2695 -1.2148
 8150TIP3   OH245864   4.030   1.524   6.294  0.7570  0.0799  0.0103
 8150TIP3    H145865   4.049   1.529   6.388  0.3394  1.3802  0.0383
 8150TIP3    H245866   4.086   1.590   6.255 -0.9215  1.3932 -0.3265
 8151TIP3   OH245867   4.355   1.724   4.842 -0.0069  0.4905  0.3297
 8151TIP3    H145868   4.370   1.817   4.825  0.7774  0.5594  1.2958
 8151TIP3    H245869   4.413   1.679   4.780  0.4431  0.6755  0.6094
 8152TIP3   OH245870   5.862   1.708  12.025 -0.0330  0.4270 -0.2767
 8152TIP3    H145871   5.902   1.669  11.947 -2.5728 -0.8379 -1.0423
 8152TIP3    H245872   5.901   1.660  12.099  1.7887  1.0858 -0.7579
 8153TIP3   OH245873   2.284   6.290  16.076 -0.6398 -0.1510 -0.3665
 8153TIP3    H145874   2.303   6.341  16.155 -1.7402 -0.6161  0.2252
 8153TIP3    H245875   2.309   6.347  16.004 -1.1062  0.9141  0.2929
 8154TIP3   OH245876   2.214   6.530  10.527 -0.1581  0.2010 -0.9341
 8154TIP3    H145877   2.307   6.523  10.504 -0.1266 -0.5950 -0.5992
 8154TIP3    H245878   2.205   6.617  10.565  0.2020  0.7572 -2.0562
 8155TIP3   OH245879   5.894   4.427  12.973 -0.2164  0.4287  0.4397
 8155TIP3    H145880   5.914   4.520  12.965 -0.1518  0.3456 -0.4327
 8155TIP3    H245881   5.881   4.397  12.883  1.8372 -0.8654  0.5057
 8156TIP3   OH245882   2.710   2.008   2.552 -0.3512  0.1741  0.0436
 8156TIP3    H145883   2.774   1.951   2.594 -0.3147  1.0132  1.1978
 8156TIP3    H245884   2.743   2.021   2.463  0.0219 -0.9870 -0.0044
 8157TIP3   OH245885   6.101   0.234  13.087  0.0298  0.3193 -0.0186
 8157TIP3    H145886   6.133   0.316  13.051 -0.5882  0.8765  0.6637
 8157TIP3    H245887   6.029   0.208  13.028  1.0552 -0.4342 -0.9913
 8158TIP3   OH245888   3.695   1.034  14.267 -0.4777 -0.4185  0.4465
 8158TIP3    H145889   3.620   1.033  14.208  0.1529 -0.8202 -0.3601
 8158TIP3    H245890   3.694   1.122  14.305 -0.6480 -0.0120 -0.4679
 8159TIP3   OH245891   4.856   4.186  16.183 -0.3322 -1.0524 -0.4674
 8159TIP3    H145892   4.908   4.124  16.133  1.1019  0.2353 -0.6370
 8159TIP3    H245893   4.895   4.185  16.271  0.8609  0.8353 -0.9230
 8160TIP3   OH245894   0.418   2.406  12.580 -0.4143  0.1267 -0.3812
 8160TIP3    H145895   0.361   2.450  12.516 -0.9838 -0.0472 -0.0011
 8160TIP3    H245896   0.358   2.359  12.637  0.2049 -1.5943 -1.0951
 8161TIP3   OH245897   1.335   6.216  11.810  0.3484  0.1171  0.1479
 8161TIP3    H145898   1.328   6.130  11.768 -1.3978  0.2624  0.0679
 8161TIP3    H245899   1.360   6.275  11.739 -0.1913 -0.0473 -0.1867
 8162TIP3   OH245900   2.167   0.798  12.206  0.4400  0.2238  0.1731
 8162TIP3    H145901   2.189   0.775  12.296  0.1671  2.5087  0.8842
 8162TIP3    H245902   2.085   0.752  12.188  0.1333  0.2804  1.3470
 8163TIP3   OH245903   4.982   5.290   0.591  0.2237 -0.0814  0.0262
 8163TIP3    H145904   5.066   5.332   0.609  0.6115 -1.1613  0.8508
 8163TIP3    H245905   4.919   5.361   0.588  1.2170  0.7905 -0.9607
 8164TIP3   OH245906   3.182   1.573   5.252 -0.0571  0.5525  0.2375
 8164TIP3    H145907   3.229   1.519   5.315  1.4775  1.7290  0.1522
 8164TIP3    H245908   3.176   1.659   5.293 -0.2672  0.9693 -0.6319
 8165TIP3   OH245909   2.766   4.160  10.776 -0.5835  0.0912 -0.2921
 8165TIP3    H145910   2.709   4.228  10.811  0.8033  0.9353  0.4200
 8165TIP3    H245911   2.830   4.206  10.722 -0.6931 -0.8569 -1.2834
 8166TIP3   OH245912   4.069   5.939   0.868 -0.1449 -0.0515 -0.4912
 8166TIP3    H145913   4.114   5.945   0.952 -0.9764  0.4741 -0.0704
 8166TIP3    H245914   4.068   5.846   0.848 -1.3026 -0.3445  0.8466
 8167TIP3   OH245915   3.906   4.254   1.648  0.1731 -0.1715  0.0374
 8167TIP3    H145916   3.833   4.208   1.608 -0.3767  0.1380  0.6647
 8167TIP3    H245917   3.984   4.208   1.617 -0.2627 -0.2655 -0.9524
 8168TIP3   OH245918   0.335   5.523   4.591 -0.5504  0.5158 -0.3935
 8168TIP3    H145919   0.273   5.530   4.518  0.5684  2.1221 -1.2646
 8168TIP3    H245920   0.422   5.528   4.549  0.1295  0.6125  0.9778
 8169TIP3   OH245921   1.318   5.809   4.016  0.2823 -0.1370 -0.7133
 8169TIP3    H145922   1.298   5.746   3.948  1.3457  0.2709 -1.4374
 8169TIP3    H245923   1.368   5.759   4.082 -0.7567 -0.5324 -0.2115
 8170TIP3   OH245924   0.594   3.234  13.474  0.1488  0.1147 -0.0148
 8170TIP3    H145925   0.600   3.139  13.469 -0.1506  0.0808  0.2096
 8170TIP3    H245926   0.670   3.266  13.425  0.0500 -0.2350 -0.4009
 8171TIP3   OH245927   2.374   4.836  14.722 -0.0399  0.2008 -0.1791
 8171TIP3    H145928   2.461   4.817  14.756 -0.6714 -0.6647  1.0537
 8171TIP3    H245929   2.337   4.899  14.783 -0.6785 -0.2865 -0.0538
 8172TIP3   OH245930   6.303   6.745   3.636  0.3478 -0.0062 -0.5087
 8172TIP3    H145931   6.264   6.827   3.604 -0.5542  0.3020  1.2555
 8172TIP3    H245932   6.382   6.734   3.582  0.8465  2.3607 -0.3955
 8173TIP3   OH245933   2.435   0.310   3.788  0.4156  0.4484  0.5100
 8173TIP3    H145934   2.394   0.250   3.851 -2.4468 -0.3793 -1.9481
 8173TIP3    H245935   2.391   0.393   3.802  1.0062  0.7375  0.7069
 8174TIP3   OH245936   1.439   1.123   5.782 -0.0523 -0.2385  0.0929
 8174TIP3    H145937   1.504   1.062   5.817 -0.6737 -1.4287 -0.7689
 8174TIP3    H245938   1.362   1.068   5.763 -0.8141  0.9037 -0.2194
 8175TIP3   OH245939   0.619   3.608  12.998  0.5790  0.3077 -0.0883
 8175TIP3    H145940   0.695   3.661  13.021 -0.1103  1.0672  0.5054
 8175TIP3    H245941   0.605   3.626  12.905  0.8799  0.4693 -0.1045
 8176TIP3   OH245942   0.769   0.558   5.826  0.0163 -0.5602 -0.0402
 8176TIP3    H145943   0.768   0.601   5.741 -0.2519 -0.4225  0.0303
 8176TIP3    H245944   0.861   0.536   5.842  0.0993 -0.3571 -0.2484
 8177TIP3   OH245945   4.382   4.495  12.644  0.5128  0.1154 -0.0836
 8177TIP3    H145946   4.295   4.530  12.661  0.8363  0.2091  1.6108
 8177TIP3    H245947   4.409   4.534  12.561 -0.3761  1.4196  0.2186
 8178TIP3   OH245948   1.201   3.680   0.366 -0.2672  0.1911  0.4719
 8178TIP3    H145949   1.142   3.605   0.355  0.0241  0.1118 -0.6867
 8178TIP3    H245950   1.201   3.697   0.461 -0.2935 -1.3110  0.7704
 8179TIP3   OH245951   4.107   6.323  10.624  0.4910  0.6615 -0.2690
 8179TIP3    H145952   4.176   6.260  10.644  0.6801  0.3032 -1.8882
 8179TIP3    H245953   4.144   6.377  10.554 -0.3827  1.3250 -0.2357
 8180TIP3   OH245954   1.766   4.437  11.110  0.4764 -0.0638 -0.3103
 8180TIP3    H145955   1.824   4.413  11.183  2.5262  2.3490 -1.0366
 8180TIP3    H245956   1.821   4.429  11.032 -1.2876 -1.2424 -1.5189
 8181TIP3   OH245957   2.479   0.124   4.257 -0.0245 -0.9037  0.7352
 8181TIP3    H145958   2.508   0.118   4.348  0.5058 -0.8178  0.5786
 8181TIP3    H245959   2.488   0.217   4.235 -0.6489 -0.8348  0.7515
 8182TIP3   OH245960   3.687   5.436   3.878 -0.0931  0.6862 -0.7693
 8182TIP3    H145961   3.735   5.359   3.849  0.3580  0.4529  0.5498
 8182TIP3    H245962   3.612   5.441   3.819 -1.5339 -2.2282  0.6263
 8183TIP3   OH245963   2.217   3.813   0.240 -0.1080 -0.8831  0.6789
 8183TIP3    H145964   2.123   3.803   0.231 -0.6992  2.0162  2.2700
 8183TIP3    H245965   2.254   3.743   0.187 -3.1262 -1.4000 -0.9626
 8184TIP3   OH245966   2.714   1.518  14.624 -0.0889 -0.6001 -0.2533
 8184TIP3    H145967   2.809   1.511  14.622  0.4434  3.8095  0.0228
 8184TIP3    H245968   2.693   1.537  14.716 -1.1481 -0.5783 -0.4839
 8185TIP3   OH245969   0.477   5.562  13.051 -0.5848 -0.6389  0.0578
 8185TIP3    H145970   0.402   5.596  13.002 -0.2480  0.6861  0.4402
 8185TIP3    H245971   0.453   5.471  13.070 -2.3909 -0.0816  0.7136
 8186TIP3   OH245972   1.000   4.079   0.834  0.2732  0.0477 -0.0384
 8186TIP3    H145973   1.033   3.996   0.869 -0.5599  0.5865  2.2234
 8186TIP3    H245974   0.969   4.058   0.746 -0.2280 -2.1323  0.6067
 8187TIP3   OH245975   0.514   2.230   2.309  0.0851 -0.0196  0.2213
 8187TIP3    H145976   0.429   2.244   2.266 -0.3450 -0.1494  0.9988
 8187TIP3    H245977   0.494   2.239   2.403  0.3665 -2.8169  0.6244
 8188TIP3   OH245978   5.153   4.686   1.385 -0.4501  0.2199  0.3724
 8188TIP3    H145979   5.182   4.731   1.464  2.8128 -1.7248  0.4588
 8188TIP3    H245980   5.198   4.731   1.313 -2.5828  1.3154 -0.3676
 8189TIP3   OH245981   4.985   1.613   0.497  0.4170 -0.0029 -0.3621
 8189TIP3    H145982   5.066   1.568   0.473  1.0880  0.7719  0.3690
 8189TIP3    H245983   4.987   1.618   0.592 -0.8750 -0.6441 -0.2754
 8190TIP3   OH245984   2.305   1.496   2.456 -0.0866 -0.3871  0.1502
 8190TIP3    H145985   2.383   1.452   2.488 -0.0233 -0.6149 -0.3129
 8190TIP3    H245986   2.289   1.566   2.519 -0.1201 -0.9929  0.8247
 8191TIP3   OH245987   5.739   0.774  12.728 -0.3356  0.0276 -0.1203
 8191TIP3    H145988   5.724   0.813  12.814  0.7265  0.9598 -0.3300
 8191TIP3    H245989   5.661   0.723  12.711 -0.2213 -0.8823  1.7817
 8192TIP3   OH245990   4.955   6.695   2.118  0.1892  0.2009  0.4664
 8192TIP3    H145991   4.893   6.745   2.066  2.5785  1.5908 -1.2781
 8192TIP3    H245992   4.956   6.608   2.078  0.7150  0.7417 -0.7530
 8193TIP3   OH245993   3.873   4.724  15.511 -0.2711  0.7801 -0.5553
 8193TIP3    H145994   3.792   4.733  15.460  0.0683 -0.0797 -1.2808
 8193TIP3    H245995   3.936   4.687  15.449  0.2380 -0.0347  0.4151
 8194TIP3   OH245996   4.167   4.142   1.566 -0.0411  0.1271 -0.9308
 8194TIP3    H145997   4.202   4.124   1.479 -0.2666  1.7428 -1.3776
 8194TIP3    H245998   4.241   4.179   1.614 -0.6444  1.9060 -1.3350
 8195TIP3   OH245999   5.210   3.979   3.978 -0.1135  0.6115 -0.2739
 8195TIP3    H146000   5.163   4.029   3.911 -1.0275  0.3123  0.1243
 8195TIP3    H246001   5.298   3.968   3.942 -0.2794  1.3643 -0.9503
 8196TIP3   OH246002   3.513   2.777  16.692  0.0592  0.2790 -0.0522
 8196TIP3    H146003   3.519   2.857  16.640  0.5252  1.1063  1.2112
 8196TIP3    H246004   3.581   2.720  16.656  0.6751  1.0101 -0.0704
 8197TIP3   OH246005   2.511   5.742   0.825 -0.2624  0.6156  0.5270
 8197TIP3    H146006   2.585   5.691   0.793 -0.7463  0.2773 -0.0695
 8197TIP3    H246007   2.477   5.787   0.747  1.0481  3.0521  1.2554
 8198TIP3   OH246008   2.571   5.606  10.633 -0.2093 -0.1051  0.4382
 8198TIP3    H146009   2.508   5.639  10.569 -0.5539 -1.1114  0.2394
 8198TIP3    H246010   2.557   5.511  10.634  0.8144 -0.2652  0.9215
 8199TIP3   OH246011   3.607   1.837   4.502 -0.1392  0.2505  0.0548
 8199TIP3    H146012   3.581   1.748   4.477  0.0090  0.6847 -1.7729
 8199TIP3    H246013   3.671   1.863   4.435 -0.8937  2.0902 -0.0080
 8200TIP3   OH246014   0.905   4.633   2.027 -0.4124  0.1344  0.3270
 8200TIP3    H146015   0.930   4.661   2.115  1.2141  1.0094 -0.3577
 8200TIP3    H246016   0.884   4.715   1.981  0.4955 -0.1235 -0.5770
 8201TIP3   OH246017   2.822   0.884  10.785 -0.0152 -0.4696 -0.7109
 8201TIP3    H146018   2.813   0.867  10.691  1.4762 -1.4056 -0.7139
 8201TIP3    H246019   2.763   0.820  10.826  0.2556 -0.8967 -0.9781
 8202TIP3   OH246020   1.191   6.585  11.579 -0.9377  0.2506  0.8315
 8202TIP3    H146021   1.219   6.553  11.493  1.1566  3.8481 -0.0188
 8202TIP3    H246022   1.098   6.563  11.583 -1.4179  0.9218 -2.8932
 8203TIP3   OH246023   2.022   5.130  16.047  0.5890  0.8298  0.6048
 8203TIP3    H146024   2.020   5.225  16.057  0.0829  0.9351 -0.3287
 8203TIP3    H246025   2.115   5.110  16.032  0.6292  1.2541  0.2406
 8204TIP3   OH246026   4.043   3.552   0.347 -0.0920  0.0404  0.3985
 8204TIP3    H146027   3.988   3.578   0.274  1.4527  1.0725 -0.4556
 8204TIP3    H246028   4.023   3.616   0.416  0.3288  0.6684 -0.0550
 8205TIP3   OH246029   4.775   0.117  16.540  0.1225  0.2476 -0.0606
 8205TIP3    H146030   4.726   0.082  16.614  0.9577 -2.4129 -0.6448
 8205TIP3    H246031   4.853   0.156  16.578  0.8996 -1.7296  0.4972
 8206TIP3   OH246032   3.434   0.226   4.648 -0.2338 -0.0526  0.7629
 8206TIP3    H146033   3.404   0.141   4.678 -1.5550  0.0926 -0.0881
 8206TIP3    H246034   3.466   0.269   4.727  0.9228 -1.5004  1.1300
 8207TIP3   OH246035   1.032   6.774   1.683 -0.4033  0.1252  0.3639
 8207TIP3    H146036   1.014   6.848   1.741 -0.0260  0.9625 -0.5675
 8207TIP3    H246037   0.998   6.800   1.598  1.2721 -0.0424 -0.3975
 8208TIP3   OH246038   5.491   1.825   0.418  0.2410  0.3081 -0.2736
 8208TIP3    H146039   5.498   1.920   0.416 -0.8941  0.4230  0.5199
 8208TIP3    H246040   5.582   1.794   0.416  0.6560  1.4323  0.5026
 8209TIP3   OH246041   3.605   1.999   2.986  0.5865  0.3232  0.2105
 8209TIP3    H146042   3.554   2.080   2.984 -1.5220 -0.8690  1.7282
 8209TIP3    H246043   3.622   1.983   3.079  0.8197 -1.0205 -0.0340
 8210TIP3   OH246044   1.812   5.672   3.656 -0.1181 -0.1930  0.0733
 8210TIP3    H146045   1.723   5.642   3.635 -0.2454  1.1807 -1.5721
 8210TIP3    H246046   1.812   5.681   3.751 -1.4377 -1.1451  0.1938
 8211TIP3   OH246047   5.498   2.930   2.740  0.1302 -0.7901  0.8631
 8211TIP3    H146048   5.416   2.902   2.780  0.4669 -1.2299  1.2553
 8211TIP3    H246049   5.539   2.849   2.709 -0.5306 -0.3934 -1.1967
 8212TIP3   OH246050   0.753   3.988  16.911 -0.0218  0.1356 -1.0971
 8212TIP3    H146051   0.690   4.023  16.975 -0.3413 -2.2363 -0.0414
 8212TIP3    H246052   0.838   3.998  16.953 -0.0299  0.3071 -1.1194
 8213TIP3   OH246053   4.310   3.220   5.627 -0.0859 -0.2381 -0.2795
 8213TIP3    H146054   4.290   3.129   5.647 -0.0650 -0.8198 -2.6666
 8213TIP3    H246055   4.285   3.268   5.707 -0.3725 -2.2678  0.9085
 8214TIP3   OH246056   4.857   4.947  17.089 -0.4012 -0.4406 -0.1209
 8214TIP3    H146057   4.774   4.901  17.075 -2.0079  2.2794 -0.2031
 8214TIP3    H246058   4.835   5.022  17.144  1.8643  0.7575 -0.6961
 8215TIP3   OH246059   4.345   2.913  11.219 -0.3733  0.3673 -0.2057
 8215TIP3    H146060   4.435   2.946  11.216 -0.6893  1.2038 -1.1573
 8215TIP3    H246061   4.316   2.931  11.308  0.7679 -0.9960  0.4971
 8216TIP3   OH246062   2.317   5.213   4.055 -0.2518 -0.3626  0.4450
 8216TIP3    H146063   2.385   5.260   4.103 -0.7579  1.7184 -0.7475
 8216TIP3    H246064   2.256   5.282   4.027 -1.3197 -1.8158 -0.9442
 8217TIP3   OH246065   0.019   3.464   3.827 -0.0070 -0.2450 -0.2301
 8217TIP3    H146066   0.071   3.512   3.891 -1.3607  0.7388  0.1696
 8217TIP3    H246067  -0.054   3.522   3.807 -0.2123 -1.0176 -1.8256
 8218TIP3   OH246068   5.616   4.927   5.371 -0.1998  0.2414  0.1123
 8218TIP3    H146069   5.548   4.988   5.399  0.4212  1.3973 -0.8023
 8218TIP3    H246070   5.694   4.982   5.359  0.0200 -0.4703 -2.0721
 8219TIP3   OH246071   4.711   6.631   5.205 -0.0251 -0.2518 -0.1683
 8219TIP3    H146072   4.739   6.556   5.258 -0.6251 -1.5972 -1.6677
 8219TIP3    H246073   4.784   6.646   5.145  0.8229  1.5230  1.2237
 8220TIP3   OH246074   3.341   5.556   0.994  0.3580 -0.4439 -0.0209
 8220TIP3    H146075   3.422   5.603   1.017  0.7038 -1.5949  1.1901
 8220TIP3    H246076   3.322   5.501   1.070 -1.0623 -0.8954 -0.6671
 8221TIP3   OH246077   1.359   0.009  10.524 -0.0885  0.4110 -0.2700
 8221TIP3    H146078   1.274   0.046  10.500 -0.3313 -0.3707 -0.6271
 8221TIP3    H246079   1.344  -0.085  10.530  0.6165  0.3233  0.2529
 8222TIP3   OH246080   5.447   4.588  16.106 -0.1421 -0.1316 -0.6574
 8222TIP3    H146081   5.435   4.562  16.015 -2.7379 -0.8206 -0.2015
 8222TIP3    H246082   5.542   4.602  16.115  0.1522  0.2465 -3.4954
 8223TIP3   OH246083   0.444   4.034   4.342  0.8383  0.4190  0.2569
 8223TIP3    H146084   0.398   4.033   4.258 -0.1484 -0.9453  0.7781
 8223TIP3    H246085   0.378   4.063   4.406  1.2382  0.2892  0.7373
 8224TIP3   OH246086   6.495   4.123   4.341  0.3091  0.4238  0.2973
 8224TIP3    H146087   6.500   4.203   4.393  1.1163  0.8553 -0.4127
 8224TIP3    H246088   6.530   4.148   4.255  3.9441 -1.4928  1.0221
 8225TIP3   OH246089   4.110   2.536   6.362  0.4850 -0.1990 -0.1613
 8225TIP3    H146090   4.037   2.567   6.308  2.0268 -0.3200 -2.4460
 8225TIP3    H246091   4.075   2.459   6.407 -0.8756 -0.1035 -0.9859
 8226TIP3   OH246092   3.441   1.924   6.888 -0.3774  0.5027  0.2761
 8226TIP3    H146093   3.359   1.974   6.891 -1.5735 -1.3564  0.1199
 8226TIP3    H246094   3.439   1.879   6.804  2.1291  2.4352 -0.9596
 8227TIP3   OH246095   6.491   5.733   4.278  0.2258  0.4380 -0.2996
 8227TIP3    H146096   6.569   5.769   4.320  1.2106 -0.3275 -1.3914
 8227TIP3    H246097   6.522   5.702   4.193 -1.2196 -0.1461 -0.6443
 8228TIP3   OH246098   2.657   1.697  15.222 -0.2496 -0.1238  0.1680
 8228TIP3    H146099   2.730   1.742  15.264 -0.0073  0.8311 -1.2063
 8228TIP3    H246100   2.587   1.697  15.288 -0.0294  1.6729  0.4428
 8229TIP3   OH246101   3.302   6.441  13.550  0.0524 -0.3019  0.0912
 8229TIP3    H146102   3.253   6.498  13.609 -0.0457  0.3770 -0.6313
 8229TIP3    H246103   3.240   6.373  13.525 -0.1949 -0.0637  0.0448
 8230TIP3   OH246104   0.816   3.749  11.578  0.0531 -0.8852 -0.4182
 8230TIP3    H146105   0.798   3.838  11.547 -1.9630 -0.2919  2.1269
 8230TIP3    H246106   0.773   3.692  11.514  0.0996  0.0368 -1.2889
 8231TIP3   OH246107   4.896   1.269  16.739 -0.0719 -0.0615 -0.6128
 8231TIP3    H146108   4.942   1.256  16.656 -0.3374 -0.7571 -0.6580
 8231TIP3    H246109   4.887   1.364  16.747  0.1097  0.0185 -1.2963
 8232TIP3   OH246110   4.784   4.505   1.217 -0.8222 -0.1601 -0.1103
 8232TIP3    H146111   4.859   4.524   1.161 -0.6048  0.1955  0.2993
 8232TIP3    H246112   4.744   4.428   1.177 -0.9672  0.3825 -1.0538
 8233TIP3   OH246113   0.070   2.085   0.180 -0.0973  0.3505  0.2027
 8233TIP3    H146114   0.120   2.049   0.106  2.2456 -0.7048  2.1589
 8233TIP3    H246115   0.097   2.177   0.183  1.5642 -0.1215  1.0150
 8234TIP3   OH246116   1.242   6.097   3.845  0.2915  0.2453  0.3700
 8234TIP3    H146117   1.247   6.187   3.815 -1.6955 -0.3786 -2.2195
 8234TIP3    H246118   1.330   6.078   3.879  0.9921  2.8683  0.2373
 8235TIP3   OH246119   6.117   4.040  14.953 -0.5375 -0.3729 -0.1552
 8235TIP3    H146120   6.152   3.956  14.922 -1.0054 -0.1619 -1.2716
 8235TIP3    H246121   6.140   4.103  14.885  0.5455  0.6038  1.0497
 8236TIP3   OH246122   0.451   1.914   0.694  0.5720  0.4967  0.3894
 8236TIP3    H146123   0.363   1.882   0.713  0.6745  0.7601  1.3532
 8236TIP3    H246124   0.504   1.835   0.684 -0.0266  0.2917 -1.5990
 8237TIP3   OH246125   4.861   0.360  15.151  0.5568 -0.1363  0.1924
 8237TIP3    H146126   4.886   0.333  15.239  1.5242 -1.1195 -0.3617
 8237TIP3    H246127   4.942   0.353  15.100  0.0672  0.6510 -0.7264
 8238TIP3   OH246128   5.211   6.722   5.560  0.3147  0.0084  0.3364
 8238TIP3    H146129   5.287   6.762   5.603 -0.0511 -0.1808  1.1688
 8238TIP3    H246130   5.248   6.678   5.484  1.3740 -1.9310  1.8910
 8239TIP3   OH246131   4.350   5.792   2.472 -0.4399 -0.3975  0.3955
 8239TIP3    H146132   4.264   5.811   2.436 -0.7269 -1.1125  0.6889
 8239TIP3    H246133   4.333   5.752   2.557  0.2074  0.2757  0.8565
 8240TIP3   OH246134   0.762   0.473  14.320 -0.3615  0.2539 -0.2137
 8240TIP3    H146135   0.691   0.416  14.291  0.5436 -1.4449  0.7300
 8240TIP3    H246136   0.719   0.551  14.353 -1.7860 -0.7244  0.3097
 8241TIP3   OH246137   5.876   0.060  13.898  0.4149 -0.2779 -0.1027
 8241TIP3    H146138   5.929   0.037  13.974  2.3772  1.5078 -0.8464
 8241TIP3    H246139   5.832   0.142  13.923  0.0957 -0.3387 -0.4554
 8242TIP3   OH246140   3.450   3.522   2.831 -0.3893 -0.0066 -0.1736
 8242TIP3    H146141   3.377   3.553   2.777 -1.3971  0.7377  1.5249
 8242TIP3    H246142   3.505   3.600   2.844  0.5259 -0.4731 -1.1170
 8243TIP3   OH246143   2.339   4.832   6.090 -0.7195 -0.4569  0.1581
 8243TIP3    H146144   2.369   4.855   6.178  0.7902 -1.4856 -0.0397
 8243TIP3    H246145   2.417   4.843   6.035 -1.3721 -0.8080 -0.8542
 8244TIP3   OH246146   3.786   5.021  14.743  0.3443 -0.5315  0.5506
 8244TIP3    H146147   3.696   4.989  14.740  0.7403 -1.6132 -2.0344
 8244TIP3    H246148   3.777   5.114  14.764 -1.3277 -0.7292  0.8574
 8245TIP3   OH246149   4.761   1.494  13.058 -0.1957  0.2911  0.5658
 8245TIP3    H146150   4.739   1.405  13.032  1.1865 -0.2707  1.2300
 8245TIP3    H246151   4.805   1.484  13.143  1.1466  1.4614  0.0496
 8246TIP3   OH246152   2.390   1.624  10.716  0.2570 -0.0474  0.0925
 8246TIP3    H146153   2.309   1.673  10.732 -0.4322 -1.3102  0.6123
 8246TIP3    H246154   2.367   1.533  10.734  2.2048 -0.2580  1.9021
 8247TIP3   OH246155   5.904   5.793  11.638  0.0555 -0.4409  0.1754
 8247TIP3    H146156   5.840   5.729  11.604  0.4068 -1.3737  1.2110
 8247TIP3    H246157   5.871   5.814  11.726  0.6362 -0.1654  0.3261
 8248TIP3   OH246158   3.466   6.089  16.127 -0.0741 -0.0534 -0.6657
 8248TIP3    H146159   3.540   6.123  16.178 -0.0358  0.7474 -1.2267
 8248TIP3    H246160   3.492   6.102  16.036 -0.6885 -0.2480 -0.8742
 8249TIP3   OH246161   5.448   6.288  16.384  0.3537  0.1687 -0.3887
 8249TIP3    H146162   5.499   6.357  16.426 -0.4826 -0.9595  2.7538
 8249TIP3    H246163   5.357   6.315  16.395  0.0692 -0.7112 -0.4949
 8250TIP3   OH246164   4.604   1.450   4.492 -0.0296  0.1679 -0.5761
 8250TIP3    H146165   4.585   1.368   4.447  0.4647  1.1656 -2.7287
 8250TIP3    H246166   4.531   1.507   4.470 -0.5190  0.2578  1.1456
 8251TIP3   OH246167   5.928   0.939   4.024 -0.4452 -0.0503  0.0900
 8251TIP3    H146168   6.006   0.909   4.069  0.4134 -1.3000 -2.0738
 8251TIP3    H246169   5.877   0.983   4.091  1.2039 -0.9025  2.0019
 8252TIP3   OH246170   3.881   0.322   3.597  0.4051  0.1219  0.0957
 8252TIP3    H146171   3.788   0.341   3.587  0.4950  0.2683 -0.5411
 8252TIP3    H246172   3.895   0.316   3.691  0.6041  4.4365  0.5314
 8253TIP3   OH246173   3.196   0.814  10.710  0.0942 -0.1741 -0.0478
 8253TIP3    H146174   3.289   0.835  10.712 -0.3156  1.9149  2.5188
 8253TIP3    H246175   3.190   0.725  10.746  1.0877 -0.1924  0.0781
 8254TIP3   OH246176   0.877   2.414   5.690 -0.3119 -0.1602 -0.0387
 8254TIP3    H146177   0.832   2.494   5.664  0.0346  1.4436  3.7594
 8254TIP3    H246178   0.958   2.444   5.731  1.4045 -2.6885 -1.3298
 8255TIP3   OH246179   4.348   4.168  11.227 -0.3683  0.2729 -0.1328
 8255TIP3    H146180   4.354   4.081  11.188 -1.0673  1.1410 -2.3228
 8255TIP3    H246181   4.297   4.154  11.307  1.9651 -1.7351  1.1628
 8256TIP3   OH246182   2.441   2.611   0.909 -0.4013  0.6475  0.5263
 8256TIP3    H146183   2.417   2.547   0.842 -1.2405  1.3667  0.1117
 8256TIP3    H246184   2.357   2.652   0.934 -0.0099  0.9016  1.4865
 8257TIP3   OH246185   5.206   3.006  16.112 -0.5940  0.1484  0.4230
 8257TIP3    H146186   5.176   2.954  16.038 -2.5041  1.1230  0.4267
 8257TIP3    H246187   5.183   3.096  16.089  0.9264  0.7606  1.2017
 8258TIP3   OH246188   0.667   3.145  16.953  0.1852 -0.2968  0.2102
 8258TIP3    H146189   0.661   3.117  17.044  0.0219  0.7025  0.5258
 8258TIP3    H246190   0.723   3.080  16.911  2.1139  0.4033  1.5513
 8259TIP3   OH246191   4.447   6.260  11.334 -0.0735  0.0553 -0.4228
 8259TIP3    H146192   4.459   6.354  11.316 -0.0936  0.3724  1.0764
 8259TIP3    H246193   4.535   6.226  11.344 -0.0958  0.1167 -0.0195
 8260TIP3   OH246194   2.001   3.709  11.118  0.1827 -0.0396 -0.9126
 8260TIP3    H146195   1.984   3.750  11.202  1.8085  1.2726 -1.1725
 8260TIP3    H246196   1.915   3.676  11.090 -0.3276 -0.8613  1.3882
 8261TIP3   OH246197   4.128   0.566  16.555 -0.0642 -0.5102 -0.0183
 8261TIP3    H146198   4.220   0.593  16.552  0.2482 -1.5410 -3.3581
 8261TIP3    H246199   4.079   0.648  16.568  1.2287  0.1665  0.8592
 8262TIP3   OH246200   0.729   1.912   0.569  0.0000  0.6724 -0.2178
 8262TIP3    H146201   0.705   1.922   0.477 -0.4260  1.1231 -0.0600
 8262TIP3    H246202   0.668   1.846   0.602  0.7315 -0.1572 -0.4676
 8263TIP3   OH246203   1.036   2.623  15.159 -0.3279 -0.4750 -0.6160
 8263TIP3    H146204   0.943   2.609  15.145 -1.0432  2.5806  0.4243
 8263TIP3    H246205   1.053   2.585  15.246 -0.5627 -1.0947 -0.8356
 8264TIP3   OH246206   4.806   3.607  16.538 -0.0082  0.4820  0.0454
 8264TIP3    H146207   4.859   3.619  16.459  2.1803 -1.1059  1.1478
 8264TIP3    H246208   4.762   3.523  16.524 -0.1907  0.5537  0.1946
 8265TIP3   OH246209   6.305   0.851  16.486 -0.2574  0.1270 -0.0200
 8265TIP3    H146210   6.311   0.783  16.554 -0.7224  0.5448  0.4422
 8265TIP3    H246211   6.218   0.838  16.447 -0.0518 -0.0146 -0.4433
 8266TIP3   OH246212   2.740   6.329  15.842 -0.3906 -0.2755  0.0613
 8266TIP3    H146213   2.685   6.255  15.819  0.9593 -0.8247 -1.6169
 8266TIP3    H246214   2.770   6.365  15.759 -0.4214  1.7487  0.8435
 8267TIP3   OH246215   5.068   1.754  11.921 -0.1413  0.3524 -0.7235
 8267TIP3    H146216   5.137   1.820  11.929  0.9285 -0.7167 -0.6662
 8267TIP3    H246217   5.031   1.767  11.835  1.7957 -0.5290 -1.7727
 8268TIP3   OH246218   6.362   5.913  12.520 -0.9458  0.3644 -0.1452
 8268TIP3    H146219   6.452   5.890  12.541 -0.5785  1.6977 -0.1910
 8268TIP3    H246220   6.347   5.997  12.565 -1.3997  1.3193 -1.9957
 8269TIP3   OH246221   1.798   5.397   4.910  0.1431 -0.0507  0.0155
 8269TIP3    H146222   1.788   5.478   4.861  1.0152 -1.1051 -1.9919
 8269TIP3    H246223   1.884   5.404   4.952 -0.1234  0.3651  0.5154
 8270TIP3   OH246224   1.213   0.612  11.192 -0.5275  0.0154  0.5170
 8270TIP3    H146225   1.143   0.569  11.142  0.3622  0.3940 -1.1585
 8270TIP3    H246226   1.274   0.541  11.212  1.2524  0.3996 -2.7915
 8271TIP3   OH246227   2.758   5.451   5.659  0.4797  0.2777 -0.0195
 8271TIP3    H146228   2.716   5.422   5.740  1.4803 -0.2659  0.3254
 8271TIP3    H246229   2.746   5.378   5.598  0.3077  0.4126 -0.1468
 8272TIP3   OH246230   2.771   4.398   1.389  0.2042  0.1993 -0.6631
 8272TIP3    H146231   2.692   4.426   1.342  0.5822  1.6574 -0.4808
 8272TIP3    H246232   2.784   4.307   1.361  0.0753  0.8088 -2.9597
 8273TIP3   OH246233   2.175   0.823   3.667 -0.5976  0.1822 -0.2249
 8273TIP3    H146234   2.222   0.838   3.585 -0.1865  1.0301  0.1536
 8273TIP3    H246235   2.132   0.907   3.686 -2.6541 -0.6753 -0.7763
 8274TIP3   OH246236   5.605   5.057  14.250  0.1114  0.1635  0.3156
 8274TIP3    H146237   5.601   5.082  14.343  2.0685 -1.7262  0.9714
 8274TIP3    H246238   5.650   5.130  14.208  0.2672  0.5166  1.0707
 8275TIP3   OH246239   3.748   2.893  10.996  0.1712  0.2686  0.2625
 8275TIP3    H146240   3.703   2.964  10.950  1.3733  1.3509  0.7144
 8275TIP3    H246241   3.679   2.829  11.014 -0.9834  1.4082  0.0319
 8276TIP3   OH246242   3.344   2.943   3.740  0.5581  0.2204  0.7009
 8276TIP3    H146243   3.436   2.943   3.712 -0.1408 -1.0434 -1.9148
 8276TIP3    H246244   3.322   3.036   3.749  2.1793  0.5392  1.8486
 8277TIP3   OH246245   1.750   4.782  11.832  0.8020 -0.1836  0.5757
 8277TIP3    H146246   1.795   4.698  11.827  0.4155 -0.4553  1.5012
 8277TIP3    H246247   1.746   4.802  11.926 -0.8309 -0.0684  0.5081
 8278TIP3   OH246248   4.975   4.070  11.073  0.2809  0.4785 -0.2833
 8278TIP3    H146249   5.044   4.136  11.074 -0.4913  1.3142 -0.3401
 8278TIP3    H246250   4.894   4.120  11.087 -0.2769 -0.5167  0.1380
 8279TIP3   OH246251   0.048   3.133  12.656  0.1355 -0.2767  0.0568
 8279TIP3    H146252   0.078   3.184  12.731 -0.2834  1.1374 -0.6932
 8279TIP3    H246253   0.000   3.059  12.694  0.4436  0.0884  1.1740
 8280TIP3   OH246254   1.902   4.665   1.070 -0.2718  0.6810  0.8769
 8280TIP3    H146255   1.880   4.673   0.977  0.7016 -1.5813  0.3951
 8280TIP3    H246256   1.861   4.582   1.097  3.7699 -1.4976  1.0262
 8281TIP3   OH246257   4.592   5.029  15.961 -0.3615 -0.4325  0.6286
 8281TIP3    H146258   4.640   5.083  16.024 -0.4169  0.0546  0.2626
 8281TIP3    H246259   4.567   5.091  15.892 -1.2475 -0.7472  0.6641
 8282TIP3   OH246260   1.422   6.047   1.246  0.1110 -0.0471  0.1806
 8282TIP3    H146261   1.327   6.035   1.250  0.1655 -0.8435 -0.5157
 8282TIP3    H246262   1.435   6.103   1.169  0.1650  0.5998  0.6591
 8283TIP3   OH246263   6.759   1.413  11.293  0.0275 -0.1774 -0.1337
 8283TIP3    H146264   6.824   1.479  11.317 -0.3266  0.2359 -0.3035
 8283TIP3    H246265   6.804   1.330  11.307  0.0627  0.0636  1.2821
 8284TIP3   OH246266   2.936   6.746   1.277  0.4337  0.0608 -1.0928
 8284TIP3    H146267   3.003   6.788   1.331 -0.8588 -0.6555  1.2154
 8284TIP3    H246268   2.885   6.819   1.242  0.5983  0.5438 -0.3624
 8285TIP3   OH246269   5.724   2.759  12.293 -0.0485 -0.3044 -0.1700
 8285TIP3    H146270   5.807   2.720  12.320 -0.0444 -0.1922 -0.0128
 8285TIP3    H246271   5.663   2.686  12.289 -0.0968 -0.2953  0.3471
 8286TIP3   OH246272   3.016   4.348  11.953  0.1105  0.2078  1.0906
 8286TIP3    H146273   2.963   4.428  11.954 -1.8161 -0.9917  0.2384
 8286TIP3    H246274   2.998   4.306  12.037  1.8791  1.0643  1.9608
 8287TIP3   OH246275   0.548   6.531   1.898 -0.1080 -0.0480 -0.4084
 8287TIP3    H146276   0.578   6.443   1.873  0.7046  0.3718 -0.9402
 8287TIP3    H246277   0.628   6.584   1.900 -0.5567  0.6320  0.1588
 8288TIP3   OH246278   1.713   4.199  12.013 -0.0200  0.3681  0.0781
 8288TIP3    H146279   1.785   4.255  11.984 -0.2281  0.8550  0.5059
 8288TIP3    H246280   1.725   4.118  11.962  0.9527  0.3583  0.3007
 8289TIP3   OH246281   6.510   6.570   2.141 -0.0507  0.5349 -0.2242
 8289TIP3    H146282   6.435   6.615   2.180 -0.0585  0.3783 -0.0603
 8289TIP3    H246283   6.584   6.629   2.157  0.1844 -0.1172  1.1600
 8290TIP3   OH246284   5.619   1.935  14.063  0.1068  0.0424  0.3291
 8290TIP3    H146285   5.679   1.881  14.114 -0.1330  0.3725  0.9834
 8290TIP3    H246286   5.659   1.943  13.977 -0.5591 -2.4101 -0.2829
 8291TIP3   OH246287   3.307   5.012  15.951 -0.0101  0.5415  0.2261
 8291TIP3    H146288   3.317   4.974  16.039 -3.4602  0.7337  0.8259
 8291TIP3    H246289   3.308   5.106  15.966 -1.2432  0.5709  0.1829
 8292TIP3   OH246290   1.973   4.678  14.197  0.1290  0.8956 -0.1120
 8292TIP3    H146291   2.025   4.754  14.224 -0.1192  0.2356  2.5333
 8292TIP3    H246292   2.029   4.603  14.214  0.3924  0.4102 -2.7670
 8293TIP3   OH246293   3.130   1.208   5.867  0.7307  0.2714 -0.3141
 8293TIP3    H146294   3.080   1.207   5.948 -0.5978 -0.4434 -1.1007
 8293TIP3    H246295   3.187   1.285   5.874  1.4127 -0.3603  1.7112
 8294TIP3   OH246296   4.376   6.659  15.705  0.5569 -0.3116 -0.0292
 8294TIP3    H146297   4.371   6.744  15.749  1.9081  0.3947 -1.1775
 8294TIP3    H246298   4.333   6.598  15.766 -0.0453  1.0963  1.0100
 8295TIP3   OH246299   3.463   5.617  15.580 -0.6497 -0.5177  0.2744
 8295TIP3    H146300   3.397   5.554  15.608 -1.2821  0.7337  1.7719
 8295TIP3    H246301   3.422   5.703  15.593  1.2738  0.3092  1.3375
 8296TIP3   OH246302   2.463   4.596  15.481  0.4651  0.1215  0.3242
 8296TIP3    H146303   2.403   4.581  15.555  0.3070 -1.2131 -0.0411
 8296TIP3    H246304   2.481   4.508  15.448  0.6799  0.6863 -1.1138
 8297TIP3   OH246305   2.786   1.939  13.168 -0.0858 -0.2875  0.0477
 8297TIP3    H146306   2.828   1.855  13.149 -0.8888 -0.1913 -2.4949
 8297TIP3    H246307   2.692   1.919  13.171 -0.4200  0.6692 -2.0569
 8298TIP3   OH246308   5.414   5.394  15.572 -0.1930  0.0080 -0.1772
 8298TIP3    H146309   5.353   5.440  15.629 -2.4976 -0.1908 -2.3321
 8298TIP3    H246310   5.372   5.309  15.555  0.0209  0.3294 -2.6739
 8299TIP3   OH246311   1.334   1.118  14.947 -0.3988  0.2031  0.7683
 8299TIP3    H146312   1.291   1.114  15.033  0.2192 -1.4227  1.0548
 8299TIP3    H246313   1.374   1.031  14.937 -0.3035  0.4229 -1.0907
 8300TIP3   OH246314   0.155   1.532  12.701  0.4845  0.1834  0.0048
 8300TIP3    H146315   0.168   1.468  12.770 -0.9209  0.8451  0.9397
 8300TIP3    H246316   0.130   1.480  12.624 -0.8439 -0.4045  0.8027
 8301TIP3   OH246317   2.566   6.309   0.440 -0.1656 -0.3951 -0.4053
 8301TIP3    H146318   2.615   6.289   0.360 -0.0005  1.0145 -0.6708
 8301TIP3    H246319   2.475   6.290   0.418 -0.0270 -0.7728 -0.6675
 8302TIP3   OH246320   3.745   2.077  14.868 -0.1820 -0.3007  0.1056
 8302TIP3    H146321   3.726   2.151  14.810  0.9974  1.1129  1.4493
 8302TIP3    H246322   3.807   2.112  14.932 -0.5229 -2.1341  1.5105
 8303TIP3   OH246323   0.379   4.789  13.343  0.4171 -0.5635 -0.6756
 8303TIP3    H146324   0.466   4.787  13.303 -0.3238 -0.3202 -2.4151
 8303TIP3    H246325   0.367   4.701  13.379  0.0171 -1.9042 -3.7142
 8304TIP3   OH246326   1.922   2.613  11.540  0.1716 -0.3420  0.0967
 8304TIP3    H146327   1.890   2.527  11.513 -0.5359 -0.4446  1.1972
 8304TIP3    H246328   2.012   2.616  11.508  0.2687 -1.5733  0.2103
 8305TIP3   OH246329   6.376   6.328   2.038  0.6383 -0.5102 -0.3831
 8305TIP3    H146330   6.289   6.336   2.077 -0.5336  0.5250 -2.9605
 8305TIP3    H246331   6.416   6.414   2.052 -0.2795  0.3067 -2.3730
 8306TIP3   OH246332   5.935   3.580  14.819  0.1778  0.3890  0.0529
 8306TIP3    H146333   5.868   3.515  14.837 -1.5221  2.0805  0.2160
 8306TIP3    H246334   5.962   3.563  14.729 -1.8437  0.7873 -0.6640
 8307TIP3   OH246335   0.604   1.573  13.600  0.4684 -0.8040 -0.4259
 8307TIP3    H146336   0.675   1.614  13.649  0.3384 -1.1021  0.0220
 8307TIP3    H246337   0.566   1.511  13.662 -0.0705 -0.7688 -0.7227
 8308TIP3   OH246338   4.765   2.699  15.271  0.7585  0.1181 -0.1051
 8308TIP3    H146339   4.821   2.765  15.232  1.9448 -0.4546  0.5548
 8308TIP3    H246340   4.820   2.620  15.273 -0.3195 -0.6459 -0.0735
 8309TIP3   OH246341   0.190   2.036   4.918  0.5916  0.3146 -0.3812
 8309TIP3    H146342   0.106   2.063   4.956  0.9413  1.6148 -0.4898
 8309TIP3    H246343   0.182   2.055   4.825  0.8038 -0.1248 -0.4951
 8310TIP3   OH246344   3.808   6.452  15.363  0.5082 -0.1789  0.4037
 8310TIP3    H146345   3.832   6.459  15.271 -0.4589  0.9542  0.2092
 8310TIP3    H246346   3.847   6.370  15.392  1.8003  0.0041 -0.7112
 8311TIP3   OH246347   3.621   1.860  11.368 -0.0912 -0.0145  0.5746
 8311TIP3    H146348   3.619   1.902  11.282 -0.0347 -1.9293 -0.3936
 8311TIP3    H246349   3.626   1.934  11.430  0.4252  1.3833 -1.0532
 8312TIP3   OH246350   5.122   4.204  15.072 -0.3420  0.1164 -0.6018
 8312TIP3    H146351   5.191   4.242  15.018  0.0802  0.0464 -0.1148
 8312TIP3    H246352   5.042   4.251  15.045 -0.1782 -0.0660 -1.4283
 8313TIP3   OH246353   6.144   4.080   0.744 -0.3369 -0.3909 -0.0224
 8313TIP3    H146354   6.152   4.083   0.649 -1.0420  0.3067 -0.0746
 8313TIP3    H246355   6.050   4.070   0.760 -0.2550 -0.2385  0.6005
 8314TIP3   OH246356   4.950   2.021   2.588 -0.6126 -0.1196  0.1151
 8314TIP3    H146357   5.025   1.978   2.547 -0.6620 -0.1512  0.0578
 8314TIP3    H246358   4.949   1.987   2.677 -0.1449  0.4061  0.3247
 8315TIP3   OH246359   3.860   0.577  15.665  0.1862  0.2712  0.2477
 8315TIP3    H146360   3.866   0.567  15.570 -1.1611 -0.6081  0.2259
 8315TIP3    H246361   3.830   0.667  15.678 -0.0328  0.2610 -0.1796
 8316TIP3   OH246362   6.076   0.172   5.526 -0.7567 -0.6546 -0.1351
 8316TIP3    H146363   6.034   0.226   5.593 -0.6027 -0.9785  0.2284
 8316TIP3    H246364   6.161   0.214   5.511 -0.8642 -0.4808 -0.2550
 8317TIP3   OH246365   3.236   3.171  16.510 -0.1573 -0.1137 -0.2490
 8317TIP3    H146366   3.256   3.131  16.426  0.2184  0.0769 -0.2505
 8317TIP3    H246367   3.152   3.216  16.495 -0.5191 -0.7931 -0.2759
 8318TIP3   OH246368   0.250   5.308   0.770 -0.3098  0.2186 -0.2662
 8318TIP3    H146369   0.157   5.286   0.775 -0.5149  1.3344  1.8779
 8318TIP3    H246370   0.261   5.380   0.831  1.7678  0.9188 -1.3613
 8319TIP3   OH246371   1.175   6.143  15.381 -0.5261 -0.4129  0.2717
 8319TIP3    H146372   1.236   6.100  15.321 -0.8134  1.2082 -1.2760
 8319TIP3    H246373   1.143   6.072  15.436 -1.9016 -2.5419 -2.9167
 8320TIP3   OH246374   0.434   5.612  17.067  0.3968 -0.3417  0.7537
 8320TIP3    H146375   0.510   5.639  17.015  0.3100 -0.7735  0.3944
 8320TIP3    H246376   0.377   5.567  17.004  0.2143 -0.7269  1.1863
 8321TIP3   OH246377   5.432   6.718  11.899  0.1151 -0.4495 -0.2603
 8321TIP3    H146378   5.371   6.646  11.886  0.5782 -0.5177 -2.4325
 8321TIP3    H246379   5.509   6.678  11.938 -0.5001 -0.6894  0.7317
 8322TIP3   OH246380   3.863   4.227   6.682  0.1626 -0.1281 -0.4133
 8322TIP3    H146381   3.848   4.274   6.600  1.5583  0.6077 -0.2833
 8322TIP3    H246382   3.800   4.264   6.743 -0.0830  0.1588 -0.8314
 8323TIP3   OH246383   4.164   6.348   1.330 -0.0687 -0.4234  0.4188
 8323TIP3    H146384   4.090   6.401   1.357 -1.6973 -1.2089 -2.1929
 8323TIP3    H246385   4.128   6.259   1.321  1.5056 -1.0948  0.3880
 8324TIP3   OH246386   4.725   0.592  12.305  0.1195 -0.1515 -0.4431
 8324TIP3    H146387   4.686   0.517  12.350 -1.6427  1.2492  0.4808
 8324TIP3    H246388   4.660   0.662  12.313  1.6130  1.4411 -1.4329
 8325TIP3   OH246389   3.216   0.594  17.091  0.2941  1.1530  0.1111
 8325TIP3    H146390   3.243   0.662  17.029  0.6253  1.9571  1.1006
 8325TIP3    H246391   3.195   0.642  17.171 -0.7399  0.2028  0.4350
 8326TIP3   OH246392   5.831   5.318  16.908 -0.0461 -0.7576  0.1386
 8326TIP3    H146393   5.842   5.237  16.860  2.1863 -0.2053 -0.4226
 8326TIP3    H246394   5.861   5.386  16.848 -0.7593  0.3584  1.0009
 8327TIP3   OH246395   2.464   2.900   2.691 -0.0488  0.3554  0.7736
 8327TIP3    H146396   2.386   2.943   2.654  0.1260  1.3749  1.5687
 8327TIP3    H246397   2.433   2.860   2.772  0.2900  0.8926  1.1683
 8328TIP3   OH246398   2.212   2.826  11.750  0.0403  0.1353 -0.1358
 8328TIP3    H146399   2.237   2.750  11.697  2.7052 -1.0003  2.4542
 8328TIP3    H246400   2.285   2.887  11.740 -0.5132  0.9028  0.4136
 8329TIP3   OH246401   1.111   1.279  14.458  0.1557 -0.0274 -0.2807
 8329TIP3    H146402   1.045   1.348  14.451  0.3633  0.2718  0.6139
 8329TIP3    H246403   1.190   1.323  14.487 -0.2539 -0.8597  2.4887
 8330TIP3   OH246404   0.375   0.447  16.298  0.4464  0.2206 -0.1411
 8330TIP3    H146405   0.279   0.444  16.298  0.4701 -0.7144 -0.4041
 8330TIP3    H246406   0.396   0.531  16.339 -0.4934  0.8235 -0.8468
 8331TIP3   OH246407   5.024   1.230  13.354  0.2456 -0.1035  0.3791
 8331TIP3    H146408   4.935   1.264  13.347 -0.5551 -1.9961  0.8648
 8331TIP3    H246409   5.013   1.137  13.376  2.3357 -0.4232  0.2699
 8332TIP3   OH246410   1.207   0.179  15.448 -0.8738 -0.0377 -0.4658
 8332TIP3    H146411   1.230   0.130  15.369  0.6442  0.7117 -0.5304
 8332TIP3    H246412   1.199   0.112  15.516  2.3704 -0.3893 -0.2722
 8333TIP3   OH246413   2.677   3.248  16.030 -0.0040  0.6365  0.6096
 8333TIP3    H146414   2.614   3.223  15.962  0.8261 -0.6861  0.2819
 8333TIP3    H246415   2.683   3.343  16.023 -1.5453  0.7439  0.2994
 8334TIP3   OH246416   4.942   3.622  12.555  0.3497 -0.1084 -0.2683
 8334TIP3    H146417   5.019   3.567  12.568  1.8907  2.0160 -0.0293
 8334TIP3    H246418   4.975   3.712  12.558 -1.8516  0.8594 -1.9331
 8335TIP3   OH246419   5.893   3.676  17.051  0.6723 -0.1958  0.1242
 8335TIP3    H146420   5.893   3.658  16.957  0.2497  1.1112 -0.1464
 8335TIP3    H246421   5.804   3.704  17.071  1.5441  2.8962  0.1796
 8336TIP3   OH246422   5.825   4.629   4.411 -0.1991  0.3864  0.0167
 8336TIP3    H146423   5.757   4.581   4.364 -1.2870  1.9540 -0.0913
 8336TIP3    H246424   5.871   4.678   4.343  0.6459 -0.1598  0.1736
 8337TIP3   OH246425   5.048   0.718   0.067 -0.3891 -0.7414  0.1212
 8337TIP3    H146426   5.058   0.685   0.157 -0.9293  0.2503  0.5563
 8337TIP3    H246427   4.954   0.732   0.057 -0.2466 -0.1016 -0.3334
 8338TIP3   OH246428   0.505   1.077  16.688 -0.0222 -0.1460 -0.1448
 8338TIP3    H146429   0.490   1.077  16.594 -0.7650  2.2730 -0.0810
 8338TIP3    H246430   0.418   1.070  16.727  0.1903 -0.0644  0.3619
 8339TIP3   OH246431   4.885   2.286  13.604  0.0010 -0.4374  0.2228
 8339TIP3    H146432   4.867   2.234  13.682 -1.3587 -0.3494 -0.0192
 8339TIP3    H246433   4.978   2.311  13.613  0.0156 -0.8832  1.5218
 8340TIP3   OH246434   4.807   3.870   3.000 -0.7903  0.3218  0.0433
 8340TIP3    H146435   4.742   3.835   3.062 -0.0157  1.2282  1.4053
 8340TIP3    H246436   4.885   3.885   3.052  0.4432 -0.3783 -1.4957
 8341TIP3   OH246437   0.294   2.765   3.461  0.1194 -0.5385  0.0123
 8341TIP3    H146438   0.268   2.738   3.373 -2.4481 -0.0167  0.5422
 8341TIP3    H246439   0.237   2.838   3.482  1.3410 -0.0267  1.7751
 8342TIP3   OH246440   6.651   2.633  16.073 -0.0720 -0.5466 -0.4191
 8342TIP3    H146441   6.621   2.551  16.113  0.0056  0.1265  1.1267
 8342TIP3    H246442   6.719   2.664  16.133 -1.1099  1.3704 -0.1717
 8343TIP3   OH246443   0.896   6.357  17.127  0.2162  0.0620  1.2370
 8343TIP3    H146444   0.980   6.362  17.172  1.0999 -0.5851 -0.2886
 8343TIP3    H246445   0.874   6.264  17.127  1.9834 -0.5573 -2.5973
 8344TIP3   OH246446   5.411   0.182  16.034  0.4957 -0.3358  0.4621
 8344TIP3    H146447   5.358   0.214  16.107  0.5144 -0.1585  0.3978
 8344TIP3    H246448   5.351   0.128  15.982  0.5604 -0.7086  0.7727
 8345TIP3   OH246449   4.688   5.420   3.073 -0.1290  0.0826 -0.0239
 8345TIP3    H146450   4.596   5.415   3.047 -0.2894  0.4406  0.4491
 8345TIP3    H246451   4.697   5.507   3.113  0.3840  0.0050  0.0335
 8346TIP3   OH246452   3.191   0.726  15.025 -0.5523 -0.3868 -0.3729
 8346TIP3    H146453   3.170   0.699  15.114  0.8654 -1.8055 -0.4277
 8346TIP3    H246454   3.253   0.660  14.994  0.9483  1.4667 -1.5209
 8347TIP3   OH246455   0.779   2.802  12.995 -0.2239 -0.2434  0.3162
 8347TIP3    H146456   0.715   2.867  12.968 -0.1623 -1.0030 -1.7932
 8347TIP3    H246457   0.744   2.768  13.078 -1.7942  0.3534 -0.0638
 8348TIP3   OH246458   6.735   4.860  12.695 -0.0117 -0.4347 -0.6608
 8348TIP3    H146459   6.796   4.931  12.717 -0.6379 -0.0260 -0.2372
 8348TIP3    H246460   6.721   4.869  12.601  0.4484 -0.4250 -0.7306
 8349TIP3   OH246461   3.840   2.424   4.361 -0.7444 -0.0112  0.1062
 8349TIP3    H146462   3.850   2.448   4.454  1.2555 -0.1108 -0.0321
 8349TIP3    H246463   3.919   2.458   4.319 -0.1204 -2.5717 -0.9961
 8350TIP3   OH246464   0.503   1.394  12.023  0.3302  0.2030 -0.0742
 8350TIP3    H146465   0.517   1.486  12.006  0.6640  0.2862  0.6057
 8350TIP3    H246466   0.580   1.366  12.072 -0.2101 -0.2014  0.5662
 8351TIP3   OH246467   1.645   6.194   4.376  0.0030 -0.0929 -0.7430
 8351TIP3    H146468   1.584   6.175   4.447  1.3763 -1.1216  0.2019
 8351TIP3    H246469   1.588   6.213   4.301 -1.4793 -0.6586  0.1903
 8352TIP3   OH246470   2.410   5.854  16.826  0.8112 -0.3342  0.2607
 8352TIP3    H146471   2.389   5.761  16.841 -2.1651  0.1728 -0.1325
 8352TIP3    H246472   2.354   5.901  16.887  0.1836  1.2530 -1.4485
 8353TIP3   OH246473   6.621   3.368  14.651 -0.0066 -0.7816 -0.0530
 8353TIP3    H146474   6.618   3.286  14.701 -1.0730 -0.1144  0.9873
 8353TIP3    H246475   6.563   3.352  14.576  0.2091 -1.1514 -0.1472
 8354TIP3   OH246476   0.699   2.036   1.408 -0.3182  0.3031  0.0129
 8354TIP3    H146477   0.750   2.025   1.488 -0.4685  0.2994  0.1092
 8354TIP3    H246478   0.733   2.115   1.368 -2.6297  2.4370  1.9116
 8355TIP3   OH246479   0.988   0.179  16.504  0.4182 -0.4099 -0.5900
 8355TIP3    H146480   0.963   0.106  16.561 -0.2274  0.1949 -0.0798
 8355TIP3    H246481   1.084   0.174  16.501  0.4943 -0.3265  0.7616
 8356TIP3   OH246482   4.239   0.799   0.536 -0.5060  0.1502  0.2447
 8356TIP3    H146483   4.217   0.759   0.620  0.8826 -0.8824  0.1635
 8356TIP3    H246484   4.303   0.867   0.557 -1.7931  1.4250  0.2227
 8357TIP3   OH246485   6.049   0.605   5.504 -0.1032  0.0941  0.0005
 8357TIP3    H146486   6.104   0.575   5.432 -0.8818  0.2347 -0.6604
 8357TIP3    H246487   6.111   0.649   5.564  0.5971 -0.3178 -0.4069
 8358TIP3   OH246488   5.721   1.923  15.892  0.0051 -0.2817  0.4090
 8358TIP3    H146489   5.775   1.997  15.919 -0.5311  0.2973 -0.0644
 8358TIP3    H246490   5.766   1.846  15.925  0.8190  0.2326  0.5058
 8359TIP3   OH246491   0.261   3.671   4.933 -0.7111 -0.3172 -0.3260
 8359TIP3    H146492   0.235   3.762   4.949 -0.8975 -0.3032 -0.6945
 8359TIP3    H246493   0.292   3.670   4.843  0.4006 -0.3830  0.0506
 8360TIP3   OH246494   3.778   4.870  12.283 -0.2456  0.1897 -0.3242
 8360TIP3    H146495   3.706   4.910  12.234 -1.9460 -3.2207 -0.9144
 8360TIP3    H246496   3.739   4.845  12.366  0.0782 -2.0204 -0.7841
 8361TIP3   OH246497   1.049   5.458   2.874  0.3258  0.2129 -0.2498
 8361TIP3    H146498   1.066   5.364   2.865  0.7785  0.2067  0.5920
 8361TIP3    H246499   0.961   5.463   2.912  0.4654  0.1140  0.0924
 8362TIP3   OH246500   5.661   6.722  11.649 -0.1073  0.1957  0.7488
 8362TIP3    H146501   5.695   6.689  11.732 -0.4797 -1.2299  0.3554
 8362TIP3    H246502   5.677   6.817  11.653 -1.2073  0.3547  2.9475
 8363TIP3   OH246503   2.687   0.786   4.099 -0.5221 -0.4332 -0.1004
 8363TIP3    H146504   2.642   0.744   4.026 -1.4180  0.0919  0.1376
 8363TIP3    H246505   2.617   0.812   4.159  0.2183 -1.3976  1.2457
 8364TIP3   OH246506   5.543   4.004  14.984  0.7401 -0.2393 -0.0315
 8364TIP3    H146507   5.513   3.985  15.072  0.1097 -0.5896 -0.3150
 8364TIP3    H246508   5.638   4.007  14.991  0.6977 -0.3417  0.6417
 8365TIP3   OH246509   6.222   2.817  10.932 -0.2132  0.0729  0.5237
 8365TIP3    H146510   6.138   2.863  10.935  1.3290  3.6736 -2.8748
 8365TIP3    H246511   6.273   2.857  11.003 -0.9556 -1.5186  2.0369
 8366TIP3   OH246512   5.311   4.235  16.699  0.0267  0.3545 -0.3773
 8366TIP3    H146513   5.291   4.278  16.782  0.7852 -2.4271  1.3588
 8366TIP3    H246514   5.367   4.298  16.653 -0.7443  2.1401  1.0192
 8367TIP3   OH246515   2.110   2.152   3.937 -0.4690  0.0970 -0.0223
 8367TIP3    H146516   2.030   2.102   3.918  1.2549 -1.8214 -3.0236
 8367TIP3    H246517   2.125   2.203   3.858  2.2323 -1.1031 -0.4116
 8368TIP3   OH246518   1.530   6.672  15.768  0.4486  0.1094 -0.4859
 8368TIP3    H146519   1.559   6.604  15.708  2.5128  1.0373 -0.6221
 8368TIP3    H246520   1.536   6.632  15.855  2.1700  0.2405 -0.5173
 8369TIP3   OH246521   1.422   1.075   5.273 -0.3641 -0.4201 -0.2756
 8369TIP3    H146522   1.331   1.059   5.300  0.2095 -1.9541  0.9246
 8369TIP3    H246523   1.470   1.085   5.355  0.6940 -0.5532 -0.8624
 8370TIP3   OH246524   3.518   0.357  13.821 -0.5701 -0.6109 -0.0586
 8370TIP3    H146525   3.461   0.340  13.746  1.4048 -1.1878 -1.4970
 8370TIP3    H246526   3.539   0.450  13.815 -0.0012 -0.7664 -0.5403
 8371TIP3   OH246527   0.383   4.551   6.105  0.0376 -0.1469 -0.5052
 8371TIP3    H146528   0.434   4.474   6.077  1.1525  0.9392 -1.5881
 8371TIP3    H246529   0.445   4.624   6.098 -0.8357  0.7794  1.0668
 8372TIP3   OH246530   2.516   4.675   1.100  0.1456 -0.0248  0.0190
 8372TIP3    H146531   2.483   4.761   1.126 -3.0449 -0.9217 -0.6684
 8372TIP3    H246532   2.549   4.687   1.011  1.6404  0.8423  0.6414
 8373TIP3   OH246533   5.452   6.223   1.050 -0.0478 -0.2314  0.1513
 8373TIP3    H146534   5.429   6.302   1.098 -0.5886 -0.8495  0.9274
 8373TIP3    H246535   5.397   6.227   0.971  1.1847  1.0177 -0.6991
 8374TIP3   OH246536   2.495   0.626   1.152 -0.6128  0.3746 -0.7436
 8374TIP3    H146537   2.591   0.620   1.159 -0.7454 -1.6565  0.0102
 8374TIP3    H246538   2.478   0.621   1.058  0.0091  0.3567 -0.8631
 8375TIP3   OH246539   2.442   5.642  14.900  0.0681 -0.3934 -0.1508
 8375TIP3    H146540   2.367   5.697  14.879 -1.0895 -2.2623 -1.1609
 8375TIP3    H246541   2.404   5.557  14.923  1.8870 -1.8027 -2.0073
 8376TIP3   OH246542   0.062   3.178   6.849 -0.0444  0.8138  0.0468
 8376TIP3    H146543   0.128   3.147   6.787  0.7129  1.2494  0.6229
 8376TIP3    H246544  -0.018   3.131   6.824  0.3776  0.5819 -0.9154
 8377TIP3   OH246545   2.896   5.291  14.671 -0.0505 -0.1296 -0.0117
 8377TIP3    H146546   2.886   5.386  14.675 -0.8664 -0.2387  1.8705
 8377TIP3    H246547   2.828   5.262  14.611  0.2678  0.4745 -0.6725
 8378TIP3   OH246548   3.493   2.416  14.546 -0.2325  0.4474  0.7227
 8378TIP3    H146549   3.423   2.372  14.594 -0.2056  0.8240  1.1067
 8378TIP3    H246550   3.529   2.347  14.490 -1.2892  0.3910  0.0829
 8379TIP3   OH246551   0.539   1.079   0.224  0.3263 -0.5556  0.4855
 8379TIP3    H146552   0.531   1.012   0.292 -0.6239 -2.0665 -1.0440
 8379TIP3    H246553   0.500   1.157   0.263 -2.4040 -2.0170  0.8840
 8380TIP3   OH246554   4.112   5.841  14.438 -0.6517  0.0201 -0.1987
 8380TIP3    H146555   4.120   5.878  14.350 -1.8206  0.5892 -0.0726
 8380TIP3    H246556   4.068   5.909  14.489 -1.5351 -0.9792  0.3945
 8381TIP3   OH246557   6.282   6.502  12.432 -0.2007  0.1645 -0.2176
 8381TIP3    H146558   6.223   6.507  12.508 -0.0920 -1.4095 -0.0013
 8381TIP3    H246559   6.223   6.496  12.357 -0.3278 -0.9906 -0.0350
 8382TIP3   OH246560   0.715   1.692  16.355 -0.4054  0.1004  0.4902
 8382TIP3    H146561   0.725   1.774  16.402  1.7125  0.4526 -0.4601
 8382TIP3    H246562   0.633   1.701  16.307 -0.0357  1.8207  0.1284
 8383TIP3   OH246563   6.007   2.748   2.330 -0.2351  0.2080  0.3895
 8383TIP3    H146564   5.965   2.662   2.342 -0.8600  0.3759 -0.4558
 8383TIP3    H246565   6.082   2.730   2.274  0.3242  0.0442  1.1741
 8384TIP3   OH246566   4.415   1.421   1.809  0.0005 -0.5279  0.6787
 8384TIP3    H146567   4.356   1.495   1.797 -2.3986 -2.1624  1.5740
 8384TIP3    H246568   4.488   1.456   1.861  0.3623  1.7670 -1.1908
 8385TIP3   OH246569   2.584   6.064   1.077 -0.0269 -0.1596 -0.7005
 8385TIP3    H146570   2.657   6.073   1.016  2.0840  0.2222  1.7084
 8385TIP3    H246571   2.534   6.145   1.068  2.0182  1.2808  0.1437
 8386TIP3   OH246572   1.141   4.365  11.716 -0.1238  0.2528 -0.5408
 8386TIP3    H146573   1.210   4.305  11.744  0.7962  1.1558 -0.7922
 8386TIP3    H246574   1.082   4.371  11.792 -0.7616 -1.6499 -0.8283
 8387TIP3   OH246575   4.657   3.629  14.406 -0.1746 -0.2035  0.6045
 8387TIP3    H146576   4.703   3.557  14.450  0.0598 -0.2911  0.2266
 8387TIP3    H246577   4.585   3.586  14.360  1.5647 -0.6470 -1.9335
 8388TIP3   OH246578   0.697   2.666  11.075  0.0572  0.5408 -0.0556
 8388TIP3    H146579   0.662   2.741  11.123 -0.5099  0.4148 -0.2744
 8388TIP3    H246580   0.789   2.661  11.103 -0.0937  0.8719  0.5069
 8389TIP3   OH246581   5.699   0.418  11.550 -0.7169 -0.0188  0.2338
 8389TIP3    H146582   5.638   0.375  11.610 -1.7575  0.1646 -0.6475
 8389TIP3    H246583   5.773   0.358  11.542 -0.7592 -0.2264  1.3630
 8390TIP3   OH246584   2.926   4.844   5.356  0.2527  0.1514 -0.1906
 8390TIP3    H146585   2.917   4.815   5.446 -0.2792  0.1590 -0.2368
 8390TIP3    H246586   2.854   4.906   5.343 -1.3011 -1.7686 -1.3776
 8391TIP3   OH246587   1.104   2.507  11.624  0.1409  0.1570  0.1250
 8391TIP3    H146588   1.156   2.514  11.544 -0.6615  0.5806 -0.3638
 8391TIP3    H246589   1.018   2.479  11.594  0.1397 -0.7927  0.9593
 8392TIP3   OH246590   5.506   4.888  12.962  0.4716 -0.0563 -0.4489
 8392TIP3    H146591   5.509   4.904  12.868  1.0704 -1.6853 -0.7273
 8392TIP3    H246592   5.415   4.903  12.987  0.6299  2.0615 -0.9379
 8393TIP3   OH246593   1.234   3.917  13.165  0.0363  0.0135  0.3069
 8393TIP3    H146594   1.313   3.922  13.111 -0.4599 -1.5867 -0.6662
 8393TIP3    H246595   1.163   3.942  13.106 -0.2615  0.8113  0.9883
 8394TIP3   OH246596   1.997   0.501   5.911 -0.0988 -0.2921  0.0812
 8394TIP3    H146597   2.048   0.468   5.985  1.8337 -0.4548 -1.2573
 8394TIP3    H246598   1.967   0.587   5.940 -1.1471 -1.1634  1.7908
 8395TIP3   OH246599   3.607   1.465   4.703  0.2114 -0.0305 -0.7571
 8395TIP3    H146600   3.536   1.408   4.732 -0.3188  1.2565  0.6206
 8395TIP3    H246601   3.571   1.512   4.628 -0.0936  0.0255 -0.5744
 8396TIP3   OH246602   6.617   3.506  11.445  0.3060 -0.5166  0.1184
 8396TIP3    H146603   6.534   3.460  11.434  1.1313 -1.9145 -0.6443
 8396TIP3    H246604   6.608   3.585  11.391  0.2699 -1.8117 -1.8813
 8397TIP3   OH246605   0.327   1.748  12.662  0.4544  0.3533 -0.5432
 8397TIP3    H146606   0.248   1.699  12.683  0.4889  0.9665  1.2691
 8397TIP3    H246607   0.386   1.683  12.624  0.1899 -0.8556  0.9954
 8398TIP3   OH246608   4.568   3.156  11.519 -0.1148 -0.2117 -0.3372
 8398TIP3    H146609   4.575   3.252  11.512  2.1404 -0.3336 -0.4855
 8398TIP3    H246610   4.588   3.138  11.611  1.9171 -0.6419 -0.8093
 8399TIP3   OH246611   6.349   3.309  11.738 -0.1671  0.0769 -0.4448
 8399TIP3    H146612   6.292   3.233  11.745 -0.8980  0.6986  0.6095
 8399TIP3    H246613   6.334   3.342  11.650 -1.9051  0.5729  0.0038
 8400TIP3   OH246614   1.955   0.597  15.309  0.2633 -0.1659  0.7159
 8400TIP3    H146615   2.033   0.627  15.356  0.1275 -2.4798  2.6252
 8400TIP3    H246616   1.979   0.511  15.275 -0.6081  0.2608 -1.1191
 8401TIP3   OH246617   2.143   1.146  16.363  0.0410 -0.0210 -0.0848
 8401TIP3    H146618   2.193   1.113  16.437  0.0149  0.7960  0.3125
 8401TIP3    H246619   2.057   1.104  16.370  0.0484  0.0358  0.3313
 8402TIP3   OH246620   4.664   4.627   2.517 -0.0727 -0.2207  0.7253
 8402TIP3    H146621   4.717   4.697   2.482  0.9180 -2.2270 -2.1115
 8402TIP3    H246622   4.696   4.615   2.607  4.8738 -1.6678 -0.9258
 8403TIP3   OH246623   5.421   6.643   4.081 -0.3032  0.0052 -0.7230
 8403TIP3    H146624   5.452   6.573   4.024  0.0559  0.8242 -1.5550
 8403TIP3    H246625   5.468   6.630   4.163  0.7886  0.0779 -1.3246
 8404TIP3   OH246626   3.951   3.911   3.656  0.0200  0.0963  0.0551
 8404TIP3    H146627   4.020   3.852   3.627  1.4932  1.5297  0.5067
 8404TIP3    H246628   3.980   3.998   3.629 -0.6262  0.9796  1.9851
 8405TIP3   OH246629   4.248   6.365   2.071 -0.2189 -0.8632  0.1597
 8405TIP3    H146630   4.249   6.362   2.166  1.6374 -2.1002  0.1616
 8405TIP3    H246631   4.339   6.386   2.047 -0.6329 -0.6568 -1.3368
 8406TIP3   OH246632   5.725   1.697   5.760 -0.0822 -0.4543  0.4389
 8406TIP3    H146633   5.765   1.697   5.673 -0.1021 -2.1126  0.4085
 8406TIP3    H246634   5.791   1.739   5.816  0.0643  0.3371 -0.2900
 8407TIP3   OH246635   0.521   5.397   5.191 -0.0234 -0.1085  0.1367
 8407TIP3    H146636   0.565   5.436   5.266  0.7312  0.5085 -0.6081
 8407TIP3    H246637   0.592   5.360   5.138 -0.3641  0.8424 -1.0473
 8408TIP3   OH246638   1.686   0.265   4.214 -0.3227  0.2395  0.3634
 8408TIP3    H146639   1.755   0.281   4.278 -2.2346  4.5652  1.6837
 8408TIP3    H246640   1.611   0.236   4.266 -1.4886  2.4782  0.0733
 8409TIP3   OH246641   4.186   2.932  16.966  0.2340  0.0708  0.2532
 8409TIP3    H146642   4.266   2.881  16.966 -0.6197 -1.3370  1.0469
 8409TIP3    H246643   4.167   2.947  17.059  0.2669  1.5627  0.0506
 8410TIP3   OH246644   4.760   5.573   3.691 -0.2905  0.0994  0.1613
 8410TIP3    H146645   4.752   5.623   3.610  1.8734  0.8078  0.3220
 8410TIP3    H246646   4.845   5.598   3.727 -0.9141 -0.6615  2.3588
 8411TIP3   OH246647   4.009   0.491   2.421 -0.0198  0.3782 -0.7749
 8411TIP3    H146648   3.996   0.584   2.438 -0.6608 -0.2986  3.3911
 8411TIP3    H246649   4.104   0.478   2.428 -0.1093  0.4356  0.7938
 8412TIP3   OH246650   1.851   0.698   5.588  0.7464 -0.1981  0.0908
 8412TIP3    H146651   1.815   0.718   5.501  0.8739 -2.4618 -0.5300
 8412TIP3    H246652   1.793   0.632   5.624  1.0045  0.3275  1.5399
 8413TIP3   OH246653   6.297   5.642  13.494  0.3470  0.6419 -0.3163
 8413TIP3    H146654   6.352   5.718  13.477  1.1361  0.2290  0.2915
 8413TIP3    H246655   6.355   5.580  13.539  0.0493 -0.7702 -1.7552
 8414TIP3   OH246656   6.126   5.236  11.881  0.3100  0.4011 -0.0183
 8414TIP3    H146657   6.190   5.217  11.950 -0.8155  1.6513  1.4593
 8414TIP3    H246658   6.053   5.177  11.899  1.1326 -1.3397 -1.9683
 8415TIP3   OH246659   4.295   6.195   5.722  0.0507 -0.1030 -0.2147
 8415TIP3    H146660   4.272   6.117   5.772  3.1424 -1.2164 -0.3544
 8415TIP3    H246661   4.259   6.180   5.635 -2.8872  0.5663  0.7693
 8416TIP3   OH246662   4.154   5.993  14.199 -0.0955  0.2328  0.0947
 8416TIP3    H146663   4.133   6.087  14.200 -0.5320  0.1886  2.5396
 8416TIP3    H246664   4.248   5.990  14.182  0.0102  1.1541  0.4233
 8417TIP3   OH246665   6.279   3.949   4.346  0.7661  0.1420 -0.1977
 8417TIP3    H146666   6.291   3.856   4.324  1.4996  0.1960 -0.0279
 8417TIP3    H246667   6.363   3.990   4.327  0.5825  0.6937  0.1619
 8418TIP3   OH246668   1.542   1.015  14.054  0.5176  0.0131 -0.2285
 8418TIP3    H146669   1.497   0.955  14.114  0.5182  0.3136  0.0763
 8418TIP3    H246670   1.575   1.084  14.111 -0.6962  1.0577 -0.7581
 8419TIP3   OH246671   4.166   2.200   4.084 -0.2338  0.2863 -0.4947
 8419TIP3    H146672   4.175   2.206   4.179  1.4343  0.2123 -0.6193
 8419TIP3    H246673   4.072   2.188   4.069 -0.5271  0.4031  1.1311
 8420TIP3   OH246674   0.791   3.200  11.322  0.2915 -0.0605 -0.3477
 8420TIP3    H146675   0.855   3.197  11.393  0.7392  0.3280 -0.7265
 8420TIP3    H246676   0.752   3.113  11.321 -0.3003  0.1731  0.8889
 8421TIP3   OH246677   2.071   2.140  14.845 -0.7536 -0.7828  0.3804
 8421TIP3    H146678   2.078   2.201  14.918 -1.3726  0.3307 -0.4522
 8421TIP3    H246679   2.078   2.053  14.885  0.1107 -0.1800  1.6011
 8422TIP3   OH246680   5.436   5.346  16.608  0.0294  0.1992  0.2343
 8422TIP3    H146681   5.395   5.426  16.640  1.1194  0.4261  1.1291
 8422TIP3    H246682   5.512   5.376  16.559  0.1771 -0.2684  0.1757
 8423TIP3   OH246683   4.688   6.721   3.601  0.0414 -0.4204 -0.0513
 8423TIP3    H146684   4.728   6.665   3.534  1.0871 -1.2979  1.2354
 8423TIP3    H246685   4.747   6.797   3.607  1.0187 -1.2370  1.1450
 8424TIP3   OH246686   1.296   5.688  12.200 -0.2370 -0.3137  0.1876
 8424TIP3    H146687   1.218   5.665  12.150 -0.5636  0.3236  0.3930
 8424TIP3    H246688   1.266   5.689  12.291 -0.2100  0.7799  0.1994
 8425TIP3   OH246689   6.672   1.592  14.112  0.5190  0.9445 -0.7381
 8425TIP3    H146690   6.732   1.575  14.185 -0.7754  2.7502  0.8252
 8425TIP3    H246691   6.718   1.656  14.058  0.1447  2.1712  0.3470
 8426TIP3   OH246692   6.387   2.504   3.952  0.0452 -0.2715  0.4099
 8426TIP3    H146693   6.410   2.446   3.879  2.3914  1.2773 -0.1788
 8426TIP3    H246694   6.292   2.494   3.961  0.0469 -2.4212 -1.1702
 8427TIP3   OH246695   2.367   4.671   3.145 -0.1337 -0.2902  0.0126
 8427TIP3    H146696   2.392   4.614   3.218 -0.7583  0.0397  0.5048
 8427TIP3    H246697   2.280   4.640   3.120  0.3615 -0.8559 -1.0757
 8428TIP3   OH246698   0.654   3.050   5.186  0.1757 -0.1025 -0.0263
 8428TIP3    H146699   0.576   3.022   5.138 -0.3419  0.2554  0.5898
 8428TIP3    H246700   0.726   3.004   5.143 -0.4149 -0.7361 -0.3611
 8429TIP3   OH246701   0.557   5.790   1.121  0.1645  0.3600 -0.4462
 8429TIP3    H146702   0.595   5.721   1.067 -0.7722  0.4312 -1.2392
 8429TIP3    H246703   0.545   5.750   1.207  0.5609 -0.1458 -0.6232
 8430TIP3   OH246704   0.829   4.960   3.886  0.0226  0.9277 -0.1426
 8430TIP3    H146705   0.738   4.931   3.881  0.0110  0.2691  2.4464
 8430TIP3    H246706   0.878   4.896   3.835 -0.5813 -0.9851  1.5443
 8431TIP3   OH246707   3.537   0.771   1.953 -0.4555  0.1726 -0.2894
 8431TIP3    H146708   3.446   0.789   1.929 -0.9038 -0.2512  1.0156
 8431TIP3    H246709   3.588   0.807   1.880 -1.6695  0.0917 -1.2194
 8432TIP3   OH246710   1.254   5.469  16.374 -0.7656  0.2113 -0.3392
 8432TIP3    H146711   1.172   5.459  16.422  0.0879 -0.0860  1.1235
 8432TIP3    H246712   1.303   5.389  16.393  0.5658  1.1282  0.2654
 8433TIP3   OH246713   5.175   2.160   4.144 -0.2183  0.0649  0.1777
 8433TIP3    H146714   5.244   2.098   4.166  0.2359  0.7719  0.7932
 8433TIP3    H246715   5.130   2.120   4.069  1.0534 -0.2592 -0.4388
 8434TIP3   OH246716   1.046   0.409  15.753 -0.1180 -0.0002  0.2236
 8434TIP3    H146717   1.135   0.378  15.770 -1.2783 -2.2738  3.2339
 8434TIP3    H246718   1.010   0.345  15.691  0.2193  0.7545 -0.7705
 8435TIP3   OH246719   2.267   1.168  16.108 -0.5576  0.3937  0.4154
 8435TIP3    H146720   2.238   1.114  16.181 -3.0599  0.0817 -0.7083
 8435TIP3    H246721   2.280   1.106  16.036  2.5409  0.6006  0.6547
 8436TIP3   OH246722   0.048   1.936   1.066 -0.0552 -0.1264  0.5081
 8436TIP3    H146723   0.078   2.027   1.060 -1.2336  0.2268 -0.2987
 8436TIP3    H246724   0.056   1.902   0.977 -0.0680 -0.6712  0.7128
 8437TIP3   OH246725   4.679   2.410  13.479  0.2363  0.5479  0.2131
 8437TIP3    H146726   4.751   2.383  13.536  0.2009  2.0061  0.9906
 8437TIP3    H246727   4.635   2.480  13.527 -1.8535 -0.4388 -0.1394
 8438TIP3   OH246728   4.940   2.033  14.023  0.2724 -0.0036  0.0981
 8438TIP3    H146729   5.015   1.973  14.023  0.3115  0.0448 -0.1298
 8438TIP3    H246730   4.952   2.086  14.102 -0.0909 -0.7009  0.6365
 8439TIP3   OH246731   1.412   3.957  17.131 -0.1634  0.3090 -0.0397
 8439TIP3    H146732   1.380   3.922  17.215 -1.0990  0.7458 -0.2040
 8439TIP3    H246733   1.490   3.905  17.112 -0.3704 -0.3073  0.7331
 8440TIP3   OH246734   2.429   1.781   5.585 -0.4672  0.1179  0.4872
 8440TIP3    H146735   2.410   1.766   5.492  0.4461  1.8705 -0.0365
 8440TIP3    H246736   2.372   1.854   5.609  0.8576  1.1397  0.6625
 8441TIP3   OH246737   2.915   5.823  11.989  0.4267 -0.6847  0.2592
 8441TIP3    H146738   2.933   5.914  11.966 -2.0192  0.1633  1.3393
 8441TIP3    H246739   2.993   5.795  12.038  1.9203  0.2419 -1.4946
 8442TIP3   OH246740   4.607   0.832   0.379 -0.1718  0.0660 -0.3918
 8442TIP3    H146741   4.532   0.841   0.320  0.1959  0.7096 -0.7790
 8442TIP3    H246742   4.578   0.770   0.446  0.2168 -2.6922 -2.5745
 8443TIP3   OH246743   1.863   6.122  11.549  0.2814 -0.0179 -0.8161
 8443TIP3    H146744   1.842   6.196  11.607  1.3023 -0.1206 -0.2934
 8443TIP3    H246745   1.903   6.162  11.472 -0.7006  0.0855 -1.2928
 8444TIP3   OH246746   6.271   3.820   0.581  0.3000 -0.5025  0.4047
 8444TIP3    H146747   6.217   3.776   0.515  0.0396 -3.2362  2.2584
 8444TIP3    H246748   6.303   3.899   0.538  0.4211 -2.2721 -3.0873
 8445TIP3   OH246749   4.375   5.744  15.082 -0.3115  0.0887  0.2053
 8445TIP3    H146750   4.329   5.673  15.126 -0.3294 -0.4722 -0.6886
 8445TIP3    H246751   4.413   5.703  15.004 -1.9043  1.4246 -1.3537
 8446TIP3   OH246752   0.363   5.645  10.921  0.0543  0.2800  0.1004
 8446TIP3    H146753   0.283   5.615  10.878 -1.1284  0.9578  1.7218
 8446TIP3    H246754   0.426   5.655  10.850 -0.8797 -1.5213 -1.0628
 8447TIP3   OH246755   5.659   5.552  15.141 -0.1168  0.5345  0.1506
 8447TIP3    H146756   5.738   5.502  15.119 -0.2433  0.9867 -1.4345
 8447TIP3    H246757   5.676   5.585  15.229  1.1989  0.1091  0.0847
 8448TIP3   OH246758   5.205   5.581   3.807 -0.0588 -0.4880  0.4942
 8448TIP3    H146759   5.251   5.592   3.890  0.9133  2.1555 -0.2890
 8448TIP3    H246760   5.272   5.548   3.747 -0.3476 -0.8660  0.3769
 8449TIP3   OH246761   2.776   4.848  12.900 -0.4930 -0.1306  0.7120
 8449TIP3    H146762   2.788   4.844  12.805 -2.0341  0.1939  0.4634
 8449TIP3    H246763   2.848   4.796  12.936 -0.1945 -0.7212 -0.6580
 8450TIP3   OH246764   1.713   2.934  16.221 -0.9493  0.1745  0.3645
 8450TIP3    H146765   1.623   2.963  16.205 -1.5351 -1.1213  1.1409
 8450TIP3    H246766   1.727   2.864  16.158 -0.0785  1.0759 -0.4838
 8451TIP3   OH246767   5.219   4.026  13.018  0.5193  0.3260  0.1678
 8451TIP3    H146768   5.162   3.951  13.003  0.8604  0.1178 -0.1172
 8451TIP3    H246769   5.298   3.989  13.057  1.0677  0.3993 -0.8276
 8452TIP3   OH246770   3.230   6.254   5.277 -1.2268 -0.0245 -0.5894
 8452TIP3    H146771   3.298   6.194   5.247 -2.1392 -0.8286 -1.1406
 8452TIP3    H246772   3.199   6.297   5.197  0.6478  2.6150 -0.0250
 8453TIP3   OH246773   4.292   2.727   2.676 -0.8050  0.0613  0.1255
 8453TIP3    H146774   4.201   2.724   2.706 -0.2915  0.5693  1.8686
 8453TIP3    H246775   4.317   2.635   2.666 -1.4482 -0.0875 -0.1833
 8454TIP3   OH246776   2.204   0.110   6.077  0.4017 -0.4460  0.0312
 8454TIP3    H146777   2.295   0.140   6.079 -0.2420  1.6177  0.6677
 8454TIP3    H246778   2.198   0.047   6.149  1.1394  0.0201  0.5174
 8455TIP3   OH246779   6.453   5.942  13.970  0.1344  0.3102  0.2624
 8455TIP3    H146780   6.485   5.943  13.879 -0.4018  1.7639  0.0741
 8455TIP3    H246781   6.533   5.941  14.023  0.4612  0.8989 -0.2141
 8456TIP3   OH246782   6.452   1.989   0.377 -0.3208 -1.2794 -0.5704
 8456TIP3    H146783   6.460   1.902   0.416  2.8287 -0.4616  0.9579
 8456TIP3    H246784   6.476   2.049   0.448  0.7350  0.6018 -2.4187
 8457TIP3   OH246785   0.463   5.282   1.625 -0.4234 -0.0307 -0.1798
 8457TIP3    H146786   0.380   5.266   1.579 -0.3457  1.2167 -0.8187
 8457TIP3    H246787   0.530   5.249   1.565 -0.4296 -0.7193  0.1824
 8458TIP3   OH246788   5.894   4.646  10.494 -0.3311  0.3502  0.2628
 8458TIP3    H146789   5.832   4.713  10.524  0.1860  1.2070 -0.5250
 8458TIP3    H246790   5.863   4.565  10.534 -1.4157  0.9240  0.6324
 8459TIP3   OH246791   4.250   5.577  15.951  0.3418 -0.0950 -0.8607
 8459TIP3    H146792   4.181   5.642  15.965  1.1460  0.3648  1.3795
 8459TIP3    H246793   4.221   5.500  16.000  0.5807 -0.5751 -1.4491
 8460TIP3   OH246794   2.422   4.074   3.233  0.1283 -0.5180  0.2354
 8460TIP3    H146795   2.508   4.032   3.234  0.8986  0.9005 -1.2050
 8460TIP3    H246796   2.425   4.139   3.302  0.5177  0.0605 -0.3177
 8461TIP3   OH246797   0.911   6.179  11.754 -0.0111  0.5153  0.1013
 8461TIP3    H146798   0.868   6.227  11.683  0.9454 -0.3067 -1.0526
 8461TIP3    H246799   0.860   6.099  11.763  0.2160  0.3552 -0.0471
 8462TIP3   OH246800   4.567   2.432  15.554  0.2803 -0.4998  0.2814
 8462TIP3    H146801   4.530   2.372  15.490 -0.0729 -1.3184  1.2450
 8462TIP3    H246802   4.500   2.500  15.565  0.1158 -0.6485  0.1996
 8463TIP3   OH246803   0.765   4.844  12.104  0.0830 -0.4392 -0.3454
 8463TIP3    H146804   0.777   4.848  12.009 -0.3067 -0.7566 -0.4121
 8463TIP3    H246805   0.670   4.841  12.116 -0.0392  2.2782  0.1627
 8464TIP3   OH246806   4.949   4.530   3.366  0.0552  0.1594  0.1588
 8464TIP3    H146807   4.934   4.562   3.277  0.5113  1.7259  0.6024
 8464TIP3    H246808   4.935   4.607   3.422  0.6342 -0.5702  1.3657
 8465TIP3   OH246809   3.442   3.245  11.719 -0.3923 -0.6145 -0.0036
 8465TIP3    H146810   3.488   3.303  11.780 -0.5788 -1.6041  1.1301
 8465TIP3    H246811   3.439   3.293  11.637 -1.6515  1.5386  1.2016
 8466TIP3   OH246812   5.570   4.267   4.813  0.6814 -0.2433  0.0067
 8466TIP3    H146813   5.619   4.333   4.863 -1.4596  2.3856 -1.1081
 8466TIP3    H246814   5.480   4.275   4.845  0.3343 -2.7526 -0.1488
 8467TIP3   OH246815   0.663   6.310  15.235 -0.4765  0.0309 -0.7973
 8467TIP3    H146816   0.704   6.226  15.256 -0.2237  0.5815  1.0933
 8467TIP3    H246817   0.672   6.318  15.141  1.2718 -1.1504 -0.7774
 8468TIP3   OH246818   6.686   6.519  15.721  0.1358  0.0856 -0.2650
 8468TIP3    H146819   6.651   6.533  15.634  0.0199 -1.3460 -0.4709
 8468TIP3    H246820   6.728   6.602  15.744  0.2462  0.4476 -1.7037
 8469TIP3   OH246821   5.999   5.399   5.026  0.2390  0.2030 -0.8139
 8469TIP3    H146822   6.069   5.456   4.995  0.3046 -0.0112 -1.0632
 8469TIP3    H246823   6.013   5.392   5.121  0.0130  0.8930 -0.7238
 8470TIP3   OH246824   0.874   3.108  11.006 -0.2671  0.0859 -0.4576
 8470TIP3    H146825   0.937   3.166  11.049 -1.1662  0.3964  0.4627
 8470TIP3    H246826   0.796   3.162  10.993  0.0487  0.0881 -2.7567
 8471TIP3   OH246827   1.140   2.864  16.103  0.2970 -0.3112  0.2808
 8471TIP3    H146828   1.203   2.927  16.069 -1.0201 -1.2001 -4.6353
 8471TIP3    H246829   1.056   2.893  16.068 -1.6000 -0.9905  3.8712
 8472TIP3   OH246830   3.536   3.006   2.643 -0.1311  0.2415  0.0015
 8472TIP3    H146831   3.604   3.053   2.690  0.2087  0.2219 -0.4567
 8472TIP3    H246832   3.539   2.917   2.679  1.4415 -0.3150 -1.3375
 8473TIP3   OH246833   4.593   3.305  12.749 -0.2146  0.2633 -0.3324
 8473TIP3    H146834   4.519   3.301  12.811  1.0010 -0.4727  1.1409
 8473TIP3    H246835   4.577   3.232  12.689  0.4737 -1.4128  1.4151
 8474TIP3   OH246836   4.075   4.079  15.726  0.2140 -0.2996  0.0973
 8474TIP3    H146837   4.149   4.023  15.707  0.0848 -0.6055  0.4738
 8474TIP3    H246838   4.026   4.084  15.644 -0.1758 -1.3416  0.2583
 8475TIP3   OH246839   3.621   5.091   2.829 -0.3356  0.2521  0.4320
 8475TIP3    H146840   3.668   5.120   2.907 -0.7804  0.7320  0.5247
 8475TIP3    H246841   3.638   5.158   2.763  0.3942 -0.3735 -0.0247
 8476TIP3   OH246842   3.718   3.008   1.941  0.1437 -0.4131  0.2917
 8476TIP3    H146843   3.698   3.099   1.960  0.0556 -0.9141  2.9206
 8476TIP3    H246844   3.647   2.958   1.981  0.8891 -1.6997  0.0829
 8477TIP3   OH246845   5.224   4.680  14.721 -0.0923  0.1726 -0.1469
 8477TIP3    H146846   5.245   4.751  14.660 -1.4039  0.2595 -0.5235
 8477TIP3    H246847   5.190   4.725  14.798 -0.3607 -0.0210 -0.1520
 8478TIP3   OH246848   0.696   0.717  14.971 -0.3974 -0.0077  0.1371
 8478TIP3    H146849   0.665   0.754  15.054 -1.2399 -0.3326 -0.0227
 8478TIP3    H246850   0.638   0.643  14.955 -0.2699  0.0774 -0.7667
 8479TIP3   OH246851   6.089   4.476   4.375 -0.0988  0.2552 -0.3480
 8479TIP3    H146852   6.076   4.509   4.464 -0.7648 -0.3422 -0.2164
 8479TIP3    H246853   6.070   4.550   4.318  0.2541  0.6184 -0.0013
 8480TIP3   OH246854   1.592   1.195   4.086  0.1353 -0.2997  0.4808
 8480TIP3    H146855   1.510   1.226   4.127  0.2877  1.4825 -0.4583
 8480TIP3    H246856   1.659   1.252   4.123  1.0975 -2.1084  1.6629
 8481TIP3   OH246857   0.533   5.712   1.796  0.0811 -0.2536 -0.3459
 8481TIP3    H146858   0.626   5.710   1.817 -0.0281  0.1884  0.2086
 8481TIP3    H246859   0.507   5.804   1.808 -0.2748 -0.2431 -1.1633
 8482TIP3   OH246860   2.022   5.418   3.176  0.0999 -0.0568 -0.7151
 8482TIP3    H146861   2.030   5.407   3.081 -1.6397 -1.1458 -0.7864
 8482TIP3    H246862   2.027   5.329   3.211 -1.8093  0.0401 -0.0575
 8483TIP3   OH246863   3.172   6.632   0.862 -0.1407 -0.4552 -0.2654
 8483TIP3    H146864   3.139   6.544   0.847  0.0730 -0.3896 -1.1683
 8483TIP3    H246865   3.257   6.634   0.818 -0.6410  0.5411 -1.2136
 8484TIP3   OH246866   2.454   5.052  12.710 -0.5126  0.1403  0.6964
 8484TIP3    H146867   2.543   5.061  12.676 -0.8422 -2.3554 -1.0399
 8484TIP3    H246868   2.465   5.019  12.799  0.3155 -0.5782  0.3348
 8485TIP3   OH246869   4.121   6.657  11.633 -0.0562  0.0868 -0.2788
 8485TIP3    H146870   4.187   6.712  11.590 -0.2980  1.8351  1.4626
 8485TIP3    H246871   4.155   6.643  11.721 -1.0433 -0.7587 -0.0096
 8486TIP3   OH246872   5.951   2.938  10.673 -0.2059  0.6013 -0.1215
 8486TIP3    H146873   5.877   2.878  10.688  0.4020 -0.4243 -1.0310
 8486TIP3    H246874   5.930   2.981  10.590 -0.5564  1.5326  0.4456
 8487TIP3   OH246875   5.670   0.816   4.848 -0.2462 -0.1527 -0.2417
 8487TIP3    H146876   5.619   0.830   4.928  0.7988  0.9314  0.2649
 8487TIP3    H246877   5.662   0.897   4.799 -0.3453 -0.5768 -0.9346
 8488TIP3   OH246878   6.653   2.328  16.060 -0.2062 -0.7941  0.0101
 8488TIP3    H146879   6.646   2.245  16.108 -0.8298  0.3559  2.0381
 8488TIP3    H246880   6.563   2.351  16.039 -0.2394  0.3280  1.2697
 8489TIP3   OH246881   5.902   4.564  12.731  0.8540 -0.3269  0.3237
 8489TIP3    H146882   5.842   4.639  12.736  0.7367 -0.4556  0.8843
 8489TIP3    H246883   5.984   4.602  12.697  0.1217 -0.3639 -1.6066
 8490TIP3   OH246884   5.970   5.432   5.308 -0.0157 -0.3287 -0.1803
 8490TIP3    H146885   5.972   5.525   5.330 -0.2033 -0.1086 -1.0599
 8490TIP3    H246886   5.878   5.407   5.315  0.0326 -0.4513  0.0455
 8491TIP3   OH246887   1.335   0.519   4.150 -0.0955 -0.0470 -0.1088
 8491TIP3    H146888   1.285   0.575   4.090  0.7061  1.4027  0.5240
 8491TIP3    H246889   1.269   0.482   4.208 -0.6725  0.0950 -0.6633
 8492TIP3   OH246890   0.031   5.392  16.081 -0.0015 -0.0356  0.1239
 8492TIP3    H146891  -0.027   5.414  16.008  1.4621 -0.8992 -1.3449
 8492TIP3    H246892   0.108   5.448  16.069  0.4202 -0.4471  0.8064
 8493TIP3   OH246893   0.877   5.662  14.550  0.2670 -0.2999 -0.1016
 8493TIP3    H146894   0.834   5.601  14.609  0.0458 -1.4315 -1.3730
 8493TIP3    H246895   0.837   5.747  14.569 -0.4125 -0.7968  0.7538
 8494TIP3   OH246896   1.038   4.040   2.929 -0.1526  0.2775 -0.3797
 8494TIP3    H146897   1.005   4.127   2.906 -0.1318  0.2194 -0.6263
 8494TIP3    H246898   0.959   3.988   2.945 -0.2012  0.0449 -1.3046
 8495TIP3   OH246899   1.269   2.972  15.690 -0.0607 -0.3532  0.0068
 8495TIP3    H146900   1.335   3.034  15.658 -1.2622  1.0605  0.1165
 8495TIP3    H246901   1.186   3.021  15.685 -0.6989 -0.9767  2.7226
 8496TIP3   OH246902   3.782   3.958   1.795 -0.0272  0.8035 -0.8451
 8496TIP3    H146903   3.750   4.045   1.820  3.5640  2.4503 -1.3898
 8496TIP3    H246904   3.860   3.944   1.848 -1.0935 -2.7317  0.0799
 8497TIP3   OH246905   3.367   5.379   0.762 -0.0166  0.4720 -0.5403
 8497TIP3    H146906   3.304   5.442   0.725  0.9832  0.7160 -1.9006
 8497TIP3    H246907   3.365   5.396   0.856 -2.5142 -0.0306 -0.4322
 8498TIP3   OH246908   5.821   0.529  16.135 -0.2689 -0.1687 -0.4144
 8498TIP3    H146909   5.756   0.465  16.165 -0.2480  0.6448  1.5640
 8498TIP3    H246910   5.857   0.565  16.216  0.7807  1.2802 -1.4813
 8499TIP3   OH246911   6.473   3.575  11.750 -0.1936  0.4973  0.1928
 8499TIP3    H146912   6.407   3.592  11.683 -0.3820 -1.8251 -0.3116
 8499TIP3    H246913   6.463   3.647  11.813 -2.0748  1.0903 -0.7084
 8500TIP3   OH246914   4.265   0.794  13.575  0.5339 -0.1396  0.1768
 8500TIP3    H146915   4.256   0.782  13.481  3.2696  0.0871 -0.1755
 8500TIP3    H246916   4.246   0.707  13.612 -0.9527 -0.1381 -0.4848
 8501TIP3   OH246917   1.865   1.702   6.048 -0.1235 -0.4618 -0.2084
 8501TIP3    H146918   1.895   1.712   6.139 -0.2983 -1.8808  0.0344
 8501TIP3    H246919   1.946   1.688   5.998 -0.0319  0.2591 -0.2654
 8502TIP3   OH246920   5.579   1.109   3.741 -0.0011 -0.1223  0.0488
 8502TIP3    H146921   5.648   1.121   3.675  0.3827  0.8726  0.5970
 8502TIP3    H246922   5.522   1.042   3.705  1.0833 -0.7342 -0.5729
 8503TIP3   OH246923   2.745   6.658   5.052 -0.2834  0.0328  0.2078
 8503TIP3    H146924   2.753   6.604   4.973 -1.5950 -2.0719  1.4176
 8503TIP3    H246925   2.768   6.747   5.023  1.1132 -0.9802 -2.0799
 8504TIP3   OH246926   1.101   3.322  14.153  0.1268 -0.6584  0.1904
 8504TIP3    H146927   1.082   3.271  14.232 -0.4318 -0.6606  0.0544
 8504TIP3    H246928   1.040   3.396  14.156 -0.0020 -0.7397 -0.3181
 8505TIP3   OH246929   5.115   3.569   2.106 -0.1811 -0.0266  0.4508
 8505TIP3    H146930   5.048   3.596   2.044  0.2618 -0.5295 -0.2558
 8505TIP3    H246931   5.066   3.536   2.181 -0.7240  0.1015  0.1567
 8506TIP3   OH246932   2.040   1.018   2.491 -0.1445  0.2369  0.3944
 8506TIP3    H146933   1.982   1.094   2.492 -0.3776  0.0606  0.7076
 8506TIP3    H246934   2.124   1.051   2.460 -0.9223  0.1266 -2.0503
 8507TIP3   OH246935   5.402   2.561   3.522  0.0120 -0.2149 -0.2177
 8507TIP3    H146936   5.307   2.551   3.512 -0.1342  1.2559 -0.4942
 8507TIP3    H246937   5.412   2.631   3.586  0.9485 -1.4892  1.0823
 8508TIP3   OH246938   2.474   5.474   0.503  0.1767  0.2345 -0.1461
 8508TIP3    H146939   2.469   5.426   0.586 -0.4367 -0.3322 -0.5006
 8508TIP3    H246940   2.563   5.458   0.472 -0.4710 -2.0923 -1.0561
 8509TIP3   OH246941   5.544   0.173  16.341  0.2852  0.1301  0.0627
 8509TIP3    H146942   5.550   0.095  16.285 -1.5668 -0.3248  0.4143
 8509TIP3    H246943   5.462   0.161  16.389  1.0021  1.3220  1.6527
 8510TIP3   OH246944   6.156   1.008  15.523  0.8275  0.2931  0.4566
 8510TIP3    H146945   6.065   1.031  15.545 -0.3329  1.8023 -4.4487
 8510TIP3    H246946   6.154   0.914  15.507 -0.2237  0.4536 -0.5166
 8511TIP3   OH246947   2.456   1.479   0.440  0.1624 -0.0198 -0.2828
 8511TIP3    H146948   2.541   1.514   0.412 -1.1112  2.6995 -1.1274
 8511TIP3    H246949   2.394   1.511   0.374 -1.7760 -0.4593  1.2392
 8512TIP3   OH246950   3.455   5.314  14.088  0.3372  0.6772  0.3627
 8512TIP3    H146951   3.391   5.315  14.017  0.9580 -1.3835 -0.2951
 8512TIP3    H246952   3.404   5.336  14.166 -1.2048 -0.8769 -0.1427
 8513TIP3   OH246953   4.325   2.050   2.265 -0.1036  0.1335 -0.0595
 8513TIP3    H146954   4.245   2.099   2.246  2.2021  3.5024 -2.2173
 8513TIP3    H246955   4.361   2.091   2.344 -0.1392 -0.9239  0.5269
 8514TIP3   OH246956   1.127   0.760   5.473 -0.4045 -0.0280  0.0675
 8514TIP3    H146957   1.123   0.854   5.490  1.0436  0.0194  0.2649
 8514TIP3    H246958   1.082   0.721   5.547 -2.5049  0.5338 -0.8291
 8515TIP3   OH246959   5.004   4.442  16.140 -0.6959 -0.0076  0.1568
 8515TIP3    H146960   4.972   4.513  16.195  1.1085  0.2604  0.9107
 8515TIP3    H246961   4.969   4.362  16.182 -2.3343  0.3577 -0.4284
 8516TIP3   OH246962   0.243   3.821  13.732  0.6650 -0.3068 -0.2868
 8516TIP3    H146963   0.275   3.844  13.819  2.6809 -0.7390 -0.8778
 8516TIP3    H246964   0.304   3.864  13.672 -0.7804  0.1182 -1.5221
 8517TIP3   OH246965   3.874   5.193   0.290 -0.1624 -0.0076 -0.0917
 8517TIP3    H146966   3.798   5.225   0.337  0.0109 -1.3390  1.1988
 8517TIP3    H246967   3.942   5.258   0.306 -0.4718  0.1836  0.4601
 8518TIP3   OH246968   4.545   1.809   3.276 -0.2632 -0.5778  0.3043
 8518TIP3    H146969   4.541   1.827   3.370  0.3109 -1.2118  0.4623
 8518TIP3    H246970   4.499   1.882   3.235  0.6423  0.4123  0.9961
 8519TIP3   OH246971   3.847   5.569  12.117 -0.2099 -0.4941 -0.1174
 8519TIP3    H146972   3.844   5.479  12.086 -0.1050 -1.0257  1.3166
 8519TIP3    H246973   3.941   5.591  12.117 -0.2384 -0.3789 -0.5008
 8520TIP3   OH246974   2.365   6.344  16.714 -0.4218  0.0278  0.6882
 8520TIP3    H146975   2.329   6.433  16.714  0.2261  0.3437 -1.2802
 8520TIP3    H246976   2.306   6.295  16.771 -1.8594  1.3107  0.3940
 8521TIP3   OH246977   4.110   3.582   4.194  0.0994 -0.1522 -0.4551
 8521TIP3    H146978   4.117   3.655   4.133  0.1508  0.3333  0.1200
 8521TIP3    H246979   4.117   3.622   4.281 -2.6509 -0.4548 -0.0086
 8522TIP3   OH246980   1.268   5.370   2.287 -0.2827 -0.0653 -0.4867
 8522TIP3    H146981   1.331   5.386   2.357 -0.2202  1.3877 -0.8315
 8522TIP3    H246982   1.186   5.350   2.333  0.1846 -0.9463 -0.0270
 8523TIP3   OH246983   3.779   5.564  15.627  0.2809  0.3659 -0.6862
 8523TIP3    H146984   3.756   5.565  15.720 -1.0390  2.0063 -0.9920
 8523TIP3    H246985   3.861   5.515  15.624 -0.2281 -0.7070  1.1870
 8524TIP3   OH246986   2.810   4.686   1.075 -0.0864  0.6121 -0.3124
 8524TIP3    H146987   2.721   4.718   1.060 -0.8130 -1.5998 -1.2032
 8524TIP3    H246988   2.864   4.735   1.014 -0.9878  0.8068 -0.9758
 8525TIP3   OH246989   0.543   1.303   1.559 -0.2868  0.3490 -0.4179
 8525TIP3    H146990   0.516   1.213   1.543  0.3056 -0.0281  0.6293
 8525TIP3    H246991   0.540   1.345   1.473 -2.4757 -0.1252 -0.6357
 8526TIP3   OH246992   5.272   2.878  15.674 -0.1533 -0.0275 -0.3068
 8526TIP3    H146993   5.327   2.811  15.635  0.1282  0.1180 -0.1656
 8526TIP3    H246994   5.259   2.942  15.605 -2.3942 -1.3543 -1.2217
 8527TIP3   OH246995   6.652   4.587   2.882  0.0210 -0.0046 -0.1780
 8527TIP3    H146996   6.564   4.619   2.860  0.0158  0.0180 -0.1253
 8527TIP3    H246997   6.637   4.502   2.923  0.1086 -0.6290 -1.3968
 8528TIP3   OH246998   6.682   0.630  15.023 -0.0474  0.9381 -0.0307
 8528TIP3    H146999   6.635   0.593  14.949 -0.2185  1.8561 -0.3981
 8528TIP3    H247000   6.775   0.623  14.999 -0.0859  0.9000 -0.1674
 8529TIP3   OH247001   6.355   4.909  15.368  0.0463 -0.1912 -0.5869
 8529TIP3    H147002   6.322   4.946  15.450  1.8698  1.2724 -0.4349
 8529TIP3    H247003   6.347   4.815  15.379 -0.4124  0.0002  0.9672
 8530TIP3   OH247004   1.152   2.257   4.011 -0.1914 -0.4951 -0.1369
 8530TIP3    H147005   1.181   2.172   4.043 -1.5772 -0.0878  2.4687
 8530TIP3    H247006   1.155   2.249   3.916 -0.7287 -3.6027  0.0160
 8531TIP3   OH247007   1.953   4.353  11.995  0.3193  0.2911  0.1313
 8531TIP3    H147008   1.961   4.315  12.083 -0.5039 -0.3112 -0.0332
 8531TIP3    H247009   2.031   4.406  11.984  1.0008 -0.5552  0.7871
 8532TIP3   OH247010   4.204   1.440   5.345  0.1229 -0.0478  0.2223
 8532TIP3    H147011   4.130   1.500   5.336  1.2761  1.0758 -3.7103
 8532TIP3    H247012   4.165   1.353   5.339 -1.0449  0.4427  0.3165
 8533TIP3   OH247013   3.249   2.505   0.668 -0.7326 -0.2714  0.1423
 8533TIP3    H147014   3.274   2.414   0.681 -2.1341 -0.7752 -0.4108
 8533TIP3    H247015   3.307   2.537   0.599 -0.7935 -1.0215 -0.2708
 8534TIP3   OH247016   2.561   1.711   0.986  0.4400 -0.2663  0.2090
 8534TIP3    H147017   2.542   1.636   0.930 -0.1331  0.5704 -0.7568
 8534TIP3    H247018   2.476   1.755   0.997  0.6838 -0.0087  1.1242
 8535TIP3   OH247019   1.989   5.981  13.079 -0.4708  0.8149 -0.2228
 8535TIP3    H147020   2.010   6.046  13.012  0.1616  1.0769  0.2219
 8535TIP3    H247021   1.900   6.004  13.107 -0.9798  0.3207 -1.3952
 8536TIP3   OH247022   6.763   1.360   4.390 -0.7671  0.1154 -0.1837
 8536TIP3    H147023   6.690   1.298   4.382 -0.0121 -0.8957  0.5692
 8536TIP3    H247024   6.730   1.427   4.449 -1.2459 -0.0924 -0.2079
 8537TIP3   OH247025   5.007   6.190  11.678  0.4558 -0.1021  0.4715
 8537TIP3    H147026   5.019   6.206  11.584  2.1685 -0.4895  0.5930
 8537TIP3    H247027   5.032   6.272  11.720  0.0477 -0.0461  0.6060
 8538TIP3   OH247028   2.307   4.647  16.733  0.2227  0.0787 -0.0718
 8538TIP3    H147029   2.354   4.641  16.816 -1.0042  0.2472  0.6496
 8538TIP3    H247030   2.226   4.693  16.754 -0.6079 -0.8251 -1.1422
 8539TIP3   OH247031   6.127   0.991   4.215 -0.3236  0.0149 -0.2370
 8539TIP3    H147032   6.199   1.033   4.169  0.5692 -1.0371  0.1556
 8539TIP3    H247033   6.169   0.928   4.273 -1.4721  0.4698  1.1616
 8540TIP3   OH247034   2.042   0.838  16.126  0.0736  0.1664 -0.0287
 8540TIP3    H147035   1.974   0.846  16.059 -0.1935  0.2005  0.2410
 8540TIP3    H247036   1.993   0.829  16.208  0.3936  1.1123  0.2757
 8541TIP3   OH247037   5.502   3.129   3.965  0.2475 -0.0894 -0.3810
 8541TIP3    H147038   5.456   3.209   3.987 -1.2438 -1.3750  1.4554
 8541TIP3    H247039   5.491   3.072   4.041  2.6692 -1.4602 -0.9264
 8542TIP3   OH247040   0.345   4.701  14.737  0.7479  0.2801 -0.5925
 8542TIP3    H147041   0.416   4.692  14.673 -0.0645  0.9080 -1.6238
 8542TIP3    H247042   0.320   4.611  14.759  1.2083  0.0600 -0.9605
 8543TIP3   OH247043   4.665   0.904   1.654 -0.8697  0.6349  0.1772
 8543TIP3    H147044   4.717   0.856   1.719  2.1345  1.2606 -1.5883
 8543TIP3    H247045   4.704   0.992   1.652 -1.5190  0.9259 -1.7363
 8544TIP3   OH247046   6.769   2.570   1.688 -0.0110 -0.0739  0.4364
 8544TIP3    H147047   6.767   2.494   1.629 -0.9828  0.4323 -0.2058
 8544TIP3    H247048   6.839   2.549   1.750 -0.6424 -1.7602  0.6434
 8545TIP3   OH247049   2.627   2.668  15.654  0.1587  0.1729 -0.0797
 8545TIP3    H147050   2.604   2.739  15.713 -1.3849  0.3385 -0.8392
 8545TIP3    H247051   2.640   2.592  15.711 -0.2450  0.5797  0.5637
 8546TIP3   OH247052   6.756   1.058   1.383  0.6494  0.3621 -0.1382
 8546TIP3    H147053   6.742   1.150   1.404  1.8181 -0.1968  4.0706
 8546TIP3    H247054   6.816   1.058   1.309  1.6156  3.0507  0.5534
 8547TIP3   OH247055   1.619   1.421   5.694  0.2498  0.2059  0.0751
 8547TIP3    H147056   1.648   1.466   5.773  0.2904  0.8926 -0.3189
 8547TIP3    H247057   1.700   1.405   5.645  0.1091  0.9178 -0.4043
 8548TIP3   OH247058   2.347   5.996  16.215  0.6119 -0.2756  0.3498
 8548TIP3    H147059   2.440   6.001  16.191  0.2765  0.1682 -0.9445
 8548TIP3    H247060   2.346   5.947  16.297  1.7833 -2.6300 -0.9483
 8549TIP3   OH247061   0.579   2.740  10.565 -0.6721  0.4531  0.2151
 8549TIP3    H147062   0.524   2.816  10.543 -2.5284 -0.8376  0.1835
 8549TIP3    H247063   0.589   2.744  10.660 -0.8595  0.6641  0.2278
 8550TIP3   OH247064   0.513   6.714  11.503 -0.3809 -0.2389  0.3892
 8550TIP3    H147065   0.476   6.708  11.415 -0.9691 -0.2328  0.6353
 8550TIP3    H247066   0.572   6.790  11.498 -3.2119  2.1731  0.9837
 8551TIP3   OH247067   1.288   0.651  15.026  0.0454 -0.1883 -0.1022
 8551TIP3    H147068   1.254   0.589  15.090  2.8646 -0.5549  1.2140
 8551TIP3    H247069   1.361   0.695  15.071 -0.4343  2.5253 -1.7309
 8552TIP3   OH247070   3.467   6.621   1.090  0.1852  0.5411  0.1963
 8552TIP3    H147071   3.419   6.578   1.161 -0.9144  0.0828 -0.7990
 8552TIP3    H247072   3.508   6.550   1.042 -0.3854  0.7148 -0.5586
 8553TIP3   OH247073   6.364   6.048  13.459  0.4962 -0.3004  0.3584
 8553TIP3    H147074   6.282   6.004  13.483 -0.8298  2.7612  2.1808
 8553TIP3    H247075   6.336   6.122  13.404  1.9285  1.0042  1.2989
 8554TIP3   OH247076   4.828   2.320   5.458 -0.0844 -0.1440  0.6921
 8554TIP3    H147077   4.754   2.267   5.487 -2.0334  0.4161 -2.7780
 8554TIP3    H247078   4.864   2.274   5.383  1.3594  1.0065  0.6237
 8555TIP3   OH247079   1.581   3.531  15.187 -0.3198 -0.0986 -0.5571
 8555TIP3    H147080   1.542   3.496  15.108  1.8472 -1.4955 -1.0914
 8555TIP3    H247081   1.622   3.613  15.160  0.5446 -0.6487 -0.9279
 8556TIP3   OH247082   0.749   5.349   1.893 -1.0562  0.0815  0.5618
 8556TIP3    H147083   0.689   5.275   1.905 -2.5789  0.9252 -1.3110
 8556TIP3    H247084   0.790   5.333   1.808  0.6410  0.0645  1.3452
 8557TIP3   OH247085   4.781   1.669  16.649 -0.7939  0.2130 -0.4014
 8557TIP3    H147086   4.822   1.719  16.578 -0.8639  0.5072 -0.2392
 8557TIP3    H247087   4.720   1.610  16.606  0.1238 -0.5627 -0.6906
 8558TIP3   OH247088   0.691   4.406   2.499 -0.1960  0.5049 -0.6066
 8558TIP3    H147089   0.668   4.490   2.460  0.1651  0.5955 -0.6268
 8558TIP3    H247090   0.678   4.420   2.593  0.6212  0.8327 -0.5335
 8559TIP3   OH247091   5.017   4.107  14.713  0.4441  0.0860  0.3963
 8559TIP3    H147092   5.013   4.197  14.681  0.5870  0.1529  0.5660
 8559TIP3    H247093   5.110   4.093  14.733  0.7989 -0.7714 -1.5867
 8560TIP3   OH247094   2.136   0.806  17.156 -0.0703  0.2614  0.0549
 8560TIP3    H147095   2.223   0.846  17.148 -0.8428  1.5908 -2.9351
 8560TIP3    H247096   2.131   0.744  17.084 -2.2253  1.6471 -1.1200
 8561TIP3   OH247097   6.410   0.944  12.406 -0.5720 -0.0652  0.8659
 8561TIP3    H147098   6.451   1.015  12.356 -1.6801  0.8564  1.2389
 8561TIP3    H247099   6.469   0.869  12.393  0.8473  1.0183  0.8080
 8562TIP3   OH247100   3.324   1.086  12.652  0.0849 -0.6937 -0.4407
 8562TIP3    H147101   3.317   1.160  12.712  0.3817 -0.0278 -1.2029
 8562TIP3    H247102   3.236   1.051  12.647 -0.2689  0.2106 -0.7993
 8563TIP3   OH247103   0.062   4.133   1.016  0.1358 -0.0939 -0.5176
 8563TIP3    H147104  -0.030   4.162   1.017  0.1171 -0.1588  0.7023
 8563TIP3    H247105   0.058   4.041   1.043  0.6833  0.3471  1.1980
 8564TIP3   OH247106   3.545   1.154   5.687 -0.4628 -0.1226  0.2512
 8564TIP3    H147107   3.493   1.231   5.662 -2.3299 -1.5376 -0.4475
 8564TIP3    H247108   3.480   1.089   5.714  0.9101 -2.0964 -0.9402
 8565TIP3   OH247109   4.900   3.461  16.756 -0.1898 -0.4023 -0.1146
 8565TIP3    H147110   4.861   3.528  16.700  0.0677 -0.3586 -0.2404
 8565TIP3    H247111   4.869   3.378  16.719  0.7977 -0.4172 -0.9480
 8566TIP3   OH247112   3.045   5.755  12.875 -0.5808  0.2242  0.1989
 8566TIP3    H147113   2.952   5.746  12.896 -0.6031  3.0121  1.6683
 8566TIP3    H247114   3.089   5.756  12.960  0.9940 -1.9864 -0.4826
 8567TIP3   OH247115   3.271   0.707  12.078 -0.1750 -0.2207 -0.5880
 8567TIP3    H147116   3.227   0.786  12.107  0.3809  0.3015 -1.1448
 8567TIP3    H247117   3.269   0.649  12.154  2.9043  1.7681  1.2120
 8568TIP3   OH247118   6.085   2.031  15.342 -0.2681  0.5733  0.0420
 8568TIP3    H147119   6.072   1.984  15.424  0.0860 -0.6782 -0.5973
 8568TIP3    H247120   6.179   2.034  15.330 -0.3265  0.4065 -0.5002
 8569TIP3   OH247121   3.529   4.667  16.705  0.3833 -0.2805  0.0163
 8569TIP3    H147122   3.486   4.639  16.786  0.0165 -1.1862 -0.4710
 8569TIP3    H247123   3.620   4.682  16.731 -0.3596  2.6378  1.2749
 8570TIP3   OH247124   3.672   6.562   2.239 -0.0328 -0.3566 -0.5930
 8570TIP3    H147125   3.765   6.571   2.259 -0.0857 -0.6458 -0.1950
 8570TIP3    H247126   3.634   6.646   2.265 -0.1756 -0.8758  1.0102
 8571TIP3   OH247127   1.456   6.089   4.570 -0.4795  0.2902 -0.0250
 8571TIP3    H147128   1.430   6.178   4.549 -1.7807 -0.3499 -1.3037
 8571TIP3    H247129   1.403   6.066   4.647 -0.3817  0.4855  0.1034
 8572TIP3   OH247130   1.270   1.394   2.183  0.0592 -0.0282 -0.3287
 8572TIP3    H147131   1.332   1.406   2.112 -0.6865 -1.3929 -1.2453
 8572TIP3    H247132   1.206   1.331   2.150 -0.5646 -0.3668  1.3947
 8573TIP3   OH247133   1.964   4.256   0.932 -0.3395  0.5247  0.2913
 8573TIP3    H147134   2.054   4.238   0.904 -1.0355 -0.3293 -1.5931
 8573TIP3    H247135   1.923   4.170   0.939 -1.5144  0.9539 -0.7952
 8574TIP3   OH247136   6.162   4.237   3.704 -0.0457  0.5359  0.2696
 8574TIP3    H147137   6.256   4.248   3.694 -0.1974  1.0450 -0.6564
 8574TIP3    H247138   6.150   4.219   3.797  1.1791 -1.7558  0.0593
 8575TIP3   OH247139   2.739   3.933  15.376 -0.2640  0.0523  0.8238
 8575TIP3    H147140   2.672   3.871  15.405 -0.3990 -0.0137  0.3778
 8575TIP3    H247141   2.701   3.976  15.300  0.3194 -0.2111  0.3769
 8576TIP3   OH247142   1.125   3.813   2.024  0.2004 -0.0467 -0.1722
 8576TIP3    H147143   1.085   3.829   1.939  0.3461  0.7846 -0.0907
 8576TIP3    H247144   1.167   3.896   2.047  1.1447 -0.6078  0.1831
 8577TIP3   OH247145   0.009   6.605  14.591  0.6064  0.3080  0.0806
 8577TIP3    H147146  -0.084   6.586  14.601  0.7585 -1.7556 -1.7024
 8577TIP3    H247147   0.019   6.696  14.620 -1.8069  0.3465  0.9867
 8578TIP3   OH247148   3.034   6.265  11.116 -0.3940 -0.0595  0.1342
 8578TIP3    H147149   2.948   6.280  11.076 -0.3517 -2.0813 -0.7924
 8578TIP3    H247150   3.029   6.177  11.152  1.2060 -0.0844  0.3615
 8579TIP3   OH247151   0.958   5.553  17.091  0.3994 -0.1248  0.1897
 8579TIP3    H147152   1.010   5.626  17.125 -0.4279  0.9826 -0.8156
 8579TIP3    H247153   1.020   5.500  17.042  0.7068  0.8887 -0.5525
 8580TIP3   OH247154   4.880   5.559  16.678  0.0423 -0.6944  0.6018
 8580TIP3    H147155   4.881   5.653  16.693 -0.1101 -0.7495  0.9690
 8580TIP3    H247156   4.813   5.526  16.738 -1.7903 -0.7365 -1.3447
 8581TIP3   OH247157   3.391   0.938   5.670 -0.2273  0.3015 -0.4964
 8581TIP3    H147158   3.355   0.975   5.589 -0.6301 -0.5376 -0.7087
 8581TIP3    H247159   3.443   0.863   5.641 -1.1183 -0.5598  0.0903
 8582TIP3   OH247160   6.634   2.515   1.327  0.5899  0.1500 -0.1950
 8582TIP3    H147161   6.605   2.583   1.266 -1.0188  1.2514  1.6961
 8582TIP3    H247162   6.726   2.500   1.303  0.8060  2.4948 -1.1496
 8583TIP3   OH247163   3.787   1.657   2.775 -0.3977 -0.0346 -0.2050
 8583TIP3    H147164   3.875   1.647   2.812 -0.7641 -0.8846  0.4610
 8583TIP3    H247165   3.737   1.584   2.812 -1.2750  0.1975 -0.9073
 8584TIP3   OH247166   4.365   1.139   1.875  0.4172 -0.4491  0.1774
 8584TIP3    H147167   4.349   1.231   1.896  0.1526 -0.2223 -0.9904
 8584TIP3    H247168   4.290   1.093   1.912  0.4230 -0.1716  0.5407
 8585TIP3   OH247169   0.735   5.288   0.504  0.1039  0.1748 -0.0548
 8585TIP3    H147170   0.695   5.261   0.422  1.0193 -1.2402 -0.0657
 8585TIP3    H247171   0.743   5.208   0.555  1.5785  0.6463  0.5209
 8586TIP3   OH247172   5.353   4.053   5.210 -0.4957  0.5717 -0.0016
 8586TIP3    H147173   5.267   4.011   5.203 -0.2215 -0.6220  2.6623
 8586TIP3    H247174   5.359   4.083   5.301  3.0318 -2.2406  0.9480
 8587TIP3   OH247175   3.476   6.105   4.451  0.1583 -0.7578 -0.7255
 8587TIP3    H147176   3.516   6.054   4.522 -1.2961  1.3143  1.7389
 8587TIP3    H247177   3.393   6.060   4.434 -0.8599  0.3365  1.0488
 8588TIP3   OH247178   6.383   3.728   3.908  0.4709  0.2131 -0.2336
 8588TIP3    H147179   6.356   3.819   3.915  0.2896  0.2869 -1.5720
 8588TIP3    H247180   6.345   3.685   3.985 -0.7070  0.9704 -0.3668
 8589TIP3   OH247181   4.245   1.273  14.231  0.5039  1.2133 -0.2367
 8589TIP3    H147182   4.159   1.308  14.207  1.2689  2.6634 -0.9461
 8589TIP3    H247183   4.283   1.243  14.148 -0.5089 -2.4488  0.4073
 8590TIP3   OH247184   2.949   3.675   3.798  0.3252 -0.3659 -0.1401
 8590TIP3    H147185   3.028   3.633   3.830 -0.9300 -0.7244  2.7982
 8590TIP3    H247186   2.882   3.652   3.861 -2.3572 -0.6541 -2.8594
 8591TIP3   OH247187   2.247   2.059   5.260 -0.3543 -0.3287  0.5013
 8591TIP3    H147188   2.234   1.965   5.275  2.4741 -0.8980  0.0752
 8591TIP3    H247189   2.238   2.070   5.165 -0.1488 -0.2955  0.4837
 8592TIP3   OH247190   0.124   3.905   3.441 -0.4441  0.4810  0.2278
 8592TIP3    H147191   0.105   3.950   3.359  0.0953  1.7127  0.7496
 8592TIP3    H247192   0.219   3.911   3.451 -0.4703  0.0887  0.8040
 8593TIP3   OH247193   6.252   6.712  14.738  0.3857  1.1184 -0.4158
 8593TIP3    H147194   6.336   6.708  14.783  0.7292 -0.2330 -1.1074
 8593TIP3    H247195   6.187   6.719  14.808  1.0329  1.3699  0.1663
 8594TIP3   OH247196   3.934   3.677  11.976 -0.6599  0.1330  0.2668
 8594TIP3    H147197   4.010   3.686  12.034  1.3139 -0.7175 -2.0119
 8594TIP3    H247198   3.918   3.583  11.971 -2.2697  0.3294  1.1464
 8595TIP3   OH247199   1.858   2.105   1.351 -0.0604 -0.4296 -0.4497
 8595TIP3    H147200   1.857   2.096   1.256 -2.1661 -2.0343 -0.3574
 8595TIP3    H247201   1.882   2.018   1.383 -1.4208 -0.4922  0.4811
 8596TIP3   OH247202   4.485   1.866   3.547  0.1572  0.3593  0.4740
 8596TIP3    H147203   4.520   1.945   3.588  0.4914 -0.4023  1.6995
 8596TIP3    H247204   4.452   1.814   3.620  1.0978 -1.2113 -0.1811
 8597TIP3   OH247205   4.652   1.962   2.213  0.5581 -0.2879 -0.4228
 8597TIP3    H147206   4.582   1.995   2.156  1.8819  0.4664 -1.6553
 8597TIP3    H247207   4.607   1.940   2.295 -0.8913  1.6559 -0.6317
 8598TIP3   OH247208   6.229   4.354  11.715 -0.0655 -0.3056  0.1941
 8598TIP3    H147209   6.199   4.350  11.806 -2.2719  0.7185 -0.4251
 8598TIP3    H247210   6.182   4.282  11.672  0.8613 -0.6988 -0.1764
 8599TIP3   OH247211   4.282   2.290  12.494 -0.1517 -0.8344  0.2591
 8599TIP3    H147212   4.259   2.303  12.586  0.7229  0.1214  0.3651
 8599TIP3    H247213   4.203   2.312  12.446 -0.1677  0.1702  0.7163
 8600TIP3   OH247214   6.797   4.318  11.687 -0.2234 -0.0392 -0.7072
 8600TIP3    H147215   6.715   4.353  11.654 -0.3204 -0.3275 -0.7795
 8600TIP3    H247216   6.865   4.371  11.645 -0.3948  1.5174  0.8671
 8601TIP3   OH247217   4.142   6.404   1.645  0.3720  0.5202 -0.4283
 8601TIP3    H147218   4.092   6.358   1.578 -0.1385 -0.5764  0.6778
 8601TIP3    H247219   4.076   6.454   1.693  0.3028 -0.8533  0.9722
 8602TIP3   OH247220   0.036   3.100   0.290 -0.6213  0.4779 -0.4239
 8602TIP3    H147221   0.107   3.148   0.332 -0.3538  0.5126 -0.9048
 8602TIP3    H247222   0.062   3.008   0.295 -0.5201  0.4936 -0.6334
 8603TIP3   OH247223   1.665   1.066   2.514 -0.0783 -0.2562  0.0904
 8603TIP3    H147224   1.665   1.055   2.419 -0.1235 -2.0940  0.2622
 8603TIP3    H247225   1.749   1.110   2.533  0.3064 -0.6173 -0.7300
 8604TIP3   OH247226   5.655   6.649  14.598  0.2355 -0.3384 -0.5609
 8604TIP3    H147227   5.736   6.669  14.646  0.0111  0.2844 -0.4312
 8604TIP3    H247228   5.589   6.704  14.640 -0.3744 -1.2338 -0.3144
 8605TIP3   OH247229   2.600   3.555  11.986  0.0777  0.0240 -0.4218
 8605TIP3    H147230   2.674   3.612  11.967  1.7734 -1.2417  1.8820
 8605TIP3    H247231   2.585   3.507  11.905  1.6514  0.4482 -0.9953
 8606TIP3   OH247232   2.492   5.723  14.547  0.0421 -0.2243 -0.5663
 8606TIP3    H147233   2.439   5.644  14.539 -0.6195  0.3298 -2.0278
 8606TIP3    H247234   2.458   5.768  14.625 -0.9683 -0.3767 -0.9124
 8607TIP3   OH247235   3.858   5.802  12.269 -0.2133  0.2754  0.2522
 8607TIP3    H147236   3.821   5.740  12.206  0.4228  1.4159 -1.3280
 8607TIP3    H247237   3.948   5.814  12.240 -0.1251  1.3737  0.9435
 8608TIP3   OH247238   6.630   5.498  10.853  0.0457  0.3423 -0.3114
 8608TIP3    H147239   6.612   5.407  10.833 -0.6351  0.5619 -0.7309
 8608TIP3    H247240   6.559   5.547  10.810  1.7978  1.2856 -2.3093
 8609TIP3   OH247241   4.975   4.847   4.863  0.3337 -0.4715  0.1881
 8609TIP3    H147242   4.986   4.794   4.942  0.0525  0.0748  0.6011
 8609TIP3    H247243   5.064   4.869   4.836  0.4113  0.1695  0.9283
 8610TIP3   OH247244   2.645   4.217  16.787  0.2056  0.5181 -0.5618
 8610TIP3    H147245   2.564   4.260  16.762 -0.1976  1.2477  1.7888
 8610TIP3    H247246   2.626   4.123  16.776 -1.0374  0.6651  0.1664
 8611TIP3   OH247247   5.315   6.215  17.148  0.0503 -0.7288  0.6048
 8611TIP3    H147248   5.328   6.217  17.243  0.9904  0.6757  0.4765
 8611TIP3    H247249   5.259   6.139  17.134  0.5768 -1.4761  2.2023
 8612TIP3   OH247250   1.962   2.699  13.179 -0.3800  0.5854  0.9133
 8612TIP3    H147251   1.881   2.742  13.149 -1.3639 -1.9355 -0.3516
 8612TIP3    H247252   1.955   2.699  13.274 -3.0092 -1.3731  0.8494
 8613TIP3   OH247253   3.395   1.823   5.424  0.2423  1.2380 -0.6360
 8613TIP3    H147254   3.464   1.831   5.359  1.1138 -0.7148 -0.0208
 8613TIP3    H247255   3.438   1.784   5.501 -1.3946  0.5623 -0.0141
 8614TIP3   OH247256   1.660   6.465  14.202  0.2337 -0.1617 -0.1168
 8614TIP3    H147257   1.700   6.535  14.150 -0.1845 -0.3032 -0.6387
 8614TIP3    H247258   1.692   6.384  14.162 -3.2125 -0.3978 -2.8327
 8615TIP3   OH247259   2.205   2.160  12.117 -0.4763 -0.3347  0.4037
 8615TIP3    H147260   2.176   2.081  12.072 -0.6176 -0.3786  0.5695
 8615TIP3    H247261   2.249   2.128  12.196  1.8582 -0.3687 -0.8168
 8616TIP3   OH247262   0.996   2.896  13.640  0.5354 -0.7527  0.2339
 8616TIP3    H147263   0.994   2.873  13.547  0.6758  1.1076 -0.2553
 8616TIP3    H247264   1.089   2.894  13.663  0.5449 -0.6978  0.2001
 8617TIP3   OH247265   1.447   0.206  13.354 -0.0968 -0.3403  0.3140
 8617TIP3    H147266   1.451   0.114  13.379 -0.2985 -0.9123 -1.5670
 8617TIP3    H247267   1.510   0.250  13.410  0.6490 -1.7822  0.6429
 8618TIP3   OH247268   0.225   1.728   4.055  0.1335 -0.1012 -0.4415
 8618TIP3    H147269   0.220   1.804   4.113 -0.6127 -0.9157  0.5990
 8618TIP3    H247270   0.188   1.758   3.972 -1.5385  0.2663  0.4117
 8619TIP3   OH247271   1.477   3.939  14.146 -0.1429  0.5038  0.1387
 8619TIP3    H147272   1.464   3.844  14.145  1.9933  0.1795  0.3152
 8619TIP3    H247273   1.557   3.954  14.096 -0.5314  2.2600 -0.0512
 8620TIP3   OH247274   6.426   6.669   0.387  0.4306  0.4743  0.2772
 8620TIP3    H147275   6.483   6.620   0.328  0.4335  0.7661  0.0344
 8620TIP3    H247276   6.427   6.619   0.469  0.5397  0.1447  0.0758
 8621TIP3   OH247277   3.652   2.439   2.977 -0.4209  0.0237  0.0202
 8621TIP3    H147278   3.717   2.462   3.043  0.2861 -0.0848 -0.6172
 8621TIP3    H247279   3.690   2.471   2.895  0.2426 -2.6209 -0.8055
 8622TIP3   OH247280   2.772   4.948   2.885  0.1574 -0.1685 -0.6890
 8622TIP3    H147281   2.760   4.854   2.875  0.4723 -0.4167  0.9020
 8622TIP3    H247282   2.707   4.987   2.827 -1.4975 -1.3993  0.2368
 8623TIP3   OH247283   4.797   5.527  12.692  0.6135  0.1244  0.0568
 8623TIP3    H147284   4.840   5.553  12.610  1.4713  1.3675  0.8700
 8623TIP3    H247285   4.867   5.487  12.744  0.1959 -0.1598  0.4044
 8624TIP3   OH247286   4.255   1.958  16.203  0.4374 -1.0370 -0.5033
 8624TIP3    H147287   4.321   1.891  16.183  0.6890 -0.9391 -0.0026
 8624TIP3    H247288   4.295   2.012  16.271 -1.1842 -2.6090  1.8445
 8625TIP3   OH247289   4.057   6.779  16.530 -0.3218 -0.3134  0.5995
 8625TIP3    H147290   4.142   6.778  16.485 -0.0413  1.8803  0.9552
 8625TIP3    H247291   4.046   6.690  16.563  0.5872 -1.3685 -1.7065
 8626TIP3   OH247292   3.644   3.276   0.628 -0.5527  0.1206 -0.3283
 8626TIP3    H147293   3.677   3.302   0.714 -0.6062 -1.5172  0.2232
 8626TIP3    H247294   3.623   3.358   0.584  1.5617  1.0954  0.3673
 8627TIP3   OH247295   5.292   1.435  14.904 -0.1612  0.2032  0.4824
 8627TIP3    H147296   5.251   1.349  14.898 -0.7592  0.4659  0.6756
 8627TIP3    H247297   5.247   1.477  14.978 -0.5568  1.0341 -0.2170
 8628TIP3   OH247298   0.273   4.453   0.166 -0.0888  0.1812  0.4906
 8628TIP3    H147299   0.200   4.506   0.199 -0.6179  0.1127 -0.5262
 8628TIP3    H247300   0.253   4.439   0.073  1.2306  0.1705  0.1822
 8629TIP3   OH247301   0.409   4.621   0.697  0.6682 -0.7975  0.0151
 8629TIP3    H147302   0.334   4.609   0.755  0.6973  0.3249  0.3093
 8629TIP3    H247303   0.410   4.543   0.643 -1.1165 -0.5407 -0.4456
 8630TIP3   OH247304   1.138   6.654   1.414 -0.6761  0.0103 -0.0923
 8630TIP3    H147305   1.135   6.603   1.495 -1.9156  1.1057  0.5986
 8630TIP3    H247306   1.230   6.657   1.390 -0.5776 -2.8478 -0.3968
 8631TIP3   OH247307   2.698   0.257   0.551  0.1433  0.2366 -0.3480
 8631TIP3    H147308   2.757   0.189   0.585  0.7854  1.0028  0.1118
 8631TIP3    H247309   2.638   0.274   0.623  0.7911  1.0519  0.0211
 8632TIP3   OH247310   3.524   5.509   1.899 -0.0969  0.3758  0.5303
 8632TIP3    H147311   3.508   5.416   1.882 -3.2434  1.0458 -1.0458
 8632TIP3    H247312   3.563   5.511   1.986  0.1985 -2.4050  0.5804
 8633TIP3   OH247313   6.309   2.830   0.275  0.2191 -0.5383 -0.5975
 8633TIP3    H147314   6.312   2.737   0.294  0.2669 -0.6162 -0.9655
 8633TIP3    H247315   6.386   2.846   0.219  1.6070  0.1874  1.4189
 8634TIP3   OH247316   3.626   4.377  17.022  0.2754 -0.3031  0.9437
 8634TIP3    H147317   3.545   4.360  16.973  1.0477  0.3586 -0.6366
 8634TIP3    H247318   3.598   4.431  17.096 -0.4252  2.4143 -1.1448
 8635TIP3   OH247319   2.578   4.045   2.674 -0.1487  0.2181  0.0115
 8635TIP3    H147320   2.537   3.975   2.725 -1.1550 -0.6917 -1.9245
 8635TIP3    H247321   2.672   4.028   2.681 -0.2885 -0.1987  1.0849
 8636TIP3   OH247322   5.517   4.181   0.063 -0.0429  0.3704  0.1548
 8636TIP3    H147323   5.489   4.264   0.024  1.2386  0.2878 -1.0103
 8636TIP3    H247324   5.539   4.204   0.154 -1.4243  0.9145  0.3843
 8637TIP3   OH247325   3.915   3.870  13.785  0.0827 -0.4547  0.2852
 8637TIP3    H147326   3.924   3.775  13.797  1.0154 -0.5836 -1.1372
 8637TIP3    H247327   3.866   3.878  13.703 -0.2709  0.2999  0.5665
 8638TIP3   OH247328   4.337   3.972   6.889  0.3729  0.1196 -0.5932
 8638TIP3    H147329   4.257   4.021   6.875  0.3409 -0.2139 -1.6670
 8638TIP3    H247330   4.393   4.031   6.940 -0.9436 -0.0617  1.1169
 8639TIP3   OH247331   3.600   0.002  12.864  0.2185 -0.3490 -0.0360
 8639TIP3    H147332   3.674   0.062  12.877  0.8264 -0.9786 -0.4947
 8639TIP3    H247333   3.533   0.033  12.925  0.8077  0.3279  0.2837
 8640TIP3   OH247334   2.622   2.557  12.960  0.0442 -0.3569  0.0604
 8640TIP3    H147335   2.690   2.494  12.936 -0.4066 -1.1844  0.9144
 8640TIP3    H247336   2.545   2.530  12.910  0.5369  1.1359 -1.6398
 8641TIP3   OH247337   1.774   0.173   3.981  0.0773 -0.3870  0.0907
 8641TIP3    H147338   1.708   0.185   3.913  0.5574  0.8749 -0.1763
 8641TIP3    H247339   1.734   0.210   4.060  1.1092  2.1411 -0.4744
 8642TIP3   OH247340   2.922   6.617   1.543 -0.0269  0.7183  0.2742
 8642TIP3    H147341   2.925   6.657   1.456  0.8951  0.9395  0.3979
 8642TIP3    H247342   3.002   6.566   1.549  0.2496  1.2472  1.2459
 8643TIP3   OH247343   3.132   3.995  16.581 -0.4087  0.2394 -0.6969
 8643TIP3    H147344   3.112   4.037  16.665  0.1648 -1.5945  0.4065
 8643TIP3    H247345   3.047   3.980  16.540 -0.9737 -1.8172  1.0815
 8644TIP3   OH247346   1.187   3.868  16.272  0.2413 -0.2005  0.1919
 8644TIP3    H147347   1.135   3.918  16.209  0.7388  0.7922  0.5474
 8644TIP3    H247348   1.124   3.811  16.315 -0.3147 -0.0044 -0.3470
 8645TIP3   OH247349   5.739   5.120   4.386 -0.2381  0.3544 -0.1237
 8645TIP3    H147350   5.681   5.108   4.461 -0.7175  0.3579 -0.4818
 8645TIP3    H247351   5.797   5.045   4.388  0.6952  1.0736  1.0593
 8646TIP3   OH247352   2.654   4.178   4.867  0.0667  0.3688  0.0218
 8646TIP3    H147353   2.695   4.117   4.805 -0.4831  1.2403 -1.2395
 8646TIP3    H247354   2.726   4.205   4.924  0.7686  0.1398 -0.7318
 8647TIP3   OH247355   0.493   5.768   2.434  0.1521 -0.6536  0.2470
 8647TIP3    H147356   0.581   5.770   2.396 -0.1488 -1.2146 -0.5137
 8647TIP3    H247357   0.456   5.685   2.404 -0.1653 -1.0604  1.6659
 8648TIP3   OH247358   5.005   2.902  14.090 -0.0273  0.0263 -0.7884
 8648TIP3    H147359   4.977   2.851  14.166  2.5656 -1.6312 -0.8441
 8648TIP3    H247360   4.932   2.896  14.029 -0.5522 -2.0096 -0.0290
 8649TIP3   OH247361   0.722   3.382  15.846  0.2102  0.3676 -0.7286
 8649TIP3    H147362   0.786   3.442  15.884 -0.0061 -0.6207  1.3399
 8649TIP3    H247363   0.659   3.366  15.917 -1.0874 -0.4230 -1.9966
 8650TIP3   OH247364   3.250   2.787   5.490  0.1801  0.4509  0.6789
 8650TIP3    H147365   3.177   2.737   5.453 -0.1978  1.2405  0.3320
 8650TIP3    H247366   3.325   2.762   5.437  0.1024 -0.1109  0.8214
 8651TIP3   OH247367   1.135   0.153  12.863 -0.1095  0.0576  0.5033
 8651TIP3    H147368   1.057   0.189  12.904  0.8046  1.2433  1.2619
 8651TIP3    H247369   1.197   0.141  12.935  0.8621  0.3691 -0.2518
 8652TIP3   OH247370   0.796   3.893   6.112 -0.0713 -0.2622 -0.6306
 8652TIP3    H147371   0.839   3.919   6.031  0.2170  1.7322  0.1092
 8652TIP3    H247372   0.709   3.934   6.107 -0.0014 -0.0099  0.1174
 8653TIP3   OH247373   2.099   5.025   0.651 -0.1404 -0.0097 -0.5983
 8653TIP3    H147374   2.070   4.935   0.664  1.4295 -0.3061  1.3281
 8653TIP3    H247375   2.027   5.067   0.603 -1.1950 -2.0814 -0.9310
 8654TIP3   OH247376   5.638   0.550  13.252  0.0141  0.1270 -1.1480
 8654TIP3    H147377   5.719   0.525  13.296 -0.1845 -0.8725 -1.3375
 8654TIP3    H247378   5.639   0.646  13.252  0.7715  0.1235 -0.3793
 8655TIP3   OH247379   4.915   2.781   2.963  0.4837 -0.3561  0.4420
 8655TIP3    H147380   4.908   2.765   2.869  1.2264 -0.3242  0.3714
 8655TIP3    H247381   4.928   2.875   2.971  1.0648 -0.4375  0.5268
 8656TIP3   OH247382   3.517   4.258   4.708 -0.1749 -0.0303  0.1489
 8656TIP3    H147383   3.433   4.294   4.680 -1.4344 -2.3816  0.6931
 8656TIP3    H247384   3.540   4.194   4.641  1.3763  0.8149 -0.1609
 8657TIP3   OH247385   6.126   2.322  15.757  0.6896 -0.2754 -0.1353
 8657TIP3    H147386   6.154   2.413  15.763  1.4800 -0.5328  0.2944
 8657TIP3    H247387   6.059   2.313  15.825 -2.3096  0.9499 -2.7029
 8658TIP3   OH247388   4.994   2.930   3.581  0.8104 -0.2918 -0.0183
 8658TIP3    H147389   4.963   2.851   3.625 -2.2137  0.4887 -0.5696
 8658TIP3    H247390   4.997   2.996   3.650  0.5495 -0.1961 -0.0978
 8659TIP3   OH247391   4.853   4.128   5.363  0.1064 -0.1885 -0.2887
 8659TIP3    H147392   4.808   4.206   5.395  0.1616  0.1323 -0.9743
 8659TIP3    H247393   4.799   4.055   5.394 -0.9234  0.1890 -1.1239
 8660TIP3   OH247394   4.202   4.967  12.447 -0.1585  0.1939 -0.2501
 8660TIP3    H147395   4.190   5.025  12.523  1.2583 -1.3430  1.2467
 8660TIP3    H247396   4.288   4.990  12.413  0.5460 -1.1380  0.5337
 8661TIP3   OH247397   5.428   4.922  12.370  0.5033  0.1717  0.0187
 8661TIP3    H147398   5.343   4.928  12.326  0.8058 -1.8939 -0.9678
 8661TIP3    H247399   5.475   5.001  12.343 -0.5149  0.5460 -0.7222
 8662TIP3   OH247400   0.664   3.478  11.946 -0.0815 -0.1546 -0.1826
 8662TIP3    H147401   0.590   3.538  11.947 -0.1028 -0.1625  1.8750
 8662TIP3    H247402   0.706   3.489  12.031  1.7874 -0.7757 -0.9622
 8663TIP3   OH247403   5.623   0.935  15.371 -0.1987 -0.3848 -0.6885
 8663TIP3    H147404   5.707   0.980  15.362 -0.9737  1.2426 -0.1494
 8663TIP3    H247405   5.646   0.842  15.376  1.5908  0.0420 -0.2274
 8664TIP3   OH247406   5.343   0.525  12.821 -0.0061  0.5083 -1.1061
 8664TIP3    H147407   5.324   0.531  12.728 -0.1033 -2.0760 -1.3019
 8664TIP3    H247408   5.437   0.507  12.825  0.0376  0.8134 -0.6848
 8665TIP3   OH247409   2.041   4.215  15.807 -0.2847 -0.5228 -0.5048
 8665TIP3    H147410   2.030   4.231  15.713 -1.2767  2.1350 -0.0127
 8665TIP3    H247411   2.030   4.301  15.847  1.6313 -1.3430  1.9576
 8666TIP3   OH247412   2.670   5.394  15.330 -0.0221  0.6572  0.6405
 8666TIP3    H147413   2.718   5.370  15.251  1.3038  0.2464  1.5336
 8666TIP3    H247414   2.654   5.488  15.321 -0.4375  0.5079 -0.3736
 8667TIP3   OH247415   6.005   3.307  12.733  0.3179 -0.2576 -0.4549
 8667TIP3    H147416   5.973   3.270  12.816  0.7783 -0.8425 -0.5272
 8667TIP3    H247417   5.951   3.264  12.666  1.0134 -1.0138 -0.5557
 8668TIP3   OH247418   4.370   5.172   6.423  0.4205  0.2174  0.3578
 8668TIP3    H147419   4.464   5.192   6.424  0.1158  1.9184 -0.7613
 8668TIP3    H247420   4.349   5.160   6.330 -0.2759 -1.3634  0.6762
 8669TIP3   OH247421   6.612   1.069   4.821  0.4091  0.3731 -0.3670
 8669TIP3    H147422   6.697   1.025   4.814  0.9799  1.6195 -2.1023
 8669TIP3    H247423   6.632   1.155   4.859  0.1116  1.0246 -1.6152
 8670TIP3   OH247424   1.485   2.134  15.939 -0.2566  0.7705  0.3049
 8670TIP3    H147425   1.564   2.168  15.982 -0.2632  1.9974 -0.6017
 8670TIP3    H247426   1.419   2.203  15.952 -0.8459  0.2520  0.0942
 8671TIP3   OH247427   1.009   3.330   2.712 -0.1489  0.2097 -0.0164
 8671TIP3    H147428   1.082   3.290   2.758 -0.6368  0.7472  1.2939
 8671TIP3    H247429   0.934   3.273   2.731 -0.2371  0.0846 -0.6991
 8672TIP3   OH247430   4.423   3.140   0.338  0.2431  0.2535  0.2132
 8672TIP3    H147431   4.408   3.210   0.275  0.1819 -0.3268 -0.4403
 8672TIP3    H247432   4.448   3.065   0.284  3.0711  0.4805  1.0648
 8673TIP3   OH247433   1.095   2.829   6.437 -0.9578  0.3632  0.0037
 8673TIP3    H147434   1.182   2.832   6.399 -1.2574 -1.0382 -0.8873
 8673TIP3    H247435   1.105   2.863   6.526  0.4666  0.3012 -0.1241
 8674TIP3   OH247436   6.794   1.768  16.475 -0.0428 -0.4071 -0.0892
 8674TIP3    H147437   6.801   1.684  16.431 -0.2131 -1.1913  1.3305
 8674TIP3    H247438   6.881   1.784  16.512  0.2571  0.5126 -1.1307
 8675TIP3   OH247439   6.712   2.613  14.963  0.1594 -0.1097 -0.1180
 8675TIP3    H147440   6.649   2.671  15.005 -1.6290  0.1050 -2.8279
 8675TIP3    H247441   6.790   2.667  14.952 -0.1071  0.5011  0.9101
 8676TIP3   OH247442   2.210   5.697  11.106  0.5058  0.2797 -0.2878
 8676TIP3    H147443   2.267   5.620  11.113  1.8435  1.1394 -1.2772
 8676TIP3    H247444   2.213   5.721  11.014  0.4609  1.7686  0.0658
 8677TIP3   OH247445   0.611   2.588   5.620 -0.5432  0.1751  0.4929
 8677TIP3    H147446   0.574   2.507   5.584 -2.9640  1.0759  0.7297
 8677TIP3    H247447   0.544   2.620   5.680  0.8343  1.8007  1.2584
 8678TIP3   OH247448   6.386   2.749   0.889  0.3688  0.0844 -0.2416
 8678TIP3    H147449   6.357   2.663   0.858  0.8403  0.2118 -1.0757
 8678TIP3    H247450   6.306   2.796   0.908  0.0860 -1.1795  2.1445
 8679TIP3   OH247451   0.199   6.216  14.073 -0.2455 -0.2977 -0.5210
 8679TIP3    H147452   0.211   6.306  14.103  1.2276 -0.5272 -0.3834
 8679TIP3    H247453   0.222   6.218  13.981 -1.2075 -0.3412 -0.7709
 8680TIP3   OH247454   3.227   0.711  14.320 -0.0158  0.2013 -0.2745
 8680TIP3    H147455   3.170   0.764  14.375  0.0876  0.5939 -0.5415
 8680TIP3    H247456   3.280   0.660  14.382 -0.7882 -0.3162 -0.0323
 8681TIP3   OH247457   0.102   3.648   4.496  0.4973  0.3803 -0.8322
 8681TIP3    H147458   0.152   3.722   4.461  0.2612  0.6637 -0.5765
 8681TIP3    H247459   0.025   3.642   4.439 -0.3905  1.4628  0.1932
 8682TIP3   OH247460   1.849   6.264  13.164 -0.1943 -0.7202 -0.1559
 8682TIP3    H147461   1.851   6.256  13.069 -1.1997  0.6556 -0.3340
 8682TIP3    H247462   1.818   6.179  13.195  0.9343 -1.4597 -0.9763
 8683TIP3   OH247463   3.429   5.875  11.200 -0.4024 -0.0810 -0.1415
 8683TIP3    H147464   3.371   5.804  11.173  0.9767 -1.3700  0.1527
 8683TIP3    H247465   3.370   5.945  11.228 -1.8268 -0.2067 -2.6100
 8684TIP3   OH247466   4.057   3.585  14.111  0.2281  0.6902 -0.2560
 8684TIP3    H147467   4.145   3.611  14.084  0.2760  0.6795 -0.1092
 8684TIP3    H247468   4.050   3.494  14.082  0.1971  0.7490 -0.4333
 8685TIP3   OH247469   3.082   0.225  14.768  0.4512 -0.1012  0.9181
 8685TIP3    H147470   3.058   0.173  14.692 -0.3610  0.4464  0.7865
 8685TIP3    H247471   3.121   0.305  14.732  0.4010 -0.0016  1.0798
 8686TIP3   OH247472   0.827   3.142   2.178  0.2731  0.1566  0.3149
 8686TIP3    H147473   0.760   3.159   2.112  0.5570 -2.1277 -0.6490
 8686TIP3    H247474   0.799   3.062   2.222  0.4418  1.2462  2.5817
 8687TIP3   OH247475   3.180   5.943  11.343 -0.4068 -0.0680 -0.3552
 8687TIP3    H147476   3.103   5.993  11.368 -1.1803 -0.1695 -2.3916
 8687TIP3    H247477   3.159   5.853  11.366 -0.3295  0.0637  0.2800
 8688TIP3   OH247478   2.552   4.345  14.057  0.0607  0.4042 -0.1367
 8688TIP3    H147479   2.492   4.347  13.983  1.0600 -0.7691 -1.0133
 8688TIP3    H247480   2.511   4.286  14.120 -0.0350  0.1355 -0.4455
 8689TIP3   OH247481   4.047   1.273  11.283 -0.0448  0.1772  0.1093
 8689TIP3    H147482   3.959   1.244  11.307 -0.3667  1.4126  0.4765
 8689TIP3    H247483   4.034   1.357  11.241  0.3780 -2.0530 -5.2633
 8690TIP3   OH247484   4.846   1.851  12.562 -0.2170 -0.9355 -0.4362
 8690TIP3    H147485   4.872   1.878  12.474 -0.7069  0.1766 -0.2547
 8690TIP3    H247486   4.789   1.922  12.593  2.0702  0.0654  1.8203
 8691TIP3   OH247487   5.783   1.302  13.860 -0.4892 -0.0014  0.0841
 8691TIP3    H147488   5.731   1.260  13.928 -0.2095  0.5465  0.6503
 8691TIP3    H247489   5.841   1.234  13.827 -0.1911 -0.1124  0.8355
 8692TIP3   OH247490   1.297   6.468  13.329 -0.0819  0.2811 -0.0816
 8692TIP3    H147491   1.280   6.548  13.279  0.3178  0.8793  0.7148
 8692TIP3    H247492   1.239   6.403  13.291  0.6447  0.5469 -1.7459
 8693TIP3   OH247493   6.184   6.474  15.553 -0.1420 -0.4365 -0.9819
 8693TIP3    H147494   6.250   6.424  15.600 -0.7022 -1.2081 -0.9983
 8693TIP3    H247495   6.226   6.496  15.469  0.4220 -0.0938 -0.6207
 8694TIP3   OH247496   6.028   3.979  13.764 -0.2386  0.2178  0.0843
 8694TIP3    H147497   6.062   4.022  13.685  0.1874 -0.5883 -0.1867
 8694TIP3    H247498   6.082   4.012  13.835 -2.1940  2.8831  0.4913
 8695TIP3   OH247499   4.563   5.487   0.918  0.1299 -0.4657 -0.1174
 8695TIP3    H147500   4.471   5.510   0.909  0.1395 -0.4170 -0.0916
 8695TIP3    H247501   4.567   5.394   0.894  0.0214 -0.5551  0.2150
 8696TIP3   OH247502   3.224   4.248  13.307  0.1610 -0.4144  0.3121
 8696TIP3    H147503   3.131   4.247  13.329  0.6331 -1.8208  2.5449
 8696TIP3    H247504   3.243   4.340  13.286 -1.4079  0.1557  1.2727
 8697TIP3   OH247505   0.208   5.888   3.414 -0.2804 -0.3848  0.5006
 8697TIP3    H147506   0.276   5.952   3.391  1.1284 -2.1905 -0.6389
 8697TIP3    H247507   0.125   5.933   3.395  0.6793  0.5630 -1.9439
 8698TIP3   OH247508   1.619   6.165  16.994  0.0752 -0.5667 -0.6419
 8698TIP3    H147509   1.635   6.087  17.048 -1.2030 -0.4940 -0.1181
 8698TIP3    H247510   1.566   6.132  16.921  0.8269 -0.4512 -1.2526
 8699TIP3   OH247511   0.843   1.208   4.109 -0.4284 -0.2648 -0.0993
 8699TIP3    H147512   0.880   1.145   4.172  0.1411  0.0144 -0.1465
 8699TIP3    H247513   0.919   1.255   4.075 -0.6185 -1.0932 -1.7660
 8700TIP3   OH247514   1.504   2.076   2.053 -0.5046  0.0146  0.2489
 8700TIP3    H147515   1.464   2.111   2.133  0.3909 -0.1496  0.7858
 8700TIP3    H247516   1.573   2.018   2.085  1.2752  1.5698 -0.6320
 8701TIP3   OH247517   4.716   2.385  11.084  0.1669  0.7550 -0.3453
 8701TIP3    H147518   4.632   2.409  11.123  0.4015 -0.1077  0.7226
 8701TIP3    H247519   4.764   2.468  11.077  0.6887  0.8242  2.6171
 8702TIP3   OH247520   0.381   4.617   1.106 -0.3257  0.2433 -0.9604
 8702TIP3    H147521   0.428   4.554   1.051 -1.0254 -0.4269 -0.8053
 8702TIP3    H247522   0.309   4.566   1.145 -0.9662  1.1544 -0.9177
 8703TIP3   OH247523   3.266   3.838   3.864 -0.1026  0.7203 -0.5217
 8703TIP3    H147524   3.266   3.894   3.787  1.8610  2.0280  0.3369
 8703TIP3    H247525   3.353   3.849   3.902  0.9624 -4.0234 -0.9834
 8704TIP3   OH247526   4.465   1.202   6.082 -0.0659 -0.3264  0.1455
 8704TIP3    H147527   4.469   1.295   6.104  0.3655 -0.5906  1.2841
 8704TIP3    H247528   4.554   1.171   6.098 -0.1095 -0.8581 -0.6164
 8705TIP3   OH247529   3.970   2.245   0.268  0.5061  0.2850 -0.9024
 8705TIP3    H147530   3.936   2.329   0.299  1.3683  0.3402 -0.0863
 8705TIP3    H247531   4.035   2.219   0.333  1.5037 -0.1830 -2.0521
 8706TIP3   OH247532   6.531   3.980   0.102 -0.2404  0.0257 -0.4696
 8706TIP3    H147533   6.459   3.923   0.077 -0.1975 -0.6932  0.9355
 8706TIP3    H247534   6.490   4.048   0.156 -0.0255  0.2536 -0.5911
 8707TIP3   OH247535   0.809   0.035  14.369  0.2366 -0.3212  0.0285
 8707TIP3    H147536   0.810   0.106  14.432 -1.4746  0.1215 -0.3972
 8707TIP3    H247537   0.901   0.015  14.353  0.7680 -1.2244  3.4816
 8708TIP3   OH247538   0.664   1.508  17.187 -0.2151  0.4619  0.1716
 8708TIP3    H147539   0.677   1.548  17.101 -0.6283 -0.2769 -0.2462
 8708TIP3    H247540   0.570   1.491  17.192 -0.2882  1.0733  1.0415
 8709TIP3   OH247541   1.707   2.341   1.389 -0.5847  0.3182  0.4461
 8709TIP3    H147542   1.756   2.260   1.377 -0.2210  0.4763  0.8263
 8709TIP3    H247543   1.687   2.371   1.300 -0.5245 -0.0659  0.3023
 8710TIP3   OH247544   1.609   1.793   4.651  0.0356 -0.0600 -0.5501
 8710TIP3    H147545   1.614   1.887   4.635 -0.3875  0.0625 -0.0111
 8710TIP3    H247546   1.617   1.784   4.746  0.5633 -0.6094 -0.6376
 8711TIP3   OH247547   5.838   5.566   5.694  0.0424  0.4779  0.1453
 8711TIP3    H147548   5.813   5.638   5.752 -0.8804 -0.1702  0.5655
 8711TIP3    H247549   5.776   5.572   5.621 -0.6635 -0.4697  0.6545
 8712TIP3   OH247550   5.644   5.673  16.744 -0.4524 -0.0779  0.0528
 8712TIP3    H147551   5.552   5.662  16.769 -0.4614  1.3566  0.8075
 8712TIP3    H247552   5.691   5.675  16.827  0.2666 -0.7806 -0.3319
 8713TIP3   OH247553   6.694   1.382  12.334 -0.3802  0.0254  0.2085
 8713TIP3    H147554   6.768   1.435  12.305  0.1429 -0.1225  1.1930
 8713TIP3    H247555   6.639   1.373  12.257  0.5761  0.2313 -0.5257
 8714TIP3   OH247556   2.623   1.406  15.194 -0.6355  0.2317  0.1011
 8714TIP3    H147557   2.625   1.501  15.195  1.5907  0.2404 -0.8519
 8714TIP3    H247558   2.614   1.383  15.101 -2.1440 -0.5323  0.3916
 8715TIP3   OH247559   0.530   1.949  13.125 -0.5042 -0.1060 -0.0767
 8715TIP3    H147560   0.620   1.969  13.098 -0.5007 -0.8018 -0.6299
 8715TIP3    H247561   0.476   1.976  13.051 -0.9291  1.6753  0.8250
 8716TIP3   OH247562   3.174   1.954   4.833 -0.7710  0.2927 -0.1271
 8716TIP3    H147563   3.254   1.974   4.882 -1.0837 -1.1436  1.0423
 8716TIP3    H247564   3.190   1.866   4.797 -1.7802  0.0237  0.0548
 8717TIP3   OH247565   3.525   1.106  14.042 -0.4589 -0.0877 -0.2904
 8717TIP3    H147566   3.521   1.200  14.061 -1.3468 -0.7268  3.3923
 8717TIP3    H247567   3.436   1.075  14.055 -0.4560 -1.3409 -2.7225
 8718TIP3   OH247568   2.590   0.230  15.001 -0.1096  0.2021 -0.4382
 8718TIP3    H147569   2.557   0.188  14.922 -1.2038 -0.9107  0.5527
 8718TIP3    H247570   2.684   0.211  15.002 -0.0950  0.1918 -1.4391
 8719TIP3   OH247571   3.065   6.568   4.284 -0.2690 -0.3244 -0.5685
 8719TIP3    H147572   3.068   6.501   4.216 -1.1517 -0.9495 -0.0151
 8719TIP3    H247573   3.089   6.521   4.364 -2.1581 -0.3108  0.0567
 8720TIP3   OH247574   3.266   0.545  15.471  0.2801 -0.0466 -0.4967
 8720TIP3    H147575   3.237   0.513  15.386  0.7790 -0.2052 -0.6055
 8720TIP3    H247576   3.185   0.556  15.521  0.0376 -0.5620 -0.7768
 8721TIP3   OH247577   3.754   5.159  15.125 -0.6799  0.1093  0.5951
 8721TIP3    H147578   3.663   5.178  15.102 -0.3420 -0.8848 -1.8412
 8721TIP3    H247579   3.804   5.234  15.092 -0.4932  0.2063  1.0797
 8722TIP3   OH247580   6.253   3.070  16.372 -0.2136  0.4184 -0.2927
 8722TIP3    H147581   6.288   3.091  16.459 -1.9092  0.4309  0.4160
 8722TIP3    H247582   6.234   3.156  16.333  1.8822  0.4976 -1.3211
 8723TIP3   OH247583   2.970   5.189   0.547 -0.5556  0.3442  0.1956
 8723TIP3    H147584   2.987   5.203   0.640 -1.2122 -1.5784  0.6456
 8723TIP3    H247585   3.048   5.146   0.514 -0.3786  0.9034 -0.1382
 8724TIP3   OH247586   2.900   2.035   5.499  0.7984  0.0015 -0.4572
 8724TIP3    H147587   2.844   2.002   5.569  1.0457 -0.9687 -0.7023
 8724TIP3    H247588   2.963   2.092   5.544  0.4937 -0.0220  0.0066
 8725TIP3   OH247589   1.523   5.345  13.623 -0.3656 -0.6083  0.2435
 8725TIP3    H147590   1.436   5.379  13.603 -0.4019 -1.7654 -1.9060
 8725TIP3    H247591   1.580   5.384  13.556  0.7918  0.1062  1.6021
 8726TIP3   OH247592   2.643   3.801  11.811  0.4778  0.2171 -0.3026
 8726TIP3    H147593   2.550   3.810  11.789  0.6842  1.9014 -0.6411
 8726TIP3    H247594   2.664   3.882  11.857  2.0829  0.4841 -1.4124
 8727TIP3   OH247595   4.049   1.305  16.757 -0.2490 -0.0211 -0.0427
 8727TIP3    H147596   4.061   1.212  16.738  0.2518  0.0532 -0.1053
 8727TIP3    H247597   4.027   1.308  16.850  0.0781 -0.1733  0.0380
 8728TIP3   OH247598   5.465   1.664   2.850  0.3343  0.1885 -0.1887
 8728TIP3    H147599   5.376   1.656   2.817  0.5779  3.3670 -2.0525
 8728TIP3    H247600   5.455   1.681   2.944 -1.0149  0.4878 -0.3747
 8729TIP3   OH247601   5.821   3.300  14.603  0.3079 -0.2894 -0.0267
 8729TIP3    H147602   5.773   3.382  14.598  0.9614  0.0852 -0.3488
 8729TIP3    H247603   5.834   3.274  14.512  0.2142 -0.6889  0.0696
 8730TIP3   OH247604   5.393   0.832   2.666  0.1507 -0.3364  0.6346
 8730TIP3    H147605   5.382   0.919   2.704 -0.8528  0.0674 -0.5087
 8730TIP3    H247606   5.343   0.774   2.723  1.1576 -0.2531  1.6364
 8731TIP3   OH247607   0.892   6.372  12.814 -0.2504  0.5733  0.2801
 8731TIP3    H147608   0.880   6.459  12.852 -2.2933  0.5071 -0.0956
 8731TIP3    H247609   0.961   6.384  12.749 -2.3355  2.6601 -1.7748
 8732TIP3   OH247610   0.028   4.547  16.432  0.3940  0.4304 -0.0571
 8732TIP3    H147611  -0.018   4.517  16.353  0.2820  0.0121  0.1664
 8732TIP3    H247612  -0.027   4.617  16.466  0.1461  0.2294 -0.0371
 8733TIP3   OH247613   2.312   0.334  15.037  0.3719 -0.1763 -0.1965
 8733TIP3    H147614   2.302   0.405  14.974 -0.2324  1.0910  1.2585
 8733TIP3    H247615   2.384   0.281  15.003  0.1576  0.5317 -1.8526
 8734TIP3   OH247616   3.045   2.234   2.867  0.0193 -0.3296  0.2876
 8734TIP3    H147617   3.002   2.314   2.898 -1.5984 -1.2329  0.5187
 8734TIP3    H247618   3.065   2.185   2.946 -0.5745 -0.9002  0.0975
 8735TIP3   OH247619   1.135   1.411   1.773  0.0893 -0.3981 -0.0934
 8735TIP3    H147620   1.095   1.324   1.777 -0.4473 -0.1786 -0.7423
 8735TIP3    H247621   1.219   1.396   1.730  1.1711 -1.0126  2.0759
 8736TIP3   OH247622   0.644   0.038   3.720 -0.4278  0.3093  0.1804
 8736TIP3    H147623   0.663  -0.051   3.691 -0.3217  0.2692  0.3709
 8736TIP3    H247624   0.562   0.060   3.678 -2.6423 -1.3566  3.2256
 8737TIP3   OH247625   4.118   3.631   1.550 -0.2297  0.0948 -0.3917
 8737TIP3    H147626   4.102   3.720   1.582 -1.1501 -0.8149  1.8240
 8737TIP3    H247627   4.031   3.595   1.534 -0.1631 -1.7423  2.7119
 8738TIP3   OH247628   3.647   0.814   6.627  0.4562  0.0224  0.1633
 8738TIP3    H147629   3.579   0.753   6.599  2.1446 -1.8025 -0.1248
 8738TIP3    H247630   3.599   0.882   6.674 -1.8532  0.2216 -2.2255
 8739TIP3   OH247631   6.586   5.009   2.106 -0.0882  0.3000  0.0045
 8739TIP3    H147632   6.538   5.057   2.173  1.6548 -0.9299  2.2761
 8739TIP3    H247633   6.677   5.035   2.118  0.3565 -0.4669 -1.4581
 8740TIP3   OH247634   2.658   1.155   3.605 -0.0004 -0.3192  0.6627
 8740TIP3    H147635   2.565   1.154   3.626  0.1790 -0.5628  1.4679
 8740TIP3    H247636   2.663   1.198   3.519 -0.8116  0.0691  0.8038
 8741TIP3   OH247637   5.853   0.398  13.283  0.2862 -0.6428  0.0191
 8741TIP3    H147638   5.840   0.303  13.282  0.6697 -0.7175 -1.6570
 8741TIP3    H247639   5.948   0.408  13.295  0.4421 -0.5431 -1.1558
 8742TIP3   OH247640   6.229   0.009   4.537  1.1168  0.3350 -0.0335
 8742TIP3    H147641   6.181   0.014   4.454 -0.5385 -0.5901  0.8095
 8742TIP3    H247642   6.193  -0.068   4.580  2.3084  0.5168  1.3382
 8743TIP3   OH247643   4.276   1.203   3.646 -0.5639  0.1048 -0.6079
 8743TIP3    H147644   4.345   1.138   3.660 -2.1349 -1.2255  1.4689
 8743TIP3    H247645   4.277   1.219   3.551  0.7035 -2.0251 -1.0075
 8744TIP3   OH247646   3.797   1.371  16.426  0.9565  0.3787 -0.7103
 8744TIP3    H147647   3.728   1.346  16.365 -0.4280  1.7204  0.2403
 8744TIP3    H247648   3.878   1.343  16.384 -0.0443  0.1959 -2.5928
 8745TIP3   OH247649   0.745   3.206  15.216  0.1718  0.0252 -0.0745
 8745TIP3    H147650   0.735   3.271  15.147  1.0387 -1.3121 -1.5265
 8745TIP3    H247651   0.838   3.210  15.239 -0.0775  0.3387  0.9101
 8746TIP3   OH247652   0.661   6.757  10.475 -0.1121  0.5841 -0.5206
 8746TIP3    H147653   0.658   6.692  10.405  0.3657 -0.3260  0.2806
 8746TIP3    H247654   0.603   6.827  10.445 -1.6716 -0.7934 -0.8104
 8747TIP3   OH247655   4.285   2.285  11.048 -0.5104  0.5918 -0.6124
 8747TIP3    H147656   4.282   2.190  11.058 -1.0032  0.6709  0.0610
 8747TIP3    H247657   4.250   2.301  10.961 -2.5811  0.2757  0.1056
 8748TIP3   OH247658   2.144   5.669   3.937 -0.2365  0.1891  0.0674
 8748TIP3    H147659   2.065   5.709   3.901  0.6550  0.5407 -1.6251
 8748TIP3    H247660   2.214   5.729   3.911  0.6237 -0.2601  1.2883
 8749TIP3   OH247661   2.552   6.481  14.028  0.6864  0.2651  1.0425
 8749TIP3    H147662   2.571   6.389  14.012  0.8059  0.6284 -1.2756
 8749TIP3    H247663   2.588   6.527  13.952 -1.3736  1.9906  0.9958
 8750TIP3   OH247664   2.178   0.759   2.536  0.2549  0.3763  0.3601
 8750TIP3    H147665   2.101   0.710   2.565  1.0576 -0.6543  0.8201
 8750TIP3    H247666   2.147   0.849   2.528 -1.7360 -0.3930 -2.1287
 8751TIP3   OH247667   4.385   0.662   6.260 -0.6195  0.0691  0.0139
 8751TIP3    H147668   4.383   0.682   6.354 -1.7446  0.7354 -0.1344
 8751TIP3    H247669   4.299   0.624   6.242 -0.4567  0.0577 -0.7787
 8752TIP3   OH247670   3.482   6.374  11.422  0.1265  0.1942 -0.4714
 8752TIP3    H147671   3.478   6.310  11.493  3.0606  0.9298  0.4973
 8752TIP3    H247672   3.574   6.374  11.394 -0.6934  0.7877 -3.5235
 8753TIP3   OH247673   6.301   0.536   4.583  0.2977  0.4449  0.1503
 8753TIP3    H147674   6.356   0.599   4.536 -0.8640  1.2031 -0.2248
 8753TIP3    H247675   6.273   0.474   4.515  0.9179 -0.1255  0.4000
 8754TIP3   OH247676   5.872   2.275   5.757  0.3743  0.1749  0.6023
 8754TIP3    H147677   5.831   2.237   5.835 -0.8545  1.6277  0.6997
 8754TIP3    H247678   5.803   2.273   5.690  0.8356  0.6649  0.1012
 8755TIP3   OH247679   3.522   3.163   1.098  0.7697  0.5993  0.8198
 8755TIP3    H147680   3.607   3.159   1.053 -0.7780  1.5005 -2.5468
 8755TIP3    H247681   3.461   3.193   1.030 -2.0723  1.0685  3.3730
 8756TIP3   OH247682   0.203   2.466  13.337  0.0065 -0.0959 -0.4864
 8756TIP3    H147683   0.112   2.484  13.315  0.0159  0.1189 -0.3437
 8756TIP3    H247684   0.238   2.549  13.369  0.0340 -0.3737  0.2128
 8757TIP3   OH247685   4.587   5.680   4.449  0.3310 -0.0813 -0.1455
 8757TIP3    H147686   4.677   5.650   4.440  0.6208  1.0075 -1.1735
 8757TIP3    H247687   4.595   5.775   4.464 -0.4907 -0.4522  3.7430
 8758TIP3   OH247688   4.034   0.254  13.855 -0.1347  0.2707 -0.0072
 8758TIP3    H147689   4.025   0.292  13.768 -0.7551  0.9474  0.3461
 8758TIP3    H247690   4.118   0.288  13.887 -0.4862  1.0095  0.1404
 8759TIP3   OH247691   4.812   5.908   2.074 -0.1563 -0.6814  0.8615
 8759TIP3    H147692   4.886   5.966   2.056 -0.5472  0.0109  1.4438
 8759TIP3    H247693   4.790   5.924   2.166  0.3150 -2.4383  1.3146
 8760TIP3   OH247694   6.274   4.297   5.589  0.2530  0.5780  0.3164
 8760TIP3    H147695   6.318   4.248   5.519 -1.2958 -1.6386  0.7626
 8760TIP3    H247696   6.336   4.295   5.662  1.1073  1.2396 -0.3673
 8761TIP3   OH247697   1.435   3.297   6.180  0.1480  0.5433 -0.4035
 8761TIP3    H147698   1.429   3.202   6.173  1.2774  0.3267  1.1504
 8761TIP3    H247699   1.349   3.324   6.211  0.0085 -0.0444 -0.2594
 8762TIP3   OH247700   0.201   0.495   0.773 -0.1646  0.0826 -0.3659
 8762TIP3    H147701   0.285   0.485   0.728 -0.8329 -0.9854 -1.4322
 8762TIP3    H247702   0.197   0.420   0.832  0.1705  0.8296  0.6400
 8763TIP3   OH247703   5.001   6.310   4.564 -0.3856 -0.7449  0.0484
 8763TIP3    H147704   5.026   6.232   4.515  0.5073 -0.4198 -0.0255
 8763TIP3    H247705   4.911   6.329   4.535  0.5597  0.2119 -2.4909
 8764TIP3   OH247706   3.166   0.074  11.273 -0.3728  0.5883  0.1195
 8764TIP3    H147707   3.124   0.124  11.342 -0.6869  0.2015  0.2148
 8764TIP3    H247708   3.136  -0.016  11.287  0.2121  0.3687 -0.0246
 8765TIP3   OH247709   0.415   0.823   0.872 -0.4441 -0.7975 -0.1374
 8765TIP3    H147710   0.470   0.747   0.894 -0.1120 -1.3059 -2.4434
 8765TIP3    H247711   0.393   0.810   0.780 -1.5498  1.2287 -0.2060
 8766TIP3   OH247712   6.661   0.880   0.541  0.3165  0.0161  0.3494
 8766TIP3    H147713   6.688   0.936   0.468 -0.3518  0.6620  0.5797
 8766TIP3    H247714   6.743   0.855   0.584  0.6340  1.0697  0.4072
 8767TIP3   OH247715   3.766   1.987  11.935 -0.0882 -0.1412  0.3657
 8767TIP3    H147716   3.853   1.996  11.973  0.0741  1.0884 -0.2427
 8767TIP3    H247717   3.713   2.053  11.980 -0.5125 -0.3776  0.2198
 8768TIP3   OH247718   4.949   1.316  12.218 -0.0507 -0.2810  0.2522
 8768TIP3    H147719   5.018   1.361  12.168 -0.7230  0.0892 -0.3610
 8768TIP3    H247720   4.932   1.236  12.169 -0.5797 -0.0089 -0.0166
 8769TIP3   OH247721   1.595   4.043   4.782  0.9676 -0.3507  0.1000
 8769TIP3    H147722   1.535   4.014   4.713  0.9204 -0.3783  0.1528
 8769TIP3    H247723   1.583   3.978   4.852  1.2153 -0.4770  0.0251
 8770TIP3   OH247724   0.318   2.566  10.799 -0.3426  0.1665  0.1407
 8770TIP3    H147725   0.288   2.497  10.858 -0.0470 -0.5205 -0.4917
 8770TIP3    H247726   0.264   2.642  10.821 -0.0715  0.0066  1.4595
 8771TIP3   OH247727   2.540   2.925  12.449 -0.2679  0.7659  0.3824
 8771TIP3    H147728   2.503   2.987  12.512 -1.0283 -0.5206  1.2488
 8771TIP3    H247729   2.464   2.889  12.403  0.1435  0.3390  0.0229
 8772TIP3   OH247730   0.505   3.409  13.140 -0.3045  0.5444  0.3861
 8772TIP3    H147731   0.537   3.484  13.089  0.2645  0.8231  1.1343
 8772TIP3    H247732   0.511   3.335  13.080 -2.9704  1.4149 -1.1249
 8773TIP3   OH247733   5.502   5.647  17.104 -0.2556  0.0257  0.4025
 8773TIP3    H147734   5.504   5.562  17.060 -0.5270 -0.0617  0.5576
 8773TIP3    H247735   5.409   5.666  17.114 -0.1931  0.2209  0.6050
 8774TIP3   OH247736   6.105   5.977   0.051  0.1108  0.2835  0.0937
 8774TIP3    H147737   6.135   6.055   0.005 -0.8567  0.7915  0.3068
 8774TIP3    H247738   6.119   5.906  -0.012 -2.2427  1.1072 -1.4984
 8775TIP3   OH247739   5.989   4.208   4.676  0.7658 -0.0218 -0.7337
 8775TIP3    H147740   5.919   4.144   4.688 -0.7229  1.7896  0.8902
 8775TIP3    H247741   6.025   4.188   4.590 -0.8569 -1.8568 -1.0620
 8776TIP3   OH247742   2.982   3.281   2.335  0.1468  0.1760  0.1627
 8776TIP3    H147743   3.042   3.209   2.350 -0.0911 -0.5141 -1.8305
 8776TIP3    H247744   2.895   3.244   2.350  0.0048 -0.0965 -1.1361
 8777TIP3   OH247745   0.981   4.796   5.217  0.4699  0.7529 -0.1523
 8777TIP3    H147746   0.890   4.818   5.234  0.3648  0.3937 -0.2316
 8777TIP3    H247747   1.015   4.768   5.302  0.4777  0.7939 -0.1423
 8778TIP3   OH247748   0.898   4.920   0.110  0.3560  0.0962 -0.4340
 8778TIP3    H147749   0.875   4.901   0.019 -1.1184 -0.0298 -0.0730
 8778TIP3    H247750   0.992   4.936   0.108  0.3352  0.2385 -2.0003
 8779TIP3   OH247751   0.013   4.057   3.236  0.2398  0.3028  0.1938
 8779TIP3    H147752  -0.033   4.058   3.152 -0.1073 -0.9923  0.3445
 8779TIP3    H247753   0.062   4.139   3.238  0.0317  0.4799 -1.1503
 8780TIP3   OH247754   0.710   5.995  11.699 -0.0806 -0.6453 -0.0515
 8780TIP3    H147755   0.737   5.919  11.648 -1.0881 -1.1919  0.1962
 8780TIP3    H247756   0.619   5.976  11.724  0.2733 -0.2832  1.6987
 8781TIP3   OH247757   2.179   5.556  13.565  0.3442 -0.6367 -0.4259
 8781TIP3    H147758   2.229   5.572  13.645 -0.3702  2.3548 -0.4626
 8781TIP3    H247759   2.103   5.505  13.595  0.8880 -0.9381  0.4968
 8782TIP3   OH247760   0.565   3.301  12.529 -0.3174  0.0223  0.0715
 8782TIP3    H147761   0.484   3.352  12.533 -0.2289  0.1984 -0.3390
 8782TIP3    H247762   0.577   3.281  12.436 -0.0843 -0.3177  0.1713
 8783TIP3   OH247763   2.589   2.655  12.548  0.4767  0.2207 -0.0039
 8783TIP3    H147764   2.527   2.726  12.562 -0.2862  0.4220 -3.3958
 8783TIP3    H247765   2.674   2.699  12.541  0.2207  0.6459 -0.5636
 8784TIP3   OH247766   4.505   3.010  10.786 -0.0546  0.1978 -0.6172
 8784TIP3    H147767   4.457   3.002  10.703 -0.4523 -0.7971 -0.3063
 8784TIP3    H247768   4.538   2.922  10.803  1.3108  0.7129 -0.4693
 8785TIP3   OH247769   6.140   6.204   3.276  0.1513  0.3927 -0.3190
 8785TIP3    H147770   6.181   6.150   3.345  0.9416  1.2730 -0.0710
 8785TIP3    H247771   6.109   6.141   3.212  2.5833 -0.3413 -0.8916
 8786TIP3   OH247772   2.610   5.397   1.735 -0.5738  0.2758  0.1399
 8786TIP3    H147773   2.556   5.321   1.714  0.3356 -0.6538  1.0517
 8786TIP3    H247774   2.678   5.398   1.668 -1.4458  1.1928 -0.7557
 8787TIP3   OH247775   6.412   0.515  10.969 -0.4020 -0.6109  0.2903
 8787TIP3    H147776   6.338   0.544  10.916  0.3701  0.8947 -0.0510
 8787TIP3    H247777   6.451   0.443  10.920  0.5884  1.0703 -1.5150
 8788TIP3   OH247778   1.044   5.766  16.880  0.4777  0.2290  0.2112
 8788TIP3    H147779   0.964   5.713  16.885  1.0292 -0.9715 -2.1418
 8788TIP3    H247780   1.032   5.833  16.947 -1.0764 -1.7672  2.0871
 8789TIP3   OH247781   4.646   0.702   2.506  0.0568  0.4131 -0.5218
 8789TIP3    H147782   4.626   0.794   2.491 -1.7770  0.2367  0.4329
 8789TIP3    H247783   4.643   0.693   2.602  2.3965 -0.2286 -0.4519
 8790TIP3   OH247784   4.937   6.334   5.725  0.7996 -0.9219 -0.2446
 8790TIP3    H147785   5.002   6.403   5.715  0.9869 -0.9728  0.5885
 8790TIP3    H247786   4.855   6.381   5.745  0.6787 -0.8841 -0.8151
 8791TIP3   OH247787   0.632   0.711   3.243  0.0214  0.2100  0.3688
 8791TIP3    H147788   0.706   0.757   3.282  0.6161 -0.1647 -0.3038
 8791TIP3    H247789   0.634   0.624   3.283  0.5275 -0.1171 -0.3669
 8792TIP3   OH247790   0.000   2.986  11.189 -0.5474  0.5437  0.0762
 8792TIP3    H147791  -0.047   2.935  11.123 -1.3269 -1.2312  1.9190
 8792TIP3    H247792   0.086   3.001  11.150 -0.4832 -1.7177 -0.8070
 8793TIP3   OH247793   2.066   3.008  11.889  0.2247 -0.2400 -0.4726
 8793TIP3    H147794   2.085   3.089  11.842  1.1102 -0.5696 -0.6930
 8793TIP3    H247795   2.137   2.949  11.865  0.6181 -0.4776  1.1262
 8794TIP3   OH247796   1.000   5.655   0.593  0.5474  0.2333 -0.6787
 8794TIP3    H147797   0.982   5.691   0.506 -0.2546 -0.4797 -0.8145
 8794TIP3    H247798   0.952   5.713   0.652 -2.0970 -1.4629 -1.0129
 8795TIP3   OH247799   4.668   0.125   2.533 -0.8065  0.3681  0.1836
 8795TIP3    H147800   4.711   0.146   2.616  0.9165 -0.2693 -0.5138
 8795TIP3    H247801   4.646   0.211   2.496  2.1278  0.9182 -0.5549
 8796TIP3   OH247802   2.924   2.439   4.320  0.4191  0.1046 -0.2363
 8796TIP3    H147803   2.981   2.416   4.393 -0.9814  0.8779  1.1654
 8796TIP3    H247804   2.946   2.375   4.251  1.0907 -1.2723  1.1962
 8797TIP3   OH247805   1.224   6.394   3.779 -0.4163  0.2860 -0.3274
 8797TIP3    H147806   1.238   6.474   3.728 -0.6269  0.1521 -0.5949
 8797TIP3    H247807   1.188   6.424   3.862 -0.6366  0.4562 -0.4849
 8798TIP3   OH247808   3.181   6.783  14.904 -0.0543 -0.5127 -0.3058
 8798TIP3    H147809   3.156   6.871  14.876  0.2017 -0.4746 -0.4194
 8798TIP3    H247810   3.259   6.763  14.853  0.4421 -0.4276  0.4083
 8799TIP3   OH247811   5.316   2.547  11.064 -0.5318  0.2751  0.0411
 8799TIP3    H147812   5.242   2.489  11.084  0.7504 -1.6929 -0.6656
 8799TIP3    H247813   5.391   2.507  11.108  0.6405  0.6723 -1.4944
 8800TIP3   OH247814   3.556   1.035  13.638  0.4904 -0.2492  0.3961
 8800TIP3    H147815   3.488   0.973  13.611  1.3811 -1.5239  0.9797
 8800TIP3    H247816   3.511   1.119  13.642 -0.5003 -0.6411 -1.4708
 8801TIP3   OH247817   1.779   3.735  15.115  0.0084  0.1283 -0.3312
 8801TIP3    H147818   1.782   3.825  15.147 -0.6286 -0.2660  0.9273
 8801TIP3    H247819   1.848   3.689  15.164  0.1327 -0.1235 -0.7403
 8802TIP3   OH247820   3.667   3.755   1.412  0.1154 -0.3585 -0.0390
 8802TIP3    H147821   3.627   3.679   1.454  1.3793  0.8792  3.9162
 8802TIP3    H247822   3.600   3.823   1.414 -0.4492 -0.8082 -1.9758
 8803TIP3   OH247823   5.413   6.592   4.784  0.1040 -0.2970  0.7898
 8803TIP3    H147824   5.472   6.527   4.822  0.0940 -0.0735  1.1901
 8803TIP3    H247825   5.345   6.540   4.741  0.7791 -0.5607  0.0233
 8804TIP3   OH247826   3.235   5.169   0.443 -0.0364 -0.5442  0.1170
 8804TIP3    H147827   3.264   5.080   0.462  2.7334 -0.0524 -1.4297
 8804TIP3    H247828   3.314   5.216   0.417 -1.7358  1.8393 -1.1604
 8805TIP3   OH247829   2.890   4.417  15.354 -0.2715  0.1348  0.7981
 8805TIP3    H147830   2.965   4.444  15.302 -1.5710 -1.0691 -1.9059
 8805TIP3    H247831   2.856   4.498  15.392  0.9973  1.0171  0.1025
 8806TIP3   OH247832   1.485   4.962  15.755 -0.1162  0.0692 -0.3992
 8806TIP3    H147833   1.442   4.895  15.701 -1.3663  0.7383 -0.2716
 8806TIP3    H247834   1.447   4.950  15.842 -0.5182  1.0695 -0.4250
 8807TIP3   OH247835   2.905   3.322  12.546  0.0739  0.5363  0.8351
 8807TIP3    H147836   2.883   3.258  12.614  1.2321  0.2452  0.9592
 8807TIP3    H247837   2.999   3.309  12.530 -0.2188  0.3556 -1.0603
 8808TIP3   OH247838   2.195   1.492   3.570  0.0604  0.7934  0.2687
 8808TIP3    H147839   2.271   1.489   3.511 -0.2183  2.4400 -0.2156
 8808TIP3    H247840   2.232   1.480   3.657  0.6839 -0.0015 -0.0986
 8809TIP3   OH247841   6.119   6.634  11.719 -0.3635 -0.4442  0.0685
 8809TIP3    H147842   6.101   6.706  11.779 -0.2614 -1.4825  1.4037
 8809TIP3    H247843   6.213   6.619  11.727 -0.2015 -0.0941 -0.9740
 8810TIP3   OH247844   1.511   0.573  12.966  0.1043  0.3063  0.4919
 8810TIP3    H147845   1.500   0.665  12.942 -0.0517  0.3133  0.5887
 8810TIP3    H247846   1.499   0.572  13.061 -1.0648  0.0076  0.3549
 8811TIP3   OH247847   3.882   2.142   2.358 -0.5517 -0.1164  0.4303
 8811TIP3    H147848   3.961   2.196   2.369  0.2892 -1.4051  1.0676
 8811TIP3    H247849   3.911   2.053   2.383 -1.5514 -1.1094 -1.7169
 8812TIP3   OH247850   0.493   3.585  16.276 -0.2517 -0.0556 -0.0698
 8812TIP3    H147851   0.516   3.598  16.368  0.5753 -1.9560  0.0251
 8812TIP3    H247852   0.564   3.627  16.227  0.2589 -0.6322  0.1734
 8813TIP3   OH247853   1.598   2.288  13.746 -0.6299  0.0529  0.3241
 8813TIP3    H147854   1.570   2.266  13.657 -1.5072  1.1896  0.2998
 8813TIP3    H247855   1.517   2.303  13.794 -0.1565 -0.4410  1.3010
 8814TIP3   OH247856   0.238   3.522  13.466  0.6791 -0.0734 -0.1875
 8814TIP3    H147857   0.205   3.594  13.414 -1.0086 -1.6017 -1.3491
 8814TIP3    H247858   0.168   3.456  13.464  2.9298 -2.6637 -1.0541
 8815TIP3   OH247859   3.835   6.369   5.792 -0.6253  0.5203  0.3439
 8815TIP3    H147860   3.922   6.405   5.773 -0.0932 -0.8683  0.0182
 8815TIP3    H247861   3.829   6.370   5.888  0.9515 -1.9345  0.5594
 8816TIP3   OH247862   6.081   1.498  16.360  0.1032 -0.4852  0.2703
 8816TIP3    H147863   6.153   1.552  16.328  1.0183 -2.3083 -0.9157
 8816TIP3    H247864   6.034   1.470  16.281 -0.5408 -1.1642  0.8760
 8817TIP3   OH247865   4.573   4.398  14.961  0.0001  0.1884 -0.3513
 8817TIP3    H147866   4.545   4.442  15.041 -0.4980  0.2440 -0.5491
 8817TIP3    H247867   4.530   4.312  14.965 -1.0985  0.6656 -1.1655
 8818TIP3   OH247868   3.016   6.125   2.928 -0.3576 -0.6801  0.5411
 8818TIP3    H147869   2.978   6.205   2.964  3.1762  0.9511  1.0481
 8818TIP3    H247870   3.075   6.154   2.859  1.8602 -2.6667  1.4284
 8819TIP3   OH247871   0.192   5.796  12.569 -0.4087  0.3298 -0.2336
 8819TIP3    H147872   0.142   5.782  12.489 -0.2154  0.2719 -0.3461
 8819TIP3    H247873   0.130   5.778  12.639 -1.0365  1.9186 -0.3473
 8820TIP3   OH247874   1.109   1.696  12.749 -0.1270 -0.3204 -0.4828
 8820TIP3    H147875   1.200   1.668  12.738 -1.1345 -3.9981 -0.8484
 8820TIP3    H247876   1.081   1.654  12.830 -1.6074  0.4856 -0.5520
 8821TIP3   OH247877   3.764   4.019  10.837 -0.6199 -0.3089  0.2209
 8821TIP3    H147878   3.746   3.989  10.748 -0.7878  0.7633 -0.1242
 8821TIP3    H247879   3.722   3.954  10.893 -2.1845  0.0218 -0.5156
 8822TIP3   OH247880   4.463   0.962   2.219  0.0844 -0.8225 -0.1828
 8822TIP3    H147881   4.431   0.878   2.250 -0.4717 -1.5393 -2.5228
 8822TIP3    H247882   4.543   0.940   2.169  0.9259  0.2550  0.6424
 8823TIP3   OH247883   6.221   3.128   0.676  0.2110 -0.1440  0.0769
 8823TIP3    H147884   6.156   3.105   0.610 -0.3025  1.4260 -0.0052
 8823TIP3    H247885   6.297   3.073   0.655 -0.7732 -1.3687 -0.3468
 8824TIP3   OH247886   2.808   5.812   1.534 -0.0475 -0.1419  0.3870
 8824TIP3    H147887   2.817   5.819   1.439  2.5369 -0.7586  0.5297
 8824TIP3    H247888   2.783   5.900   1.562 -2.5043 -0.3051 -0.9329
 8825TIP3   OH247889   0.343   3.504  11.702  0.1740  0.2867  0.3364
 8825TIP3    H147890   0.386   3.578  11.658  0.7912 -0.5273 -0.4851
 8825TIP3    H247891   0.256   3.500  11.663  0.9543 -0.8769 -1.4565
 8826TIP3   OH247892   1.519   1.197   5.500  0.5128 -0.1225  0.0319
 8826TIP3    H147893   1.532   1.274   5.555  0.5780 -0.6138  0.7307
 8826TIP3    H247894   1.500   1.127   5.563 -1.2675 -0.3267 -0.6736
 8827TIP3   OH247895   3.091   3.294   0.282 -0.4798 -0.3783  0.4794
 8827TIP3    H147896   3.037   3.245   0.220 -1.6921 -0.5473  1.6276
 8827TIP3    H247897   3.155   3.229   0.312  0.7525 -0.0430 -1.2595
 8828TIP3   OH247898   4.577   5.609  11.989  0.6214 -0.4596 -0.1732
 8828TIP3    H147899   4.641   5.564  11.935  1.4406  0.8288 -0.3183
 8828TIP3    H247900   4.540   5.676  11.931  2.1950  1.5793  1.0637
 8829TIP3   OH247901   4.466   5.322  13.111 -0.2749  0.3070  0.3348
 8829TIP3    H147902   4.477   5.339  13.205  1.2506  0.6042  0.1330
 8829TIP3    H247903   4.468   5.226  13.104 -1.0855  0.2604  0.6703
 8830TIP3   OH247904   0.033   3.519  16.644  0.2758 -0.2822 -0.4435
 8830TIP3    H147905   0.086   3.530  16.724 -0.3964 -0.8824  0.0970
 8830TIP3    H247906   0.058   3.433  16.611 -1.1489 -1.0609  0.4302
 8831TIP3   OH247907   2.309   4.857  15.280 -0.0492  0.3157  0.0761
 8831TIP3    H147908   2.271   4.855  15.367  0.3258  0.9079  0.2590
 8831TIP3    H247909   2.398   4.821  15.291 -0.9661 -2.4570 -0.5979
 8832TIP3   OH247910   4.894   4.505   5.569  0.5541 -0.2123  0.2942
 8832TIP3    H147911   4.855   4.587   5.598  1.4889  0.9014 -1.4107
 8832TIP3    H247912   4.824   4.461   5.520  0.7602  0.8120 -0.9869
 8833TIP3   OH247913   2.640   6.049  16.460 -0.0265 -0.0848  0.2893
 8833TIP3    H147914   2.673   6.138  16.448 -1.1686  0.2960 -0.1772
 8833TIP3    H247915   2.643   6.035  16.555  1.6050 -0.1366  0.2450
 8834TIP3   OH247916   4.449   0.238   3.955  0.4133  0.3886  0.2308
 8834TIP3    H147917   4.433   0.332   3.949 -1.5101  0.0622 -0.4562
 8834TIP3    H247918   4.526   0.223   3.899  0.8702  1.5490  0.5207
 8835TIP3   OH247919   6.240   0.017   3.876 -0.4848  0.4685  0.2170
 8835TIP3    H147920   6.278  -0.009   3.792  0.6224  2.2717  0.1208
 8835TIP3    H247921   6.223   0.111   3.868 -2.4690  0.2617  1.2441
 8836TIP3   OH247922   6.098   6.325   0.886 -0.5933  0.0777  0.0463
 8836TIP3    H147923   6.016   6.277   0.875 -0.5975  0.2714 -0.8701
 8836TIP3    H247924   6.127   6.344   0.796 -0.1113  0.9570  0.3743
 8837TIP3   OH247925   2.074   0.113  11.643  0.6124 -0.3784 -0.3761
 8837TIP3    H147926   2.092   0.020  11.654 -0.0047 -0.7060 -1.9118
 8837TIP3    H247927   2.010   0.118  11.571  0.2829  1.1971 -0.0278
 8838TIP3   OH247928   3.517   6.438   0.264 -0.0182 -0.1416  0.5667
 8838TIP3    H147929   3.559   6.389   0.334  0.0537 -0.7060  0.1321
 8838TIP3    H247930   3.499   6.524   0.302  0.4860 -0.2746  1.1112
 8839TIP3   OH247931   3.598   4.432   2.754 -0.1031 -0.0493 -0.4480
 8839TIP3    H147932   3.598   4.445   2.659 -0.6117  0.6712 -0.3558
 8839TIP3    H247933   3.527   4.488   2.786  0.6715  0.4454  0.4502
 8840TIP3   OH247934   2.404   4.180  15.103 -0.0116 -0.5256  0.2350
 8840TIP3    H147935   2.390   4.178  15.008 -0.7406 -1.6467  0.3522
 8840TIP3    H247936   2.358   4.103  15.136  1.7287 -1.1769  1.3088
 8841TIP3   OH247937   2.404   6.125   3.770  0.8652  0.6958  0.0604
 8841TIP3    H147938   2.348   6.203   3.769  2.4540  1.9008  1.0363
 8841TIP3    H247939   2.397   6.090   3.682  0.3552  2.1159 -0.4949
 8842TIP3   OH247940   1.626   6.171   1.779 -0.0358  0.1944  0.2203
 8842TIP3    H147941   1.591   6.237   1.719  1.0347  1.4198  0.8830
 8842TIP3    H247942   1.549   6.128   1.814 -0.8917  2.2478  1.0328
 8843TIP3   OH247943   0.091   1.436   4.821 -0.0315  0.4943 -0.2432
 8843TIP3    H147944   0.169   1.387   4.794  0.6810 -0.8952  3.7537
 8843TIP3    H247945   0.125   1.520   4.851  0.0234 -0.1369  1.5655
 8844TIP3   OH247946   5.717   2.338  15.866 -0.2649  0.0543 -0.5806
 8844TIP3    H147947   5.767   2.263  15.898 -0.6606 -0.4336 -1.0962
 8844TIP3    H247948   5.630   2.326  15.903 -0.7959 -0.6371 -1.9844
 8845TIP3   OH247949   6.792   3.971   6.206 -0.0900 -0.3988  0.1046
 8845TIP3    H147950   6.743   4.000   6.129  0.8189 -0.2629 -0.4399
 8845TIP3    H247951   6.873   3.935   6.170  0.7985  0.5918  1.0578
 8846TIP3   OH247952   2.453   6.258  11.422  0.0970 -0.5166  0.1495
 8846TIP3    H147953   2.471   6.169  11.453  0.5408 -0.3989  0.2329
 8846TIP3    H247954   2.461   6.313  11.500  2.5295 -0.0347 -0.3541
 8847TIP3   OH247955   2.964   1.694   4.201 -0.1522  0.4236 -0.0103
 8847TIP3    H147956   2.897   1.696   4.269 -0.0057  0.1120  0.1469
 8847TIP3    H247957   2.984   1.601   4.190 -0.6762  0.4187 -0.9745
 8848TIP3   OH247958   3.758   6.690   0.340  0.2711 -0.6737 -0.5336
 8848TIP3    H147959   3.827   6.689   0.406 -1.0951 -2.0498  0.9649
 8848TIP3    H247960   3.773   6.611   0.288 -0.3772 -1.1796  0.0371
 8849TIP3   OH247961   4.860   6.497   4.248 -0.6953  0.2174 -0.2831
 8849TIP3    H147962   4.918   6.426   4.218 -0.6300  0.8756 -1.7956
 8849TIP3    H247963   4.782   6.452   4.279 -0.5396 -0.5421 -0.9546
 8850TIP3   OH247964   4.330   6.408  15.834  0.2152  0.2780  0.4951
 8850TIP3    H147965   4.372   6.374  15.913  0.4252  0.4108  0.4418
 8850TIP3    H247966   4.385   6.377  15.762 -1.7502 -2.6718  0.1077
 8851TIP3   OH247967   4.816   6.769   1.136 -0.1810 -0.6081  0.4944
 8851TIP3    H147968   4.796   6.851   1.092  0.2827 -0.2726  0.9058
 8851TIP3    H247969   4.752   6.707   1.100  0.7677 -0.5906 -1.3527
 8852TIP3   OH247970   6.088   4.967  12.193  0.3105 -0.2613 -0.0650
 8852TIP3    H147971   6.167   4.981  12.141  0.9412  2.7621  1.5225
 8852TIP3    H247972   6.110   4.895  12.251  0.0246 -2.8660 -2.9035
 8853TIP3   OH247973   2.119   0.308  16.858 -0.2125  0.0450  0.3427
 8853TIP3    H147974   2.032   0.349  16.853  0.6883  2.0127 -0.2470
 8853TIP3    H247975   2.177   0.370  16.814  1.1368 -2.3720 -1.4972
 8854TIP3   OH247976   4.315   1.320   3.389  0.4948  0.3123 -0.1146
 8854TIP3    H147977   4.236   1.363   3.357  0.0339 -0.5866 -0.1965
 8854TIP3    H247978   4.382   1.389   3.388 -0.8192  1.7311  2.1823
 8855TIP3   OH247979   5.487   6.281   5.968 -0.9009 -0.0180  0.1259
 8855TIP3    H147980   5.568   6.314   5.929 -0.8979 -0.8376 -0.5946
 8855TIP3    H247981   5.431   6.262   5.892 -1.3027 -0.6042  0.5638
 8856TIP3   OH247982   2.193   3.677  13.887  1.2531 -0.0384  0.6122
 8856TIP3    H147983   2.122   3.709  13.942  1.6747  0.2363  0.9955
 8856TIP3    H247984   2.262   3.743  13.894  2.5992 -1.4927  2.2947
 8857TIP3   OH247985   3.524   1.006   1.256  0.0966 -0.4972 -0.4600
 8857TIP3    H147986   3.542   0.954   1.334  2.1584 -1.1087 -1.2781
 8857TIP3    H247987   3.590   1.075   1.257  0.7398 -1.0479 -2.1062
 8858TIP3   OH247988   4.430   2.931   1.724 -0.3613  0.1203 -0.1635
 8858TIP3    H147989   4.470   2.971   1.646  1.8926  1.4255  1.5237
 8858TIP3    H247990   4.397   3.006   1.774 -0.9524 -0.6111  0.5548
 8859TIP3   OH247991   6.185   4.823  16.447 -0.1530  0.0241 -0.0868
 8859TIP3    H147992   6.197   4.742  16.497  1.2276  1.3264  1.8594
 8859TIP3    H247993   6.223   4.805  16.361  0.9602 -1.1251  0.6150
 8860TIP3   OH247994   4.149   5.632   3.619  0.4301 -0.3306 -0.2661
 8860TIP3    H147995   4.058   5.607   3.634  0.6677 -0.1014  1.8646
 8860TIP3    H247996   4.199   5.552   3.637  0.8198  0.2758  1.6492
 8861TIP3   OH247997   0.391   0.391   6.307 -0.3754  0.1307 -0.3789
 8861TIP3    H147998   0.425   0.478   6.287 -3.3669  1.6095  0.4472
 8861TIP3    H247999   0.337   0.369   6.231  1.0908 -1.4921 -1.0122
 8862TIP3   OH248000   4.421   2.184   2.759  0.2077  0.7485  0.2526
 8862TIP3    H148001   4.515   2.173   2.767  0.1367  0.1618  0.3297
 8862TIP3    H248002   4.388   2.098   2.733 -0.1714  1.2557 -1.0121
 8863TIP3   OH248003   1.204   5.769   4.677 -0.2001 -0.0814  0.2481
 8863TIP3    H148004   1.182   5.681   4.647 -2.1191  0.4165  0.0311
 8863TIP3    H248005   1.127   5.797   4.728  1.1787  0.7547  1.9531
 8864TIP3   OH248006   3.374   4.083   3.428 -0.7503  0.3589 -0.2887
 8864TIP3    H148007   3.346   4.174   3.435  2.9909  1.6735 -0.1594
 8864TIP3    H248008   3.407   4.075   3.339 -1.0797 -0.9086 -0.3112
 8865TIP3   OH248009   5.533   0.730  15.683  0.1287 -0.2333 -0.1600
 8865TIP3    H148010   5.490   0.790  15.622  0.3062  0.0332 -0.0263
 8865TIP3    H248011   5.523   0.772  15.769  0.3267 -0.3574 -0.0771
 8866TIP3   OH248012   3.265   5.954  12.903 -0.6611  0.2389 -0.1612
 8866TIP3    H148013   3.312   5.990  12.979  0.2785 -2.5770  0.7139
 8866TIP3    H248014   3.203   5.892  12.941 -1.7196  0.3297 -1.6352
 8867TIP3   OH248015   1.810   4.752   4.194  0.1158  0.8270  0.1781
 8867TIP3    H148016   1.741   4.723   4.135  0.1338 -1.4915  1.1763
 8867TIP3    H248017   1.890   4.749   4.142  0.3721 -2.6145  0.5366
 8868TIP3   OH248018   3.994   4.795  15.751  0.6809  0.4292  0.5322
 8868TIP3    H148019   3.964   4.759  15.667  0.7621  3.0413 -0.7255
 8868TIP3    H248020   4.056   4.730  15.784 -0.4346 -1.3738 -0.6768
 8869TIP3   OH248021   4.764   4.065  11.840 -0.3045  0.3063 -0.4967
 8869TIP3    H148022   4.841   4.122  11.842  1.1190 -1.3592 -2.6120
 8869TIP3    H248023   4.711   4.099  11.769  1.1878 -1.5910 -2.6616
 8870TIP3   OH248024   4.543   3.115  17.133 -0.2390 -0.2768  0.2288
 8870TIP3    H148025   4.487   3.184  17.169  0.3263  0.2153  0.1849
 8870TIP3    H248026   4.513   3.035  17.176  0.8090  0.3595  2.2900
 8871TIP3   OH248027   5.107   0.528   0.927  0.4441 -0.1952 -0.1134
 8871TIP3    H148028   5.177   0.593   0.922  1.5601 -1.2204  1.4582
 8871TIP3    H248029   5.027   0.580   0.922  1.2839  1.4157  1.6336
 8872TIP3   OH248030   6.721   1.673  12.671 -0.6538 -0.1864 -1.0443
 8872TIP3    H148031   6.687   1.584  12.675 -1.2049  0.0442 -0.4641
 8872TIP3    H248032   6.816   1.662  12.676 -0.6601 -0.7947 -2.0487
 8873TIP3   OH248033   1.706   3.670   2.782 -0.2737 -0.4844  0.3243
 8873TIP3    H148034   1.721   3.733   2.711 -1.1862 -0.2790  0.2989
 8873TIP3    H248035   1.769   3.696   2.850  0.3761 -0.4719 -0.2682
 8874TIP3   OH248036   0.057   1.476  15.559  0.5561  0.1858 -0.1443
 8874TIP3    H148037   0.125   1.533  15.523  0.3200  1.0729  0.7616
 8874TIP3    H248038  -0.022   1.501  15.512  0.6834 -0.2314 -0.5824
 8875TIP3   OH248039   2.583   5.137  15.457 -0.2609  0.2072  0.1136
 8875TIP3    H148040   2.542   5.207  15.507 -0.9456 -0.2597  0.2190
 8875TIP3    H248041   2.520   5.116  15.388  0.9533  1.3086 -1.4083
 8876TIP3   OH248042   3.551   6.736   5.313  0.4334 -0.2954  0.7067
 8876TIP3    H148043   3.638   6.698   5.301 -0.3445 -1.6917 -0.6743
 8876TIP3    H248044   3.490   6.666   5.293 -1.0430  0.8971  0.8239
 8877TIP3   OH248045   2.703   2.069   0.670  0.3223  0.0695  0.2077
 8877TIP3    H148046   2.770   2.128   0.704 -0.1481  0.3004  0.7592
 8877TIP3    H248047   2.698   1.998   0.735 -0.2518  0.2719  0.3970
 8878TIP3   OH248048   0.929   4.644   1.378 -0.0234  0.8341 -0.4721
 8878TIP3    H148049   0.929   4.571   1.315  1.9617  1.0677 -0.8049
 8878TIP3    H248050   1.021   4.670   1.384 -0.1603  0.9598  2.3802
 8879TIP3   OH248051   3.142   4.615  13.486  0.1503 -0.0390 -0.4430
 8879TIP3    H148052   3.112   4.532  13.524 -0.0040 -0.1380 -0.7789
 8879TIP3    H248053   3.085   4.681  13.524  0.1132 -0.1154 -0.3651
 8880TIP3   OH248054   1.650   5.940  16.574 -0.2508 -0.1040  0.1972
 8880TIP3    H148055   1.719   5.909  16.633  0.4016  1.0382  0.0737
 8880TIP3    H248056   1.690   6.015  16.529 -0.2110 -1.7481 -2.7581
 8881TIP3   OH248057   5.953   3.064   5.348  0.1242  0.1086  0.3476
 8881TIP3    H148058   5.886   3.075   5.416 -0.5312  0.9252 -0.3925
 8881TIP3    H248059   5.981   3.154   5.329  2.0373 -0.2717  1.2127
 8882TIP3   OH248060   0.876   1.358  13.898 -0.2226  0.5059  0.2585
 8882TIP3    H148061   0.865   1.441  13.945  0.0161  0.1951  0.8749
 8882TIP3    H248062   0.959   1.368  13.850  0.5755  0.0842  1.5113
 8883TIP3   OH248063   1.725   3.330   3.571 -0.3070  0.0229  0.2319
 8883TIP3    H148064   1.783   3.385   3.519  2.3155 -0.3277  2.5117
 8883TIP3    H248065   1.673   3.392   3.623  1.0496  0.4375  1.1633
 8884TIP3   OH248066   2.740   4.929  16.263  0.6920 -0.3353  0.1648
 8884TIP3    H148067   2.787   4.847  16.275 -0.4939 -1.1172 -0.3292
 8884TIP3    H248068   2.650   4.909  16.289  0.6321  1.1638  1.2780
 8885TIP3   OH248069   5.729   2.777   5.482 -0.0651 -0.2670  0.3273
 8885TIP3    H148070   5.764   2.705   5.535  1.4376 -1.4740 -2.1077
 8885TIP3    H248071   5.634   2.762   5.482 -0.0535 -0.5280  2.1892
 8886TIP3   OH248072   2.909   5.144  16.304  0.2181 -0.2245 -0.0054
 8886TIP3    H148073   2.841   5.078  16.293  0.5083 -0.4454 -0.4805
 8886TIP3    H248074   2.957   5.143  16.222  0.0479  0.7881 -0.1289
 8887TIP3   OH248075   1.794   3.944   3.694  0.4990  0.1798  0.2245
 8887TIP3    H148076   1.881   3.908   3.677  0.7011  1.1569 -0.8993
 8887TIP3    H248077   1.755   3.955   3.608 -0.6166  0.0713  0.7011
 8888TIP3   OH248078   1.742   2.195   4.932  0.1017 -0.7979  0.0004
 8888TIP3    H148079   1.753   2.240   5.015 -1.8397 -2.4859  1.2669
 8888TIP3    H248080   1.826   2.151   4.916 -0.1382 -2.1518  2.1681
 8889TIP3   OH248081   0.995   2.859   1.437 -0.4188 -0.1985 -0.1411
 8889TIP3    H148082   1.041   2.831   1.515 -0.8611 -1.3461 -0.2803
 8889TIP3    H248083   1.050   2.830   1.364  0.0751  1.0072 -0.2880
 8890TIP3   OH248084   0.327   5.225   4.866 -0.1801  0.2525 -0.1932
 8890TIP3    H148085   0.239   5.189   4.873 -0.6849  0.8901 -2.4060
 8890TIP3    H248086   0.323   5.310   4.910 -0.4261 -0.0662  0.4124
 8891TIP3   OH248087   2.282   2.993  15.247  0.0802  0.0009 -0.7669
 8891TIP3    H148088   2.279   3.060  15.179 -2.0138  0.0843 -0.6444
 8891TIP3    H248089   2.316   2.915  15.202 -0.1365  0.3801 -1.6149
 8892TIP3   OH248090   6.723   5.909   0.313  0.1053  1.1485 -0.3050
 8892TIP3    H148091   6.734   6.002   0.336 -1.3119  1.5523 -1.1025
 8892TIP3    H248092   6.774   5.898   0.233  0.4894  1.1661 -0.0655
 8893TIP3   OH248093   0.229   3.486  16.873  0.5372  0.0548  0.6246
 8893TIP3    H148094   0.191   3.449  16.953  1.6562 -2.2622  0.1896
 8893TIP3    H248095   0.313   3.440  16.863 -0.0095 -0.4924 -2.3842
 8894TIP3   OH248096   2.309   4.884   5.614 -0.1496 -0.2774  0.1827
 8894TIP3    H148097   2.335   4.796   5.587  0.1797  0.0974 -0.7627
 8894TIP3    H248098   2.219   4.894   5.581  0.6361  0.5928 -1.9096
 8895TIP3   OH248099   1.941   5.489  13.339 -0.6747  0.2964  0.3122
 8895TIP3    H148100   1.965   5.451  13.423  0.8694  1.5813  0.4930
 8895TIP3    H248101   2.022   5.490  13.288 -1.9786 -2.5965 -2.1583
 8896TIP3   OH248102   2.732   4.554  11.803 -0.0218 -0.3340 -0.2905
 8896TIP3    H148103   2.812   4.539  11.853  0.2639  1.0189 -0.3055
 8896TIP3    H248104   2.707   4.644  11.824 -1.1551 -0.5093 -0.8255
 8897TIP3   OH248105   6.733   0.063  13.774  0.4071  0.2915 -0.4360
 8897TIP3    H148106   6.663   0.102  13.721 -0.9320  0.8235  1.5928
 8897TIP3    H248107   6.776   0.001  13.715 -1.6995  0.0220 -1.8234
 8898TIP3   OH248108   4.971   6.296  13.094  0.0318 -0.1437  0.4028
 8898TIP3    H148109   4.971   6.243  13.015 -1.5094  2.3446 -1.4228
 8898TIP3    H248110   5.058   6.334  13.098 -0.6693  1.9309 -1.8413
 8899TIP3   OH248111   3.095   0.572   1.275  0.1113  0.1290  0.5086
 8899TIP3    H148112   3.023   0.518   1.308 -0.2994 -1.2617 -2.4098
 8899TIP3    H248113   3.170   0.513   1.272  0.6147  0.7446  0.6761
 8900TIP3   OH248114   6.529   0.695  14.034  0.4219 -0.2746 -0.6233
 8900TIP3    H148115   6.497   0.660  14.117  0.0095 -1.8858 -1.4324
 8900TIP3    H248116   6.619   0.723  14.053  0.2244 -0.3217  0.4362
 8901TIP3   OH248117   1.585   3.039  13.098  0.0400  0.3310  0.3629
 8901TIP3    H148118   1.547   3.011  13.182  1.8905  0.1847  1.1937
 8901TIP3    H248119   1.512   3.032  13.036 -1.4809  0.7934  2.0069
 8902TIP3   OH248120   1.338   4.497   0.462 -0.1749  0.0113 -0.6758
 8902TIP3    H148121   1.381   4.531   0.540 -1.4831  0.8293 -0.2927
 8902TIP3    H248122   1.248   4.480   0.489 -0.1731 -1.5066 -1.5064
 8903TIP3   OH248123   1.221   4.756  14.916 -0.1409 -0.3132 -0.3276
 8903TIP3    H148124   1.201   4.828  14.857 -1.2119 -0.6754 -0.4306
 8903TIP3    H248125   1.153   4.760  14.983 -0.4102 -1.4008 -0.5057
 8904TIP3   OH248126   2.721   1.601  14.973  0.9830  0.6808 -0.0367
 8904TIP3    H148127   2.713   1.651  15.054  0.3672 -1.3869  1.2533
 8904TIP3    H248128   2.796   1.640  14.928  2.0990  1.1447  2.0924
 8905TIP3   OH248129   5.209   1.457   0.409  0.3419  0.0654 -0.1517
 8905TIP3    H148130   5.277   1.402   0.448  0.9965  1.4195  0.6732
 8905TIP3    H248131   5.252   1.495   0.332 -0.0440 -0.3885 -0.6006
 8906TIP3   OH248132   0.044   5.213  10.583  0.0602  0.4722  0.6957
 8906TIP3    H148133   0.029   5.145  10.649  0.5217 -0.0596  0.2668
 8906TIP3    H248134   0.103   5.172  10.520  0.1497  1.1964  0.2991
 8907TIP3   OH248135   1.602   6.555  14.989 -0.5939  0.3855 -0.7367
 8907TIP3    H148136   1.549   6.590  15.061 -1.0778  1.0200 -1.3902
 8907TIP3    H248137   1.650   6.482  15.028 -1.9042 -0.1741 -0.1124
 8908TIP3   OH248138   2.182   6.518   4.501  0.0066 -0.1394 -0.0824
 8908TIP3    H148139   2.086   6.525   4.504  0.0784  0.9166  2.6975
 8908TIP3    H248140   2.208   6.589   4.443 -0.8466  1.5619  1.4934
 8909TIP3   OH248141   4.522   0.207  13.519 -0.3557  0.1144  0.0155
 8909TIP3    H148142   4.464   0.131  13.524  0.8433 -0.7774  0.9974
 8909TIP3    H248143   4.584   0.194  13.591 -0.1926  2.0888  0.2829
 8910TIP3   OH248144   1.497   2.956  13.343 -0.7265  0.3677  0.3167
 8910TIP3    H148145   1.438   3.030  13.360 -0.4439  0.8015 -0.4914
 8910TIP3    H248146   1.542   2.941  13.426 -0.2899  1.5618  0.3172
 8911TIP3   OH248147   2.013   1.901  16.629 -0.2882  0.1412  0.6936
 8911TIP3    H148148   1.982   1.989  16.610 -0.8660  0.3695  2.4985
 8911TIP3    H248149   2.046   1.906  16.719  1.2462 -1.0903  0.2390
 8912TIP3   OH248150   6.693   6.643   2.924  0.0836  0.5281  0.0244
 8912TIP3    H148151   6.751   6.680   2.857  0.3833  0.7128  0.3821
 8912TIP3    H248152   6.640   6.717   2.954 -1.4087  0.0650 -1.3678
 8913TIP3   OH248153   1.916   2.226  15.281 -0.3109  0.5962 -0.5388
 8913TIP3    H148154   1.911   2.272  15.364  0.8337 -2.4723  1.3969
 8913TIP3    H248155   1.835   2.176  15.276  0.6400 -1.0708 -0.0103
 8914TIP3   OH248156   5.193   3.167   1.668  0.0201 -0.1985  0.1389
 8914TIP3    H148157   5.132   3.176   1.742 -2.0671 -0.0483 -1.5034
 8914TIP3    H248158   5.273   3.211   1.697 -1.3977  1.5793  1.5821
 8915TIP3   OH248159   1.192   0.522  13.241 -0.0617 -0.6192  0.0798
 8915TIP3    H148160   1.181   0.580  13.316 -0.3555 -0.5760  0.0022
 8915TIP3    H248161   1.143   0.443  13.264  0.6546 -0.9984  0.3538
 8916TIP3   OH248162   5.399   4.582  13.551 -0.2968  0.3750 -0.7323
 8916TIP3    H148163   5.315   4.598  13.595 -0.2753 -0.5253 -0.3408
 8916TIP3    H248164   5.376   4.572  13.459 -0.6230  0.1775 -0.6325
 8917TIP3   OH248165   5.627   5.085  11.287  0.3890 -0.1132  0.3167
 8917TIP3    H148166   5.651   4.992  11.286 -0.8936 -0.4900 -1.0381
 8917TIP3    H248167   5.597   5.102  11.198 -0.5218  1.2913  0.8579
 8918TIP3   OH248168   1.121   0.628   1.046  0.5059 -0.1389 -0.4015
 8918TIP3    H148169   1.188   0.694   1.030 -0.3349  0.6842 -0.5803
 8918TIP3    H248170   1.056   0.672   1.101 -1.2697 -0.0225 -2.4626
 8919TIP3   OH248171   1.510   2.342  16.233 -0.2392 -0.2121  0.2442
 8919TIP3    H148172   1.494   2.432  16.262 -0.7387 -0.4538  0.7259
 8919TIP3    H248173   1.558   2.302  16.306 -2.1206 -1.0296  1.0802
 8920TIP3   OH248174   0.226   4.113  13.485 -0.4613 -0.1828 -0.4206
 8920TIP3    H148175   0.315   4.078  13.480 -0.6210 -0.5761 -0.6039
 8920TIP3    H248176   0.175   4.057  13.425 -1.0075 -0.5337  0.3497
 8921TIP3   OH248177   3.872   5.098   4.115  0.4043 -0.3086 -0.4010
 8921TIP3    H148178   3.957   5.141   4.112  1.0550 -1.5566 -0.5494
 8921TIP3    H248179   3.835   5.113   4.028  1.6926 -2.0586 -1.3190
 8922TIP3   OH248180   1.837   4.559  13.328 -0.4066  0.8911 -0.2448
 8922TIP3    H148181   1.863   4.469  13.311 -0.8356  0.8715 -0.8364
 8922TIP3    H248182   1.895   4.611  13.272  1.0700  1.1169  1.4228
 8923TIP3   OH248183   3.613   3.993   0.924  0.6240 -0.9602 -0.6302
 8923TIP3    H148184   3.591   4.045   0.847  0.1068 -1.0090 -0.5254
 8923TIP3    H248185   3.528   3.965   0.958  0.8168 -0.4641  0.2887
 8924TIP3   OH248186   3.651   6.099   1.402  0.1975  0.1241  0.4214
 8924TIP3    H148187   3.593   6.040   1.354 -1.4733  1.0089  1.2975
 8924TIP3    H248188   3.693   6.043   1.467 -1.2735 -0.1616  1.1588
 8925TIP3   OH248189   6.450   1.827   1.219 -0.1023  0.0486  0.3315
 8925TIP3    H148190   6.462   1.867   1.305  1.6184 -0.2778  0.2752
 8925TIP3    H248191   6.356   1.808   1.215 -0.2393  0.1230  2.1080
 8926TIP3   OH248192   4.316   3.339   6.157 -0.4880 -0.3315 -0.6540
 8926TIP3    H148193   4.342   3.249   6.178 -0.7173 -0.1647  0.4024
 8926TIP3    H248194   4.379   3.394   6.204 -1.4660  0.0600  0.2502
 8927TIP3   OH248195   6.774   2.254  13.724 -0.5152  0.1117  0.3528
 8927TIP3    H148196   6.753   2.346  13.710  1.1743  0.3072 -1.1622
 8927TIP3    H248197   6.757   2.240  13.818 -0.5779  2.0027  0.6614
 8928TIP3   OH248198   2.495   0.369  17.010 -0.0879  0.1004  0.5641
 8928TIP3    H148199   2.436   0.441  16.985  1.5530  1.3664  0.1787
 8928TIP3    H248200   2.568   0.412  17.053 -0.8737 -1.7015  3.9959
 8929TIP3   OH248201   4.509   4.209   2.799  0.5720  0.4488  0.1566
 8929TIP3    H148202   4.502   4.305   2.793  0.9755  0.4297 -0.7193
 8929TIP3    H248203   4.422   4.177   2.780  0.3571  0.6452  0.7656
 8930TIP3   OH248204   4.230   6.715  13.147  0.1310 -0.3207 -0.3814
 8930TIP3    H148205   4.187   6.731  13.230  1.3134  0.4865  0.1034
 8930TIP3    H248206   4.159   6.707  13.084 -0.7398  2.3719  0.1332
 8931TIP3   OH248207   2.625   6.374   3.650  0.4123 -0.1426 -1.2649
 8931TIP3    H148208   2.688   6.439   3.620  0.2693  0.8188  0.3829
 8931TIP3    H248209   2.576   6.349   3.572  1.2930  0.8112 -2.1442
 8932TIP3   OH248210   3.489   3.109   5.742  0.0074 -0.4976 -0.3960
 8932TIP3    H148211   3.505   3.101   5.648  2.3515 -2.8178  0.0742
 8932TIP3    H248212   3.426   3.040   5.761 -2.1538  1.3277 -0.4746
 8933TIP3   OH248213   1.919   5.293  11.577 -0.6001  0.5039 -0.0961
 8933TIP3    H148214   1.951   5.246  11.653 -0.1484  0.1038 -0.5304
 8933TIP3    H248215   1.833   5.326  11.604 -0.4263  0.4069  0.5952
 8934TIP3   OH248216   6.800   6.485   1.298 -0.0504 -0.3805  0.2148
 8934TIP3    H148217   6.831   6.576   1.301  0.1483 -0.3584 -1.4195
 8934TIP3    H248218   6.705   6.492   1.291 -0.0856 -0.3200  0.7425
 8935TIP3   OH248219   0.017   2.003  11.492  0.3460 -0.8124 -0.4561
 8935TIP3    H148220   0.033   1.943  11.420 -0.7360  0.0736 -1.4664
 8935TIP3    H248221  -0.038   1.954  11.553  1.1083 -1.5005 -0.3083
 8936TIP3   OH248222   6.701   3.451  10.721 -0.2753  0.8155 -0.6106
 8936TIP3    H148223   6.757   3.529  10.712 -0.5467  1.1367  0.3866
 8936TIP3    H248224   6.736   3.389  10.657  0.4638  1.4596 -0.8456
 8937TIP3   OH248225   0.680   1.528   0.871 -0.1054  0.0568  0.0829
 8937TIP3    H148226   0.742   1.459   0.894  1.1671  1.5877  1.5154
 8937TIP3    H248227   0.622   1.534   0.947  0.3872  1.1371  0.4043
 8938TIP3   OH248228   2.461   4.398   5.117 -0.4352  0.2461  0.6692
 8938TIP3    H148229   2.486   4.415   5.026 -1.0546  1.4036  0.6852
 8938TIP3    H248230   2.542   4.370   5.160 -0.4822 -2.0667 -0.6080
 8939TIP3   OH248231   2.702   1.863  13.788 -0.8159  0.4530  0.2332
 8939TIP3    H148232   2.680   1.918  13.713 -1.4208 -0.6558 -0.4274
 8939TIP3    H248233   2.758   1.794  13.753 -0.7318  0.1793  0.8789
 8940TIP3   OH248234   2.039   3.585   2.646  0.0610  0.0397  0.2524
 8940TIP3    H148235   2.032   3.609   2.739  0.4721  1.3855 -0.0488
 8940TIP3    H248236   1.948   3.574   2.618 -0.0673 -0.4590  0.8178
 8941TIP3   OH248237   1.311   4.014   3.046  0.4601  0.0296 -0.1272
 8941TIP3    H148238   1.233   4.001   2.991  1.3221  0.6303 -1.5446
 8941TIP3    H248239   1.295   4.097   3.090  0.2721  0.1262 -0.3759
 8942TIP3   OH248240   4.054   6.024  14.953  0.0720 -0.3631  0.5837
 8942TIP3    H148241   4.010   6.060  15.030  1.1313  2.3806  0.0129
 8942TIP3    H248242   4.036   6.086  14.883  3.6415  0.2683  0.0147
 8943TIP3   OH248243   0.472   4.807  11.965 -0.0116  0.1992  0.3663
 8943TIP3    H148244   0.430   4.750  11.900  2.0079 -1.2271  0.2126
 8943TIP3    H248245   0.420   4.793  12.045 -0.3011 -0.9249  0.0054
 8944TIP3   OH248246   2.242   3.729   1.299  0.1828 -0.0609  0.1263
 8944TIP3    H148247   2.191   3.648   1.302  0.1627 -0.0373  0.4687
 8944TIP3    H248248   2.178   3.798   1.314 -0.0490  0.1352 -1.5950
 8945TIP3   OH248249   4.648   0.434  10.570 -0.0942 -0.2781  0.1746
 8945TIP3    H148250   4.687   0.509  10.525 -0.6378  0.8617  1.5190
 8945TIP3    H248251   4.578   0.406  10.511  1.3599 -1.0467 -1.2876
 8946TIP3   OH248252   3.184   3.432  16.088 -0.1592 -0.0747  0.0832
 8946TIP3    H148253   3.216   3.402  16.173 -2.0177  1.1734  1.2950
 8946TIP3    H248254   3.159   3.523  16.103  0.6878  0.6024 -2.1730
 8947TIP3   OH248255   4.406   3.786   5.937  0.0971 -0.1090  0.1486
 8947TIP3    H148256   4.453   3.729   5.999  0.1531 -0.4604 -0.2142
 8947TIP3    H248257   4.396   3.869   5.984  0.1013 -0.3846  0.6498
 8948TIP3   OH248258   1.509   6.151  16.393  0.2032 -0.2041  0.2520
 8948TIP3    H148259   1.505   6.247  16.393  0.3194 -0.1855  1.4784
 8948TIP3    H248260   1.419   6.122  16.404  0.2604 -0.2185  0.6964
 8949TIP3   OH248261   6.610   3.336   2.176 -0.2322  0.0389 -0.4227
 8949TIP3    H148262   6.693   3.310   2.133  0.1099 -1.0257  0.8204
 8949TIP3    H248263   6.637   3.374   2.259 -1.0109 -1.0566  0.3570
 8950TIP3   OH248264   5.643   2.755   0.827  0.1463 -0.3976 -0.0454
 8950TIP3    H148265   5.557   2.718   0.806  0.6013 -0.3041 -2.2900
 8950TIP3    H248266   5.637   2.846   0.799  0.9312 -0.3517 -0.0622
 8951TIP3   OH248267   3.977   0.362  14.124  0.3510 -0.4867 -0.1710
 8951TIP3    H148268   3.883   0.355  14.106  0.3291  0.4664 -0.4606
 8951TIP3    H248269   4.017   0.292  14.072 -0.2396 -1.2546  0.3836
 8952TIP3   OH248270   6.728   4.235  14.297  0.4397  0.1215  0.1845
 8952TIP3    H148271   6.672   4.170  14.253  0.7771 -0.3819  0.4891
 8952TIP3    H248272   6.718   4.314  14.244 -0.3073 -0.0519  0.0456
 8953TIP3   OH248273   1.519   3.447   0.712 -0.5492  0.8313 -0.6440
 8953TIP3    H148274   1.486   3.362   0.683  0.7448 -0.0500  0.3478
 8953TIP3    H248275   1.441   3.495   0.739 -1.1588 -0.7437  0.5351
 8954TIP3   OH248276   2.329   2.318   4.079 -0.4156 -0.0029  0.1615
 8954TIP3    H148277   2.252   2.263   4.063 -1.0694  1.3792 -1.8243
 8954TIP3    H248278   2.299   2.407   4.060  1.3465  0.7134  0.5696
 8955TIP3   OH248279   4.688   0.380  16.435  0.3849 -0.4028 -0.2166
 8955TIP3    H148280   4.718   0.355  16.348 -0.0422  0.2634 -0.5643
 8955TIP3    H248281   4.718   0.310  16.493  0.0006 -1.2418 -1.0231
 8956TIP3   OH248282   3.108   5.999   1.111  0.3095  0.5488 -0.7494
 8956TIP3    H148283   3.187   5.954   1.139  0.9646  0.7793 -2.1306
 8956TIP3    H248284   3.067   6.028   1.192 -0.6289 -3.2107  0.3138
 8957TIP3   OH248285   1.738   4.127  11.364  0.5584 -0.3093  0.3448
 8957TIP3    H148286   1.647   4.101  11.380  0.7099  0.3303  2.5775
 8957TIP3    H248287   1.742   4.219  11.390  1.4124  0.3143 -1.7433
 8958TIP3   OH248288   6.616   3.460   3.141 -0.3768 -0.5090  1.0894
 8958TIP3    H148289   6.536   3.412   3.123 -0.4706 -0.2884  0.9161
 8958TIP3    H248290   6.587   3.535   3.193 -0.6226  0.8863 -0.9783
 8959TIP3   OH248291   5.111   5.865   0.413  0.4024 -0.7438 -0.1066
 8959TIP3    H148292   5.054   5.811   0.467 -0.3793 -0.0301 -0.1774
 8959TIP3    H248293   5.155   5.924   0.475  0.9752 -1.2139 -0.0639
 8960TIP3   OH248294   4.673   2.241   6.264 -0.3975  0.7396 -0.7180
 8960TIP3    H148295   4.769   2.236   6.271 -0.3887  0.5845 -0.9485
 8960TIP3    H248296   4.658   2.300   6.190 -0.4832  1.2399 -0.3056
 8961TIP3   OH248297   1.955   1.854   1.395  0.2819  0.2569 -0.0063
 8961TIP3    H148298   1.992   1.887   1.477  0.0811  0.1589  0.1256
 8961TIP3    H248299   1.970   1.760   1.399  0.4098  0.2710 -0.1537
 8962TIP3   OH248300   5.424   3.932   2.343 -0.2873  0.2641  0.4231
 8962TIP3    H148301   5.410   3.839   2.361 -0.8742  0.0548 -0.9972
 8962TIP3    H248302   5.413   3.941   2.249 -0.4867  1.8272  0.5585
 8963TIP3   OH248303   3.491   6.656  11.820  0.4314 -0.0417 -0.1722
 8963TIP3    H148304   3.575   6.662  11.773  0.2237  1.3530 -0.4202
 8963TIP3    H248305   3.439   6.595  11.768  0.9326 -0.1261 -0.5900
 8964TIP3   OH248306   1.853   2.074  14.470 -0.2282  0.3763  0.7469
 8964TIP3    H148307   1.833   2.133  14.543 -0.3069  2.9718 -1.2564
 8964TIP3    H248308   1.937   2.105  14.436  0.3416 -1.4829  0.3486
 8965TIP3   OH248309   2.470   4.899  16.355 -0.1254  0.3354 -0.7371
 8965TIP3    H148310   2.450   4.819  16.404  2.0371  0.5230  0.6410
 8965TIP3    H248311   2.428   4.968  16.405 -0.5585  0.2373 -0.9585
 8966TIP3   OH248312   3.277   1.225   4.901  0.0087 -0.2174  0.7543
 8966TIP3    H148313   3.325   1.244   4.981 -0.7433 -0.4992  1.2819
 8966TIP3    H248314   3.308   1.291   4.838 -0.2063  0.7025  1.5965
 8967TIP3   OH248315   1.591   4.486  13.673 -0.8304 -0.1566  0.4704
 8967TIP3    H148316   1.579   4.443  13.588  1.0255 -0.2682  0.2080
 8967TIP3    H248317   1.511   4.535  13.687 -1.2099 -0.1826 -1.3294
 8968TIP3   OH248318   2.344   4.651  14.500  0.3469 -0.3226  0.0634
 8968TIP3    H148319   2.360   4.731  14.550  1.2695 -0.7850  0.5377
 8968TIP3    H248320   2.394   4.584  14.546 -0.9668 -1.3178  0.0663
 8969TIP3   OH248321   0.728   6.137  14.465  0.5256  0.0498  0.7429
 8969TIP3    H148322   0.711   6.205  14.399  2.1885  0.8181  1.0273
 8969TIP3    H248323   0.790   6.179  14.526  1.5517 -1.7022  0.9691
 8970TIP3   OH248324   5.013   4.414  10.419 -0.0318 -0.5577 -0.2401
 8970TIP3    H148325   4.943   4.462  10.463 -1.4344 -2.4221 -0.3258
 8970TIP3    H248326   4.972   4.377  10.341  1.3226 -0.8734 -0.8364
 8971TIP3   OH248327   6.381   2.387  11.363 -0.0044 -0.1042  0.5204
 8971TIP3    H148328   6.368   2.355  11.274 -1.7460  1.3587  0.1893
 8971TIP3    H248329   6.469   2.357  11.387  0.7241 -0.0764 -1.8803
 8972TIP3   OH248330   1.660   6.731   4.099  0.4933 -0.7922 -0.0923
 8972TIP3    H148331   1.581   6.683   4.075 -0.2267  0.9456 -1.4679
 8972TIP3    H248332   1.686   6.777   4.019  1.4860  0.5818  0.9561
 8973TIP3   OH248333   1.917   2.752  15.533  0.3024  0.0926 -0.8049
 8973TIP3    H148334   1.854   2.759  15.461 -0.1120  0.8917 -0.3849
 8973TIP3    H248335   1.994   2.798  15.501 -0.0708  0.9228 -0.5608
 8974TIP3   OH248336   2.223   0.065  15.028  0.0496  0.0242 -0.7857
 8974TIP3    H148337   2.251   0.154  15.048  1.0876 -0.2182 -1.0896
 8974TIP3    H248338   2.199   0.067  14.936 -1.9190  0.4528 -0.3049
 8975TIP3   OH248339   4.038   4.405   4.734  0.3495  0.0186 -0.0155
 8975TIP3    H148340   3.946   4.428   4.719  0.3186 -0.4366 -0.5627
 8975TIP3    H248341   4.056   4.434   4.823 -1.0675 -2.2128  1.0825
 8976TIP3   OH248342   4.001   5.439  15.311  0.2973 -0.1331 -0.5339
 8976TIP3    H148343   4.007   5.344  15.320  0.1594 -0.1606 -0.7045
 8976TIP3    H248344   3.948   5.467  15.386  0.9078 -0.1080 -0.1023
 8977TIP3   OH248345   4.107   2.287   1.117  0.1788  0.6676  0.4185
 8977TIP3    H148346   4.100   2.316   1.026  2.4449 -0.3841 -0.1715
 8977TIP3    H248347   4.024   2.242   1.134 -0.0924  0.4017 -1.3243
 8978TIP3   OH248348   6.491   2.537   6.437  0.6136  0.2912  0.1072
 8978TIP3    H148349   6.417   2.514   6.494  0.2548  1.2223  0.0323
 8978TIP3    H248350   6.554   2.579   6.496  1.0550 -0.4127  0.1521
 8979TIP3   OH248351   6.523   3.830  14.394 -0.2101 -0.3881 -0.2122
 8979TIP3    H148352   6.445   3.776  14.381 -0.6349  0.0786  0.3654
 8979TIP3    H248353   6.579   3.779  14.452 -1.2953  0.4390  1.6204
 8980TIP3   OH248354   2.807   2.331  17.023 -0.4765  0.0341  0.5918
 8980TIP3    H148355   2.829   2.386  17.099 -0.8682  0.6800  0.2434
 8980TIP3    H248356   2.884   2.337  16.966 -1.5273  2.4894 -0.7399
 8981TIP3   OH248357   2.918   3.181   4.847  0.1160  0.4535  0.4563
 8981TIP3    H148358   2.904   3.184   4.752 -1.8168 -0.7026  0.6672
 8981TIP3    H248359   2.856   3.244   4.883  0.6429  0.6828  0.9765
 8982TIP3   OH248360   0.880   6.355  11.338 -0.2343 -0.4209 -0.2597
 8982TIP3    H148361   0.861   6.380  11.247 -0.5393  0.0675 -0.0721
 8982TIP3    H248362   0.953   6.294  11.332  0.8502  0.8647 -0.7298
 8983TIP3   OH248363   0.477   1.057  17.147 -0.4204 -0.7874  0.0979
 8983TIP3    H148364   0.462   1.086  17.236 -0.0243  0.5451 -0.2418
 8983TIP3    H248365   0.570   1.032  17.145 -0.5598 -1.3402  0.1781
 8984TIP3   OH248366   5.770   4.106  12.943 -0.0716 -0.4457  0.1314
 8984TIP3    H148367   5.768   4.200  12.924 -0.5894 -0.7447 -1.4876
 8984TIP3    H248368   5.698   4.070  12.891  1.1040 -1.9366 -0.5464
 8985TIP3   OH248369   4.479   1.885  14.085 -0.3707 -0.3689 -0.1025
 8985TIP3    H148370   4.476   1.977  14.061  0.3473 -0.8600 -2.3367
 8985TIP3    H248371   4.572   1.861  14.077 -0.6103 -1.3876 -0.0155
 8986TIP3   OH248372   6.233   6.457  16.312 -0.3960  0.1974 -0.7943
 8986TIP3    H148373   6.265   6.503  16.390 -2.9138  0.9985 -0.1373
 8986TIP3    H248374   6.245   6.364  16.332 -0.6108  0.4096  0.3715
 8987TIP3   OH248375   6.079   6.145   3.946 -0.1487  0.5723  1.1918
 8987TIP3    H148376   6.157   6.114   3.900  0.4314  0.5177  2.2006
 8987TIP3    H248377   6.034   6.066   3.973  0.9129  0.5651  3.0563
 8988TIP3   OH248378   2.389   2.461  17.115 -0.0756  0.2986  0.0743
 8988TIP3    H148379   2.302   2.422  17.122 -0.8285  1.9476  0.4362
 8988TIP3    H248380   2.412   2.485  17.205 -0.3965  2.1641 -0.2968
 8989TIP3   OH248381   4.800   1.443   1.342 -0.2724  0.4762 -0.3516
 8989TIP3    H148382   4.880   1.397   1.366  0.2653  1.2582 -0.6251
 8989TIP3    H248383   4.823   1.495   1.266 -0.8998  1.1229 -0.1128
 8990TIP3   OH248384   4.707   1.353   2.189  0.1226  0.5006  0.0476
 8990TIP3    H148385   4.753   1.435   2.169 -0.0932  0.3512 -1.0940
 8990TIP3    H248386   4.766   1.284   2.161  0.3745  0.2359  1.1616
 8991TIP3   OH248387   2.653   1.941   2.015 -0.4376 -0.0853  0.0059
 8991TIP3    H148388   2.595   1.912   2.086  0.1130  0.9978  0.9150
 8991TIP3    H248389   2.593   1.973   1.947 -0.9153  0.8724  0.8695
 8992TIP3   OH248390   1.302   2.796  14.718 -0.4774  0.3736  0.1146
 8992TIP3    H148391   1.247   2.746  14.658  0.8806 -1.7784  0.5507
 8992TIP3    H248392   1.308   2.742  14.796 -0.4459  2.1177  1.3838
 8993TIP3   OH248393   5.570   6.715  13.947 -0.3516  0.1686 -0.6599
 8993TIP3    H148394   5.615   6.752  14.023  0.5626 -0.1327 -1.0356
 8993TIP3    H248395   5.482   6.753  13.950  0.5666  2.4892 -1.0861
 8994TIP3   OH248396   0.974   1.341  12.657  0.4775 -0.3348  0.5015
 8994TIP3    H148397   1.014   1.350  12.570  1.3879 -0.9071  0.8522
 8994TIP3    H248398   0.887   1.304  12.640  1.0947 -1.5433 -0.0891
 8995TIP3   OH248399   0.982   0.035   4.852 -0.2705  0.1392  0.0456
 8995TIP3    H148400   1.003   0.120   4.892 -0.2831 -0.3600  1.1387
 8995TIP3    H248401   0.886   0.030   4.856 -0.2002 -0.4886  1.1886
 8996TIP3   OH248402   0.508   0.653   5.341  0.5046  0.4700 -0.5554
 8996TIP3    H148403   0.502   0.613   5.254  2.2415  1.3803 -1.1315
 8996TIP3    H248404   0.417   0.669   5.366 -0.1004 -1.0625 -1.5845
 8997TIP3   OH248405   0.408   5.685   4.265  0.4924  0.1892 -0.0815
 8997TIP3    H148406   0.446   5.692   4.178  0.4446 -0.4067 -0.1516
 8997TIP3    H248407   0.465   5.624   4.311  0.6706  0.6994  0.3955
 8998TIP3   OH248408   4.221   2.855   1.427 -0.0328 -0.2089  0.3862
 8998TIP3    H148409   4.302   2.827   1.385 -0.2059 -0.3692  0.1537
 8998TIP3    H248410   4.154   2.844   1.359 -0.1725  0.3632  0.4236
 8999TIP3   OH248411   3.789   0.948   2.356 -0.6665  0.2390  0.0988
 8999TIP3    H148412   3.817   1.035   2.385 -1.3250  0.8505 -1.0463
 8999TIP3    H248413   3.732   0.964   2.281  0.4552 -1.2405 -1.1612
 9000TIP3   OH248414   1.882   0.448  16.872  0.4868  0.0934  0.4221
 9000TIP3    H148415   1.894   0.500  16.951 -0.2534 -1.0057  1.2889
 9000TIP3    H248416   1.794   0.411  16.881  1.2293 -1.8105  0.1440
 9001TIP3   OH248417   5.309   0.489  12.551  0.6485 -0.4210 -0.3552
 9001TIP3    H148418   5.320   0.459  12.461 -1.3705  1.3366 -1.2883
 9001TIP3    H248419   5.223   0.457  12.576  0.0755  1.2809 -0.0369
 9002TIP3   OH248420   2.875   6.308  12.683 -0.5945 -0.0820  0.3296
 9002TIP3    H148421   2.962   6.283  12.713 -0.2135  0.9955  0.1397
 9002TIP3    H248422   2.819   6.235  12.710  0.4028 -0.9129  0.2111
 9003TIP3   OH248423   5.094   0.900   2.168  0.1140 -0.0892  0.0632
 9003TIP3    H148424   5.111   0.867   2.080  3.6974  0.3741  0.4308
 9003TIP3    H248425   5.037   0.976   2.154 -0.0778 -0.5137 -1.7521
 9004TIP3   OH248426   1.775   6.109  15.651  0.4839  0.7402  0.1073
 9004TIP3    H148427   1.720   6.113  15.573  0.5348  0.6267  0.0649
 9004TIP3    H248428   1.833   6.184  15.644  0.5915  0.6435 -0.0424
 9005TIP3   OH248429   5.018   1.315  13.008 -0.0053 -0.6914 -0.1002
 9005TIP3    H148430   4.956   1.277  13.071  1.6988  0.4139  2.3798
 9005TIP3    H248431   5.007   1.409  13.018  0.1265 -0.4694 -1.7290
 9006TIP3   OH248432   2.702   4.109   1.961  0.2790  0.0348 -1.0111
 9006TIP3    H148433   2.769   4.071   1.905 -0.6348 -1.3297 -1.2229
 9006TIP3    H248434   2.663   4.034   2.006  0.4904  1.0141  0.9261
 9007TIP3   OH248435   4.492   2.334  12.314  0.4923  0.3499 -0.2827
 9007TIP3    H148436   4.411   2.350  12.362  0.6196  0.3995 -0.0829
 9007TIP3    H248437   4.463   2.310  12.225  0.1934 -1.0953  0.1780
 9008TIP3   OH248438   2.149   5.051  15.077  0.1353  0.6954  0.2379
 9008TIP3    H148439   2.239   5.024  15.090  0.3066  1.0006 -0.2538
 9008TIP3    H248440   2.109   5.047  15.164  1.1743  2.5274  0.8679
 9009TIP3   OH248441   3.169   1.215  10.644  0.5823  0.4339  0.2613
 9009TIP3    H148442   3.089   1.264  10.628  0.2117 -0.1964  0.1144
 9009TIP3    H248443   3.239   1.280  10.641 -0.0530  1.2456  1.9243
 9010TIP3   OH248444   2.193   1.343   0.094  0.3293 -0.2727  0.6175
 9010TIP3    H148445   2.103   1.314   0.078 -0.8009  2.3044  1.7280
 9010TIP3    H248446   2.223   1.375   0.009 -0.3627  0.1427  0.5134
 9011TIP3   OH248447   4.782   2.178   1.876 -0.5381 -0.2501 -0.3226
 9011TIP3    H148448   4.743   2.090   1.876 -0.2193 -0.4163 -1.5090
 9011TIP3    H248449   4.829   2.183   1.792 -1.3325  1.3988 -0.7050
 9012TIP3   OH248450   0.468   2.505  13.099 -0.3882  0.6521 -0.0437
 9012TIP3    H148451   0.453   2.516  13.005 -2.6843 -0.9574  0.0539
 9012TIP3    H248452   0.444   2.589  13.138 -2.3664  0.4211 -0.6658
 9013TIP3   OH248453   5.828   5.508   2.470 -0.2791 -0.4258  0.1604
 9013TIP3    H148454   5.909   5.478   2.511  1.1209  0.1520 -1.9849
 9013TIP3    H248455   5.812   5.595   2.507  1.0868  0.1859 -0.6056
 9014TIP3   OH248456   5.415   5.441   6.320  0.1394 -0.5075 -0.0021
 9014TIP3    H148457   5.324   5.449   6.349 -0.2082  3.3338 -1.5063
 9014TIP3    H248458   5.409   5.440   6.224  1.6811  0.1387 -0.1336
 9015TIP3   OH248459   2.996   5.751   0.056 -0.1406  0.5406  0.2420
 9015TIP3    H148460   3.056   5.815   0.018 -1.3181  0.4232 -1.9951
 9015TIP3    H248461   3.016   5.669   0.011 -0.8251  0.1210  0.6772
 9016TIP3   OH248462   2.108   3.751  16.017 -0.5807 -0.7633 -0.2300
 9016TIP3    H148463   2.125   3.801  16.097  0.5134 -0.3069 -0.7217
 9016TIP3    H248464   2.013   3.744  16.012 -0.6673 -0.5697  0.9690
 9017TIP3   OH248465   1.253   4.979   4.399  0.1197 -0.5476 -0.0046
 9017TIP3    H148466   1.288   4.894   4.427 -0.6098 -1.6997 -2.2476
 9017TIP3    H248467   1.168   4.957   4.361 -0.8510  1.4729  0.8622
 9018TIP3   OH248468   3.066   6.106   3.675 -0.2788  0.1217 -0.5202
 9018TIP3    H148469   3.145   6.061   3.705 -0.9231  0.2032  1.4767
 9018TIP3    H248470   3.023   6.135   3.756  0.1548  4.4940 -1.5787
 9019TIP3   OH248471   0.325   3.287   3.523  0.1501 -0.1839  0.2291
 9019TIP3    H148472   0.287   3.363   3.479 -1.8391 -1.5587 -0.6055
 9019TIP3    H248473   0.364   3.235   3.453  0.3471 -0.5582  0.6102
 9020TIP3   OH248474   1.650   1.601  14.445 -0.0538 -0.1742  0.6827
 9020TIP3    H148475   1.729   1.571  14.490 -0.0662 -2.1127 -0.4817
 9020TIP3    H248476   1.594   1.524  14.440 -0.7424  0.3883 -1.1585
 9021TIP3   OH248477   4.545   2.975   4.199 -0.5518  0.1959 -0.4564
 9021TIP3    H148478   4.483   2.970   4.271  0.3550  2.6076  0.6138
 9021TIP3    H248479   4.494   3.006   4.124 -1.0607 -0.0343 -0.2045
 9022TIP3   OH248480   2.175   0.077   1.552 -0.4299  0.0269  0.4587
 9022TIP3    H148481   2.184   0.127   1.472 -0.9256  0.2573  0.5429
 9022TIP3    H248482   2.161  -0.013   1.522  0.8615 -0.1351  0.3164
 9023TIP3   OH248483   3.936   0.646  14.887  0.1084 -0.5795  0.8872
 9023TIP3    H148484   4.006   0.695  14.931 -0.5606  0.9558  0.3394
 9023TIP3    H248485   3.862   0.706  14.888 -0.0489 -0.5847 -1.9629
 9024TIP3   OH248486   4.122   4.643   5.408  0.0721 -0.0218  0.0219
 9024TIP3    H148487   4.212   4.645   5.442  0.4079  1.5557 -0.8690
 9024TIP3    H248488   4.070   4.611   5.482  1.3208 -0.7011  0.6516
 9025TIP3   OH248489   5.793   2.498   6.089  0.3335 -0.4095 -0.4805
 9025TIP3    H148490   5.874   2.446   6.088  0.4732 -0.2004 -0.2633
 9025TIP3    H248491   5.736   2.455   6.026  0.2279 -1.1700  0.1216
 9026TIP3   OH248492   3.701   1.449  11.376  0.2344  0.7039  0.6261
 9026TIP3    H148493   3.609   1.475  11.384  0.5994  2.1480  0.5766
 9026TIP3    H248494   3.699   1.355  11.360 -1.2962  0.9445 -0.8090
 9027TIP3   OH248495   0.631   5.934  12.984 -0.1006 -0.0062  0.0807
 9027TIP3    H148496   0.550   5.900  13.023  0.1622 -0.8764 -0.1187
 9027TIP3    H248497   0.603   6.012  12.936 -0.8397 -0.3373 -0.0489
 9028TIP3   OH248498   1.716   5.697  10.819  0.2271 -0.1951  0.4511
 9028TIP3    H148499   1.684   5.635  10.753 -0.0147  1.9247 -1.5243
 9028TIP3    H248500   1.811   5.685  10.819  0.3294  0.4111 -0.9995
 9029TIP3   OH248501   1.093   5.948  16.662  0.0407 -0.3636  0.3893
 9029TIP3    H148502   1.044   6.011  16.716  0.9890 -0.1472  1.0455
 9029TIP3    H248503   1.138   5.892  16.726 -1.1240 -2.0168 -0.1809
 9030TIP3   OH248504   0.207   4.649  13.889  0.0304  0.1329  0.0131
 9030TIP3    H148505   0.263   4.698  13.829  0.7490  0.7472  1.1399
 9030TIP3    H248506   0.215   4.696  13.973 -0.0469 -1.3342  0.8745
 9031TIP3   OH248507   2.064   3.333   1.959 -0.8449 -0.2749  0.3685
 9031TIP3    H148508   2.122   3.260   1.981 -0.4023  0.3070  1.1681
 9031TIP3    H248509   2.028   3.362   2.043 -1.3937  0.1159  0.0058
 9032TIP3   OH248510   0.957   2.384   4.165  0.2654 -0.3904 -0.0670
 9032TIP3    H148511   1.027   2.335   4.121  0.6663  0.8021 -0.7773
 9032TIP3    H248512   0.878   2.332   4.149  1.1297 -2.4590  1.8480
 9033TIP3   OH248513   3.534   3.422   2.244  0.5462 -0.3394 -0.0177
 9033TIP3    H148514   3.575   3.485   2.304 -0.6351 -0.2981  0.7739
 9033TIP3    H248515   3.559   3.337   2.277  0.1256 -0.3117  0.3776
 9034TIP3   OH248516   1.973   1.459  15.903  0.2305  0.2968  0.1617
 9034TIP3    H148517   1.982   1.539  15.954  0.8913  0.0611  0.4335
 9034TIP3    H248518   1.976   1.389  15.969  1.6808 -0.0425 -0.2164
 9035TIP3   OH248519   0.400   1.390  10.708  0.6523 -0.4970 -0.2202
 9035TIP3    H148520   0.460   1.464  10.719 -0.3977  0.3379  0.0987
 9035TIP3    H248521   0.316   1.423  10.740 -0.1559 -1.3727 -1.3612
 9036TIP3   OH248522   1.479   2.564  16.653  0.0086  0.3155  0.0443
 9036TIP3    H148523   1.455   2.587  16.563  1.4837  0.0316 -0.4511
 9036TIP3    H248524   1.558   2.615  16.670 -0.4868  0.6918  1.3503
 9037TIP3   OH248525   3.928   2.329   4.977  0.2873 -0.2916 -0.3119
 9037TIP3    H148526   3.921   2.241   5.013  3.1543 -1.9428 -3.2939
 9037TIP3    H248527   3.862   2.332   4.908 -0.4945  0.3444  0.4356
 9038TIP3   OH248528   1.064   6.228   1.332 -0.4624 -0.4997  0.0125
 9038TIP3    H148529   1.049   6.313   1.291 -2.3141 -0.6636  0.2660
 9038TIP3    H248530   1.024   6.236   1.419  0.9089 -1.0723  0.7311
 9039TIP3   OH248531   3.096   6.772  15.185 -0.2867  0.3958  0.0697
 9039TIP3    H148532   3.118   6.777  15.092 -1.0556 -1.4287 -0.2382
 9039TIP3    H248533   3.178   6.796  15.229  0.3874  0.2761 -1.0567
 9040TIP3   OH248534   4.746   5.607   5.349  0.6974 -0.1058  0.2755
 9040TIP3    H148535   4.773   5.699   5.353 -1.2260  0.4456  1.7887
 9040TIP3    H248536   4.656   5.610   5.316  0.9838 -1.5609 -0.7294
 9041TIP3   OH248537   2.221   3.911  15.796 -0.1001 -0.5767  0.1525
 9041TIP3    H148538   2.157   3.893  15.866 -0.0996  0.7028  0.5110
 9041TIP3    H248539   2.294   3.954  15.841 -0.4769  1.0799 -0.7300
 9042TIP3   OH248540   3.396   5.488   2.955 -0.1221  0.2958 -0.5056
 9042TIP3    H148541   3.402   5.556   3.022  0.9670 -0.6529  0.3902
 9042TIP3    H248542   3.463   5.511   2.891  0.7583 -0.3293  0.1795
 9043TIP3   OH248543   3.659   1.295  15.513 -0.1639 -0.6957  0.3831
 9043TIP3    H148544   3.725   1.338  15.459  0.1042  0.2480  1.4349
 9043TIP3    H248545   3.686   1.312  15.603 -2.1674  0.2784  0.8628
 9044TIP3   OH248546   4.094   2.236  16.348 -0.4820 -0.0848  0.2431
 9044TIP3    H148547   4.171   2.232  16.404 -0.7203  0.1783  0.5930
 9044TIP3    H248548   4.129   2.241  16.259 -0.1108 -2.2032  0.2264
 9045TIP3   OH248549   3.576   0.749  14.084  0.5120 -0.0144  0.0984
 9045TIP3    H148550   3.517   0.676  14.098  0.6155 -0.4621 -1.5109
 9045TIP3    H248551   3.519   0.825  14.070  0.3414 -0.2216 -0.3381
 9046TIP3   OH248552   4.083   4.316   0.247  0.1786 -0.1291 -0.4500
 9046TIP3    H148553   4.018   4.265   0.198  0.6170  0.2657 -1.4680
 9046TIP3    H248554   4.049   4.406   0.244  0.4802 -0.0158 -0.4878
 9047TIP3   OH248555   3.145   1.674  15.535 -0.3292  0.3275  0.1112
 9047TIP3    H148556   3.111   1.668  15.624 -1.9953  0.4333 -0.4944
 9047TIP3    H248557   3.216   1.738  15.541  0.2815 -0.4067  1.5336
 9048TIP3   OH248558   4.060   3.922   5.901 -0.0055  0.1098  0.1235
 9048TIP3    H148559   4.087   3.886   5.986 -0.9925  1.4803  1.0590
 9048TIP3    H248560   4.076   4.016   5.908 -2.4645  0.6263 -0.2117
 9049TIP3   OH248561   6.573   4.340  15.218  0.5856 -0.7239  0.0037
 9049TIP3    H148562   6.483   4.340  15.249  0.3663 -0.2630 -0.6012
 9049TIP3    H248563   6.612   4.261  15.256  0.2182 -0.4101  1.0663
 9050TIP3   OH248564   0.728   1.326  15.048  0.0648  0.3439  0.2770
 9050TIP3    H148565   0.749   1.246  15.097 -1.8861  0.0775  0.7560
 9050TIP3    H248566   0.661   1.299  14.986 -0.4562  1.5643  0.2942
 9051TIP3   OH248567   4.891   3.180   2.352  0.3452 -0.0509  0.7481
 9051TIP3    H148568   4.835   3.120   2.399 -0.0881 -0.6793 -0.5373
 9051TIP3    H248569   4.978   3.140   2.355  0.4194  0.1455  1.3889
 9052TIP3   OH248570   4.385   0.202  15.139 -0.2687  0.0156  0.4155
 9052TIP3    H148571   4.302   0.230  15.101 -0.1062  0.5264  0.4288
 9052TIP3    H248572   4.370   0.112  15.167 -0.3844 -0.4034 -0.8945
 9053TIP3   OH248573   1.103   5.682   1.964 -0.5703 -0.3236 -0.9079
 9053TIP3    H148574   1.096   5.626   2.042 -0.4120  0.0227 -0.6399
 9053TIP3    H248575   1.083   5.624   1.891 -0.3736 -0.7398 -0.6370
 9054TIP3   OH248576   6.682   1.631  17.049  0.1178 -0.1529  0.6652
 9054TIP3    H148577   6.642   1.717  17.057 -0.9884 -0.5123 -0.5315
 9054TIP3    H248578   6.735   1.637  16.969 -0.6333 -0.8000  0.1010
 9055TIP3   OH248579   2.510   6.580   1.963  0.4288  0.2693  0.8530
 9055TIP3    H148580   2.550   6.605   1.879 -0.1355  0.5464  0.6625
 9055TIP3    H248581   2.467   6.660   1.993  1.5685  0.4971  1.9590
 9056TIP3   OH248582   0.772   6.324   6.452 -0.6194  0.5051  0.1248
 9056TIP3    H148583   0.717   6.246   6.462  0.4228 -0.0905  1.6607
 9056TIP3    H248584   0.719   6.395   6.486 -1.4021  0.4174 -0.8491
 9057TIP3   OH248585   5.008   4.849  14.848 -0.1866  0.0963 -0.6374
 9057TIP3    H148586   5.007   4.931  14.898  0.4183 -1.1275  1.5048
 9057TIP3    H248587   4.922   4.846  14.806 -0.8334  1.0722  0.5491
 9058TIP3   OH248588   0.268   4.256   4.627  0.0155 -0.0718  0.0219
 9058TIP3    H148589   0.199   4.208   4.673 -0.8132  1.6400  0.6419
 9058TIP3    H248590   0.313   4.305   4.695  1.2907 -0.4517 -0.5065
 9059TIP3   OH248591   0.217   2.790   6.101  0.2316  0.3257  0.2333
 9059TIP3    H148592   0.298   2.837   6.119  0.2185  0.0537  1.0146
 9059TIP3    H248593   0.245   2.699   6.087  0.0785  0.2578  0.3668
 9060TIP3   OH248594   1.199   1.967   0.522  0.9255  0.2192  0.7200
 9060TIP3    H148595   1.218   2.021   0.598  1.8871  0.6723  0.1803
 9060TIP3    H248596   1.253   1.889   0.534  0.7898  0.1213  0.6931
 9061TIP3   OH248597   1.313   0.867  11.160 -0.2383 -0.5811  0.3994
 9061TIP3    H148598   1.279   0.778  11.166 -1.6758 -0.0006  1.4810
 9061TIP3    H248599   1.406   0.856  11.140 -1.0463 -2.2532 -3.3230
 9062TIP3   OH248600   2.962   6.071   3.934 -0.7321  0.3286  0.0680
 9062TIP3    H148601   2.876   6.044   3.968 -0.9417 -0.1753 -0.8539
 9062TIP3    H248602   3.020   6.067   4.010 -1.7205  1.6020  0.9355
 9063TIP3   OH248603   6.545   6.516   5.188  0.3663 -0.1934  0.5225
 9063TIP3    H148604   6.588   6.519   5.103 -2.3538  1.2859 -0.9090
 9063TIP3    H248605   6.516   6.605   5.204  0.7842 -0.4289  3.0613
 9064TIP3   OH248606   3.070   0.829  16.475 -0.3806 -0.4979  0.1768
 9064TIP3    H148607   2.985   0.871  16.459  0.4215  0.6169 -1.4512
 9064TIP3    H248608   3.095   0.793  16.390  1.4257  0.4741  0.2395
 9065TIP3   OH248609   3.780   2.202  13.712 -0.3225 -0.1060 -0.6457
 9065TIP3    H148610   3.856   2.155  13.677  0.7161  0.2432  1.0102
 9065TIP3    H248611   3.751   2.150  13.786  0.8128  1.7260  1.1891
 9066TIP3   OH248612   1.657   3.069  13.986  0.1324 -0.2349  0.3728
 9066TIP3    H148613   1.611   3.153  13.994 -2.7186 -1.7205  0.8551
 9066TIP3    H248614   1.722   3.083  13.917 -1.8203  1.7326 -1.2014
 9067TIP3   OH248615   1.673   2.930  15.415 -0.4178 -0.0542  0.0262
 9067TIP3    H148616   1.742   2.930  15.348 -0.8338 -0.8882 -0.4195
 9067TIP3    H248617   1.674   3.019  15.451  0.2669  0.2085 -0.6247
 9068TIP3   OH248618   3.648   5.784  16.532  0.2834  0.1093  0.2058
 9068TIP3    H148619   3.706   5.777  16.456 -0.0081  0.9320 -0.1093
 9068TIP3    H248620   3.622   5.876  16.533  0.0209  0.0283  1.1160
 9069TIP3   OH248621   1.110   3.864  12.208  0.1491  0.1717 -0.0596
 9069TIP3    H148622   1.177   3.801  12.233  1.6557  1.6472 -0.2569
 9069TIP3    H248623   1.065   3.886  12.289  1.0813  0.4996  0.3703
 9070TIP3   OH248624   6.539   0.819  16.804 -0.5499 -0.2581 -0.0917
 9070TIP3    H148625   6.543   0.737  16.753 -2.3562 -0.3082 -0.1926
 9070TIP3    H248626   6.580   0.884  16.747 -1.0155 -0.6637 -0.8999
 9071TIP3   OH248627   5.953   4.421   1.500 -0.7545 -0.2173 -0.1349
 9071TIP3    H148628   5.957   4.512   1.531 -0.0526 -0.6764  1.1816
 9071TIP3    H248629   5.893   4.378   1.561 -1.4533 -0.5527 -1.0335
 9072TIP3   OH248630   6.533   3.432  10.929  0.8870 -0.4146 -0.1623
 9072TIP3    H148631   6.589   3.406  11.002  2.1954  2.7174  0.1299
 9072TIP3    H248632   6.591   3.433  10.853 -0.1385 -2.2825 -1.0399
 9073TIP3   OH248633   2.242   3.699  17.170  0.3995 -0.0689 -0.2461
 9073TIP3    H148634   2.291   3.707  17.088  0.3082 -0.3139 -0.3242
 9073TIP3    H248635   2.293   3.637  17.223  1.4428  1.4274  0.6039
 9074TIP3   OH248636   2.429   1.712   3.135 -0.0919 -0.4836  0.2274
 9074TIP3    H148637   2.360   1.774   3.159 -0.2902 -1.1420  1.4544
 9074TIP3    H248638   2.511   1.758   3.152 -0.2353 -0.3044  0.4286
 9075TIP3   OH248639   5.783   0.833   3.182 -0.6156 -0.2559 -0.1961
 9075TIP3    H148640   5.825   0.832   3.096 -2.9657 -1.1448 -1.4037
 9075TIP3    H248641   5.794   0.923   3.213  1.7102 -0.3343 -0.6282
 9076TIP3   OH248642   4.895   1.204  11.527 -0.2906  0.1290  0.3093
 9076TIP3    H148643   4.851   1.137  11.580  1.4919  0.7777  2.7876
 9076TIP3    H248644   4.955   1.154  11.470 -0.3456 -0.4721  0.7669
 9077TIP3   OH248645   3.335   1.400   4.696 -0.2770 -0.1729 -0.2197
 9077TIP3    H148646   3.276   1.339   4.650 -0.6903 -1.6386  2.0672
 9077TIP3    H248647   3.293   1.485   4.687 -1.1258 -0.6697 -1.2213
 9078TIP3   OH248648   3.942   6.436  10.810 -0.1440 -0.1143  0.2498
 9078TIP3    H148649   3.864   6.438  10.754  0.2993  3.4847 -0.5357
 9078TIP3    H248650   4.011   6.404  10.753 -0.1367  1.4573 -0.6947
 9079TIP3   OH248651   2.242   1.917  13.878 -0.1435 -0.3267 -0.0152
 9079TIP3    H148652   2.186   1.924  13.801  0.3255  1.4131 -0.2481
 9079TIP3    H248653   2.270   2.007  13.896 -0.4654 -0.6307  2.3621
 9080TIP3   OH248654   4.407   5.837  11.882 -0.1889 -0.0854  0.5431
 9080TIP3    H148655   4.351   5.904  11.843  2.4338  2.0346  0.0976
 9080TIP3    H248656   4.481   5.886  11.918  0.7409 -2.5876  2.3140
 9081TIP3   OH248657   1.398   6.564  16.972 -0.3918 -0.5789  0.0455
 9081TIP3    H148658   1.463   6.532  16.910 -0.1570  0.9290 -0.5248
 9081TIP3    H248659   1.432   6.540  17.058 -0.3212 -1.9750 -0.3572
 9082TIP3   OH248660   5.547   3.520   0.875  0.1647 -0.0098 -0.1892
 9082TIP3    H148661   5.528   3.513   0.969  0.2459  0.2231 -0.1546
 9082TIP3    H248662   5.619   3.583   0.869  0.5189 -0.4273 -0.3701
 9083TIP3   OH248663   4.541   4.603   5.842  0.1607 -0.3198 -0.5510
 9083TIP3    H148664   4.491   4.684   5.835  2.5649  1.5063  1.5160
 9083TIP3    H248665   4.616   4.626   5.896  0.7874 -4.0647  0.4464
 9084TIP3   OH248666   4.138   0.432   4.483 -0.1686  0.3316 -0.3861
 9084TIP3    H148667   4.194   0.358   4.506  0.7472  1.0647 -0.2347
 9084TIP3    H248668   4.056   0.391   4.454  0.4615 -0.7556 -0.7013
 9085TIP3   OH248669   2.931   4.183  15.686  0.2451  0.1055 -0.3385
 9085TIP3    H148670   2.845   4.142  15.675 -0.5430  2.1588 -2.9060
 9085TIP3    H248671   2.993   4.122  15.646 -0.0881 -0.9942  0.7633
 9086TIP3   OH248672   1.557   1.180   0.196 -0.1644  0.0464 -0.1815
 9086TIP3    H148673   1.474   1.142   0.225 -0.2202  0.6436  0.4635
 9086TIP3    H248674   1.596   1.218   0.275 -0.0538  1.2077 -0.7654
 9087TIP3   OH248675   0.879   5.938  13.560  0.1078  0.5532  0.0860
 9087TIP3    H148676   0.898   5.844  13.571  2.2658  1.0808  1.3471
 9087TIP3    H248677   0.809   5.955  13.623 -0.7546 -0.3111 -0.5997
 9088TIP3   OH248678   6.630   2.471   4.351  0.3191  0.8886  0.3330
 9088TIP3    H148679   6.620   2.549   4.296 -0.3014  1.2637  0.9579
 9088TIP3    H248680   6.658   2.504   4.436  1.4709  0.2937  0.2031
 9089TIP3   OH248681   4.293   5.382   3.618 -0.1934 -0.1621  0.2248
 9089TIP3    H148682   4.333   5.309   3.570  0.0431  0.1070  0.0138
 9089TIP3    H248683   4.361   5.411   3.679 -0.9269 -1.3674  1.6917
 9090TIP3   OH248684   1.967   3.357  12.937  0.2634 -0.1271  0.4440
 9090TIP3    H148685   1.970   3.283  12.997 -0.9389 -0.3623  0.2303
 9090TIP3    H248686   2.058   3.384  12.929  0.5346 -0.5088  1.8513
 9091TIP3   OH248687   4.096   0.055  15.782 -0.2536  0.2264 -0.6418
 9091TIP3    H148688   4.146   0.009  15.850  0.0434  0.3352 -0.7816
 9091TIP3    H248689   4.147   0.134  15.765 -2.0045  1.8855  1.3186
 9092TIP3   OH248690   0.574   4.252  16.790  0.2142  0.2014 -0.0475
 9092TIP3    H148691   0.528   4.212  16.716 -0.5698  2.0305 -0.5909
 9092TIP3    H248692   0.598   4.339  16.760 -1.3916  1.5529  2.2826
 9093TIP3   OH248693   3.311   1.762   0.891  0.1892  0.3794  0.2271
 9093TIP3    H148694   3.230   1.808   0.912  0.5860  1.5982 -0.7725
 9093TIP3    H248695   3.367   1.775   0.967 -0.0693  0.7022  0.3635
 9094TIP3   OH248696   0.079   1.570  11.982  0.5031 -0.3113  0.5424
 9094TIP3    H148697   0.008   1.546  11.921 -0.1353  1.9324  0.3249
 9094TIP3    H248698   0.145   1.502  11.969 -1.3088 -2.1573  0.3073
 9095TIP3   OH248699   4.523   4.749  15.966 -0.3216  0.4430  0.2725
 9095TIP3    H148700   4.576   4.704  15.900 -1.8733  0.2797 -0.9018
 9095TIP3    H248701   4.550   4.841  15.960  1.2469  0.0818  1.1201
 9096TIP3   OH248702   3.944   3.892  12.690  0.2522  0.0779  0.3822
 9096TIP3    H148703   3.869   3.933  12.732  1.6245  0.6946  2.4183
 9096TIP3    H248704   3.971   3.823  12.751  2.2144  0.8621  0.4705
 9097TIP3   OH248705   0.833   0.893   4.994 -0.1564  0.0825  0.7270
 9097TIP3    H148706   0.828   0.882   5.089  2.8835 -0.8977  0.8908
 9097TIP3    H248707   0.841   0.804   4.960 -1.0256  0.4346 -0.4480
 9098TIP3   OH248708   1.362   1.429   2.752 -0.0181 -0.2156  0.8992
 9098TIP3    H148709   1.282   1.467   2.713  0.8246 -0.1192 -0.8539
 9098TIP3    H248710   1.366   1.341   2.716  0.9847 -0.0035  0.4746
 9099TIP3   OH248711   2.509   1.296  11.246  0.0834 -0.0514 -0.6420
 9099TIP3    H148712   2.521   1.204  11.223 -0.4610 -0.2608 -0.1112
 9099TIP3    H248713   2.565   1.344  11.185  0.8707 -0.7704 -0.4954
 9100TIP3   OH248714   6.730   6.579   4.679  0.0196 -0.1658 -0.1898
 9100TIP3    H148715   6.801   6.514   4.687 -0.4447 -0.7866 -0.9325
 9100TIP3    H248716   6.651   6.526   4.666 -1.2111  0.3157  3.9394
 9101TIP3   OH248717   3.088   4.311  13.973  0.5906  0.1632 -0.2896
 9101TIP3    H148718   3.023   4.377  13.998  2.1085  1.4482  0.4768
 9101TIP3    H248719   3.063   4.233  14.022  0.7539  1.2355  1.6068
 9102TIP3   OH248720   0.227   1.511   3.729  0.2611  0.3552  0.0989
 9102TIP3    H148721   0.263   1.600   3.731 -0.9555  0.8566  0.4745
 9102TIP3    H248722   0.250   1.474   3.814  0.8127  0.2826 -0.0758
 9103TIP3   OH248723   1.945   2.025   4.448 -0.2173  0.3483  0.0746
 9103TIP3    H148724   1.888   2.096   4.420  0.7053  0.9139 -0.4437
 9103TIP3    H248725   2.021   2.069   4.487 -0.7322 -0.4067  2.0161
 9104TIP3   OH248726   0.907   0.953   0.628  0.6782 -0.7086 -0.4677
 9104TIP3    H148727   0.862   0.951   0.712  1.1950  1.4707 -0.0887
 9104TIP3    H248728   0.882   0.870   0.586 -1.6339 -0.7124  0.7406
 9105TIP3   OH248729   1.661   2.560  12.920  0.2236  0.4506 -0.2035
 9105TIP3    H148730   1.679   2.606  13.001 -1.0881 -0.9269  0.9343
 9105TIP3    H248731   1.731   2.494  12.913  0.0539  0.2375  0.0860
 9106TIP3   OH248732   5.255   5.383   4.220  0.4083 -0.1033 -0.4391
 9106TIP3    H148733   5.209   5.303   4.243 -0.6346  0.0980 -1.6862
 9106TIP3    H248734   5.333   5.354   4.172  0.6675 -0.4003  0.1624
 9107TIP3   OH248735   6.213   1.340  15.157 -0.0767 -0.0877 -0.7818
 9107TIP3    H148736   6.120   1.362  15.165 -0.1960  0.3417 -2.7532
 9107TIP3    H248737   6.259   1.414  15.196 -0.4953 -1.1708  2.0272
 9108TIP3   OH248738   3.627   3.039  10.505  0.3652  0.1641  0.1573
 9108TIP3    H148739   3.593   3.110  10.559 -3.0016 -1.7653  0.8486
 9108TIP3    H248740   3.607   3.065  10.415  0.8943  0.8949  0.2404
 9109TIP3   OH248741   3.205   1.770  13.157  0.1226 -0.5380  0.3963
 9109TIP3    H148742   3.181   1.685  13.121  2.1440 -1.3018  0.7388
 9109TIP3    H248743   3.152   1.777  13.237  0.4453 -1.8121  0.7490
 9110TIP3   OH248744   3.051   3.045  11.929 -0.0492 -0.1964 -0.2085
 9110TIP3    H148745   2.998   3.102  11.986  0.5983 -0.6376  0.8542
 9110TIP3    H248746   3.034   2.957  11.962  1.5559 -0.3260  0.3386
 9111TIP3   OH248747   6.549   1.966   0.962  0.8800 -0.2494 -0.5620
 9111TIP3    H148748   6.582   2.054   0.980 -0.6283  0.0197  1.1496
 9111TIP3    H248749   6.536   1.927   1.049  0.8027 -1.8968 -1.2794
 9112TIP3   OH248750   0.315   0.415   2.009 -0.3878 -0.0169  0.8617
 9112TIP3    H148751   0.282   0.497   2.044 -1.2944  0.2521 -0.5636
 9112TIP3    H248752   0.360   0.439   1.928 -0.6900 -0.9216  0.4129
 9113TIP3   OH248753   2.626   2.800   0.306 -0.1171 -0.1589 -0.1729
 9113TIP3    H148754   2.553   2.746   0.337  0.2708 -0.8244 -0.3926
 9113TIP3    H248755   2.640   2.772   0.216 -0.0611  0.4810 -0.3661
 9114TIP3   OH248756   0.376   0.191   4.552 -0.3807  0.2199  0.3457
 9114TIP3    H148757   0.300   0.217   4.604 -0.1634  0.6418  0.4537
 9114TIP3    H248758   0.347   0.111   4.507 -0.7796  0.1975  0.6303
 9115TIP3   OH248759   6.461   1.755   0.517  0.2805  0.3976 -0.2227
 9115TIP3    H148760   6.533   1.791   0.570 -0.3060 -0.0265  0.9055
 9115TIP3    H248761   6.409   1.705   0.580  0.0825 -0.9300 -1.4130
 9116TIP3   OH248762   0.582   0.471  13.906  0.2925 -0.2098  0.1654
 9116TIP3    H148763   0.508   0.413  13.887  0.8355 -0.5039 -1.1836
 9116TIP3    H248764   0.542   0.555  13.926 -0.4358  0.2640 -2.7724
 9117TIP3   OH248765   5.799   1.405   3.745  0.2272 -0.1674 -0.3515
 9117TIP3    H148766   5.809   1.351   3.823  2.6418 -0.9766 -1.1501
 9117TIP3    H248767   5.704   1.411   3.733 -0.1958 -0.6348  2.1795
 9118TIP3   OH248768   5.407   3.589  16.628 -0.4503  0.1163  0.6184
 9118TIP3    H148769   5.379   3.560  16.714  0.8965  0.6711  1.2687
 9118TIP3    H248770   5.474   3.654  16.645  1.8612 -1.7168 -0.8086
 9119TIP3   OH248771   3.831   2.989   1.177  0.1796 -0.1943 -0.1857
 9119TIP3    H148772   3.859   3.059   1.236  0.5725 -0.4159 -0.1033
 9119TIP3    H248773   3.793   3.035   1.102 -0.3266  0.0842  0.2365
 9120TIP3   OH248774   4.063   2.337   1.444  0.1405 -0.5471  0.1955
 9120TIP3    H148775   4.048   2.412   1.500  1.4842  0.1135 -0.2825
 9120TIP3    H248776   4.142   2.359   1.394  0.1908 -1.9902 -0.4312
 9121TIP3   OH248777   0.454   5.391  15.762 -0.2539  0.6772 -0.2927
 9121TIP3    H148778   0.498   5.354  15.686  2.0429  0.7551  0.9228
 9121TIP3    H248779   0.370   5.344  15.766 -1.2299  1.8388 -3.7611
 9122TIP3   OH248780   3.432   0.186   3.097 -0.1115 -0.2237  0.5813
 9122TIP3    H148781   3.368   0.115   3.096  0.3382 -0.6897 -2.3177
 9122TIP3    H248782   3.386   0.260   3.138 -2.3182 -0.7304 -0.8254
 9123TIP3   OH248783   2.146   1.423   0.937 -0.5838 -0.6623 -0.0234
 9123TIP3    H148784   2.134   1.410   1.031  1.1405 -0.6218  0.2256
 9123TIP3    H248785   2.207   1.354   0.911 -1.7795 -1.2867 -1.3343
 9124TIP3   OH248786   1.985   2.715  14.815  0.0766 -0.2042 -0.2228
 9124TIP3    H148787   1.915   2.657  14.845 -0.2874  0.0876 -0.4863
 9124TIP3    H248788   2.045   2.721  14.889 -0.9296  0.7078  0.5470
 9125TIP3   OH248789   3.347   3.635  12.227 -0.6676 -0.4353  0.5095
 9125TIP3    H148790   3.270   3.585  12.255 -0.1168 -2.1894 -0.9378
 9125TIP3    H248791   3.403   3.571  12.185 -0.8624  1.6706 -3.4390
 9126TIP3   OH248792   5.800   4.285   0.916 -0.4873  0.0743 -0.2692
 9126TIP3    H148793   5.789   4.192   0.931 -0.1907  0.2323  1.1509
 9126TIP3    H248794   5.882   4.307   0.963  0.0436  0.8387 -1.5025
 9127TIP3   OH248795   4.810   0.756   4.018  0.1254 -0.6684 -0.1056
 9127TIP3    H148796   4.775   0.774   4.105 -0.4867 -1.7802 -0.1032
 9127TIP3    H248797   4.739   0.780   3.958  1.2520  2.0828 -0.4998
 9128TIP3   OH248798   3.023   5.305   5.203  0.0725 -0.2192 -0.1409
 9128TIP3    H148799   2.954   5.369   5.185  0.1427 -0.3252 -0.8196
 9128TIP3    H248800   3.039   5.263   5.118  2.1629  0.9827 -0.4151
 9129TIP3   OH248801   0.896   1.901   3.764 -0.2561  0.0659  0.1942
 9129TIP3    H148802   0.934   1.886   3.851  1.9209 -0.6866 -0.8167
 9129TIP3    H248803   0.852   1.818   3.744  1.1633 -0.5966 -0.3024
 9130TIP3   OH248804   2.965   1.661   2.137 -0.1418  0.1257  0.0433
 9130TIP3    H148805   2.968   1.688   2.229  0.9796  1.3079 -0.3220
 9130TIP3    H248806   2.874   1.634   2.123 -0.7387  1.4959  1.0650
 9131TIP3   OH248807   6.234   3.710   1.682 -0.1292 -0.3169  0.4014
 9131TIP3    H148808   6.252   3.650   1.755  0.6010  0.5473  0.9558
 9131TIP3    H248809   6.320   3.727   1.644 -0.1031  1.5547  1.2103
 9132TIP3   OH248810   3.265   2.256  16.929 -0.8171  0.2930 -0.3135
 9132TIP3    H148811   3.325   2.192  16.969 -2.4590 -0.2730  1.4065
 9132TIP3    H248812   3.299   2.269  16.841  1.5203 -0.3747  0.4168
 9133TIP3   OH248813   0.612   2.825   1.169  0.5322  0.3012  0.2644
 9133TIP3    H148814   0.540   2.763   1.162  2.1931 -1.8632  1.1374
 9133TIP3    H248815   0.583   2.890   1.232 -2.3748  2.2106 -2.7327
 9134TIP3   OH248816   5.785   6.684   4.838  0.4632  0.1731  0.3836
 9134TIP3    H148817   5.745   6.598   4.849 -0.9917  0.5432 -1.4575
 9134TIP3    H248818   5.715   6.746   4.860  0.6692  0.8495 -0.7759
 9135TIP3   OH248819   6.457   1.760   1.696 -0.0089  0.3558 -0.2969
 9135TIP3    H148820   6.550   1.756   1.715 -0.2534 -0.9319  0.8201
 9135TIP3    H248821   6.430   1.668   1.687 -0.9105  0.7456 -2.0305
 9136TIP3   OH248822   4.902   4.193   2.218 -0.2265 -0.6944  0.3054
 9136TIP3    H148823   4.955   4.210   2.296  0.1228 -2.1824  0.4281
 9136TIP3    H248824   4.966   4.165   2.152 -0.6730 -0.8439 -0.0678
 9137TIP3   OH248825   5.573   1.913   4.535 -0.2328  0.0968  0.0963
 9137TIP3    H148826   5.636   1.852   4.497  1.0076 -0.2002  2.4376
 9137TIP3    H248827   5.603   2.000   4.508 -1.7947 -0.1640 -2.9428
 9138TIP3   OH248828   1.220   3.121  11.278  0.2263 -0.3327 -0.4927
 9138TIP3    H148829   1.143   3.154  11.324  0.9632 -0.6170  0.9972
 9138TIP3    H248830   1.255   3.198  11.232  0.1780  0.2601  0.4437
 9139TIP3   OH248831   4.222   4.847  11.015  0.4050 -0.7296  0.2692
 9139TIP3    H148832   4.154   4.780  11.002 -0.4868  0.0604  0.7893
 9139TIP3    H248833   4.178   4.916  11.064  1.0339  0.6991 -1.1113
 9140TIP3   OH248834   4.776   4.703  16.588  0.3204 -0.0175 -0.0871
 9140TIP3    H148835   4.696   4.651  16.597  0.6134 -0.4129  0.2828
 9140TIP3    H248836   4.758   4.784  16.635 -0.3675  0.4880 -1.1884
 9141TIP3   OH248837   6.686   6.436   1.027  0.1857  0.4352 -0.3346
 9141TIP3    H148838   6.753   6.434   1.096 -2.7135  1.3859  2.7633
 9141TIP3    H248839   6.698   6.522   0.986  0.1792  1.1022  0.9906
 9142TIP3   OH248840   3.422   5.594  15.033 -0.3833 -0.4583  0.1502
 9142TIP3    H148841   3.359   5.665  15.045  0.3385  0.1392  0.5789
 9142TIP3    H248842   3.436   5.559  15.121  1.3763  0.7744  0.4273
 9143TIP3   OH248843   3.173   0.332   3.244 -0.4651 -0.4654  0.1431
 9143TIP3    H148844   3.127   0.414   3.264  0.8368 -0.0864  1.8194
 9143TIP3    H248845   3.110   0.282   3.191 -2.4467  0.3754  1.5621
 9144TIP3   OH248846   3.970   6.475   2.695  0.1330 -0.5437  0.1866
 9144TIP3    H148847   4.062   6.451   2.697 -0.4754 -3.2815 -0.4812
 9144TIP3    H248848   3.958   6.532   2.771  2.3417 -0.1100  0.2673
 9145TIP3   OH248849   1.120   0.100  14.741  0.1540 -0.2556  0.3285
 9145TIP3    H148850   1.102   0.143  14.657  1.3211  0.7664  0.5658
 9145TIP3    H248851   1.216   0.100  14.747  0.0956 -0.5666  1.5352
 9146TIP3   OH248852   1.952   1.871  13.409 -0.5560 -0.2058 -0.1588
 9146TIP3    H148853   1.876   1.880  13.351 -1.4173 -0.2911  0.9255
 9146TIP3    H248854   1.948   1.781  13.439 -0.7235  0.1263  0.8357
 9147TIP3   OH248855   3.616   0.250  13.541 -0.3401 -0.2340  0.1734
 9147TIP3    H148856   3.665   0.299  13.607 -1.3666  1.4515 -0.2289
 9147TIP3    H248857   3.576   0.318  13.486 -3.7702 -1.4306  0.9442
 9148TIP3   OH248858   3.766   4.927   5.155 -0.1846  0.1624  0.7526
 9148TIP3    H148859   3.683   4.890   5.185 -0.8258  1.7917  1.0875
 9148TIP3    H248860   3.831   4.860   5.178 -1.1578 -0.3311  2.2630
 9149TIP3   OH248861   3.651   0.252  13.144  0.1034  0.1571 -0.0336
 9149TIP3    H148862   3.722   0.259  13.080 -2.3571  5.5017 -2.8473
 9149TIP3    H248863   3.592   0.187  13.107  0.5858  0.3174 -1.1318
 9150TIP3   OH248864   3.629   4.361   3.346  0.5874 -0.3374 -0.5898
 9150TIP3    H148865   3.631   4.368   3.250  0.1666  1.1410 -0.5185
 9150TIP3    H248866   3.656   4.271   3.364  0.1560 -0.8089 -2.1195
 9151TIP3   OH248867   6.632   5.155  14.580  0.6845  0.1080  0.4791
 9151TIP3    H148868   6.631   5.242  14.619 -1.7255  0.6067 -0.5544
 9151TIP3    H248869   6.712   5.154  14.526  1.1024  1.4043  1.0304
 9152TIP3   OH248870   0.490   1.999  16.497  0.7762 -0.1782 -0.9176
 9152TIP3    H148871   0.458   1.909  16.488  1.8403 -0.5745 -0.8078
 9152TIP3    H248872   0.577   1.998  16.457  1.1760  0.5826 -0.1080
 9153TIP3   OH248873   5.897   5.683   5.973 -0.3049 -0.3445 -0.1872
 9153TIP3    H148874   5.906   5.679   6.068 -1.3785  0.1886 -0.0537
 9153TIP3    H248875   5.804   5.697   5.958 -0.1081 -0.1345 -1.3085
 9154TIP3   OH248876   4.522   5.910   1.172 -0.7719  0.3038  0.1991
 9154TIP3    H148877   4.498   5.822   1.201 -1.1567  0.2687 -0.2098
 9154TIP3    H248878   4.529   5.961   1.252  2.4454 -0.7832  0.7451
 9155TIP3   OH248879   0.768   0.121  16.314 -0.1317  0.6144  0.0955
 9155TIP3    H148880   0.821   0.164  16.382 -1.5170  0.1037  1.5681
 9155TIP3    H248881   0.731   0.193  16.263 -0.3326  1.0827  0.8875
 9156TIP3   OH248882   2.460   5.853   6.057 -0.5513 -0.5317  0.1401
 9156TIP3    H148883   2.515   5.779   6.084 -1.6148 -1.3629  0.1046
 9156TIP3    H248884   2.374   5.834   6.096 -0.7233  0.9391  0.5395
 9157TIP3   OH248885   5.953   6.198  14.176  0.0942  0.2431 -0.0583
 9157TIP3    H148886   5.924   6.204  14.085  0.7345  2.2508 -0.1588
 9157TIP3    H248887   6.008   6.275  14.190  1.4387 -0.9308  1.5391
 9158TIP3   OH248888   6.021   6.113   5.133  0.1583 -0.5147 -0.0221
 9158TIP3    H148889   6.065   6.029   5.141 -0.1645 -0.5241  2.3188
 9158TIP3    H248890   6.077   6.175   5.180 -0.7802  0.0892  0.3425
 9159TIP3   OH248891   1.719   1.418   3.864 -0.2339  0.4480  0.1003
 9159TIP3    H148892   1.745   1.436   3.955 -1.0539  0.1274  0.4095
 9159TIP3    H248893   1.719   1.322   3.857 -2.6213  0.3464  0.5455
 9160TIP3   OH248894   6.647   1.490  15.393 -0.3602  0.6304  0.7077
 9160TIP3    H148895   6.552   1.489  15.407 -0.1761 -1.6757  2.3303
 9160TIP3    H248896   6.668   1.402  15.363  1.5486  0.1852  3.0150
 9161TIP3   OH248897   3.187   4.371   6.873 -0.4801  0.3597  0.1318
 9161TIP3    H148898   3.191   4.466   6.881 -0.8661  0.4215 -0.3796
 9161TIP3    H248899   3.272   4.346   6.837 -0.9484  0.6780 -1.2458
 9162TIP3   OH248900   2.398   1.949  11.392 -0.1231 -0.4256 -0.4197
 9162TIP3    H148901   2.381   2.017  11.326  3.4740  1.6034  0.4978
 9162TIP3    H248902   2.434   1.996  11.466  0.2269 -3.1541  1.2770
 9163TIP3   OH248903   4.907   6.329   2.284  0.1090  0.0442  0.0095
 9163TIP3    H148904   4.950   6.372   2.211  1.0452 -0.6704  0.1267
 9163TIP3    H248905   4.820   6.369   2.287  0.9135  1.8725  0.0929
 9164TIP3   OH248906   3.994   3.592  13.814 -0.0020  0.1102 -0.3964
 9164TIP3    H148907   4.014   3.569  13.723 -1.2294  1.3521 -1.0301
 9164TIP3    H248908   4.080   3.608  13.854  0.5331  0.2222 -1.5323
 9165TIP3   OH248909   0.612   0.815   6.272 -0.4161  0.6396 -0.1792
 9165TIP3    H148910   0.644   0.810   6.181  0.0884 -0.2507  0.0337
 9165TIP3    H248911   0.543   0.749   6.276 -1.7390  1.9876 -0.4100
 9166TIP3   OH248912   1.221   5.880  13.890  0.5064 -0.1295 -0.0064
 9166TIP3    H148913   1.128   5.894  13.910  0.3883 -0.1927 -0.4724
 9166TIP3    H248914   1.230   5.912  13.800  1.5256  2.2630  0.8757
 9167TIP3   OH248915   5.885   6.257  15.795 -0.8423  0.1996 -0.0043
 9167TIP3    H148916   5.863   6.326  15.733  1.4094 -0.2092 -1.3928
 9167TIP3    H248917   5.957   6.209  15.753 -1.2939 -2.0346  1.5930
 9168TIP3   OH248918   3.861   3.645   0.831 -0.0274  0.2785 -0.6177
 9168TIP3    H148919   3.922   3.577   0.859 -1.1801 -0.7431 -0.4964
 9168TIP3    H248920   3.867   3.712   0.899  1.4916  0.5681 -0.9916
 9169TIP3   OH248921   1.189   1.633  12.197  0.0787  0.6039 -0.0223
 9169TIP3    H148922   1.156   1.677  12.119  1.5148 -0.0362 -1.0330
 9169TIP3    H248923   1.138   1.670  12.269 -1.6943  0.7638 -1.3168
 9170TIP3   OH248924   6.673   6.702   0.918 -0.1251 -0.2141 -0.3641
 9170TIP3    H148925   6.629   6.753   0.985 -0.9085  0.4018 -1.3095
 9170TIP3    H248926   6.648   6.744   0.836  0.2972 -1.3134 -1.0836
 9171TIP3   OH248927   6.525   3.597  16.730 -0.4637  0.1992 -0.4351
 9171TIP3    H148928   6.580   3.660  16.776 -0.0710 -0.3704 -0.1073
 9171TIP3    H248929   6.584   3.555  16.667 -1.3323  2.0973 -2.6565
 9172TIP3   OH248930   4.643   6.622  15.649 -0.2994  0.4257  0.3029
 9172TIP3    H148931   4.635   6.706  15.603 -0.4855  1.6072  2.3558
 9172TIP3    H248932   4.552   6.593  15.662 -0.2423  0.0064 -0.2068
 9173TIP3   OH248933   3.359   4.462  15.101  0.4252 -0.2893 -0.2047
 9173TIP3    H148934   3.324   4.545  15.067  1.1654  0.1878  0.1887
 9173TIP3    H248935   3.393   4.417  15.023 -0.4807 -0.4864 -0.5016
 9174TIP3   OH248936   2.697   1.107   0.668  0.2227  0.7876 -0.2144
 9174TIP3    H148937   2.767   1.160   0.707  0.8750  0.6490 -1.1814
 9174TIP3    H248938   2.684   1.036   0.731  1.7995  0.1400 -0.5874
 9175TIP3   OH248939   4.392   4.056  10.867 -0.2722 -0.0988  0.2447
 9175TIP3    H148940   4.480   4.091  10.861 -0.1307 -0.5661 -0.5076
 9175TIP3    H248941   4.393   4.002  10.946  0.1307 -0.1506  0.2062
 9176TIP3   OH248942   1.421   5.417  16.660  0.1555 -0.6062 -0.5810
 9176TIP3    H148943   1.380   5.504  16.660 -0.5451 -0.9273  0.2580
 9176TIP3    H248944   1.515   5.435  16.647 -0.0009  0.2559 -0.5713
 9177TIP3   OH248945   1.561   1.271  12.060  0.4205 -0.5696 -0.4749
 9177TIP3    H148946   1.586   1.337  12.126 -0.0834 -1.1390  0.3080
 9177TIP3    H248947   1.471   1.248  12.083 -0.5032  0.6517 -2.5742
 9178TIP3   OH248948   6.064   6.086  10.533 -0.2103  0.5813  0.4733
 9178TIP3    H148949   6.140   6.035  10.506 -1.6585 -0.8026 -1.2858
 9178TIP3    H248950   6.065   6.163  10.477 -1.1642 -0.4538 -1.0440
 9179TIP3   OH248951   2.652   4.829  11.190 -0.3849 -0.6487 -0.1961
 9179TIP3    H148952   2.585   4.779  11.237  0.2799 -0.5783  0.8746
 9179TIP3    H248953   2.715   4.853  11.258  0.0689  0.3767 -0.9563
 9180TIP3   OH248954   4.674   1.194   5.093 -0.1131  0.0309 -0.0375
 9180TIP3    H148955   4.763   1.227   5.098 -0.5775  1.3819 -0.0943
 9180TIP3    H248956   4.624   1.252   5.151 -0.9266 -0.8005  0.1153
 9181TIP3   OH248957   5.189   0.072  16.771  0.3428 -0.2073 -0.0590
 9181TIP3    H148958   5.187   0.055  16.866 -1.1513 -1.6196 -0.3018
 9181TIP3    H248959   5.146  -0.004  16.732 -0.4452  1.0585 -1.7924
 9182TIP3   OH248960   3.348   1.154  16.792 -0.0001 -0.5160  0.2556
 9182TIP3    H148961   3.329   1.124  16.881 -0.8602 -0.1768  0.1963
 9182TIP3    H248962   3.434   1.195  16.798 -1.0609  1.7219  1.5110
 9183TIP3   OH248963   0.837   2.886  12.504 -0.3467 -0.0850 -0.2929
 9183TIP3    H148964   0.778   2.862  12.574  0.9111 -1.0651  0.4798
 9183TIP3    H248965   0.886   2.961  12.538 -0.4364  0.0783 -0.5203
 9184TIP3   OH248966   3.990   3.334  16.846  1.0301  0.2885  0.5339
 9184TIP3    H148967   3.984   3.340  16.751  1.2877  2.1668  0.6073
 9184TIP3    H248968   3.974   3.241  16.865  1.8697 -0.2932 -1.3861
 9185TIP3   OH248969   3.866   5.190   3.825  0.4026 -0.3804  0.6430
 9185TIP3    H148970   3.959   5.177   3.841  0.3638 -1.6658 -0.0516
 9185TIP3    H248971   3.841   5.117   3.768 -1.3159 -0.8594  1.9167
 9186TIP3   OH248972   0.625   5.111  11.741 -0.3904  0.0350 -0.0394
 9186TIP3    H148973   0.534   5.087  11.720 -0.7308  0.4548  0.8906
 9186TIP3    H248974   0.619   5.199  11.776  0.5107  0.4299 -0.8257
 9187TIP3   OH248975   4.370   6.133  11.586  0.4210  0.0325  0.3175
 9187TIP3    H148976   4.446   6.076  11.587  0.1774 -0.3009  0.0152
 9187TIP3    H248977   4.363   6.163  11.495  1.0692  1.2541  0.6526
 9188TIP3   OH248978   1.942   0.156   1.120 -0.4686  0.4731  0.3098
 9188TIP3    H148979   1.891   0.162   1.040 -1.2246 -1.4163  0.6071
 9188TIP3    H248980   1.921   0.070   1.156  1.6248  0.3322  1.3395
 9189TIP3   OH248981   0.403   5.066   3.074 -0.0647 -0.4640 -0.6088
 9189TIP3    H148982   0.415   5.160   3.089 -1.6335 -0.6091  2.2251
 9189TIP3    H248983   0.491   5.033   3.056  0.4586  1.5420 -2.0792
 9190TIP3   OH248984   1.801   4.717   2.238  0.1459  0.7745  0.2431
 9190TIP3    H148985   1.863   4.743   2.170 -0.3758  1.4015 -0.0072
 9190TIP3    H248986   1.715   4.733   2.199 -0.2739 -1.9580 -0.1813
 9191TIP3   OH248987   6.367   2.583  14.165 -0.6054  0.2255  0.4049
 9191TIP3    H148988   6.358   2.601  14.259 -1.6913  0.9918  0.1652
 9191TIP3    H248989   6.281   2.601  14.128  0.1670  1.3355 -0.9652
 9192TIP3   OH248990   0.790   0.419   1.373 -0.1213  0.2963  0.2631
 9192TIP3    H148991   0.840   0.491   1.412  0.3493 -0.0506  0.2972
 9192TIP3    H248992   0.746   0.377   1.447  0.2576  0.0404  0.3455
 9193TIP3   OH248993   3.502   5.409  16.595 -0.0533 -0.0952  0.0421
 9193TIP3    H148994   3.498   5.498  16.560 -1.1583  0.1007  0.6137
 9193TIP3    H248995   3.592   5.381  16.579 -0.1723  0.4441 -1.8023
 9194TIP3   OH248996   5.668   1.209   2.450  0.3402 -0.8387 -0.1628
 9194TIP3    H148997   5.708   1.174   2.530  1.1739  1.5563  0.5472
 9194TIP3    H248998   5.578   1.228   2.476  1.1584  1.9910  1.0107
 9195TIP3   OH248999   4.033   1.106   1.635  0.5658  0.0757 -0.1064
 9195TIP3    H149000   4.033   1.143   1.547 -3.1547  1.2126  0.2107
 9195TIP3    H249001   4.046   1.182   1.692 -1.0949  0.0200  0.3863
 9196TIP3   OH249002   5.685   2.127   3.041 -0.2508 -0.1375  0.2448
 9196TIP3    H149003   5.757   2.176   3.080  0.9312 -1.8879  0.3141
 9196TIP3    H249004   5.653   2.071   3.111 -1.1991  0.0668 -0.0075
 9197TIP3   OH249005   6.261   2.925   4.530 -0.1962  0.3180  0.6851
 9197TIP3    H149006   6.272   2.846   4.477  0.6186  0.5794  0.4559
 9197TIP3    H249007   6.316   2.912   4.606  1.0337  1.2292 -0.0119
 9198TIP3   OH249008   2.241   0.407  13.544  0.3575 -0.4655  0.1756
 9198TIP3    H149009   2.178   0.429  13.476 -0.5586 -0.2212  1.0726
 9198TIP3    H249010   2.321   0.453  13.518 -0.9068  2.3549  0.9126
 9199TIP3   OH249011   5.673   4.793  16.774 -0.1538  0.6860  0.0177
 9199TIP3    H149012   5.735   4.722  16.760  0.4657  1.4604 -1.2920
 9199TIP3    H249013   5.678   4.847  16.695 -1.6050  1.4483  0.3951
 9200TIP3   OH249014   2.409   3.014   3.219 -0.5783 -0.3111 -0.5512
 9200TIP3    H149015   2.369   3.101   3.210  1.2501  0.5763 -0.7679
 9200TIP3    H249016   2.354   2.969   3.283 -1.1073  1.3349  0.2337
 9201TIP3   OH249017   3.744   0.115  15.598 -0.2482  0.8036 -0.1433
 9201TIP3    H149018   3.814   0.050  15.587 -2.8737 -2.2869 -0.0623
 9201TIP3    H249019   3.774   0.191  15.548  2.4711 -0.9064 -1.3482
 9202TIP3   OH249020   6.446   1.470  14.145  1.0343  0.0750 -0.4600
 9202TIP3    H149021   6.526   1.520  14.164 -0.2012  1.3872  1.6958
 9202TIP3    H249022   6.428   1.422  14.226 -1.4084  1.4082 -0.1311
 9203TIP3   OH249023   4.108   3.975  11.396 -0.4094  0.1926 -0.3393
 9203TIP3    H149024   4.113   4.065  11.365 -1.3530  0.1763 -0.5646
 9203TIP3    H249025   4.024   3.970  11.442  0.5348 -0.0300  1.4418
 9204TIP3   OH249026   2.659   3.931  10.944 -0.0722  0.3974  0.3283
 9204TIP3    H149027   2.666   4.014  10.897  1.5115 -0.9071 -1.8986
 9204TIP3    H249028   2.626   3.869  10.880  1.1108 -1.2292  1.2037
 9205TIP3   OH249029   3.251   5.960  11.709  0.3504  0.0524  0.3254
 9205TIP3    H149030   3.160   5.947  11.681 -0.1508  0.8927  1.4832
 9205TIP3    H249031   3.260   5.903  11.786 -0.6827  3.2260  3.0525
 9206TIP3   OH249032   4.496   4.303  15.936 -0.4101 -0.0910  0.3662
 9206TIP3    H149033   4.572   4.311  15.879 -0.6292 -0.8946 -0.0593
 9206TIP3    H249034   4.532   4.304  16.025  0.1336 -0.8033  0.1634
 9207TIP3   OH249035   3.892   3.492  15.675  0.5073 -0.1104  0.0682
 9207TIP3    H149036   3.854   3.417  15.720  0.2533  0.1715  0.3302
 9207TIP3    H249037   3.987   3.476  15.676  0.6260  0.4639  1.7854
 9208TIP3   OH249038   5.176   3.131   4.733  0.3307 -0.0218 -0.2134
 9208TIP3    H149039   5.258   3.178   4.746  0.0535  0.0278  1.5838
 9208TIP3    H249040   5.180   3.057   4.794 -1.2394  0.3955  0.4599
 9209TIP3   OH249041   2.124   3.419  13.799  0.2581 -0.1015 -0.2742
 9209TIP3    H149042   2.204   3.371  13.821 -0.9901 -0.9801  3.0068
 9209TIP3    H249043   2.136   3.505  13.839  0.5096  0.6492 -1.9118
 9210TIP3   OH249044   4.464   2.818  14.277  0.0802 -0.3538  0.4376
 9210TIP3    H149045   4.461   2.913  14.269 -1.3734 -0.3848  0.4096
 9210TIP3    H249046   4.381   2.794  14.318 -0.0352 -1.6890 -0.4977
 9211TIP3   OH249047   0.665   3.810   3.583  0.2876  0.3672  0.5963
 9211TIP3    H149048   0.713   3.807   3.666  2.8581  1.0679 -0.7643
 9211TIP3    H249049   0.706   3.743   3.529  0.5343  1.7464 -1.0032
 9212TIP3   OH249050   2.162   2.876   0.534 -0.2797 -0.0754  0.2116
 9212TIP3    H149051   2.159   2.832   0.450 -0.1385  0.5086 -0.1072
 9212TIP3    H249052   2.072   2.905   0.550 -0.1926  0.3395 -0.0305
 9213TIP3   OH249053   5.869   4.297   4.280  0.5371  0.0081 -0.2224
 9213TIP3    H149054   5.922   4.320   4.356  0.3363  0.7067 -0.2853
 9213TIP3    H249055   5.784   4.339   4.296  0.1454 -0.7331 -0.3289
 9214TIP3   OH249056   6.601   5.470  12.806 -0.1644 -0.6285  0.4229
 9214TIP3    H149057   6.632   5.534  12.742  0.3287  0.4410  1.6704
 9214TIP3    H249058   6.514   5.502  12.831 -0.0225 -0.5763  0.8605
 9215TIP3   OH249059   6.034   3.281  15.146  0.1255  0.8525  0.1911
 9215TIP3    H149060   6.067   3.333  15.073 -0.4548  1.0164  0.0383
 9215TIP3    H249061   6.106   3.221  15.167  0.5033  1.1823 -0.1481
 9216TIP3   OH249062   2.026   4.523  14.702  0.3644 -0.1270 -0.0693
 9216TIP3    H149063   1.946   4.471  14.707 -0.6087  1.3726  1.0310
 9216TIP3    H249064   1.996   4.613  14.690  1.9859  0.2365 -1.9545
 9217TIP3   OH249065   2.053   6.458  14.092 -0.3641  0.2345 -0.0751
 9217TIP3    H149066   2.083   6.391  14.154  1.9377  0.1201 -1.2399
 9217TIP3    H249067   1.977   6.418  14.050 -0.3095 -0.7822  0.7427
 9218TIP3   OH249068   1.087   1.516   3.894  0.1772  0.0387  0.4667
 9218TIP3    H149069   1.154   1.582   3.913 -1.0375  0.7691  2.6249
 9218TIP3    H249070   1.030   1.517   3.972 -1.9788 -0.9823 -0.9995
 9219TIP3   OH249071   3.351   0.225  16.252  0.2545  0.2776 -0.0946
 9219TIP3    H149072   3.297   0.147  16.263 -0.0615  0.4605 -0.3182
 9219TIP3    H249073   3.422   0.215  16.316  0.8198 -0.7061 -0.8553
 9220TIP3   OH249074   0.503   1.888  16.092  0.7674 -0.1378  0.3654
 9220TIP3    H149075   0.461   1.974  16.092  0.7818 -0.1251  1.2470
 9220TIP3    H249076   0.597   1.907  16.097  0.9505 -0.1549 -1.9272
 9221TIP3   OH249077   1.688   0.690   0.667 -0.4777 -0.2031 -0.0914
 9221TIP3    H149078   1.610   0.715   0.715 -0.3881 -2.1681  1.1801
 9221TIP3    H249079   1.756   0.749   0.699 -0.5893 -1.0017  1.7052
 9222TIP3   OH249080   1.429   4.199  12.082 -0.1920 -0.3137 -0.0172
 9222TIP3    H149081   1.415   4.166  12.171  0.0433 -1.5991 -0.4305
 9222TIP3    H249082   1.524   4.209  12.075 -0.1838 -0.5285 -0.2267
 9223TIP3   OH249083   0.496   4.045  17.023  0.9793 -0.5536  0.7034
 9223TIP3    H149084   0.487   4.140  17.027  1.0946 -0.5693  1.4161
 9223TIP3    H249085   0.516   4.027  16.931 -0.1497  0.0072  0.3302
 9224TIP3   OH249086   3.646   2.686   0.134 -0.0596 -0.2931 -0.4337
 9224TIP3    H149087   3.731   2.701   0.094  0.3841 -0.8897  0.2610
 9224TIP3    H249088   3.632   2.591   0.127 -0.1002 -0.3727  0.5361
 9225TIP3   OH249089   3.141   0.855   4.116 -0.2411  0.1402  0.2226
 9225TIP3    H149090   3.095   0.864   4.033  0.1840  1.1270  0.0833
 9225TIP3    H249091   3.079   0.810   4.173  0.1730 -2.3651 -1.1783
 9226TIP3   OH249092   5.835   5.489   3.557 -1.0549  0.0336  0.1958
 9226TIP3    H149093   5.893   5.445   3.496 -0.6816  0.4890  0.2138
 9226TIP3    H249094   5.747   5.465   3.529 -0.8599 -0.9747  0.4025
 9227TIP3   OH249095   1.922   1.217  16.636 -0.1014 -0.1392  0.4408
 9227TIP3    H149096   1.892   1.183  16.552  0.7560 -2.2546  0.9388
 9227TIP3    H249097   2.003   1.264  16.615  0.6476 -1.4964  0.1767
 9228TIP3   OH249098   5.020   1.798  11.648 -0.1676  0.1668  0.1142
 9228TIP3    H149099   4.978   1.882  11.629  0.2857  0.2728 -0.4545
 9228TIP3    H249100   4.988   1.739  11.580 -1.1082 -0.3435  0.9812
 9229TIP3   OH249101   1.368   2.713   1.269  0.5478 -0.0178  0.5524
 9229TIP3    H149102   1.382   2.726   1.363  1.7186  2.1073  0.1493
 9229TIP3    H249103   1.273   2.721   1.258  0.5846  1.8707  1.3099
 9230TIP3   OH249104   4.363   6.309  17.065 -0.0314  0.1027  0.3346
 9230TIP3    H149105   4.404   6.388  17.099  0.0601 -0.5425  1.8213
 9230TIP3    H249106   4.295   6.288  17.129  0.7874 -1.7140  0.6655
 9231TIP3   OH249107   6.578   4.334  14.949  0.9529 -0.3442  0.0125
 9231TIP3    H149108   6.593   4.240  14.957 -1.0144 -0.7172 -0.1682
 9231TIP3    H249109   6.607   4.371  15.032  2.1713 -1.0359 -0.0941
 9232TIP3   OH249110   4.812   6.223   5.506 -0.3031  0.1467  0.1530
 9232TIP3    H149111   4.723   6.250   5.526 -0.4196 -1.5453  2.2833
 9232TIP3    H249112   4.863   6.248   5.583  0.0519 -3.1717  1.1479
 9233TIP3   OH249113   2.848   0.530  11.960 -0.0169  0.2509 -0.3169
 9233TIP3    H149114   2.926   0.541  11.906  0.4472  1.5772  0.5711
 9233TIP3    H249115   2.881   0.515  12.048 -0.7451  0.6782  0.0459
 9234TIP3   OH249116   5.178   5.960   5.275 -0.2326 -0.0814  0.2440
 9234TIP3    H149117   5.128   5.949   5.195  1.2494 -1.2024 -0.5702
 9234TIP3    H249118   5.182   5.873   5.314  1.6279 -0.1790 -0.0755
 9235TIP3   OH249119   5.262   4.866  14.306 -0.3126  0.0507  0.2480
 9235TIP3    H149120   5.319   4.789  14.307  0.7520  0.8222  0.9366
 9235TIP3    H249121   5.321   4.940  14.317 -1.4096  0.9076  0.5775
 9236TIP3   OH249122   5.897   4.957   0.218  0.1250 -0.6309  0.1214
 9236TIP3    H149123   5.807   4.940   0.191  0.1937 -0.5025 -0.1957
 9236TIP3    H249124   5.937   4.999   0.142  0.4574 -0.7035  0.2543
 9237TIP3   OH249125   0.842   1.058   4.783 -0.5198  0.3947  0.2765
 9237TIP3    H149126   0.938   1.058   4.776 -0.6121 -1.3273 -2.6448
 9237TIP3    H249127   0.824   0.998   4.855  0.5844  0.0956  0.3313
 9238TIP3   OH249128   5.307   3.343  11.337  0.1978  0.8837 -0.4589
 9238TIP3    H149129   5.312   3.424  11.286  0.9765  0.9678 -0.2605
 9238TIP3    H249130   5.394   3.333  11.374 -0.2025  0.5269  0.4110
 9239TIP3   OH249131   5.802   3.511   2.990 -0.0446  0.0606 -0.1221
 9239TIP3    H149132   5.873   3.552   3.039  1.0901 -1.5669 -0.3365
 9239TIP3    H249133   5.746   3.472   3.057  0.4375 -0.4769 -0.0247
 9240TIP3   OH249134   4.786   2.745   3.200  0.1879  0.7008 -0.6214
 9240TIP3    H149135   4.834   2.748   3.117  3.0444  2.7513  0.9042
 9240TIP3    H249136   4.781   2.837   3.227 -2.0514  0.2244  0.7881
 9241TIP3   OH249137   4.214   6.152  15.890 -0.5672  0.1647 -0.3175
 9241TIP3    H149138   4.204   6.246  15.872  0.0302  0.0203 -1.4776
 9241TIP3    H249139   4.246   6.149  15.981 -2.1800  0.9876  0.3316
 9242TIP3   OH249140   3.673   0.049   6.350 -0.4665 -0.4521 -0.2664
 9242TIP3    H149141   3.637   0.132   6.318 -0.5556  0.0454  1.0723
 9242TIP3    H249142   3.736   0.074   6.416  0.3655 -1.4323 -0.6626
 9243TIP3   OH249143   6.766   6.065  16.820 -0.4489 -0.5568 -0.1209
 9243TIP3    H149144   6.753   6.073  16.914  1.3938  1.3196  0.0424
 9243TIP3    H249145   6.861   6.063  16.809 -0.4338  3.0238 -2.0920
 9244TIP3   OH249146   0.334   1.228  11.663 -0.2024 -0.1452 -0.0608
 9244TIP3    H149147   0.403   1.247  11.727  0.3498  0.4999 -0.8220
 9244TIP3    H249148   0.278   1.305  11.665 -0.6508 -0.4755  0.2295
 9245TIP3   OH249149   5.269   6.224  15.332  0.2952  0.5883 -0.1870
 9245TIP3    H149150   5.241   6.144  15.377 -0.4896  0.8109 -0.2625
 9245TIP3    H249151   5.316   6.192  15.254 -0.8297  0.1711 -0.7331
 9246TIP3   OH249152   3.125   4.529   2.093 -0.4503  0.3876 -0.6866
 9246TIP3    H149153   3.068   4.588   2.143 -0.6240 -0.0237 -0.3945
 9246TIP3    H249154   3.080   4.445   2.094 -0.6965  0.4888 -1.9753
 9247TIP3   OH249155   1.761   0.382  14.541  0.3658 -0.1459  0.2521
 9247TIP3    H149156   1.718   0.468  14.535  1.3666  0.3633  0.0170
 9247TIP3    H249157   1.702   0.329  14.595  0.1751  0.9866  1.2026
 9248TIP3   OH249158   5.547   3.537   2.628  0.1196 -0.1206  0.3450
 9248TIP3    H149159   5.637   3.571   2.637  0.2726  0.0020 -1.2208
 9248TIP3    H249160   5.544   3.460   2.684  0.5288  1.0830  2.0947
 9249TIP3   OH249161   2.905   0.129  12.322 -0.3274  0.0606 -0.4294
 9249TIP3    H149162   2.904   0.149  12.229 -1.1540 -1.5326 -0.8110
 9249TIP3    H249163   2.953   0.046  12.328 -0.7953 -0.1642  0.4661
 9250TIP3   OH249164   4.812   0.774   0.680 -0.0627 -0.0742 -0.0371
 9250TIP3    H149165   4.828   0.748   0.590  0.6472 -0.4713  0.1956
 9250TIP3    H249166   4.895   0.814   0.708 -0.8395  1.6897 -0.1223
 9251TIP3   OH249167   1.344   5.836  14.825  0.3984  0.3488  0.2053
 9251TIP3    H149168   1.281   5.873  14.764  0.4807 -1.7546 -1.2717
 9251TIP3    H249169   1.319   5.743  14.832  1.4070  0.1708  2.0871
 9252TIP3   OH249170   3.212   2.464   0.227 -0.3267 -0.3333 -0.2377
 9252TIP3    H149171   3.151   2.396   0.257 -1.3631 -0.7446 -2.9937
 9252TIP3    H249172   3.268   2.419   0.163  0.8932  0.7769  0.0063
 9253TIP3   OH249173   5.247   3.256  12.002 -0.9263 -0.3202 -0.2940
 9253TIP3    H149174   5.266   3.231  11.911 -0.7072  1.0802 -0.6568
 9253TIP3    H249175   5.153   3.273  12.003 -0.9807 -0.6197 -0.1792
 9254TIP3   OH249176   2.764   4.049   1.620  0.1291  0.3015 -0.0465
 9254TIP3    H149177   2.836   4.050   1.683  0.8469  0.8744 -0.8768
 9254TIP3    H249178   2.732   4.139   1.618  1.1170  0.6455 -1.6422
 9255TIP3   OH249179   1.518   6.720  13.239 -0.0052  0.0538  0.3154
 9255TIP3    H149180   1.525   6.627  13.217  0.4453 -0.1180  1.1329
 9255TIP3    H249181   1.427   6.743  13.219 -0.5223 -0.9235  1.4090
 9256TIP3   OH249182   5.988   6.572  12.846  0.3959 -0.0669  0.2428
 9256TIP3    H149183   6.076   6.575  12.809  0.2086 -0.6330 -0.2643
 9256TIP3    H249184   6.002   6.562  12.940  0.8809 -0.9271  0.0904
 9257TIP3   OH249185   3.880   3.596  16.464  0.0261  0.4126  0.5417
 9257TIP3    H149186   3.806   3.656  16.479  0.2750  1.1099 -0.8787
 9257TIP3    H249187   3.863   3.559  16.378  1.4828  0.8156  0.0617
 9258TIP3   OH249188   3.394   1.943  13.450 -0.2622  0.1824 -0.5760
 9258TIP3    H149189   3.411   1.907  13.537  0.2215 -0.8637 -1.0772
 9258TIP3    H249190   3.347   2.025  13.466  2.0283  1.3222  0.7569
 9259TIP3   OH249191   3.827   2.631  14.042 -0.5529  0.3197  0.1136
 9259TIP3    H149192   3.836   2.653  14.134 -3.6438  1.2590  0.3213
 9259TIP3    H249193   3.829   2.535  14.040 -0.6243  0.2825  1.1913
 9260TIP3   OH249194   0.538   0.359  11.583 -0.5077 -0.2437  0.6862
 9260TIP3    H149195   0.522   0.334  11.674  0.1312  1.5910  1.3535
 9260TIP3    H249196   0.618   0.312  11.558  1.3655  1.8494  2.3016
 9261TIP3   OH249197   5.179   4.679   2.053  0.4552 -0.0108  0.2259
 9261TIP3    H149198   5.159   4.681   2.147  1.7761  0.3240  0.5071
 9261TIP3    H249199   5.145   4.594   2.024 -2.6924  1.0700  0.3331
 9262TIP3   OH249200   3.126   1.571   3.326  0.0947  0.3945 -0.4545
 9262TIP3    H149201   3.066   1.644   3.312 -0.8683 -0.7791 -3.2110
 9262TIP3    H249202   3.210   1.602   3.292 -0.0450  0.5574 -0.6502
 9263TIP3   OH249203   4.903   3.035   1.321  0.3309 -0.0591 -1.0650
 9263TIP3    H149204   4.855   2.963   1.279 -0.0368 -0.8551  0.6434
 9263TIP3    H249205   4.887   3.111   1.264 -3.4105 -0.1426 -0.3867
 9264TIP3   OH249206   0.913   6.255  12.391 -0.2937  0.1913 -0.0104
 9264TIP3    H149207   1.004   6.225  12.389 -0.1577  0.5943  0.0876
 9264TIP3    H249208   0.919   6.350  12.383 -0.7463  0.1621 -0.6670
 9265TIP3   OH249209   1.495   4.574   3.515  0.1745 -0.3373 -0.2557
 9265TIP3    H149210   1.401   4.557   3.524  0.2485 -0.2795  0.8676
 9265TIP3    H249211   1.533   4.488   3.495  0.0561 -0.7005  0.9830
 9266TIP3   OH249212   2.205   5.623  15.907 -0.6405  0.0730 -0.2738
 9266TIP3    H149213   2.130   5.616  15.848 -0.8002 -2.8329  0.1146
 9266TIP3    H249214   2.171   5.666  15.985 -1.4654  0.2889 -0.7483
 9267TIP3   OH249215   5.276   3.663   3.023  0.0240 -0.1519  0.2791
 9267TIP3    H149216   5.299   3.692   2.935  2.2131 -0.3242  0.7410
 9267TIP3    H249217   5.280   3.742   3.077 -1.8268  0.0582  0.2021
 9268TIP3   OH249218   4.886   6.742   3.280  0.2970 -0.0157  0.0172
 9268TIP3    H149219   4.836   6.752   3.199  0.0911  0.2576  0.1736
 9268TIP3    H249220   4.853   6.662   3.320 -1.5238  1.2024  1.1430
 9269TIP3   OH249221   1.255   4.068   2.084 -0.1443 -1.1473  0.1846
 9269TIP3    H149222   1.170   4.110   2.079 -0.3045 -1.5163 -0.2470
 9269TIP3    H249223   1.318   4.138   2.070 -0.3010 -0.5727  2.0260
 9270TIP3   OH249224   0.850   5.787  13.231 -0.1924  0.1368  0.7828
 9270TIP3    H149225   0.902   5.784  13.311 -0.3204  1.0395  0.9054
 9270TIP3    H249226   0.899   5.732  13.169 -1.4658 -2.8221  2.2346
 9271TIP3   OH249227   1.740   2.019  16.625 -0.3048 -0.0282  0.4759
 9271TIP3    H149228   1.761   2.082  16.556 -0.2475 -0.1682  0.3663
 9271TIP3    H249229   1.716   1.939  16.579 -5.2071  1.1925  0.3590
 9272TIP3   OH249230   5.550   5.358  12.125 -0.5217 -0.4995  0.3261
 9272TIP3    H149231   5.550   5.417  12.049  0.5847 -0.6153  0.2257
 9272TIP3    H249232   5.634   5.313  12.120 -0.6352 -0.8376  1.3784
 9273TIP3   OH249233   1.984   3.251   0.509 -0.1109  0.1410  0.0633
 9273TIP3    H149234   2.031   3.324   0.550 -0.6762  0.6243 -0.1220
 9273TIP3    H249235   1.892   3.279   0.511 -0.2970 -0.4346 -0.2927
 9274TIP3   OH249236   2.113   4.221  14.743 -0.1889  0.1006 -0.5080
 9274TIP3    H149237   2.058   4.171  14.683 -2.0566  1.9595 -0.4755
 9274TIP3    H249238   2.125   4.164  14.818  1.5479 -1.9782 -2.2296
 9275TIP3   OH249239   3.832   4.137  12.833  0.0632  0.2552 -0.2175
 9275TIP3    H149240   3.756   4.167  12.882 -0.2110 -1.1533  0.2780
 9275TIP3    H249241   3.905   4.145  12.895 -0.1089 -0.5937  0.1066
 9276TIP3   OH249242   4.798   4.797   2.333 -0.2042 -0.0708  0.0717
 9276TIP3    H149243   4.763   4.743   2.262  0.0461 -0.3243  0.1376
 9276TIP3    H249244   4.879   4.753   2.358 -0.3067  0.0037  0.5374
 9277TIP3   OH249245   0.916   6.542  11.578 -0.1745  0.0427 -0.7749
 9277TIP3    H149246   0.852   6.535  11.648 -0.0480 -1.2355 -0.7722
 9277TIP3    H249247   0.889   6.477  11.513  0.1408  0.6856 -1.5684
 9278TIP3   OH249248   4.057   4.445   5.032 -0.0163 -0.0445 -0.7040
 9278TIP3    H149249   4.006   4.525   5.021  1.2959  0.8978 -0.2883
 9278TIP3    H249250   3.993   4.378   5.055 -1.0879  1.0067 -0.5305
 9279TIP3   OH249251   6.069   5.546  11.225  0.2688 -0.1343 -0.6973
 9279TIP3    H149252   6.018   5.469  11.203 -0.0904 -0.5867  1.4874
 9279TIP3    H249253   6.080   5.541  11.320  1.7842  1.5581 -0.7310
 9280TIP3   OH249254   4.976   1.122  17.026  0.3764 -1.0031  0.8474
 9280TIP3    H149255   5.063   1.114  16.986 -0.2082 -0.7761 -0.5291
 9280TIP3    H249256   4.992   1.116  17.120  1.7911 -1.7834  0.5824
 9281TIP3   OH249257   3.730   3.433  15.223 -0.5761  0.1437 -0.1868
 9281TIP3    H149258   3.696   3.484  15.149  0.3868 -0.4133 -1.0429
 9281TIP3    H249259   3.771   3.357  15.182  0.8030  0.2894  0.8687
 9282TIP3   OH249260   1.552   4.224   5.096  0.4572 -0.2577 -0.1685
 9282TIP3    H149261   1.526   4.133   5.109  0.4422 -0.2308 -0.0042
 9282TIP3    H249262   1.538   4.240   5.003 -1.3251  0.1401  0.1302
 9283TIP3   OH249263   2.023   4.054  13.897  0.5365 -0.3947 -0.1571
 9283TIP3    H149264   2.063   3.997  13.831  2.7213  1.9421 -0.9862
 9283TIP3    H249265   1.942   4.085  13.856  0.5898 -0.9305 -0.6837
 9284TIP3   OH249266   1.255   2.591   6.221 -0.6041  0.2278 -0.4760
 9284TIP3    H149267   1.306   2.660   6.263 -1.1102  0.4588 -0.2376
 9284TIP3    H249268   1.202   2.554   6.291  1.2257 -1.9079 -0.0760
 9285TIP3   OH249269   3.589   2.228  11.402 -0.0619 -0.2905 -0.2038
 9285TIP3    H149270   3.524   2.283  11.359 -1.1911 -0.2525  1.4701
 9285TIP3    H249271   3.620   2.169  11.333 -1.4580  0.0551 -1.1615
 9286TIP3   OH249272   0.896   6.651  12.684  0.1793  0.5752 -0.5636
 9286TIP3    H149273   0.896   6.746  12.677  2.9655  0.5704 -2.0000
 9286TIP3    H249274   0.977   6.624  12.642 -0.2184 -2.4184  0.3607
 9287TIP3   OH249275   3.841   4.574   2.862 -0.1011  0.3902 -0.3329
 9287TIP3    H149276   3.810   4.664   2.866 -0.4305  0.3608 -1.6969
 9287TIP3    H249277   3.761   4.521   2.865 -0.0724  0.2380 -1.5933
 9288TIP3   OH249278   2.120   6.750  12.853  0.1085 -0.2771  0.5738
 9288TIP3    H149279   2.168   6.698  12.917 -0.4563  0.1591  1.3612
 9288TIP3    H249280   2.126   6.699  12.772  1.5230 -0.4352  0.7590
 9289TIP3   OH249281   4.301   5.359  16.425 -0.6230 -0.7055  1.3434
 9289TIP3    H149282   4.363   5.287  16.412  0.4731  0.5680 -1.2703
 9289TIP3    H249283   4.216   5.316  16.434  0.0046 -2.3675 -0.0126
 9290TIP3   OH249284   5.954   2.022   5.539 -0.3739 -0.2453  0.3208
 9290TIP3    H149285   5.955   1.973   5.622  0.2942 -1.9351 -0.6318
 9290TIP3    H249286   5.988   1.960   5.475 -0.1245  1.2930 -1.0895
 9291TIP3   OH249287   4.177   1.022  15.400 -0.2524  0.0019  0.4578
 9291TIP3    H149288   4.099   1.074  15.418 -0.2630  0.0119  0.3802
 9291TIP3    H249289   4.151   0.932  15.419 -0.2470  0.0188  0.5489
 9292TIP3   OH249290   1.507   3.889   0.416  0.5315  0.2678  0.2993
 9292TIP3    H149291   1.420   3.913   0.385  1.2130  0.6000 -1.4771
 9292TIP3    H249292   1.500   3.890   0.512 -1.1924  1.0327  0.1946
 9293TIP3   OH249293   1.770   2.682  16.689 -0.1518  0.0329  0.1971
 9293TIP3    H149294   1.808   2.768  16.675 -0.8078  0.4347  0.8512
 9293TIP3    H249295   1.786   2.663  16.781 -2.9903  0.9741  0.9825
 9294TIP3   OH249296   3.896   0.586  14.503 -0.2444 -0.3386  0.4049
 9294TIP3    H149297   3.987   0.613  14.520 -0.2061  1.4062 -2.0665
 9294TIP3    H249298   3.863   0.650  14.440 -2.5410 -2.1258 -0.3610
 9295TIP3   OH249299   1.924   1.114  13.098 -0.0660 -0.4566  0.3579
 9295TIP3    H149300   1.964   1.187  13.050  1.5464 -0.9913  0.8020
 9295TIP3    H249301   1.834   1.142  13.114  0.1680  0.9190 -0.5208
 9296TIP3   OH249302   2.393   2.909   4.665 -1.0011  0.1409  0.6542
 9296TIP3    H149303   2.310   2.954   4.652 -0.5078  0.2683 -3.1872
 9296TIP3    H249304   2.368   2.819   4.686 -2.1017  0.4475  0.7266
 9297TIP3   OH249305   1.441   1.463   1.973  0.9693  0.6353 -0.0430
 9297TIP3    H149306   1.421   1.395   1.908 -0.9022  0.2613  0.8378
 9297TIP3    H249307   1.403   1.543   1.936  0.3715  0.5304  0.3269
 9298TIP3   OH249308   5.453   3.146  16.488 -0.0588 -0.1126  0.1377
 9298TIP3    H149309   5.520   3.211  16.508 -0.4577  0.4750 -0.3717
 9298TIP3    H249310   5.412   3.126  16.572  0.5209 -0.2164  0.3965
 9299TIP3   OH249311   6.509   4.331   6.347  0.4480  0.8142  0.3326
 9299TIP3    H149312   6.571   4.259   6.359 -2.5630 -2.0636  0.0927
 9299TIP3    H249313   6.528   4.391   6.419  1.7201 -1.3014  1.8793
 9300TIP3   OH249314   4.694   6.458   2.190  0.4381 -0.2647  0.1848
 9300TIP3    H149315   4.769   6.498   2.147  0.6135 -1.5728 -0.7731
 9300TIP3    H249316   4.628   6.449   2.120 -0.1668 -0.2333  0.7386
 9301TIP3   OH249317   3.484   0.970  12.849  0.0664 -0.6822 -0.1327
 9301TIP3    H149318   3.539   1.039  12.888 -1.3871 -0.6652  2.1082
 9301TIP3    H249319   3.460   1.004  12.763 -0.0658  1.3418  0.6531
 9302TIP3   OH249320   6.195   3.833  15.227 -0.5721  0.0009  0.3212
 9302TIP3    H149321   6.206   3.808  15.135  0.0297  0.8164  0.1500
 9302TIP3    H249322   6.101   3.840  15.240 -0.6664 -0.3776 -0.1647
 9303TIP3   OH249323   0.512   1.624   4.079  0.4347 -0.9712 -0.3421
 9303TIP3    H149324   0.424   1.657   4.059  1.0029 -0.3373 -1.9309
 9303TIP3    H249325   0.502   1.528   4.080 -0.3717 -0.8886 -0.0103
 9304TIP3   OH249326   1.555   4.649   0.605  0.5297 -0.6103 -0.4069
 9304TIP3    H149327   1.589   4.562   0.625 -0.2301 -1.0080 -0.8242
 9304TIP3    H249328   1.633   4.704   0.599  0.9857 -1.1736  0.2711
 9305TIP3   OH249329   5.685   4.652  16.377  0.0124  0.0994 -0.1193
 9305TIP3    H149330   5.703   4.666  16.284 -0.7549  2.2810 -0.0085
 9305TIP3    H249331   5.766   4.616  16.413  0.4703 -0.3215 -1.5451
 9306TIP3   OH249332   0.829   5.712   4.462 -0.0672  0.2904  0.4957
 9306TIP3    H149333   0.792   5.709   4.373 -0.3765  0.3850  0.6215
 9306TIP3    H249334   0.838   5.805   4.481 -0.5600  0.2815  0.7942
 9307TIP3   OH249335   0.134   3.223  16.267  0.1593 -0.4772 -0.1861
 9307TIP3    H149336   0.110   3.212  16.175  2.1086  2.3171 -1.1622
 9307TIP3    H249337   0.104   3.143  16.309 -1.3280 -1.6173 -3.1200
 9308TIP3   OH249338   3.086   3.807   4.077 -0.2479 -0.8447  0.6556
 9308TIP3    H149339   3.075   3.717   4.108 -0.5988 -0.4217  1.8214
 9308TIP3    H249340   3.142   3.800   4.001  0.3774 -1.9799  1.2006
 9309TIP3   OH249341   4.737   6.575   0.936  0.3131  0.2179  0.3317
 9309TIP3    H149342   4.753   6.487   0.904  0.0998 -0.6540  2.4956
 9309TIP3    H249343   4.813   6.626   0.906  0.5161 -0.7128 -0.7960
 9310TIP3   OH249344   3.719   2.887   3.594  0.2707 -0.0398  0.1881
 9310TIP3    H149345   3.651   2.819   3.595  0.1574  0.0824  0.7470
 9310TIP3    H249346   3.799   2.840   3.569  0.0998 -0.2931  0.1074
 9311TIP3   OH249347   6.755   5.811  14.279 -0.0287  0.3220 -0.1226
 9311TIP3    H149348   6.733   5.720  14.257 -3.2539  0.9341  0.1375
 9311TIP3    H249349   6.769   5.853  14.194  2.8721 -0.5716 -0.2312
 9312TIP3   OH249350   1.026   3.498   0.364  0.2960  0.1370 -0.0623
 9312TIP3    H149351   0.937   3.527   0.386 -0.0626  0.7056 -2.0724
 9312TIP3    H249352   1.014   3.428   0.300  1.2555  1.6108 -1.9690
 9313TIP3   OH249353   0.165   5.982  15.123 -0.0922  0.0928 -0.2752
 9313TIP3    H149354   0.244   6.022  15.159  0.2794 -1.5607  0.9104
 9313TIP3    H249355   0.110   6.056  15.097  1.3719  1.2983 -0.0871
 9314TIP3   OH249356   1.442   1.171   2.658 -0.0869 -0.5048 -0.1938
 9314TIP3    H149357   1.487   1.169   2.573  0.9923  1.9641  0.2224
 9314TIP3    H249358   1.513   1.173   2.722 -0.7804  1.3811  0.5746
 9315TIP3   OH249359   2.997   6.249  12.997  0.2908 -0.1448  0.1247
 9315TIP3    H149360   2.976   6.168  13.043 -0.7429  0.1790  0.2376
 9315TIP3    H249361   3.054   6.221  12.925 -0.2775 -1.0084 -0.0074
 9316TIP3   OH249362   2.167   4.715   0.706 -0.5616  0.0729  0.0540
 9316TIP3    H149363   2.237   4.681   0.651  1.4121  0.0696  2.4224
 9316TIP3    H249364   2.147   4.644   0.768  1.3953  1.8787  3.0205
 9317TIP3   OH249365   6.150   5.910   2.903 -0.0833  0.1634 -0.4459
 9317TIP3    H149366   6.200   5.829   2.895 -1.0647 -0.4671 -0.3134
 9317TIP3    H249367   6.200   5.963   2.965 -1.7053 -2.1643  3.1587
 9318TIP3   OH249368   5.540   1.884  13.060  0.5473  0.4983  0.6048
 9318TIP3    H149369   5.465   1.832  13.088  0.1091 -0.3133 -1.8460
 9318TIP3    H249370   5.609   1.820  13.045  0.3228  0.6665 -1.4346
 9319TIP3   OH249371   3.719   3.692   3.603  0.0911  0.3058 -0.0129
 9319TIP3    H149372   3.726   3.648   3.518 -0.5458  0.0683  0.0552
 9319TIP3    H249373   3.756   3.629   3.666 -1.4050 -0.4229  0.1732
 9320TIP3   OH249374   4.305   5.524  15.204 -0.3748 -0.0494 -0.1231
 9320TIP3    H149375   4.271   5.545  15.291  0.8849  0.6322  0.2232
 9320TIP3    H249376   4.309   5.428  15.202  2.8875 -0.1018  1.9443
 9321TIP3   OH249377   1.542   0.665   1.337  0.5416 -0.2541  1.0322
 9321TIP3    H149378   1.624   0.709   1.318  0.9544 -1.0994  0.7804
 9321TIP3    H249379   1.475   0.733   1.328  1.2951  0.6605  2.1708
 9322TIP3   OH249380   1.771   4.668   0.809 -0.2935 -0.5555 -0.2621
 9322TIP3    H149381   1.820   4.744   0.776 -2.6582  1.2030 -0.0620
 9322TIP3    H249382   1.779   4.602   0.740  2.1344 -0.3228 -0.2854
 9323TIP3   OH249383   3.041   1.450   3.720  0.0381 -0.2566  0.0539
 9323TIP3    H149384   3.093   1.369   3.717 -0.3399 -0.5169  0.3241
 9323TIP3    H249385   2.952   1.421   3.702 -0.2775 -0.0709  1.2576
 9324TIP3   OH249386   4.528   0.170  14.851 -0.4185  0.0960 -0.5483
 9324TIP3    H149387   4.481   0.176  14.934 -1.2772 -0.0092 -1.0200
 9324TIP3    H249388   4.497   0.089  14.811  0.5299 -0.2322 -0.6505
 9325TIP3   OH249389   3.910   4.454   3.150  0.4519 -0.4304  0.2863
 9325TIP3    H149390   3.943   4.456   3.060  1.3263  0.8934  0.6133
 9325TIP3    H249391   3.907   4.361   3.172 -1.1154 -0.8952 -1.5566
 9326TIP3   OH249392   4.144   2.517  12.046 -0.1052 -0.2632 -0.2772
 9326TIP3    H149393   4.121   2.478  11.962 -0.8812  0.4626 -0.4151
 9326TIP3    H249394   4.211   2.582  12.024 -0.5045  0.1183 -0.3800
 9327TIP3   OH249395   6.417   4.418   2.752  0.5268  0.3461  0.0913
 9327TIP3    H149396   6.339   4.362   2.747  0.7431 -0.1630  1.8636
 9327TIP3    H249397   6.388   4.497   2.797  0.6915  0.8465 -0.6497
 9328TIP3   OH249398   6.255   3.684   3.128 -0.1187  0.6974  0.2388
 9328TIP3    H149399   6.165   3.669   3.157  0.2775  1.5808  2.1010
 9328TIP3    H249400   6.278   3.769   3.166  2.4607 -0.8072  2.4091
 9329TIP3   OH249401   4.319   6.100   3.549  0.0222 -0.1735  0.3034
 9329TIP3    H149402   4.388   6.078   3.486 -1.6914 -1.0986 -1.3566
 9329TIP3    H249403   4.341   6.049   3.628  0.5504 -1.4919 -0.6522
 9330TIP3   OH249404   5.762   0.460  14.183  0.0442  0.4521  0.0043
 9330TIP3    H149405   5.666   0.463  14.190  0.1432  1.7561  1.3321
 9330TIP3    H249406   5.790   0.415  14.263  0.5041 -1.0096 -0.9592
 9331TIP3   OH249407   0.615   0.733   2.961  0.4584 -0.1640 -0.8060
 9331TIP3    H149408   0.637   0.663   2.898  0.3447 -0.0082 -1.0200
 9331TIP3    H249409   0.633   0.694   3.047  1.0043 -0.2386 -0.9521
 9332TIP3   OH249410   5.420   5.454   4.813  0.2793 -0.0766 -0.1139
 9332TIP3    H149411   5.381   5.410   4.888 -0.5169  0.0477 -0.4411
 9332TIP3    H249412   5.475   5.387   4.772  1.9484  0.2855  1.4224
 9333TIP3   OH249413   4.292   0.611  11.896 -0.0882 -0.2069  0.2048
 9333TIP3    H149414   4.255   0.696  11.870 -0.3369 -0.5304 -0.5163
 9333TIP3    H249415   4.366   0.634  11.952  0.2697  0.5050 -0.5407
 9334TIP3   OH249416   3.737   5.160  11.501 -0.3709  0.2067 -0.2766
 9334TIP3    H149417   3.784   5.164  11.418  2.9102  1.6381  1.4307
 9334TIP3    H249418   3.778   5.229  11.554 -1.9063 -1.0087  2.7025
 9335TIP3   OH249419   3.032   4.912  14.460  0.2072 -0.2164  0.5197
 9335TIP3    H149420   3.071   4.831  14.492  0.3332 -0.0138  0.8822
 9335TIP3    H249421   2.942   4.888  14.438  0.1674 -0.3977  0.8736
 9336TIP3   OH249422   4.662   6.306  13.771  0.7086  0.7835 -0.0857
 9336TIP3    H149423   4.625   6.312  13.859 -0.4612  0.3523 -0.5245
 9336TIP3    H249424   4.741   6.359  13.774  0.1131  1.6441  0.9332
 9337TIP3   OH249425   0.951   4.228   0.495 -0.1446  0.7141 -0.1966
 9337TIP3    H149426   0.959   4.323   0.501  0.5498  0.6137  0.9246
 9337TIP3    H249427   0.954   4.209   0.401  0.4649  1.7450 -0.4011
 9338TIP3   OH249428   2.753   2.318  11.727  0.5884  0.0549 -0.0650
 9338TIP3    H149429   2.719   2.295  11.813  0.0809  0.1491 -0.2370
 9338TIP3    H249430   2.837   2.272  11.721  1.2460  1.0776  0.9902
 9339TIP3   OH249431   0.632   5.097   3.316  0.1994  0.0935 -0.1933
 9339TIP3    H149432   0.649   5.165   3.381  1.8981 -0.4553 -0.0180
 9339TIP3    H249433   0.556   5.050   3.350  1.7179 -0.9113  2.0493
 9340TIP3   OH249434   2.808   0.569  16.863 -0.0737  0.0980  0.7821
 9340TIP3    H149435   2.802   0.482  16.901  1.5017  0.0230  0.9075
 9340TIP3    H249436   2.878   0.563  16.798  1.0493  1.5686  1.7596
 9341TIP3   OH249437   1.777   2.579  14.931  0.4339  0.2101  0.7193
 9341TIP3    H149438   1.803   2.503  14.982 -2.0178 -1.4101 -0.2711
 9341TIP3    H249439   1.692   2.605  14.966  0.6388  1.7208  0.2036
 9342TIP3   OH249440   5.722   3.071   5.518 -0.0515  0.0584 -0.4556
 9342TIP3    H149441   5.721   3.094   5.611  0.1606 -1.8539  0.0765
 9342TIP3    H249442   5.751   2.979   5.517  1.6237  0.5323 -2.5363
 9343TIP3   OH249443   0.909   1.490  14.504  0.3948 -0.0673 -0.2377
 9343TIP3    H149444   0.829   1.494  14.451 -0.1573  0.2335  0.5935
 9343TIP3    H249445   0.907   1.570  14.556 -0.5715 -1.6155  2.2820
 9344TIP3   OH249446   5.473   5.585   1.704  0.4377 -0.5785  0.6729
 9344TIP3    H149447   5.443   5.556   1.790 -0.3717 -2.3373 -0.1474
 9344TIP3    H249448   5.490   5.504   1.656  0.0469  0.3254 -1.0952
 9345TIP3   OH249449   2.249   3.783   5.447  0.0825 -0.1771  0.0471
 9345TIP3    H149450   2.283   3.743   5.366 -0.3394 -1.3437  0.4238
 9345TIP3    H249451   2.323   3.777   5.508  0.2262  0.2099 -0.0870
 9346TIP3   OH249452   6.142   6.254   1.170 -0.2306 -0.0662 -0.2859
 9346TIP3    H149453   6.112   6.331   1.218  0.6703  0.5079 -0.6241
 9346TIP3    H249454   6.152   6.284   1.079 -0.1247 -0.6506 -0.4737
 9347TIP3   OH249455   4.691   4.328   0.089  0.3251 -0.1483  0.1939
 9347TIP3    H149456   4.676   4.369   0.174  2.6491 -0.5920  0.8950
 9347TIP3    H249457   4.643   4.245   0.094  0.3175 -0.1040  1.0346
 9348TIP3   OH249458   6.217   5.147  13.023  0.8449  0.5323  0.4050
 9348TIP3    H149459   6.130   5.110  13.005  1.1760 -1.1170  1.9305
 9348TIP3    H249460   6.200   5.213  13.091  0.9427 -0.9640  1.9374
 9349TIP3   OH249461   4.666   5.946   0.875 -0.0669 -0.1872  0.3157
 9349TIP3    H149462   4.672   5.938   0.970 -0.1105 -1.7967  0.2051
 9349TIP3    H249463   4.586   5.898   0.852  1.0847 -1.7203 -0.7140
 9350TIP3   OH249464   0.468   5.546  12.289 -0.3320 -0.4557  0.0301
 9350TIP3    H149465   0.380   5.584  12.283 -0.0681  0.5182  1.8601
 9350TIP3    H249466   0.453   5.451  12.292 -1.0465 -0.6187 -3.5998
 9351TIP3   OH249467   5.086   3.564   6.346  0.2202  0.3816  0.0270
 9351TIP3    H149468   5.087   3.636   6.409  1.1203 -1.0518  1.7496
 9351TIP3    H249469   5.178   3.548   6.325 -0.0846  2.3374 -3.6171
 9352TIP3   OH249470   4.670   2.277   4.853  0.0969 -0.0175  0.1213
 9352TIP3    H149471   4.707   2.215   4.790  0.3060 -0.0406  0.2668
 9352TIP3    H249472   4.698   2.363   4.822  1.7752 -0.1258  1.1943
 9353TIP3   OH249473   1.497   5.632   4.174 -0.8004  0.5322 -0.2559
 9353TIP3    H149474   1.562   5.580   4.126 -0.3549  0.7753  0.0766
 9353TIP3    H249475   1.529   5.634   4.264  0.6582  3.5763 -0.7109
 9354TIP3   OH249476   6.168   6.516   2.473  0.1075 -0.2060 -0.3701
 9354TIP3    H149477   6.082   6.474   2.461  0.0087 -0.1978  0.2550
 9354TIP3    H249478   6.157   6.570   2.551 -0.1351  1.9905 -1.8317
 9355TIP3   OH249479   3.953   3.163   4.716 -0.0982  0.0052  0.3121
 9355TIP3    H149480   3.961   3.235   4.654 -0.3270  0.8086  1.2019
 9355TIP3    H249481   4.027   3.175   4.776  0.6717 -1.3059 -0.3183
 9356TIP3   OH249482   2.046   5.673   3.258 -0.3165 -0.2192 -0.1793
 9356TIP3    H149483   2.044   5.726   3.179 -0.5201 -2.4125 -1.7368
 9356TIP3    H249484   2.028   5.584   3.228  0.6989 -1.3208  2.1808
 9357TIP3   OH249485   5.373   2.193   1.594 -0.7267  0.5341  0.3183
 9357TIP3    H149486   5.301   2.130   1.595 -0.2045 -0.1455 -1.7281
 9357TIP3    H249487   5.336   2.270   1.549 -0.5102  0.6068  0.2657
 9358TIP3   OH249488   3.051   1.583  14.092  0.1261 -0.2128  0.6372
 9358TIP3    H149489   3.118   1.516  14.088 -1.1729 -1.4832 -0.6550
 9358TIP3    H249490   3.099   1.664  14.111  1.8993 -1.2073  0.5439
 9359TIP3   OH249491   1.203   3.500  16.620 -0.1634  0.0273  0.3775
 9359TIP3    H149492   1.240   3.438  16.682 -1.1889 -0.1558  0.8326
 9359TIP3    H249493   1.110   3.504  16.643 -0.6177 -0.2223 -1.3074
 9360TIP3   OH249494   6.036   5.824   2.423 -0.5492  0.2330 -0.3276
 9360TIP3    H149495   5.972   5.776   2.475 -0.9221 -0.6997 -1.6004
 9360TIP3    H249496   6.098   5.860   2.487  0.2655 -2.6961  0.6537
 9361TIP3   OH249497   1.938   4.314  15.123 -0.1019  0.1622 -0.5489
 9361TIP3    H149498   1.976   4.361  15.197  0.2030 -1.1281  0.1235
 9361TIP3    H249499   1.997   4.332  15.050  2.0568 -2.0439  0.5325
 9362TIP3   OH249500   3.269   4.138  14.253 -0.3039  0.2756 -0.3446
 9362TIP3    H149501   3.254   4.111  14.162  2.4803  0.2384 -0.8779
 9362TIP3    H249502   3.363   4.125  14.267 -0.8707 -1.3598  3.1030
 9363TIP3   OH249503   4.593   1.575   9.747  0.5176  0.1250 -0.3632
 9363TIP3    H149504   4.580   1.621   9.830 -0.4713  0.0581 -0.4737
 9363TIP3    H249505   4.620   1.487   9.772 -0.3946 -0.0810 -0.0982
 9364TIP3   OH249506   6.173   0.944  13.089 -0.0300  0.0327  0.3224
 9364TIP3    H149507   6.116   0.976  13.019 -0.5831 -1.5293  0.0168
 9364TIP3    H249508   6.150   0.852  13.099  0.3099  0.1022  2.3055
 9365TIP3   OH249509   5.569   6.136  14.542 -0.3571  0.0371 -0.7801
 9365TIP3    H149510   5.629   6.142  14.468  0.5390  0.4795 -0.0418
 9365TIP3    H249511   5.563   6.226  14.576 -0.9879 -0.1062 -0.4956
 9366TIP3   OH249512   0.159   2.709  17.102  0.0533 -0.2844  0.7223
 9366TIP3    H149513   0.181   2.679  17.014 -1.6332 -0.9336  0.4867
 9366TIP3    H249514   0.112   2.791  17.088 -2.0068 -1.3830  0.8275
 9367TIP3   OH249515   3.179   0.412   3.846 -0.3529 -0.3829  0.1460
 9367TIP3    H149516   3.146   0.395   3.934 -1.6425  1.1308 -0.0100
 9367TIP3    H249517   3.230   0.493   3.855 -1.9092  0.7499 -0.7689
 9368TIP3   OH249518   5.847   3.248  12.994  0.4267  0.1145  0.6126
 9368TIP3    H149519   5.862   3.231  13.087 -0.9063 -0.6211  0.7308
 9368TIP3    H249520   5.829   3.342  12.988 -2.1340 -0.2245  1.5621
 9369TIP3   OH249521   5.557   4.240  16.903 -0.2141  0.4253 -0.2946
 9369TIP3    H149522   5.476   4.272  16.943  0.5523  0.7511  1.0858
 9369TIP3    H249523   5.536   4.152  16.873 -1.4742  1.0352 -1.3065
 9370TIP3   OH249524   5.453   1.914  14.774 -0.2931 -0.0297 -0.0824
 9370TIP3    H149525   5.510   1.925  14.698 -0.2993 -0.4475 -0.1492
 9370TIP3    H249526   5.429   1.821  14.773  0.7848 -0.3586  1.2018
 9371TIP3   OH249527   5.556   1.994   3.305 -0.5208 -0.5440  0.1741
 9371TIP3    H149528   5.640   1.951   3.320 -1.0354 -1.2583  1.0340
 9371TIP3    H249529   5.504   1.973   3.382 -1.2546  0.4855 -0.0266
 9372TIP3   OH249530   0.316   6.628  11.275 -0.4537  0.5411 -0.0600
 9372TIP3    H149531   0.269   6.549  11.300 -0.6894  0.3485 -1.0562
 9372TIP3    H249532   0.354   6.607  11.190 -1.3032  1.7991 -0.7875
 9373TIP3   OH249533   3.383   5.872  15.682  0.5314  0.3820  1.0658
 9373TIP3    H149534   3.307   5.862  15.738 -2.0670  0.1667 -2.1629
 9373TIP3    H249535   3.393   5.967  15.671 -1.3939  0.4275 -0.9379
 9374TIP3   OH249536   4.300   3.997  16.520 -0.4259 -0.4674 -0.2600
 9374TIP3    H149537   4.243   3.929  16.485  0.1650 -2.0370  1.6295
 9374TIP3    H249538   4.241   4.067  16.546 -1.4927 -1.7366  0.9268
 9375TIP3   OH249539   1.566   0.156   3.374  0.2369 -0.8228 -0.6245
 9375TIP3    H149540   1.576   0.239   3.327  1.2163 -0.8664 -0.5280
 9375TIP3    H249541   1.482   0.122   3.345 -1.4739  1.4343  1.3033
 9376TIP3   OH249542   1.649   5.017  10.405  0.0330 -0.1965  0.4792
 9376TIP3    H149543   1.584   4.972  10.353 -0.1781 -1.7407  2.0094
 9376TIP3    H249544   1.601   5.053  10.479  0.7429 -0.5079  1.1118
 9377TIP3   OH249545   5.742   0.353  16.365 -0.0448 -0.0909 -0.2325
 9377TIP3    H149546   5.702   0.274  16.330 -0.0268 -1.0520  1.8024
 9377TIP3    H249547   5.791   0.324  16.442 -0.2197  1.9215  0.7152
 9378TIP3   OH249548   0.374   2.853  16.034  0.7379 -0.3124  0.3312
 9378TIP3    H149549   0.380   2.946  16.012  0.6611  0.1159  1.9845
 9378TIP3    H249550   0.435   2.810  15.974  0.8052  0.7938 -0.4352
 9379TIP3   OH249551   3.914   2.641  11.466 -0.1408  0.4859  0.0776
 9379TIP3    H149552   3.929   2.622  11.373 -1.2561  0.6436 -0.1484
 9379TIP3    H249553   3.885   2.557  11.503  4.0624 -0.7017  1.2207
 9380TIP3   OH249554   4.883   5.503  12.128 -0.3880 -0.2782  0.4208
 9380TIP3    H149555   4.798   5.547  12.134 -0.2514  0.1303 -0.4553
 9380TIP3    H249556   4.869   5.432  12.065 -0.3172 -0.8057  0.9866
 9381TIP3   OH249557   1.784   0.164   0.893  0.4927 -0.6186 -0.2931
 9381TIP3    H149558   1.763   0.256   0.877 -2.1733 -0.9399  0.8765
 9381TIP3    H249559   1.774   0.122   0.807  0.7034  0.0162 -0.6315
 9382TIP3   OH249560   0.585   3.002   2.907 -0.2863 -0.1461 -0.3930
 9382TIP3    H149561   0.620   2.947   2.837 -0.1685 -1.1795  0.4532
 9382TIP3    H249562   0.662   3.029   2.957 -0.3086  1.0686 -0.9682
 9383TIP3   OH249563   3.672   0.466   1.104  0.6527  0.2735 -0.4004
 9383TIP3    H149564   3.737   0.501   1.042 -0.7804  0.6729 -1.7275
 9383TIP3    H249565   3.596   0.522   1.093  0.2733  0.2378  1.6359
 9384TIP3   OH249566   0.603   2.683   2.398  0.0472 -0.3947 -0.2784
 9384TIP3    H149567   0.686   2.637   2.388 -0.6387 -1.5709 -0.8802
 9384TIP3    H249568   0.586   2.683   2.492  0.5229 -0.5220 -0.1920
 9385TIP3   OH249569   3.435   2.616   2.220  0.3430 -0.1875 -0.8197
 9385TIP3    H149570   3.479   2.571   2.147  0.2087 -1.1827 -0.3077
 9385TIP3    H249571   3.492   2.600   2.295 -0.2588 -0.4149 -0.4104
 9386TIP3   OH249572   2.413   6.274   5.794 -0.2552 -0.4020  0.1858
 9386TIP3    H149573   2.345   6.336   5.823  0.8905  0.4174  1.2225
 9386TIP3    H249574   2.416   6.208   5.863  0.1454 -0.3157  0.2518
 9387TIP3   OH249575   4.860   6.759   1.546 -0.3318 -1.1402  0.2615
 9387TIP3    H149576   4.831   6.832   1.600 -0.8761 -0.3783 -1.0143
 9387TIP3    H249577   4.866   6.796   1.457  2.0526 -1.9192  0.0280
 9388TIP3   OH249578   1.998   5.676   2.490  0.1643 -0.2622 -0.1153
 9388TIP3    H149579   1.937   5.720   2.549  0.5635 -0.9787  0.8568
 9388TIP3    H249580   2.037   5.747   2.438  0.5055  0.4908  1.1403
 9389TIP3   OH249581   0.554   3.021  12.955  0.6380  0.3389 -1.5756
 9389TIP3    H149582   0.490   2.950  12.967 -0.1646  1.4264  1.7730
 9389TIP3    H249583   0.502   3.097  12.931  0.5921  1.0931  0.6115
 9390TIP3   OH249584   1.672   1.677   3.801  0.0565 -0.1849  0.4170
 9390TIP3    H149585   1.685   1.584   3.818  1.7738  0.1213  1.0677
 9390TIP3    H249586   1.581   1.694   3.823 -0.9056 -2.0972 -1.7132
 9391TIP3   OH249587   6.084   0.035   4.873  0.8648  0.7493  0.5062
 9391TIP3    H149588   6.085   0.130   4.861  0.5648  0.8655  1.2989
 9391TIP3    H249589   5.993   0.015   4.895  0.7623  0.1717 -0.4114
 9392TIP3   OH249590   1.870   5.831   5.690 -0.7618 -0.3627 -0.2277
 9392TIP3    H149591   1.936   5.896   5.711  2.2972 -3.2661  0.0006
 9392TIP3    H249592   1.827   5.812   5.773 -0.5871  0.2193 -0.0012
 9393TIP3   OH249593   0.804   2.546  14.478  0.2978 -0.5018 -0.0832
 9393TIP3    H149594   0.809   2.591  14.393 -0.4327  0.1079  0.1827
 9393TIP3    H249595   0.769   2.460  14.457 -0.5580 -0.1033 -0.3304
 9394TIP3   OH249596   3.886   6.688  10.680 -0.3184 -0.2655  0.4399
 9394TIP3    H149597   3.922   6.599  10.687  1.6569  0.4691  0.3938
 9394TIP3    H249598   3.946   6.742  10.732 -2.5681  0.8108  2.1127
 9395TIP3   OH249599   4.421   4.130   4.824  0.1058 -0.2307  0.4283
 9395TIP3    H149600   4.390   4.138   4.734 -0.3023  0.9080  0.6459
 9395TIP3    H249601   4.361   4.066   4.864 -1.1879  0.9632  0.4824
 9396TIP3   OH249602   0.333   1.112   3.557  0.4529 -0.2702 -0.6075
 9396TIP3    H149603   0.377   1.088   3.475 -0.6948 -0.6145 -1.1320
 9396TIP3    H249604   0.283   1.191   3.535  1.3585  0.5618  0.1848
 9397TIP3   OH249605   6.110   1.265   2.121 -0.5887 -0.3233 -0.2510
 9397TIP3    H149606   6.178   1.228   2.065  0.8729  0.1809  1.1168
 9397TIP3    H249607   6.043   1.296   2.061 -0.9688 -3.3295 -1.5483
 9398TIP3   OH249608   3.567   4.948   5.799 -0.1439  0.5035  0.3576
 9398TIP3    H149609   3.535   4.871   5.752  0.2583  0.2255  0.5335
 9398TIP3    H249610   3.488   4.992   5.831 -0.3464 -0.2486  0.9022
 9399TIP3   OH249611   0.554   3.358  11.596  0.7194 -0.0787 -0.1164
 9399TIP3    H149612   0.531   3.280  11.545  0.4354  0.3422 -0.6388
 9399TIP3    H249613   0.472   3.405  11.607  0.7959 -0.1250  0.6716
 9400TIP3   OH249614   1.427   5.647  11.802 -0.1201  0.0493  0.2866
 9400TIP3    H149615   1.505   5.688  11.764 -1.1223  2.2544  0.4359
 9400TIP3    H249616   1.457   5.613  11.887  0.7585  0.5131  0.1809
 9401TIP3   OH249617   4.320   2.191  16.868 -0.0966  0.4072  0.0135
 9401TIP3    H149618   4.345   2.168  16.957 -0.2481 -0.7765 -0.2378
 9401TIP3    H249619   4.229   2.162  16.859 -0.1922  0.8177 -0.4265
 9402TIP3   OH249620   3.212   0.275   1.627  0.1640 -0.6294 -0.0522
 9402TIP3    H149621   3.206   0.195   1.575  1.0999 -1.0673  0.4861
 9402TIP3    H249622   3.301   0.274   1.663 -0.5816 -0.5738  1.9236
 9403TIP3   OH249623   2.206   2.472  14.494  0.3358  0.6838  1.1656
 9403TIP3    H149624   2.145   2.436  14.559 -1.4756  0.2028 -0.6909
 9403TIP3    H249625   2.199   2.567  14.505 -2.4911  0.7557 -0.3999
 9404TIP3   OH249626   5.429   0.184   5.163 -0.9282  0.1008  0.9116
 9404TIP3    H149627   5.520   0.164   5.186 -0.8401 -0.2682  0.2525
 9404TIP3    H249628   5.382   0.182   5.247 -0.6008 -1.1846  1.0843
 9405TIP3   OH249629   2.764   4.294   6.178  0.5150  0.2306  0.1738
 9405TIP3    H149630   2.678   4.258   6.155  0.9765  0.7049 -2.6218
 9405TIP3    H249631   2.802   4.229   6.237 -1.1580 -0.6958  0.2970
 9406TIP3   OH249632   1.860   0.971  11.589 -0.1382  0.1256 -0.3696
 9406TIP3    H149633   1.863   0.894  11.532  2.0038 -0.4660  0.4735
 9406TIP3    H249634   1.767   0.992  11.595 -1.1081 -3.7765  1.1953
 9407TIP3   OH249635   6.119   1.599   6.404  0.0950 -0.1690  0.0323
 9407TIP3    H149636   6.103   1.693   6.404  0.5522 -0.0338  2.0848
 9407TIP3    H249637   6.207   1.590   6.441 -0.1182 -1.4173  0.2851
 9408TIP3   OH249638   5.969   1.230   4.311  0.2897 -0.2217  0.4368
 9408TIP3    H149639   5.990   1.271   4.227 -1.6511  0.1648  0.1090
 9408TIP3    H249640   5.979   1.136   4.295 -0.8757 -0.2107 -0.4964
 9409TIP3   OH249641   2.240   5.284   2.596 -0.0472  0.4747 -0.0838
 9409TIP3    H149642   2.258   5.378   2.595  1.1321  0.2734  0.2052
 9409TIP3    H249643   2.154   5.276   2.556 -0.4510  1.7322  0.4576
 9410TIP3   OH249644   2.584   0.104  17.078  0.2712  0.8739  0.1746
 9410TIP3    H149645   2.563   0.195  17.061 -1.0698  0.5079 -0.2294
 9410TIP3    H249646   2.662   0.107  17.133  1.5956  2.2079 -1.6515
 9411TIP3   OH249647   5.812   4.786   3.421 -0.1034 -0.5642  0.2380
 9411TIP3    H149648   5.806   4.780   3.517  0.0720  0.5067  0.3372
 9411TIP3    H249649   5.835   4.878   3.405 -3.2314  0.1190 -0.9785
 9412TIP3   OH249650   4.753   6.510   3.420 -0.1594 -0.1041  0.4330
 9412TIP3    H149651   4.789   6.481   3.337 -0.6515 -0.1587  0.2316
 9412TIP3    H249652   4.732   6.429   3.467 -0.2586 -0.0762  0.4386
 9413TIP3   OH249653   6.532   0.600  16.410 -0.2288 -0.1953  0.7651
 9413TIP3    H149654   6.483   0.658  16.352 -0.4274  0.3534  1.4626
 9413TIP3    H249655   6.604   0.654  16.442 -0.7637 -0.1208  1.9025
 9414TIP3   OH249656   4.958   0.198  15.361 -0.6164  0.2600 -0.0828
 9414TIP3    H149657   5.013   0.232  15.431 -1.6756 -0.8281  1.3402
 9414TIP3    H249658   4.976   0.104  15.361 -0.7094  0.2274 -1.2220
 9415TIP3   OH249659   3.353   3.809  15.203 -0.0303 -0.2987 -0.5843
 9415TIP3    H149660   3.442   3.843  15.214 -0.2582  0.0113  0.4043
 9415TIP3    H249661   3.326   3.784  15.292 -0.3806 -1.7985 -1.0822
 9416TIP3   OH249662   0.333   6.774   4.392 -1.0425  0.1582 -0.7020
 9416TIP3    H149663   0.366   6.798   4.306  0.2858 -0.1498 -0.2908
 9416TIP3    H249664   0.239   6.760   4.378 -1.0765  1.2721 -1.8459
 9417TIP3   OH249665   3.698   4.057  13.066 -0.0782 -0.2406  0.0791
 9417TIP3    H149666   3.633   4.095  13.125 -0.8258 -2.7461  0.9997
 9417TIP3    H249667   3.648   4.026  12.991  0.4773  0.2567 -0.5146
 9418TIP3   OH249668   5.178   0.269   1.464  0.4740  0.1669  0.1097
 9418TIP3    H149669   5.157   0.231   1.550 -0.0184 -0.8393 -0.4384
 9418TIP3    H249670   5.123   0.220   1.403 -0.5947  2.1268 -0.5907
 9419TIP3   OH249671   3.241   2.402  15.978  0.0943  0.1933 -0.6723
 9419TIP3    H149672   3.326   2.361  15.961  0.4395  0.1999  0.8441
 9419TIP3    H249673   3.246   2.430  16.070 -2.2472 -1.5400  0.0746
 9420TIP3   OH249674   1.520   2.292  17.166 -0.1053 -0.2891 -0.6111
 9420TIP3    H149675   1.568   2.236  17.104 -0.3335 -1.8896  0.5814
 9420TIP3    H249676   1.440   2.315  17.119  0.5174  0.0336 -1.5576
 9421TIP3   OH249677   1.525   3.238   0.959 -0.6374  0.0998  0.2789
 9421TIP3    H149678   1.583   3.207   1.029  1.6938  0.6205 -1.2742
 9421TIP3    H249679   1.557   3.326   0.940 -0.1539 -0.5528 -2.3896
 9422TIP3   OH249680   2.846   3.469  12.800 -0.1069  0.2257 -0.0096
 9422TIP3    H149681   2.786   3.397  12.820  0.0063  0.3836  0.9294
 9422TIP3    H249682   2.799   3.522  12.736 -1.5979  1.1421  1.7501
 9423TIP3   OH249683   1.097   1.677  16.054 -0.1729  0.3053 -0.4875
 9423TIP3    H149684   1.192   1.669  16.053  0.0222  0.8976  2.9951
 9423TIP3    H249685   1.065   1.586  16.058  0.2438  0.1323 -0.9588
 9424TIP3   OH249686   4.250   1.033   0.228  0.1744 -0.0750 -0.4576
 9424TIP3    H149687   4.282   1.122   0.216 -0.9126  0.2223 -1.2112
 9424TIP3    H249688   4.190   1.038   0.303  0.0760 -0.1681 -0.5303
 9425TIP3   OH249689   3.236   6.633   2.067 -0.0635 -0.2851 -0.3441
 9425TIP3    H149690   3.308   6.669   2.015 -0.6335  0.2033 -0.7968
 9425TIP3    H249691   3.206   6.557   2.018  0.2568 -0.6049 -0.0580
 9426TIP3   OH249692   1.864   1.053  16.403  0.1678 -0.4693 -0.2404
 9426TIP3    H149693   1.793   1.107  16.436 -0.0905 -1.0278  0.1329
 9426TIP3    H249694   1.823   0.968  16.385  0.8156 -0.9096  0.3403
 9427TIP3   OH249695   1.074   5.354  11.086  0.2660 -0.3444  0.0129
 9427TIP3    H149696   1.132   5.287  11.121  0.8723  0.0217 -0.2658
 9427TIP3    H249697   1.087   5.429  11.144  2.0348  0.6114 -1.4915
 9428TIP3   OH249698   5.464   0.232  12.504  0.6444 -0.4637 -0.5644
 9428TIP3    H149699   5.417   0.309  12.535 -1.9245 -1.3635 -1.9459
 9428TIP3    H249700   5.483   0.182  12.583  1.2657  0.9377  0.2190
 9429TIP3   OH249701   5.744   2.263  12.511  0.6646 -0.2298  0.4969
 9429TIP3    H149702   5.798   2.234  12.438 -1.0817 -0.5267 -0.7267
 9429TIP3    H249703   5.804   2.263  12.586  1.6423 -3.7589 -0.0977
 9430TIP3   OH249704   1.114   0.957   0.922 -0.6729  0.2170 -0.3892
 9430TIP3    H149705   1.192   0.930   0.873 -0.8027 -0.9956  0.0511
 9430TIP3    H249706   1.117   1.053   0.921 -0.1948  0.2095 -1.9966
 9431TIP3   OH249707   5.758   6.087   2.945 -0.2890 -0.6884  0.4059
 9431TIP3    H149708   5.821   6.059   2.879 -0.8564 -1.3272  0.1187
 9431TIP3    H249709   5.715   6.163   2.906 -1.2802 -1.6158 -0.4022
 9432TIP3   OH249710   0.858   4.275  16.820 -0.2031 -0.1306  0.1967
 9432TIP3    H149711   0.772   4.236  16.836 -1.0004  1.4457 -0.0361
 9432TIP3    H249712   0.892   4.294  16.907  0.5224 -1.9227  0.3531
 9433TIP3   OH249713   6.140   4.101   6.703  0.4205 -0.2449  0.8225
 9433TIP3    H149714   6.184   4.025   6.668  0.6749  0.0951  0.3975
 9433TIP3    H249715   6.047   4.077   6.705  0.2643  0.0681 -1.0204
 9434TIP3   OH249716   3.991   4.289  10.730 -0.1602  0.5168 -0.7133
 9434TIP3    H149717   4.060   4.289  10.663  0.5216  0.0857 -0.0380
 9434TIP3    H249718   4.009   4.211  10.782 -1.6709 -0.0553 -1.0132
 9435TIP3   OH249719   6.332   2.382   1.158  0.0140 -0.0320 -0.7567
 9435TIP3    H149720   6.348   2.294   1.193 -0.3394  0.3897  0.5506
 9435TIP3    H249721   6.328   2.438   1.236 -0.3717  1.0514 -1.5260
 9436TIP3   OH249722   3.568   6.159  15.487 -0.3802 -0.2318  0.2451
 9436TIP3    H149723   3.521   6.242  15.494  1.3999  0.7695  0.8668
 9436TIP3    H249724   3.571   6.141  15.393 -2.0362 -0.3879  0.1878
 9437TIP3   OH249725   3.299   0.878   0.357 -0.3568 -0.0503  0.5307
 9437TIP3    H149726   3.370   0.941   0.345  0.9841 -1.5136  0.3101
 9437TIP3    H249727   3.314   0.841   0.444 -0.0965 -1.2117  0.0217
 9438TIP3   OH249728   2.048   1.080   5.635  0.0871 -0.6219 -0.7771
 9438TIP3    H149729   2.068   1.174   5.629  0.6570 -0.7787 -1.5151
 9438TIP3    H249730   1.967   1.076   5.686  1.3569  0.0971  1.4012
 9439TIP3   OH249731   4.229   2.125   3.642 -0.0721 -0.5102 -0.0123
 9439TIP3    H149732   4.313   2.105   3.684  0.8821  0.3953 -1.3838
 9439TIP3    H249733   4.206   2.046   3.594 -0.0342 -0.7820  0.4156
 9440TIP3   OH249734   5.898   0.315  14.910  0.0819  0.3505 -0.3462
 9440TIP3    H149735   5.867   0.377  14.975 -0.7991  0.3413 -0.7389
 9440TIP3    H249736   5.860   0.231  14.937 -0.1729  0.3215 -0.7791
 9441TIP3   OH249737   1.673   6.096   2.800 -0.5921  0.1635 -0.2523
 9441TIP3    H149738   1.748   6.064   2.850 -0.3694 -0.0624 -0.7266
 9441TIP3    H249739   1.633   6.017   2.764 -0.9221  0.3019 -0.1908
 9442TIP3   OH249740   1.961   2.602   1.022 -0.7007 -0.8435 -0.7502
 9442TIP3    H149741   1.996   2.514   1.008  1.4915 -0.0185 -0.9664
 9442TIP3    H249742   1.870   2.589   1.048  0.3914 -3.3864  2.5678
 9443TIP3   OH249743   3.289   4.041  12.505 -0.3375 -0.1207 -0.3871
 9443TIP3    H149744   3.221   4.096  12.546  0.9475  0.8911  0.4698
 9443TIP3    H249745   3.243   3.961  12.481 -2.2671  1.2397 -1.5256
 9444TIP3   OH249746   4.668   5.557   6.419 -0.5292 -0.3888  0.5863
 9444TIP3    H149747   4.721   5.617   6.471  0.6669 -0.6541 -0.2774
 9444TIP3    H249748   4.731   5.504   6.371 -1.5764 -1.1142 -0.0458
 9445TIP3   OH249749   0.342   1.027   4.890  0.2795  0.2191  0.3353
 9445TIP3    H149750   0.401   1.018   4.816 -1.0742  1.8457 -1.0314
 9445TIP3    H249751   0.379   0.971   4.958  0.2877 -3.3555 -2.3362
 9446TIP3   OH249752   3.617   0.549   0.090 -0.1600 -0.0819  0.2803
 9446TIP3    H149753   3.570   0.629   0.064  2.9287  1.2747 -1.6004
 9446TIP3    H249754   3.665   0.575   0.169 -0.7102 -0.7657  0.8570
 9447TIP3   OH249755   2.983   5.863   2.860 -0.1280 -0.0227 -0.3446
 9447TIP3    H149756   2.991   5.958   2.870 -0.5268 -0.2162  2.9019
 9447TIP3    H249757   3.046   5.827   2.922  0.0638 -1.9138 -1.5596
 9448TIP3   OH249758   6.214   0.579   5.296 -0.6603 -0.4924  0.6869
 9448TIP3    H149759   6.178   0.515   5.234 -0.2923  0.4966 -0.5782
 9448TIP3    H249760   6.235   0.655   5.243 -0.2995  0.3837  2.0385
 9449TIP3   OH249761   0.073   2.431   4.195 -0.5325  0.2801  0.3428
 9449TIP3    H149762  -0.015   2.441   4.230 -0.9961  0.2417 -0.7621
 9449TIP3    H249763   0.124   2.393   4.267 -0.7342  2.7446  1.9126
 9450TIP3   OH249764   3.301   3.128   6.320  0.1179 -0.2559 -0.2182
 9450TIP3    H149765   3.371   3.189   6.297 -0.9070  1.1595  0.3172
 9450TIP3    H249766   3.236   3.182   6.365 -2.5914 -0.9497 -2.9775
 9451TIP3   OH249767   0.223   3.524   3.440 -0.1264  0.6704  0.2815
 9451TIP3    H149768   0.248   3.581   3.513 -0.7367 -0.2485  1.2426
 9451TIP3    H249769   0.129   3.536   3.431 -0.2406 -0.0702  0.4155
 9452TIP3   OH249770   4.995   0.224  14.656 -0.4156 -0.2479 -0.6533
 9452TIP3    H149771   5.010   0.260  14.568 -0.0244  0.3361 -0.3543
 9452TIP3    H249772   4.907   0.254  14.678 -1.5188 -2.4077 -1.7957
 9453TIP3   OH249773   3.108   2.349  17.133  0.2733 -0.2812  0.0693
 9453TIP3    H149774   3.113   2.444  17.134  0.7409 -0.2977 -0.2995
 9453TIP3    H249775   3.117   2.325  17.041 -2.6805 -0.5612 -0.2598
 9454TIP3   OH249776   2.274   3.159   0.143  0.4020 -0.2289 -0.0554
 9454TIP3    H149777   2.343   3.136   0.206 -0.6418  0.8562  1.5566
 9454TIP3    H249778   2.320   3.205   0.073  1.3486  0.3530  0.9206
 9455TIP3   OH249779   5.023   4.388  14.065  0.3196  0.2359 -0.5524
 9455TIP3    H149780   5.054   4.405  13.976  2.1365 -1.3625 -0.3037
 9455TIP3    H249781   5.021   4.292  14.071  0.1699  0.3131  1.1018
 9456TIP3   OH249782   2.800   3.064  16.430 -0.3545  0.2331  0.7011
 9456TIP3    H149783   2.816   3.102  16.343 -0.5582 -1.1512  0.0279
 9456TIP3    H249784   2.707   3.075  16.444 -0.1258  1.5593  1.3065
 9457TIP3   OH249785   2.380   3.343   4.217  0.0945  0.0997  0.6575
 9457TIP3    H149786   2.386   3.425   4.266 -0.2004  0.7027 -0.2832
 9457TIP3    H249787   2.409   3.366   4.129  0.3534 -0.8979  0.4744
 9458TIP3   OH249788   0.206   6.389  16.688  0.1816  0.0114 -0.0771
 9458TIP3    H149789   0.268   6.333  16.642  0.8149 -0.1491  0.9383
 9458TIP3    H249790   0.168   6.444  16.619 -1.4039 -2.4665 -1.3215
 9459TIP3   OH249791   2.964   4.016   3.935 -0.1821 -0.1008 -0.4031
 9459TIP3    H149792   2.993   4.071   4.007 -0.4934 -0.1466 -0.2416
 9459TIP3    H249793   2.998   3.929   3.955 -1.8759 -0.5752  0.7076
 9460TIP3   OH249794   4.012   0.853  15.185 -0.2287  0.0645  0.0987
 9460TIP3    H149795   4.094   0.904  15.186 -0.1760 -0.0249  0.6397
 9460TIP3    H249796   3.954   0.903  15.128  0.4409 -0.2580 -0.9087
 9461TIP3   OH249797   2.230   4.999  16.800 -0.1986 -0.2156 -0.6201
 9461TIP3    H149798   2.168   4.979  16.870  1.2068 -3.4138 -0.1209
 9461TIP3    H249799   2.315   5.008  16.844  0.3135  0.3178 -1.6776
 9462TIP3   OH249800   4.352   3.354   3.722 -0.8873 -0.1212  0.0068
 9462TIP3    H149801   4.408   3.306   3.662  0.1406 -1.3226  1.8213
 9462TIP3    H249802   4.264   3.322   3.705 -1.1240  1.6628 -2.7689
 9463TIP3   OH249803   5.328   1.185   4.674  0.1659  0.2052 -0.7159
 9463TIP3    H149804   5.272   1.113   4.703  0.1846  0.0246 -1.1191
 9463TIP3    H249805   5.311   1.255   4.737  0.6546 -0.3787  0.0915
 9464TIP3   OH249806   3.138   3.539   5.073  0.8766  0.8047  0.2233
 9464TIP3    H149807   3.232   3.526   5.075  0.5050 -3.0767  0.0787
 9464TIP3    H249808   3.101   3.453   5.095 -2.6452  1.8913 -0.7387
 9465TIP3   OH249809   0.240   0.172  16.814  0.3521 -0.4366 -0.3930
 9465TIP3    H149810   0.296   0.207  16.745 -1.0231  1.2616 -0.7056
 9465TIP3    H249811   0.160   0.225  16.810 -1.0777 -2.4133  0.3880
 9466TIP3   OH249812   6.151   2.136   0.316  0.0943  0.0091 -0.3502
 9466TIP3    H149813   6.123   2.080   0.244 -0.0300 -0.4271  0.0327
 9466TIP3    H249814   6.242   2.158   0.295  0.1684 -0.4029 -0.4598
 9467TIP3   OH249815   3.321   2.570   4.694 -0.0246  0.3987 -0.2898
 9467TIP3    H149816   3.367   2.489   4.713 -1.4879 -0.2616  0.6107
 9467TIP3    H249817   3.331   2.624   4.773 -0.1744  0.5409 -0.3648
 9468TIP3   OH249818   5.711   1.343   5.673  0.0047  0.6570  0.0274
 9468TIP3    H149819   5.714   1.271   5.610  3.7724 -0.6930  1.4310
 9468TIP3    H249820   5.768   1.410   5.636 -0.3904  1.2544  0.4864
 9469TIP3   OH249821   0.166   5.577  10.762  0.0495  0.6116  0.3655
 9469TIP3    H149822   0.204   5.625  10.689 -1.5240  0.6757 -0.4457
 9469TIP3    H249823   0.073   5.567  10.740 -0.1027 -0.9900  1.4771
 9470TIP3   OH249824   2.119   3.117   3.221 -0.0064 -0.1113 -0.1400
 9470TIP3    H149825   2.056   3.169   3.170 -0.0944 -1.4283 -1.4493
 9470TIP3    H249826   2.068   3.082   3.294 -0.7996 -1.0765 -1.1301
 9471TIP3   OH249827   1.268   1.362  13.321  0.2884 -0.6357  0.6889
 9471TIP3    H149828   1.267   1.266  13.328  0.3253 -0.7341 -0.5175
 9471TIP3    H249829   1.254   1.392  13.411  0.5350 -1.7690  1.1301
 9472TIP3   OH249830   4.564   3.064   2.684  0.3032 -0.2780  0.0570
 9472TIP3    H149831   4.631   3.104   2.741 -1.8387  2.2312  1.0352
 9472TIP3    H249832   4.490   3.049   2.742 -1.0732 -0.0378 -1.5696
 9473TIP3   OH249833   6.019   6.412   4.078 -0.4905  0.0908  0.1835
 9473TIP3    H149834   6.021   6.322   4.046 -1.1525  0.3259 -0.5469
 9473TIP3    H249835   6.037   6.405   4.172  1.4656 -0.6298 -0.1925
 9474TIP3   OH249836   1.104   3.215   2.281  0.1042 -0.2969 -0.4382
 9474TIP3    H149837   1.095   3.310   2.295  0.9979  0.0317 -1.8878
 9474TIP3    H249838   1.018   3.187   2.250  0.4765  0.5082 -2.3191
 9475TIP3   OH249839   1.682   1.509  12.598  0.4846 -0.0707 -0.2089
 9475TIP3    H149840   1.610   1.573  12.600 -0.5042 -1.1414  1.6085
 9475TIP3    H249841   1.682   1.471  12.686  1.8002 -1.7389 -0.8806
 9476TIP3   OH249842   1.622   5.217  11.694  0.2627 -0.2896 -0.8069
 9476TIP3    H149843   1.634   5.160  11.771 -2.1775 -0.3140 -0.3754
 9476TIP3    H249844   1.656   5.302  11.722  2.5310 -1.0824 -0.9298
 9477TIP3   OH249845   2.823   3.173  12.047 -0.5660 -0.1252 -0.4336
 9477TIP3    H149846   2.812   3.267  12.065 -0.6745 -0.1533 -0.3546
 9477TIP3    H249847   2.769   3.129  12.113 -0.1171 -0.2584 -0.1530
 9478TIP3   OH249848   0.418   0.493   5.645  0.3857  0.1371 -0.1208
 9478TIP3    H149849   0.391   0.430   5.579  1.1212 -0.8550  0.4936
 9478TIP3    H249850   0.509   0.515   5.622  0.0831  1.1215 -0.4302
 9479TIP3   OH249851   1.408   5.877  14.108 -0.2689 -0.5417  0.2548
 9479TIP3    H149852   1.363   5.922  14.179  0.6803 -0.6383  0.9426
 9479TIP3    H249853   1.341   5.862  14.042 -1.5677 -1.9019  1.8003
 9480TIP3   OH249854   5.076   3.296  15.093 -0.5205 -0.1128  0.2517
 9480TIP3    H149855   5.159   3.344  15.093 -0.7165  0.2758 -0.8709
 9480TIP3    H249856   5.011   3.360  15.120 -0.5697 -0.1892  0.3151
 9481TIP3   OH249857   1.674   0.229  12.149 -0.4715  0.0945 -0.1958
 9481TIP3    H149858   1.698   0.215  12.240  2.2893 -1.8621 -1.1318
 9481TIP3    H249859   1.746   0.279  12.112 -0.3577 -1.2036 -1.8526
 9482TIP3   OH249860   6.540   3.404   2.502  0.2246 -0.3258  0.1975
 9482TIP3    H149861   6.448   3.397   2.476  0.6560  1.7497 -2.3015
 9482TIP3    H249862   6.571   3.314   2.505 -2.1438 -1.1676  2.3462
 9483TIP3   OH249863   2.974   0.599  14.650  0.4046 -0.5839  0.3475
 9483TIP3    H149864   2.955   0.692  14.668 -2.2522 -0.9616 -0.0234
 9483TIP3    H249865   2.896   0.568  14.604  2.2973 -2.4148 -1.8185
 9484TIP3   OH249866   5.428   6.243   3.569  0.2616  0.4572 -0.5566
 9484TIP3    H149867   5.389   6.327   3.593  1.0661  0.6992 -0.0305
 9484TIP3    H249868   5.521   6.252   3.593  0.1446 -0.9851  0.6106
 9485TIP3   OH249869   5.505   5.809   1.417 -0.3696 -0.0471  0.3550
 9485TIP3    H149870   5.503   5.819   1.512 -0.6972  0.7691  0.2765
 9485TIP3    H249871   5.430   5.754   1.397  0.4316 -1.3020  0.6632
 9486TIP3   OH249872   5.654   0.962  12.331  0.2402  0.9023  0.3365
 9486TIP3    H149873   5.612   0.882  12.299 -1.6551  1.2245  1.8662
 9486TIP3    H249874   5.653   1.021  12.255 -0.1656  0.1533 -0.2544
 9487TIP3   OH249875   5.672   5.287   2.420  0.1842 -0.0171  0.1728
 9487TIP3    H149876   5.761   5.317   2.403  0.3319 -1.1488 -1.2087
 9487TIP3    H249877   5.651   5.232   2.345 -0.9755 -1.3405  1.4317
 9488TIP3   OH249878   0.479   0.906  14.897  0.3391 -0.2008  0.8395
 9488TIP3    H149879   0.561   0.860  14.882 -0.1414 -0.7299 -0.3355
 9488TIP3    H249880   0.420   0.871  14.830 -0.7487  0.3897  1.4638
 9489TIP3   OH249881   2.230   3.721  14.754  0.3677 -0.2713  0.1485
 9489TIP3    H149882   2.238   3.683  14.667 -1.3142 -3.1917  1.1251
 9489TIP3    H249883   2.151   3.775  14.750  0.7461  0.2579 -0.3191
 9490TIP3   OH249884   1.314   4.714   4.485  0.5273 -0.1447 -0.1384
 9490TIP3    H149885   1.309   4.692   4.392 -0.3653  1.5444 -0.5330
 9490TIP3    H249886   1.261   4.647   4.528  1.3661 -1.2425 -0.7585
 9491TIP3   OH249887   4.338   3.525  12.654 -0.1627  0.1315  0.2296
 9491TIP3    H149888   4.334   3.612  12.694  3.0678  0.8520 -0.7591
 9491TIP3    H249889   4.337   3.465  12.729 -0.1971  1.1304  1.0522
 9492TIP3   OH249890   1.279   1.914  13.794  0.7689 -0.1847 -0.3348
 9492TIP3    H149891   1.228   1.906  13.713  0.3343  3.6441 -0.6151
 9492TIP3    H249892   1.356   1.965  13.769  0.9739  0.4795  1.5141
 9493TIP3   OH249893   6.424   3.016  12.625  0.0172  0.0291 -0.1418
 9493TIP3    H149894   6.419   3.024  12.721 -1.1069  0.5356 -0.2178
 9493TIP3    H249895   6.497   2.956  12.610 -1.2555 -2.0268  1.1579
 9494TIP3   OH249896   2.411   1.950  15.378  0.1900 -0.3331 -0.8415
 9494TIP3    H149897   2.325   1.970  15.413  0.2505 -1.5069  0.0659
 9494TIP3    H249898   2.434   1.865  15.417  1.8600  0.0725 -0.8390
 9495TIP3   OH249899   6.008   3.389   5.966 -0.2805 -0.0933 -0.1703
 9495TIP3    H149900   6.007   3.322   6.035 -4.4847 -1.0863 -0.8594
 9495TIP3    H249901   5.938   3.449   5.990 -0.5314  0.6776 -2.5267
 9496TIP3   OH249902   2.633   1.384   4.350 -0.0282  0.0824  0.3480
 9496TIP3    H149903   2.628   1.288   4.354 -0.6586  0.1380  1.0377
 9496TIP3    H249904   2.542   1.412   4.344  0.1389  0.6497  0.4808
 9497TIP3   OH249905   5.066   0.806  14.314  0.7763 -0.2814 -0.2358
 9497TIP3    H149906   5.067   0.885  14.262  0.6835  1.1145  1.7575
 9497TIP3    H249907   4.981   0.766  14.298  0.8814 -0.0774 -1.3547
 9498TIP3   OH249908   5.398   4.497   0.925  0.3512  0.2966 -0.9629
 9498TIP3    H149909   5.402   4.551   0.846  1.0457  0.2273 -0.9891
 9498TIP3    H249910   5.392   4.407   0.891  2.5826  0.1084 -1.0050
 9499TIP3   OH249911   2.717   2.931   0.939  0.1173 -0.3199  0.0960
 9499TIP3    H149912   2.636   2.933   0.887  0.0678 -0.2746  0.1753
 9499TIP3    H249913   2.730   2.838   0.960  1.5945 -0.7556 -2.2929
 9500TIP3   OH249914   0.222   5.701  13.512  0.1430  0.4051 -0.2695
 9500TIP3    H149915   0.317   5.696  13.522 -0.0934 -0.5522  1.9828
 9500TIP3    H249916   0.200   5.791  13.537  0.4385  0.6393 -0.8288
 9501TIP3   OH249917   3.272   3.767  13.535  0.1639  0.1973  0.3338
 9501TIP3    H149918   3.365   3.746  13.533 -0.0954 -0.9672 -0.9374
 9501TIP3    H249919   3.259   3.827  13.462 -0.3472 -1.0167 -0.6211
 9502TIP3   OH249920   2.723   2.162  14.357  0.3111  0.2106  0.1921
 9502TIP3    H149921   2.708   2.208  14.439 -1.1348  0.4769 -0.1982
 9502TIP3    H249922   2.749   2.231  14.295  0.7177  0.1099  0.2476
 9503TIP3   OH249923   5.012   4.849  13.001  0.3234 -0.3889 -0.4673
 9503TIP3    H149924   4.959   4.917  13.043 -0.0099 -0.4167 -0.8346
 9503TIP3    H249925   4.951   4.803  12.943  0.6584 -0.6845 -0.5922
 9504TIP3   OH249926   0.104   5.990   2.290  0.4076  0.0695 -0.2283
 9504TIP3    H149927   0.094   5.998   2.195  0.3878  2.7000 -0.0686
 9504TIP3    H249928   0.198   5.986   2.305  0.4403  0.5511 -0.3084
 9505TIP3   OH249929   4.796   4.564  13.185  0.2787 -0.0394 -0.5890
 9505TIP3    H149930   4.722   4.504  13.179 -2.0903  2.4089  1.5862
 9505TIP3    H249931   4.790   4.617  13.105  1.3404 -1.4506 -1.6643
 9506TIP3   OH249932   3.156   3.155  13.602 -0.4157 -0.1181 -0.5886
 9506TIP3    H149933   3.247   3.127  13.588  0.5524  1.7730  1.3626
 9506TIP3    H249934   3.163   3.234  13.655 -3.2334  0.1837 -0.5179
 9507TIP3   OH249935   3.558   2.144  16.179  0.2614 -0.0497 -0.0687
 9507TIP3    H149936   3.645   2.170  16.209  0.3640 -0.7454  0.2478
 9507TIP3    H249937   3.557   2.167  16.086  0.3497  1.0597  0.1904
 9508TIP3   OH249938   1.918   6.276  16.430  0.5099 -0.0818  0.1852
 9508TIP3    H149939   1.998   6.256  16.380 -0.2397 -1.2152 -0.6078
 9508TIP3    H249940   1.917   6.211  16.500  1.0644  0.9091  1.1345
 9509TIP3   OH249941   1.809   0.323  10.685  0.5540  0.1573 -0.4257
 9509TIP3    H149942   1.819   0.248  10.625 -0.0639 -0.7429  0.5635
 9509TIP3    H249943   1.763   0.287  10.761 -1.8773  2.0505 -0.8964
 9510TIP3   OH249944   1.960   0.091   5.906  0.0536 -0.2166 -0.0832
 9510TIP3    H149945   2.045   0.111   5.946 -0.5636  0.5476  0.8700
 9510TIP3    H249946   1.934   0.172   5.862 -0.6642 -0.1041  0.5295
 9511TIP3   OH249947   0.388   1.631  12.173 -0.0410  0.1685  0.3144
 9511TIP3    H149948   0.443   1.692  12.223  0.2170  0.6718 -0.5544
 9511TIP3    H249949   0.365   1.680  12.094 -0.3831 -0.6320 -0.0882
 9512TIP3   OH249950   6.557   4.986   5.879  0.5511 -0.4796  0.8927
 9512TIP3    H149951   6.515   4.927   5.941 -0.2572  0.8842  1.6893
 9512TIP3    H249952   6.564   5.069   5.926 -0.5133  0.7315 -0.9717
 9513TIP3   OH249953   0.558   6.653   1.519 -0.0763 -0.4437  0.2456
 9513TIP3    H149954   0.620   6.657   1.591  0.2113  0.2898 -0.0254
 9513TIP3    H249955   0.539   6.745   1.499  0.1593 -0.6205 -0.8686
 9514TIP3   OH249956   5.516   0.752  10.798 -0.1836 -0.1017  0.4636
 9514TIP3    H149957   5.524   0.663  10.833  2.4832  0.4209  1.4193
 9514TIP3    H249958   5.430   0.753  10.756 -0.1202 -3.2710 -0.0284
 9515TIP3   OH249959   4.070   2.608   2.400  0.1638 -0.1159 -0.7094
 9515TIP3    H149960   3.979   2.635   2.381 -0.2501 -0.6154  0.5049
 9515TIP3    H249961   4.121   2.651   2.332 -0.7889  1.5665 -0.4248
 9516TIP3   OH249962   0.945   3.247  12.244 -0.6026  0.2680 -0.2855
 9516TIP3    H149963   0.868   3.296  12.272 -0.4896  0.2254  0.0975
 9516TIP3    H249964   0.978   3.295  12.168 -1.1858  0.1148 -0.6364
 9517TIP3   OH249965   0.761   4.132  15.297  0.3218  0.2632 -0.5472
 9517TIP3    H149966   0.855   4.118  15.309  0.4547  1.0820 -0.5645
 9517TIP3    H249967   0.750   4.148  15.203  0.5940  2.9915 -0.1929
 9518TIP3   OH249968   4.941   3.787   4.480 -0.7215  0.5321 -0.2548
 9518TIP3    H149969   5.013   3.751   4.429 -1.3302 -0.3200 -0.5549
 9518TIP3    H249970   4.982   3.831   4.554  0.0949 -0.6219  0.0126
 9519TIP3   OH249971   0.610   5.738   0.356 -0.1748 -0.3287  0.4430
 9519TIP3    H149972   0.629   5.797   0.283  0.8950  0.9394  1.6798
 9519TIP3    H249973   0.561   5.793   0.418  0.7044 -0.7800  1.5602
 9520TIP3   OH249974   5.916   1.866   4.617 -0.0593 -0.3849  0.0366
 9520TIP3    H149975   5.888   1.776   4.599 -0.6808 -0.9229  3.0627
 9520TIP3    H249976   5.908   1.911   4.534  0.8110 -3.2433 -1.7473
 9521TIP3   OH249977   3.235   0.073   1.047 -0.3322  0.0793 -0.6152
 9521TIP3    H149978   3.270   0.053   1.134 -3.9396  1.2198  1.2931
 9521TIP3    H249979   3.246  -0.008   0.997 -1.6630 -2.0358  2.2199
 9522TIP3   OH249980   2.785   3.855  13.404 -0.1524 -0.3760  0.2377
 9522TIP3    H149981   2.704   3.883  13.362 -0.4967 -0.6690  0.6960
 9522TIP3    H249982   2.789   3.761  13.389  0.8557 -0.1545 -1.0492
 9523TIP3   OH249983   4.517   0.996   5.200 -0.0941 -0.0000 -0.0554
 9523TIP3    H149984   4.581   1.043   5.147 -1.2274  0.3017 -1.2288
 9523TIP3    H249985   4.557   0.988   5.286  1.4918  0.1839 -0.7553
 9524TIP3   OH249986   6.341   5.212   0.106  0.4609 -0.3971  0.4001
 9524TIP3    H149987   6.337   5.119   0.129  1.6143 -0.1522  1.7488
 9524TIP3    H249988   6.431   5.238   0.126  0.4555  0.7731 -0.9790
 9525TIP3   OH249989   6.075   2.152  16.624 -0.3417 -0.3657 -0.8154
 9525TIP3    H149990   6.101   2.170  16.714  0.5226 -0.7472 -0.9797
 9525TIP3    H249991   5.981   2.137  16.629 -0.6564  1.5239 -0.2744
 9526TIP3   OH249992   5.908   6.206  16.072 -0.5682  0.0583 -0.3922
 9526TIP3    H149993   5.912   6.294  16.110 -3.0836 -0.7443  2.1211
 9526TIP3    H249994   5.871   6.219  15.985 -0.1096  1.5224 -0.4027
 9527TIP3   OH249995   1.822   4.791  12.609 -0.2922 -0.2031  0.0024
 9527TIP3    H149996   1.788   4.714  12.564  0.6365 -0.4122 -0.3731
 9527TIP3    H249997   1.745   4.844  12.628 -1.1566 -1.9397  1.7095
 9528TIP3   OH249998   1.001   3.643   1.388 -0.6353 -0.6098  0.0927
 9528TIP3    H149999   0.981   3.705   1.459  0.3086 -2.1728  1.8049
 9528TIP3    H250000   0.975   3.558   1.423  0.0847 -1.4696 -1.3721
 9529TIP3   OH250001   4.663   4.380  15.554  0.6019 -0.0471 -0.1211
 9529TIP3    H150002   4.709   4.322  15.614  0.7055 -0.0213 -0.1765
 9529TIP3    H250003   4.624   4.322  15.489 -0.1421 -0.1411  0.3955
 9530TIP3   OH250004   3.184   1.684   5.919 -0.1714  0.7599  0.0791
 9530TIP3    H150005   3.131   1.641   5.986 -1.0762  0.1918 -0.9629
 9530TIP3    H250006   3.173   1.629   5.841 -0.6434  2.4072 -1.0647
 9531TIP3   OH250007   2.772   5.274   3.247  0.1340 -0.4099 -0.2714
 9531TIP3    H150008   2.690   5.228   3.268 -0.3162  0.8909  0.9843
 9531TIP3    H250009   2.769   5.285   3.152 -1.0710 -0.5480 -0.2729
 9532TIP3   OH250010   5.948   2.186  13.142  0.1879  0.0440 -0.1429
 9532TIP3    H150011   5.878   2.250  13.152 -0.7103 -0.8096 -0.8520
 9532TIP3    H250012   5.980   2.171  13.231 -1.6241 -0.7699  0.3977
 9533TIP3   OH250013   2.522   4.691   2.147 -0.0577  0.1228 -0.1282
 9533TIP3    H150014   2.576   4.758   2.189  0.2398 -0.9140  1.2047
 9533TIP3    H250015   2.506   4.626   2.216 -1.1204 -0.7153 -1.1255
 9534TIP3   OH250016   1.608   4.168  16.595  0.2720 -0.1244 -0.1960
 9534TIP3    H150017   1.644   4.080  16.597  1.2905  0.2050 -1.7234
 9534TIP3    H250018   1.589   4.184  16.502  0.2853  1.3161  0.0207
 9535TIP3   OH250019   5.012   6.333  16.146 -0.5746  0.0243  0.1890
 9535TIP3    H150020   4.922   6.354  16.122 -0.5065  1.1393  0.7941
 9535TIP3    H250021   5.064   6.359  16.070 -0.7627 -0.6397 -0.1687
 9536TIP3   OH250022   4.210   4.357  16.343 -0.8223 -0.4939 -0.0828
 9536TIP3    H150023   4.146   4.427  16.329  1.4586  1.2484 -3.0918
 9536TIP3    H250024   4.192   4.294  16.273 -0.1331 -0.6712 -0.1085
 9537TIP3   OH250025   1.070   2.126  14.069  0.3918  0.1768  0.2271
 9537TIP3    H150026   1.162   2.098  14.063 -0.0838 -1.9268  1.6475
 9537TIP3    H250027   1.024   2.049  14.102 -2.3063  0.3913 -2.5836
 9538TIP3   OH250028   3.475   1.211  12.097  0.1052  0.0206 -0.2256
 9538TIP3    H150029   3.440   1.155  12.027  1.2095 -1.0563  0.0463
 9538TIP3    H250030   3.429   1.184  12.176 -1.0879  1.1863 -0.4748
 9539TIP3   OH250031   1.329   4.079  16.336 -0.2504 -0.6649 -0.7731
 9539TIP3    H150032   1.316   3.990  16.303  1.4559 -1.0604 -0.4702
 9539TIP3    H250033   1.420   4.099  16.316 -0.1117  0.3481  0.7327
 9540TIP3   OH250034   3.282   0.088   3.350  0.5567  0.1794  0.3142
 9540TIP3    H150035   3.223   0.038   3.293  1.5142 -0.9676  0.2885
 9540TIP3    H250036   3.259   0.179   3.334 -1.2582 -0.2197  0.3555
 9541TIP3   OH250037   1.950   6.567  15.327  1.1104  0.1496  0.0724
 9541TIP3    H150038   1.970   6.654  15.290 -1.1481  0.6208 -0.1989
 9541TIP3    H250039   1.981   6.505  15.261 -0.3321  0.9031 -1.3855
 9542TIP3   OH250040   0.074   1.009  13.313 -0.3293 -0.7809 -0.0652
 9542TIP3    H150041   0.037   1.092  13.285  2.7183  0.1226 -1.7974
 9542TIP3    H250042   0.053   1.004  13.407 -0.9117  1.7324 -0.0060
 9543TIP3   OH250043   6.241   1.382   4.070  0.2714 -0.2078 -0.6096
 9543TIP3    H150044   6.256   1.451   4.006  2.3818  1.5067  1.5447
 9543TIP3    H250045   6.149   1.359   4.058  0.3090  0.7518 -3.4789
 9544TIP3   OH250046   6.686   6.110   5.345  0.1028 -0.2452  0.6515
 9544TIP3    H150047   6.611   6.168   5.338 -1.5458 -1.9742  2.7165
 9544TIP3    H250048   6.751   6.161   5.394  0.1977  1.1116 -0.7903
 9545TIP3   OH250049   3.265   2.634  14.327 -0.3640 -0.3130 -0.2514
 9545TIP3    H150050   3.298   2.679  14.405 -1.4917 -1.5915  1.0231
 9545TIP3    H250051   3.266   2.701  14.258  1.0436  0.7432  0.7373
 9546TIP3   OH250052   4.146   4.139   3.806  0.0884 -0.1395 -0.2344
 9546TIP3    H150053   4.081   4.101   3.865 -1.3450  2.5007  0.0506
 9546TIP3    H250054   4.230   4.105   3.837 -0.8933 -1.1570  1.4229
 9547TIP3   OH250055   5.881   4.392   5.474 -0.2118  0.1576 -0.2931
 9547TIP3    H150056   5.953   4.351   5.521  0.1170  0.9873 -0.0457
 9547TIP3    H250057   5.869   4.338   5.396 -0.0015 -0.5681  0.1716
 9548TIP3   OH250058   6.798   1.591  13.557 -0.5910 -0.3406 -0.4734
 9548TIP3    H150059   6.823   1.668  13.506 -0.1784  1.8982  2.8285
 9548TIP3    H250060   6.881   1.554  13.586 -0.8373 -0.0948  0.5740
 9549TIP3   OH250061   6.189   0.030   5.204  0.7365  0.5151 -0.3937
 9549TIP3    H150062   6.269  -0.015   5.232  0.0344 -0.0180  0.8071
 9549TIP3    H250063   6.130  -0.040   5.177 -0.7185  0.5579  2.3898
 9550TIP3   OH250064   1.295   3.382  12.651 -0.3141  0.0139  0.1957
 9550TIP3    H150065   1.259   3.316  12.592  1.1322 -1.3290  0.7594
 9550TIP3    H250066   1.372   3.416  12.606  0.0328 -0.0573  0.7297
 9551TIP3   OH250067   0.276   1.366   2.888 -0.0155  0.0328  0.6866
 9551TIP3    H150068   0.346   1.348   2.950  0.8334  1.4328  0.1619
 9551TIP3    H250069   0.312   1.339   2.803 -1.1339 -1.7843  0.7285
 9552TIP3   OH250070   2.921   4.718   3.281 -0.0972 -0.1581  0.2793
 9552TIP3    H150071   2.901   4.642   3.227 -0.3732  0.2604 -0.2238
 9552TIP3    H250072   2.884   4.698   3.367 -0.8309 -0.2687 -0.0635
 9553TIP3   OH250073   5.760   3.043   2.585 -0.2277 -0.3423  0.0861
 9553TIP3    H150074   5.781   2.974   2.648 -2.5820 -1.0229  0.2353
 9553TIP3    H250075   5.793   3.009   2.501  2.4806  0.3526  0.7776
 9554TIP3   OH250076   3.821   1.738   3.367 -0.3773  0.1647 -0.0534
 9554TIP3    H150077   3.806   1.700   3.280 -0.7763 -0.1054  0.1312
 9554TIP3    H250078   3.830   1.662   3.425  2.5226  0.2556 -0.2481
 9555TIP3   OH250079   1.782   6.265  14.047  0.0727  0.5113  0.6049
 9555TIP3    H150080   1.812   6.267  13.957  0.9011  0.7669  0.8772
 9555TIP3    H250081   1.769   6.172  14.066  0.5146  0.4100  0.4162
 9556TIP3   OH250082   0.097   3.696  13.021 -0.0680  0.2569  0.7809
 9556TIP3    H150083   0.170   3.672  13.078 -0.4636  1.5014  1.8822
 9556TIP3    H250084   0.130   3.768  12.968 -0.1023 -0.0262  0.3771
 9557TIP3   OH250085   0.133   0.251  14.269 -0.0694 -0.4805 -0.2188
 9557TIP3    H150086   0.144   0.262  14.175  1.7044  2.0937  0.2038
 9557TIP3    H250087   0.223   0.252  14.304 -0.5029 -3.7038  1.3669
 9558TIP3   OH250088   3.423   0.182   2.475 -0.1878  0.4212 -0.4416
 9558TIP3    H150089   3.449   0.273   2.489 -1.2903  0.6109  0.6115
 9558TIP3    H250090   3.496   0.130   2.508 -0.4383  0.9353  1.0317
 9559TIP3   OH250091   6.476   2.137   4.684  0.5055  0.0358 -0.4644
 9559TIP3    H150092   6.493   2.200   4.754  0.8787  0.1698 -0.6764
 9559TIP3    H250093   6.387   2.106   4.701  1.3554 -1.6177  1.4068
 9560TIP3   OH250094   6.619   0.790   2.066 -0.1576  0.7704  0.2735
 9560TIP3    H150095   6.617   0.881   2.036  0.2425  0.1889 -1.6822
 9560TIP3    H250096   6.572   0.791   2.150  0.0274  2.7966  0.3981
 9561TIP3   OH250097   0.947   3.499  16.764 -0.5833 -0.4114 -0.4615
 9561TIP3    H150098   0.932   3.452  16.846 -0.4958 -0.1949 -0.3199
 9561TIP3    H250099   0.924   3.590  16.784 -0.1379 -0.2760 -0.5475
 9562TIP3   OH250100   1.063   4.629  16.180 -0.1293 -0.3021 -0.5234
 9562TIP3    H150101   1.144   4.592  16.216  0.4178 -0.3418 -1.7615
 9562TIP3    H250102   1.062   4.600  16.089 -2.2316 -1.4554 -0.2046
 9563TIP3   OH250103   1.822   4.218   2.087  0.1311 -0.2471  0.2972
 9563TIP3    H150104   1.875   4.191   2.161  0.4593 -0.4806 -0.0183
 9563TIP3    H250105   1.841   4.153   2.019 -2.0639 -1.5445  0.8009
 9564TIP3   OH250106   1.601   0.688  12.052 -0.3671  0.6154 -0.4542
 9564TIP3    H150107   1.555   0.772  12.044 -0.7920  0.3818 -0.4518
 9564TIP3    H250108   1.587   0.661  12.142 -0.5034  0.3820 -0.5450
 9565TIP3   OH250109   3.060   2.721  14.601 -0.8343  0.1389 -0.2316
 9565TIP3    H150110   3.124   2.781  14.641  1.1707 -1.2664 -1.1419
 9565TIP3    H250111   2.979   2.771  14.597  0.2635  2.1091  0.7707
 9566TIP3   OH250112   0.459   3.538  14.430 -0.5006 -0.3186 -0.4533
 9566TIP3    H150113   0.546   3.520  14.465 -0.1405  1.4130 -0.3616
 9566TIP3    H250114   0.400   3.518  14.503 -0.0701 -0.3577 -0.1114
 9567TIP3   OH250115   1.478   0.443  14.151  0.4058 -0.3376 -0.0996
 9567TIP3    H150116   1.427   0.455  14.231 -0.4930  0.1740 -0.7169
 9567TIP3    H250117   1.559   0.402  14.179 -0.2700 -0.9966  0.9555
 9568TIP3   OH250118   0.502   1.165   1.860 -0.0452  0.0270  0.0160
 9568TIP3    H150119   0.467   1.157   1.771  2.9233 -2.1949 -1.1027
 9568TIP3    H250120   0.518   1.259   1.870 -0.6807  0.3622 -1.6936
 9569TIP3   OH250121   6.229   0.897   2.494  0.3527 -0.0939 -0.2470
 9569TIP3    H150122   6.316   0.864   2.515  0.9156  1.6957  0.4682
 9569TIP3    H250123   6.245   0.969   2.433 -0.6008  0.3186 -0.0293
 9570TIP3   OH250124   2.535   4.297  14.528  0.4510 -0.5356 -0.1357
 9570TIP3    H150125   2.522   4.346  14.609  3.2903  1.0674 -0.5377
 9570TIP3    H250126   2.627   4.308  14.507  0.6131 -3.8114 -1.8071
 9571TIP3   OH250127   2.249   2.977   2.529 -0.1255 -0.1798 -0.1486
 9571TIP3    H150128   2.288   3.037   2.466 -0.7258 -0.6986 -1.0414
 9571TIP3    H250129   2.160   2.962   2.495 -0.2235 -0.9914  0.4557
 9572TIP3   OH250130   6.154   4.113  13.571  0.2120  0.1461 -0.1869
 9572TIP3    H150131   6.092   4.164  13.518 -0.0811  0.8959  0.8493
 9572TIP3    H250132   6.194   4.177  13.630  0.0140 -0.7763  0.9787
 9573TIP3   OH250133   4.085   3.738   4.418  0.5167  0.0812 -0.4264
 9573TIP3    H150134   4.010   3.791   4.390 -1.4336 -2.0438  0.4331
 9573TIP3    H250135   4.093   3.756   4.512  0.3771 -0.4897 -0.3001
 9574TIP3   OH250136   4.735   1.866  11.933  0.0416 -0.1501 -0.1977
 9574TIP3    H150137   4.826   1.838  11.943  0.1352  0.0560 -0.4537
 9574TIP3    H250138   4.713   1.907  12.016 -0.1831 -1.2041  0.2811
 9575TIP3   OH250139   5.327   1.011   1.308  0.5338 -0.0976  0.6744
 9575TIP3    H150140   5.374   0.961   1.241 -0.5939  0.6842 -0.7540
 9575TIP3    H250141   5.293   1.087   1.262 -0.2104  0.5300  2.1754
 9576TIP3   OH250142   1.960   5.088  15.637  0.1702  0.1765 -0.4313
 9576TIP3    H150143   1.870   5.106  15.663 -0.0651  0.0935 -1.1514
 9576TIP3    H250144   2.001   5.174  15.629  0.2436  0.2033  0.1776
 9577TIP3   OH250145   2.385   1.842  16.933  0.2363 -0.7562 -0.1452
 9577TIP3    H150146   2.301   1.863  16.893 -0.5132 -3.1820 -0.0140
 9577TIP3    H250147   2.377   1.871  17.024 -0.8059 -1.6991  0.0817
 9578TIP3   OH250148   4.303   0.751   3.777  0.4537  0.1578  0.0402
 9578TIP3    H150149   4.235   0.727   3.714  1.1501 -0.0954 -0.6160
 9578TIP3    H250150   4.256   0.759   3.860 -0.2127 -1.0052 -0.2075
 9579TIP3   OH250151   2.381   5.118  13.953 -0.7342  0.2039 -0.3593
 9579TIP3    H150152   2.309   5.181  13.962 -1.0463  0.1819 -2.3405
 9579TIP3    H250153   2.337   5.032  13.952 -0.5530  0.1108 -0.3020
 9580TIP3   OH250154   5.775   2.943  15.191 -0.3940 -0.5632  0.0264
 9580TIP3    H150155   5.735   2.879  15.132  1.8793 -1.2700 -0.8456
 9580TIP3    H250156   5.852   2.974  15.144  0.5987  0.0802  1.9695
 9581TIP3   OH250157   1.918   3.162   4.318 -0.2483  0.1436 -0.7159
 9581TIP3    H150158   1.949   3.253   4.325 -1.5034  0.6300 -1.1319
 9581TIP3    H250159   1.917   3.129   4.407 -1.2130  1.0576 -0.3664
 9582TIP3   OH250160   1.107   5.423   1.462 -0.8879  0.1272  0.4336
 9582TIP3    H150161   1.147   5.398   1.379  2.6841  1.3556  1.6004
 9582TIP3    H250162   1.148   5.365   1.526 -1.0582  1.3805  1.7203
 9583TIP3   OH250163   0.283   1.122  15.774 -0.0752 -0.5294 -0.2895
 9583TIP3    H150164   0.363   1.129  15.723  0.1133 -0.8890 -0.0458
 9583TIP3    H250165   0.213   1.127  15.709  0.0614  1.6304 -0.3364
 9584TIP3   OH250166   1.725   6.475   5.108 -0.0326 -0.2737  0.0755
 9584TIP3    H150167   1.682   6.534   5.045  0.0602 -0.6911 -0.3800
 9584TIP3    H250168   1.758   6.534   5.176 -0.7345  0.1208  0.0862
 9585TIP3   OH250169   3.174   4.476   5.039  0.3192  0.1151 -0.0725
 9585TIP3    H150170   3.141   4.502   5.125  0.2332  2.5487 -0.7738
 9585TIP3    H250171   3.236   4.544   5.016 -0.8708  0.4310 -2.6355
 9586TIP3   OH250172   0.603   6.736  16.804  0.0895 -0.0814 -0.0825
 9586TIP3    H150173   0.602   6.805  16.738 -0.8531  0.8224  0.8458
 9586TIP3    H250174   0.602   6.655  16.753  1.6107  0.5576 -1.2007
 9587TIP3   OH250175   0.254   1.572   3.350 -0.3619 -0.1283 -0.0277
 9587TIP3    H150176   0.334   1.595   3.397  0.8638 -0.6924 -1.7363
 9587TIP3    H250177   0.232   1.484   3.381 -1.6568  0.8688  2.0945
 9588TIP3   OH250178   6.678   3.617   0.263 -0.1973 -0.4384 -0.0816
 9588TIP3    H150179   6.636   3.656   0.340 -0.4436 -1.7075  0.4526
 9588TIP3    H250180   6.610   3.615   0.196 -0.8599 -1.9212  0.5859
 9589TIP3   OH250181   2.444   4.982   1.110 -0.0293  0.1394 -0.0848
 9589TIP3    H150182   2.393   4.966   1.188  2.0548  1.5093  1.6775
 9589TIP3    H250183   2.402   5.057   1.068 -0.7079 -0.1178  0.1212
 9590TIP3   OH250184   2.531   5.424  15.564  0.3912  0.2913  0.5433
 9590TIP3    H150185   2.592   5.492  15.596  1.0540  0.0160 -0.1022
 9590TIP3    H250186   2.565   5.402  15.477 -2.0112  1.8462 -0.8969
 9591TIP3   OH250187   1.346   3.878  13.439 -0.5133  0.3194  0.0421
 9591TIP3    H150188   1.318   3.906  13.352 -0.7072 -0.3385 -0.1121
 9591TIP3    H250189   1.418   3.817  13.423 -2.5798 -2.3532  0.1245
 9592TIP3   OH250190   1.740   1.875   4.332 -0.6247  0.2749 -0.4898
 9592TIP3    H150191   1.811   1.895   4.393 -0.8431  0.4693 -0.2996
 9592TIP3    H250192   1.727   1.781   4.340 -1.7855  0.5136  1.0171
 9593TIP3   OH250193   5.335   5.719   0.619  0.2014 -0.1059 -0.2782
 9593TIP3    H150194   5.353   5.774   0.695 -0.3581 -1.3563  0.8122
 9593TIP3    H250195   5.356   5.774   0.543 -1.5186  2.0243  0.7004
 9594TIP3   OH250196   2.269   5.467   2.212  0.1270  0.1424  0.2320
 9594TIP3    H150197   2.206   5.528   2.175  0.4092 -0.6996 -1.7883
 9594TIP3    H250198   2.336   5.522   2.253  1.0539  1.3518 -2.6265
 9595TIP3   OH250199   4.804   5.866   4.486 -0.3085 -0.5673  0.0804
 9595TIP3    H150200   4.714   5.896   4.491 -0.7149 -1.8772  1.1845
 9595TIP3    H250201   4.833   5.862   4.577  0.5592 -1.0373 -0.2049
 9596TIP3   OH250202   5.769   6.542  15.754  0.1199 -0.1300 -0.6145
 9596TIP3    H150203   5.759   6.630  15.791  1.1518  0.0333 -0.6899
 9596TIP3    H250204   5.688   6.497  15.778 -0.1600  0.6481 -0.0380
 9597TIP3   OH250205   4.651   6.761  17.058 -0.1886  0.1892 -0.1981
 9597TIP3    H150206   4.716   6.812  17.105  0.3092 -0.8121  0.2359
 9597TIP3    H250207   4.567   6.802  17.081  0.3642  2.7952 -2.4004
 9598TIP3   OH250208   0.337   6.517  12.129  0.0748  0.7003 -0.0082
 9598TIP3    H150209   0.325   6.435  12.177 -1.7257  0.6669 -0.4399
 9598TIP3    H250210   0.372   6.489  12.044  1.9719  0.6493  0.7339
 9599TIP3   OH250211   3.664   1.580  13.266  0.2708  0.2634  0.0688
 9599TIP3    H150212   3.586   1.628  13.237  0.8694  0.9609 -0.4367
 9599TIP3    H250213   3.733   1.611  13.207  0.9045 -0.4216  0.4474
 9600TIP3   OH250214   6.197   5.259  14.895 -0.1905 -0.1626  0.4842
 9600TIP3    H150215   6.208   5.317  14.971 -0.9376  0.6304  0.0071
 9600TIP3    H250216   6.124   5.203  14.918 -0.0152 -0.3473  0.5985
 9601TIP3   OH250217   5.689   3.553   4.938 -0.6135  0.0944  0.5561
 9601TIP3    H150218   5.695   3.458   4.936 -1.3030 -0.0089  2.0848
 9601TIP3    H250219   5.720   3.578   5.025 -1.2801  1.1915  0.5084
 9602TIP3   OH250220   0.477   5.800   3.455 -0.1331  0.2058  0.2099
 9602TIP3    H150221   0.456   5.894   3.451 -0.0591  0.2342 -3.1285
 9602TIP3    H250222   0.415   5.760   3.394  1.0619 -1.6344  0.1419
 9603TIP3   OH250223   5.763   0.194  10.673  0.1602 -0.1259  0.5669
 9603TIP3    H150224   5.846   0.183  10.626  1.0008  0.5400  1.8334
 9603TIP3    H250225   5.731   0.280  10.645 -0.4761 -0.6699 -0.4411
 9604TIP3   OH250226   6.452   3.906   0.790 -0.2833  0.1187  0.0710
 9604TIP3    H150227   6.484   3.816   0.786 -0.5273 -0.0146  0.9179
 9604TIP3    H250228   6.361   3.900   0.762 -0.7447 -0.1492  1.5413
 9605TIP3   OH250229   3.869   1.598  16.519 -0.3287  0.0413  0.1944
 9605TIP3    H150230   3.836   1.509  16.505  0.4601 -0.1378 -0.6364
 9605TIP3    H250231   3.859   1.641  16.434  1.1732  0.1091  0.0292
 9606TIP3   OH250232   2.352   5.521  13.788 -0.1320 -0.0848  0.0276
 9606TIP3    H150233   2.390   5.441  13.753 -0.4534 -1.4098  2.4702
 9606TIP3    H250234   2.317   5.495  13.873 -0.6908  2.5599  0.6815
 9607TIP3   OH250235   3.547   6.004  14.526 -0.2977  0.4647  0.1484
 9607TIP3    H150236   3.525   6.016  14.618  1.1636  0.2497  0.5601
 9607TIP3    H250237   3.470   5.963  14.487 -1.2807  1.3948  1.0648
 9608TIP3   OH250238   5.415   0.065   1.376  0.3778  0.3561  0.4238
 9608TIP3    H150239   5.468   0.088   1.299 -0.5825  1.1134 -0.0291
 9608TIP3    H250240   5.382   0.149   1.407 -1.1100 -0.1675  0.2997
 9609TIP3   OH250241   2.101   2.884  16.161 -0.3453 -0.6677  0.0631
 9609TIP3    H150242   2.069   2.961  16.209 -0.9903 -1.6521  1.2511
 9609TIP3    H250243   2.193   2.877  16.188 -0.4001 -0.5578  0.2880
 9610TIP3   OH250244   5.528   4.112   5.469 -0.2416 -0.3198 -0.1972
 9610TIP3    H150245   5.489   4.025   5.473 -0.8713  0.0074  1.1414
 9610TIP3    H250246   5.454   4.171   5.459  0.1190  0.1246 -0.2786
 9611TIP3   OH250247   0.645   2.837   4.781  0.0187  0.3396  0.1567
 9611TIP3    H150248   0.689   2.909   4.826 -0.1238 -0.1862  1.1842
 9611TIP3    H250249   0.555   2.841   4.813 -0.7984  1.5657 -2.1165
 9612TIP3   OH250250   5.958   2.343   2.960  0.0693  0.2135 -0.4118
 9612TIP3    H150251   5.917   2.417   3.005  0.9434  0.5876 -0.2092
 9612TIP3    H250252   5.919   2.343   2.873 -0.0475  0.8212 -0.3639
 9613TIP3   OH250253   6.172   6.653   2.069  0.1767  0.1160 -0.4711
 9613TIP3    H150254   6.177   6.745   2.043  1.5068  0.0690 -0.4953
 9613TIP3    H250255   6.197   6.653   2.161  3.2194 -0.4475 -1.1643
 9614TIP3   OH250256   5.615   3.176   3.605  0.1002 -0.6775  0.7319
 9614TIP3    H150257   5.647   3.259   3.638 -0.1740  0.0801 -0.8083
 9614TIP3    H250258   5.653   3.168   3.517  0.8039 -2.5963  1.1496
 9615TIP3   OH250259   1.685   1.673  16.212 -0.3118  0.5270 -0.0435
 9615TIP3    H150260   1.708   1.717  16.131 -3.4106 -0.6984 -1.7505
 9615TIP3    H250261   1.685   1.580  16.191 -4.6726  0.2657  0.0637
 9616TIP3   OH250262   6.101   1.634   1.016  0.0204  0.6620 -0.1213
 9616TIP3    H150263   6.186   1.677   1.013 -0.3622  1.4085 -2.2755
 9616TIP3    H250264   6.058   1.671   1.094  1.9816 -0.5119  1.6268
 9617TIP3   OH250265   4.273   1.722   1.607 -0.0296 -0.2175  0.1784
 9617TIP3    H150266   4.289   1.672   1.528 -1.6689  2.0530 -1.7251
 9617TIP3    H250267   4.211   1.790   1.581 -1.3871  0.1200  3.6249
 9618TIP3   OH250268   3.223   1.966  14.938  0.1805 -0.9510 -0.1411
 9618TIP3    H150269   3.251   2.041  14.989  2.4189 -2.5300  1.1185
 9618TIP3    H250270   3.192   1.903  15.003 -1.1784 -1.3692 -1.1377
 9619TIP3   OH250271   3.483   2.071   4.450  0.3831 -0.0483 -0.1839
 9619TIP3    H150272   3.531   1.989   4.451  1.5593  0.6150  0.9319
 9619TIP3    H250273   3.482   2.099   4.542  2.4238  2.5245 -0.8426
 9620TIP3   OH250274   6.592   4.063   2.006  0.0528 -0.9948  0.1097
 9620TIP3    H150275   6.551   3.977   2.008 -0.3056 -0.8243  0.0976
 9620TIP3    H250276   6.625   4.071   1.916 -2.1180 -0.1031 -0.6762
 9621TIP3   OH250277   0.897   5.468  11.890 -0.0962 -0.0739  0.1236
 9621TIP3    H150278   0.904   5.561  11.868  0.2395 -0.2135 -0.3946
 9621TIP3    H250279   0.822   5.463  11.949  0.1857  0.5928  0.5539
 9622TIP3   OH250280   0.753   0.116  11.508 -0.4251 -0.4109 -0.5103
 9622TIP3    H150281   0.815   0.080  11.443  1.7461 -0.4944  1.4602
 9622TIP3    H250282   0.798   0.194  11.542 -1.2045 -0.7169  1.2999
 9623TIP3   OH250283   4.531   4.396  13.130 -0.7052  0.0842  0.1144
 9623TIP3    H150284   4.530   4.301  13.123 -0.9435 -0.0560  1.8291
 9623TIP3    H250285   4.473   4.416  13.203  0.6082  1.4453  0.8429
 9624TIP3   OH250286   4.828   3.444  14.539  0.2143  0.6616  0.0273
 9624TIP3    H150287   4.818   3.351  14.520 -1.2993  0.9348 -0.6315
 9624TIP3    H250288   4.916   3.465  14.508 -0.0866 -0.1677 -1.4965
 9625TIP3   OH250289   5.568   1.587  15.583  0.2145 -0.0907  0.0010
 9625TIP3    H150290   5.648   1.535  15.590  1.2033  1.1629 -1.3576
 9625TIP3    H250291   5.592   1.672  15.619 -0.7972  0.0364  0.4044
 9626TIP3   OH250292   6.147   4.600  11.604  0.2519 -0.0986  0.1711
 9626TIP3    H150293   6.171   4.511  11.629  1.7927 -0.7949 -3.0996
 9626TIP3    H250294   6.073   4.589  11.545  0.5118  0.7289 -0.3264
 9627TIP3   OH250295   0.194   5.662  11.967  0.5619 -0.5233  0.2857
 9627TIP3    H150296   0.224   5.751  11.981 -1.9489  0.5683 -0.6145
 9627TIP3    H250297   0.241   5.632  11.890  0.9428  0.2836  0.2000
 9628TIP3   OH250298   1.231   5.048   5.097  0.3230 -0.2348 -0.0439
 9628TIP3    H150299   1.222   4.998   5.178 -0.0188 -1.3994 -0.7742
 9628TIP3    H250300   1.253   4.983   5.030  0.7800  0.7252 -0.8608
 9629TIP3   OH250301   1.321   4.151   1.082 -0.3103 -0.3143  0.6795
 9629TIP3    H150302   1.292   4.133   1.171  2.3192 -0.2741  1.6333
 9629TIP3    H250303   1.417   4.147   1.086 -0.0690  0.4253 -1.9945
 9630TIP3   OH250304   6.767   5.972  13.145 -0.0051  0.2283  0.9230
 9630TIP3    H150305   6.811   5.953  13.227  1.5054  1.1757  0.3846
 9630TIP3    H250306   6.751   5.887  13.105  0.3722 -0.1810  1.6318
 9631TIP3   OH250307   2.086   2.159   3.037 -0.1049  0.6547  0.3379
 9631TIP3    H150308   2.051   2.206   2.962  2.0322 -0.1293 -1.2336
 9631TIP3    H250309   2.171   2.200   3.055 -0.1599  0.2281  1.7531
 9632TIP3   OH250310   1.594   2.325  12.099 -0.5154  0.1732  0.2227
 9632TIP3    H150311   1.659   2.381  12.140 -1.2389  0.6389  0.7780
 9632TIP3    H250312   1.584   2.251  12.160  0.1666 -0.3834 -0.3239
 9633TIP3   OH250313   4.171   2.786   1.684 -0.2671  0.1117  0.6599
 9633TIP3    H150314   4.263   2.780   1.711  0.0656  0.7140 -0.2820
 9633TIP3    H250315   4.175   2.812   1.592 -1.3854 -0.0162  0.5621
 9634TIP3   OH250316   5.865   3.457   2.215 -0.2691 -0.5136  0.2912
 9634TIP3    H150317   5.775   3.427   2.199  0.1064 -1.4142 -0.1920
 9634TIP3    H250318   5.871   3.465   2.311 -0.9528 -0.1398  0.3103
 9635TIP3   OH250319   4.568   3.411   0.261 -0.1759  0.4077 -0.4144
 9635TIP3    H150320   4.638   3.355   0.228  0.2101  0.9310 -0.5056
 9635TIP3    H250321   4.510   3.423   0.186 -0.4125 -0.0989 -0.3143
 9636TIP3   OH250322   3.445   0.303  14.627  0.2666  0.3498 -0.3033
 9636TIP3    H150323   3.364   0.354  14.617  0.6439  0.8385 -0.8865
 9636TIP3    H250324   3.481   0.298  14.538  0.2301 -0.9463 -0.2648
 9637TIP3   OH250325   5.831   0.344   5.144 -0.8462 -0.2469  0.8930
 9637TIP3    H150326   5.756   0.361   5.087  0.9493  1.7292 -1.0510
 9637TIP3    H250327   5.825   0.411   5.212 -1.4361 -0.8168  1.4144
 9638TIP3   OH250328   5.923   1.246  12.581  0.0532 -0.3376  0.1593
 9638TIP3    H150329   6.003   1.297  12.594 -0.3643  0.0709  1.2244
 9638TIP3    H250330   5.954   1.155  12.576  0.6708 -0.1092 -0.4789
 9639TIP3   OH250331   5.969   5.843   1.285  0.1651  0.1116  0.1286
 9639TIP3    H150332   5.919   5.845   1.366  0.4214  0.6171  0.2785
 9639TIP3    H250333   5.951   5.928   1.243  1.4930  0.6289  0.5558
 9640TIP3   OH250334   1.258   4.947  11.905  0.0165 -0.3917 -0.0586
 9640TIP3    H150335   1.336   4.913  11.860 -0.1706 -0.5696 -0.2537
 9640TIP3    H250336   1.276   4.934  11.998  0.1550 -0.5805 -0.1100
 9641TIP3   OH250337   5.558   0.195   5.561  0.9225 -0.3092 -0.0485
 9641TIP3    H150338   5.589   0.280   5.592  1.7077 -0.0426 -1.4662
 9641TIP3    H250339   5.602   0.183   5.477 -1.1924 -0.9271 -1.1257
 9642TIP3   OH250340   5.808   6.682  16.102 -0.0006  0.1532 -0.3936
 9642TIP3    H150341   5.826   6.591  16.080 -2.4231 -0.5354  0.1683
 9642TIP3    H250342   5.723   6.700  16.062  0.2250  2.0403 -0.1105
 9643TIP3   OH250343   6.251   1.538  12.816  0.8048 -0.2118  0.3698
 9643TIP3    H150344   6.189   1.603  12.850 -0.4475 -0.4930 -1.2486
 9643TIP3    H250345   6.279   1.573  12.732  2.0830 -0.5865  0.6215
 9644TIP3   OH250346   0.075   1.134  12.192 -1.0581  0.4407  0.0071
 9644TIP3    H150347   0.114   1.215  12.159  2.0174 -0.5300  0.9645
 9644TIP3    H250348   0.061   1.080  12.114  0.4373  0.4865 -0.3134
 9645TIP3   OH250349   1.766   4.004  14.604 -0.0003  0.3455 -0.0314
 9645TIP3    H150350   1.696   4.064  14.579 -0.8689 -0.1232  1.2185
 9645TIP3    H250351   1.847   4.053  14.589 -0.6380  1.2858 -0.4357
 9646TIP3   OH250352   1.029   5.377   0.549  0.0044 -0.1734  0.4345
 9646TIP3    H150353   0.950   5.342   0.507 -0.3846 -0.8283  1.6299
 9646TIP3    H250354   0.997   5.449   0.603  0.5952  1.1007 -0.8791
 9647TIP3   OH250355   2.638   0.969  12.028  0.1268 -0.3866  0.0475
 9647TIP3    H150356   2.554   1.007  12.053  0.2330 -0.0824 -0.0555
 9647TIP3    H250357   2.657   1.007  11.942  0.1040 -0.8784 -0.1841
 9648TIP3   OH250358   4.859   4.899  15.238 -0.1157 -0.1111 -0.0070
 9648TIP3    H150359   4.765   4.918  15.232  0.0427  0.5451 -0.4593
 9648TIP3    H250360   4.872   4.876  15.330 -0.6286  0.3090  0.1767
 9649TIP3   OH250361   4.603   0.458  14.370  0.0950 -0.2299 -0.0968
 9649TIP3    H150362   4.560   0.480  14.287  1.0377  0.7566 -0.3340
 9649TIP3    H250363   4.617   0.363  14.365  0.4264 -0.1293 -1.1993
 9650TIP3   OH250364   3.074   2.460  15.534 -0.3963 -0.2917 -0.2262
 9650TIP3    H150365   3.050   2.406  15.609  1.0473  0.1243  0.5610
 9650TIP3    H250366   2.995   2.512  15.516 -0.8658 -0.6319  0.7886
 9651TIP3   OH250367   1.263   0.470   4.970 -0.3691 -0.2401 -0.2719
 9651TIP3    H150368   1.307   0.519   4.900 -1.6318  0.4787 -0.5797
 9651TIP3    H250369   1.195   0.529   5.002  0.3605 -0.4316  1.7897
 9652TIP3   OH250370   1.091   1.458  13.748 -0.1152 -0.0627  0.1619
 9652TIP3    H150371   1.167   1.406  13.720  1.2611  2.1749 -0.4860
 9652TIP3    H250372   1.058   1.497  13.667 -1.4535 -0.3177  0.5705
 9653TIP3   OH250373   4.676   2.421   2.679 -0.1471 -0.4745  0.2365
 9653TIP3    H150374   4.622   2.497   2.659 -0.2705 -0.4584  0.6192
 9653TIP3    H250375   4.696   2.383   2.594  0.2808  0.2376  0.0075
 9654TIP3   OH250376   4.763   5.164  12.647  0.3599  0.2529 -0.5311
 9654TIP3    H150377   4.738   5.100  12.580 -2.1611  0.7515 -0.1558
 9654TIP3    H250378   4.758   5.249  12.603  0.1263  0.4683 -0.0978
 9655TIP3   OH250379   0.460   0.031   5.374 -0.1184 -0.6436  0.0900
 9655TIP3    H150380   0.370   0.043   5.403  0.2273  0.2756  0.8602
 9655TIP3    H250381   0.474   0.098   5.308  0.1845 -0.3392  0.4515
 9656TIP3   OH250382   4.300   0.564  13.703  0.0951  0.1426  0.0160
 9656TIP3    H150383   4.279   0.594  13.791  1.0380  0.8531  0.0086
 9656TIP3    H250384   4.294   0.468  13.708  1.4817  0.0956  1.2067
 9657TIP3   OH250385   1.573   1.649  15.057  0.1313  0.2596 -0.3345
 9657TIP3    H150386   1.628   1.571  15.049  1.1522  0.9521 -0.3605
 9657TIP3    H250387   1.631   1.714  15.097 -0.8285  0.8788  0.0902
 9658TIP3   OH250388   0.875   1.177  15.666  0.3932 -0.2075 -0.2389
 9658TIP3    H150389   0.856   1.105  15.726  0.2865 -0.1869 -0.2473
 9658TIP3    H250390   0.901   1.249  15.723 -4.1460  1.3541  0.2732
 9659TIP3   OH250391   3.808   6.627   5.029 -0.4730 -0.2300 -0.2049
 9659TIP3    H150392   3.748   6.700   5.012 -1.0287 -1.0348 -1.8774
 9659TIP3    H250393   3.840   6.643   5.118  1.6300  3.6106 -1.4102
 9660TIP3   OH250394   2.602   1.961  13.561  0.3036 -0.3777  0.3741
 9660TIP3    H150395   2.615   1.879  13.514 -1.7789 -0.4208 -0.2411
 9660TIP3    H250396   2.583   2.025  13.493  0.4857  0.3041  0.9520
 9661TIP3   OH250397   4.339   6.316   4.841  0.5330 -0.3941  0.0298
 9661TIP3    H150398   4.246   6.295   4.831  0.5437 -0.7334  0.6323
 9661TIP3    H250399   4.350   6.397   4.791 -0.1893 -0.0855  0.3541
 9662TIP3   OH250400   5.256   3.392   2.625  0.5332  0.1944  0.0018
 9662TIP3    H150401   5.213   3.477   2.618 -0.0979 -0.0582  0.6633
 9662TIP3    H250402   5.308   3.398   2.705  1.3885  0.3379 -0.5485
 9663TIP3   OH250403   1.134   1.607   2.802  0.2819 -0.5326 -0.3193
 9663TIP3    H150404   1.067   1.541   2.821 -0.3989  0.0009 -0.8632
 9663TIP3    H250405   1.110   1.643   2.717  1.7255 -0.9160 -0.9268
 9664TIP3   OH250406   4.172   3.381  10.101 -0.3727 -0.1190  0.0129
 9664TIP3    H150407   4.219   3.323  10.042 -1.1659 -0.9496  0.1793
 9664TIP3    H250408   4.237   3.448  10.125  0.0330  0.1121 -1.5933
 9665TIP3   OH250409   3.391   1.484   0.774 -0.2695  0.7983  0.3531
 9665TIP3    H150410   3.439   1.543   0.832  1.6663  0.1582 -0.4861
 9665TIP3    H250411   3.359   1.540   0.703  1.5423  0.9127 -0.4363
 9666TIP3   OH250412   3.499   2.062  16.502  0.1092  0.1408 -0.2222
 9666TIP3    H150413   3.511   2.133  16.439 -0.3621 -2.0805 -2.9880
 9666TIP3    H250414   3.585   2.020  16.508  0.1308  0.2775  0.6159
 9667TIP3   OH250415   6.397   0.457  11.725  0.1473 -0.6593 -0.7348
 9667TIP3    H150416   6.405   0.423  11.814 -0.0422 -2.8954 -1.5005
 9667TIP3    H250417   6.486   0.456  11.690 -0.0398 -1.9530 -1.2539
 9668TIP3   OH250418   3.243   4.642  13.829  0.1795  0.1388 -0.1358
 9668TIP3    H150419   3.296   4.597  13.763 -0.4041 -2.1523  0.8406
 9668TIP3    H250420   3.295   4.636  13.910 -0.7119 -0.4699  0.4116
 9669TIP3   OH250421   4.204   4.620   3.496 -0.5565 -0.9869  0.0853
 9669TIP3    H150422   4.194   4.664   3.412 -0.3700 -1.6881 -0.3110
 9669TIP3    H250423   4.269   4.672   3.543 -2.1140  0.5891  0.6152
 9670TIP3   OH250424   1.857   2.277   1.619 -0.2293 -0.1492 -0.1247
 9670TIP3    H150425   1.902   2.362   1.626  1.2487 -0.9041 -0.0263
 9670TIP3    H250426   1.796   2.289   1.546  1.1275  0.5329 -1.2137
 9671TIP3   OH250427   3.768   5.194  16.333 -0.0657 -0.0487 -0.1234
 9671TIP3    H150428   3.791   5.102  16.317  0.3205 -0.4093  2.2228
 9671TIP3    H250429   3.684   5.205  16.289 -1.8229 -2.5513  2.3158
 9672TIP3   OH250430   1.508   5.721  15.612  0.8561 -0.1996  0.0020
 9672TIP3    H150431   1.452   5.798  15.627  0.7882 -0.3786  0.6992
 9672TIP3    H250432   1.593   5.747  15.646  1.3353  0.2358 -1.4671
 9673TIP3   OH250433   3.423   2.889  12.134  0.1837  0.0455 -0.1960
 9673TIP3    H150434   3.345   2.847  12.098 -0.2597  1.4114 -0.8717
 9673TIP3    H250435   3.474   2.915  12.058  1.2745 -0.7421  0.2440
 9674TIP3   OH250436   5.725   0.155   0.071  0.6328  0.1229  0.1984
 9674TIP3    H150437   5.708   0.066   0.099  1.3025 -0.5566 -1.4017
 9674TIP3    H250438   5.731   0.149  -0.025 -0.0427  2.0069 -0.0067
 9675TIP3   OH250439   1.524   0.977   6.220  0.0662 -0.1264 -0.3943
 9675TIP3    H150440   1.453   0.965   6.284  0.2081 -0.5459 -0.3192
 9675TIP3    H250441   1.499   1.057   6.173 -1.0445 -0.8873 -1.1389
 9676TIP3   OH250442   1.018   0.034  11.792 -0.2100 -0.0871 -0.3379
 9676TIP3    H150443   0.941  -0.002  11.836  0.1724 -0.7084 -0.1642
 9676TIP3    H250444   1.087  -0.031  11.806  1.0191  1.5033  1.5527
 9677TIP3   OH250445   1.707   3.173  15.545 -0.2399  0.5962  0.3008
 9677TIP3    H150446   1.655   3.193  15.623 -2.0714  0.3778 -0.7874
 9677TIP3    H250447   1.716   3.257  15.500 -1.3200  0.3326 -0.4479
 9678TIP3   OH250448   1.277   4.144   1.341  0.0042  0.0698 -0.0611
 9678TIP3    H150449   1.250   4.135   1.433 -0.2707  0.7547 -0.0737
 9678TIP3    H250450   1.256   4.234   1.318  0.5464  0.0537 -0.6500
 9679TIP3   OH250451   3.510   4.754  13.173 -0.0070 -0.6298 -0.6458
 9679TIP3    H150452   3.438   4.773  13.113  0.1504  1.0182 -0.3464
 9679TIP3    H250453   3.472   4.762  13.260  0.5660  0.4898 -0.4812
 9680TIP3   OH250454   0.034   2.124   4.133 -0.2069 -0.4127 -0.1336
 9680TIP3    H150455  -0.039   2.115   4.195  0.1627 -1.3114  0.1938
 9680TIP3    H250456   0.018   2.207   4.089 -1.9429 -1.0242 -0.7390
 9681TIP3   OH250457   2.894   5.946  13.881 -0.3635  0.0443 -0.4514
 9681TIP3    H150458   2.864   6.033  13.856  0.8354  0.4434 -0.5337
 9681TIP3    H250459   2.868   5.937  13.973  0.3560  0.8702 -0.1625
 9682TIP3   OH250460   5.731   1.737  12.724 -0.6718 -0.9000  0.0049
 9682TIP3    H150461   5.779   1.794  12.664 -3.3061  0.1482 -1.2779
 9682TIP3    H250462   5.763   1.760  12.810  1.2789 -0.4801 -0.7842
 9683TIP3   OH250463   3.663   6.060  16.512 -0.1262  0.3346 -0.6941
 9683TIP3    H150464   3.640   6.083  16.602 -2.2573 -0.5136 -0.9481
 9683TIP3    H250465   3.651   6.142  16.463 -1.0668  0.3199 -0.5198
 9684TIP3   OH250466   3.934   2.941  11.798  0.1045  0.4781  0.5890
 9684TIP3    H150467   3.874   2.916  11.728  1.1866 -0.5809  0.0169
 9684TIP3    H250468   4.020   2.916  11.767  0.5532 -0.8004  2.6128
 9685TIP3   OH250469   0.975   3.967   1.164 -0.4309  0.1259  0.3517
 9685TIP3    H150470   1.049   3.907   1.152 -1.0830 -0.4658 -0.8865
 9685TIP3    H250471   0.906   3.931   1.108 -1.5380  0.8788  1.1868
 9686TIP3   OH250472   2.351   0.748   5.181  0.5653 -0.6510  0.2185
 9686TIP3    H150473   2.317   0.671   5.135  0.0467  0.5439 -1.5110
 9686TIP3    H250474   2.272   0.795   5.210  0.8672 -0.5551  0.8979
 9687TIP3   OH250475   6.574   1.182   2.569 -0.3540  0.2147 -0.6264
 9687TIP3    H150476   6.669   1.180   2.579 -0.2539  1.1340 -1.3288
 9687TIP3    H250477   6.545   1.096   2.599  0.8310 -0.6331 -1.8481
 9688TIP3   OH250478   2.277   0.928   2.828  0.0001  0.2857 -0.6525
 9688TIP3    H150479   2.322   1.003   2.866  0.8772 -0.2265 -0.6606
 9688TIP3    H250480   2.327   0.852   2.858 -1.0529 -0.3265 -0.3943
 9689TIP3   OH250481   3.739   2.562  10.510  0.1563 -0.0061  0.2931
 9689TIP3    H150482   3.758   2.638  10.565 -0.0134  0.9964 -0.9870
 9689TIP3    H250483   3.696   2.599  10.433  0.7395 -1.3233 -0.6882
 9690TIP3   OH250484   2.932   5.693  13.798 -0.1072  0.4977 -0.2871
 9690TIP3    H150485   2.844   5.656  13.800  0.2780 -0.4406  1.1643
 9690TIP3    H250486   2.920   5.786  13.815 -0.7243  0.0851  1.7563
 9691TIP3   OH250487   3.172   4.309   0.507 -0.1115 -0.5079  0.1220
 9691TIP3    H150488   3.167   4.252   0.584 -2.2993  0.1836  0.5783
 9691TIP3    H250489   3.175   4.248   0.433  0.6114 -1.1842  0.6843
 9692TIP3   OH250490   2.744   3.678   2.602  0.1610  0.1847  0.3619
 9692TIP3    H150491   2.832   3.677   2.563 -0.0396  2.3790 -0.2557
 9692TIP3    H250492   2.686   3.700   2.530 -0.8083 -0.3090  0.9674
 9693TIP3   OH250493   3.348   0.264  11.191  0.5988 -0.0014  0.3193
 9693TIP3    H150494   3.294   0.285  11.115 -0.3589  0.1871  1.0505
 9693TIP3    H250495   3.304   0.190  11.232  1.6136 -0.6990  0.1895
 9694TIP3   OH250496   0.632   2.106  13.337  0.8104  0.0814  0.2679
 9694TIP3    H150497   0.656   2.024  13.379 -0.5725 -0.4157  0.1462
 9694TIP3    H250498   0.571   2.081  13.267 -0.8364  1.3108  1.1957
 9695TIP3   OH250499   0.185   4.157   0.444 -0.5267 -0.2735 -0.0404
 9695TIP3    H150500   0.132   4.152   0.364  0.1232  1.0867 -0.5924
 9695TIP3    H250501   0.220   4.246   0.444  0.0438 -0.4694  1.4203
 9696TIP3   OH250502   5.070   0.760   4.037 -0.2314  0.0314  0.4432
 9696TIP3    H150503   5.085   0.668   4.055  0.5959  0.2206  0.7302
 9696TIP3    H250504   4.978   0.764   4.008  0.4979 -1.2629 -2.3276
 9697TIP3   OH250505   2.268   5.865   1.004 -0.3911 -0.3070 -0.3860
 9697TIP3    H150506   2.268   5.769   1.000  0.6875 -0.3833  0.6107
 9697TIP3    H250507   2.360   5.889   0.990 -0.5808  0.5514 -0.1961
 9698TIP3   OH250508   0.368   0.491   1.729  0.3532 -0.0287 -0.3645
 9698TIP3    H150509   0.318   0.566   1.760  0.6879  0.7416 -1.6131
 9698TIP3    H250510   0.427   0.527   1.663 -0.9374 -1.6768 -2.5704
 9699TIP3   OH250511   4.488   5.658   0.380  0.5317  0.1872 -0.1045
 9699TIP3    H150512   4.395   5.679   0.374  0.4833 -0.0146 -0.0645
 9699TIP3    H250513   4.500   5.621   0.467  0.6981  0.4453 -0.0159
 9700TIP3   OH250514   2.242   3.671  15.195  0.4998  0.2824 -0.6489
 9700TIP3    H150515   2.288   3.635  15.119 -0.7760 -0.5715 -1.0485
 9700TIP3    H250516   2.265   3.612  15.267  1.0507  0.6144 -0.5462
 9701TIP3   OH250517   5.194   2.657   5.016  0.6242 -0.5836  0.1226
 9701TIP3    H150518   5.126   2.634   4.953 -1.4913  0.5912  1.8535
 9701TIP3    H250519   5.273   2.617   4.981 -0.7441 -1.2397 -2.4654
 9702TIP3   OH250520   0.373   6.552  16.523 -0.5293  0.1066  0.9510
 9702TIP3    H150521   0.459   6.527  16.556 -0.7502 -1.0643  0.6855
 9702TIP3    H250522   0.377   6.534  16.429 -0.6526  1.2821  0.6975
 9703TIP3   OH250523   5.568   1.197  12.828 -0.1865 -0.2570 -0.1806
 9703TIP3    H150524   5.598   1.185  12.918 -1.0092 -0.0817  0.1320
 9703TIP3    H250525   5.540   1.111  12.799 -1.0008 -0.1116  0.1463
 9704TIP3   OH250526   4.465   3.349   4.661 -0.6466 -0.3753 -0.4016
 9704TIP3    H150527   4.421   3.279   4.614 -3.2969  1.5238 -0.9990
 9704TIP3    H250528   4.409   3.426   4.647  2.3456  2.0247 -0.2675
 9705TIP3   OH250529   3.273   5.426  13.910  0.3614  0.4409  0.1461
 9705TIP3    H150530   3.203   5.477  13.951  1.4151  1.5306  0.6592
 9705TIP3    H250531   3.238   5.401  13.825 -0.7514  0.7272  0.5054
 9706TIP3   OH250532   0.763   1.178   0.821 -0.2879 -0.0182 -0.0128
 9706TIP3    H150533   0.803   1.246   0.876  0.7200 -0.5381 -0.0733
 9706TIP3    H250534   0.783   1.206   0.731 -0.9617  0.2517 -0.0806
 9707TIP3   OH250535   6.572   6.265  16.694 -0.2871 -0.2426  0.0018
 9707TIP3    H150536   6.618   6.182  16.682 -1.2164 -0.9029  0.7952
 9707TIP3    H250537   6.498   6.243  16.751 -1.0150  0.9709 -0.4360
 9708TIP3   OH250538   1.360   3.480  10.618 -0.0397  0.1231 -0.1536
 9708TIP3    H150539   1.452   3.497  10.598  0.3997 -0.2227  1.3895
 9708TIP3    H250540   1.315   3.562  10.600  0.5617  0.2867 -0.9371
 9709TIP3   OH250541   1.602   4.199  15.149  1.1251 -0.2762  0.4897
 9709TIP3    H150542   1.648   4.262  15.093  1.1275  0.5764  1.4359
 9709TIP3    H250543   1.509   4.211  15.126  1.1755 -0.4024  0.2054
 9710TIP3   OH250544   5.367   4.273  11.299 -0.7313 -0.3395  0.2120
 9710TIP3    H150545   5.460   4.261  11.316 -1.1290 -1.4277  1.8512
 9710TIP3    H250546   5.347   4.360  11.335 -0.2006  0.3061 -0.9830
 9711TIP3   OH250547   1.571   5.401   3.018  0.1690 -0.1515 -0.3060
 9711TIP3    H150548   1.485   5.364   2.997 -0.3329  1.4532 -1.2633
 9711TIP3    H250549   1.623   5.385   2.940  0.4685 -0.3268 -0.0713
 9712TIP3   OH250550   5.610   3.356   2.224 -0.8155  0.1306  0.1286
 9712TIP3    H150551   5.576   3.327   2.308 -0.2253  2.3152  1.1724
 9712TIP3    H250552   5.568   3.440   2.208 -0.1124  0.2486 -1.2603
 9713TIP3   OH250553   6.695   2.943  13.335  0.0588 -0.5588 -0.1150
 9713TIP3    H150554   6.651   3.020  13.372  0.6991  0.5055 -1.4746
 9713TIP3    H250555   6.779   2.976  13.303  0.7749 -2.0379  0.1575
 9714TIP3   OH250556   3.002   5.651  11.512 -0.3103  0.3474 -0.2632
 9714TIP3    H150557   2.974   5.559  11.511 -1.0515  0.5063  1.6619
 9714TIP3    H250558   3.089   5.650  11.472  0.3769 -1.4655  1.1231
 9715TIP3   OH250559   3.232   4.979  12.070 -0.1453 -0.2363 -0.5056
 9715TIP3    H150560   3.188   4.911  12.121  0.7500  0.0472  0.6772
 9715TIP3    H250561   3.315   4.940  12.043 -0.0525  0.0522 -0.6495
 9716TIP3   OH250562   4.289   3.581  11.712 -0.1698 -0.2381 -0.3271
 9716TIP3    H150563   4.216   3.641  11.728 -0.6991 -1.1394  0.8240
 9716TIP3    H250564   4.312   3.595  11.620 -2.6342 -0.8541 -1.1150
 9717TIP3   OH250565   1.280   0.833   0.629 -0.3845  0.2398 -0.2929
 9717TIP3    H150566   1.258   0.918   0.592 -0.9773  0.5554  0.7438
 9717TIP3    H250567   1.216   0.773   0.591 -0.3598  0.3647 -0.5365
 9718TIP3   OH250568   6.779   5.280  12.216 -0.1511 -0.2960 -0.3040
 9718TIP3    H150569   6.819   5.195  12.198  0.7742  0.3669 -1.5825
 9718TIP3    H250570   6.835   5.319  12.284 -0.1231 -0.3999 -0.2679
 9719TIP3   OH250571   5.447   0.861   1.988 -0.5734  0.2137 -0.5096
 9719TIP3    H150572   5.453   0.811   2.070  1.2538 -0.0102 -0.7362
 9719TIP3    H250573   5.507   0.935   2.002  0.4448 -0.3037 -1.9500
 9720TIP3   OH250574   3.803   6.679   2.844 -0.4392  0.0282  0.0948
 9720TIP3    H150575   3.806   6.641   2.932 -0.3924  1.5160  0.7643
 9720TIP3    H250576   3.857   6.758   2.850 -1.6716  0.9808 -0.8476
 9721TIP3   OH250577   1.695   5.590  14.929 -0.4730 -0.7433  0.3170
 9721TIP3    H150578   1.750   5.552  14.861 -0.4954  0.2384 -0.2659
 9721TIP3    H250579   1.646   5.516  14.965  0.4878 -1.4767  0.1672
 9722TIP3   OH250580   2.815   1.217   1.663  0.3275 -0.3304  0.1805
 9722TIP3    H150581   2.848   1.221   1.753 -0.7683  2.3366  0.5550
 9722TIP3    H250582   2.873   1.275   1.614  0.0004 -0.5688 -0.4990
 9723TIP3   OH250583   4.851   6.444   0.099  0.4332  0.0106 -0.6504
 9723TIP3    H150584   4.927   6.391   0.124  0.8927  0.2039 -1.5993
 9723TIP3    H250585   4.841   6.506   0.172  1.2711  0.0739 -0.5761
 9724TIP3   OH250586   2.655   4.827   3.237  0.2449 -0.4078 -0.3678
 9724TIP3    H150587   2.674   4.737   3.209  0.6787  0.2554 -2.3851
 9724TIP3    H250588   2.610   4.866   3.162 -0.2581  0.9579  0.6159
 9725TIP3   OH250589   1.687   0.824   3.199  0.4673 -0.0583  0.2625
 9725TIP3    H150590   1.689   0.872   3.282 -0.4573  0.2867  0.0944
 9725TIP3    H250591   1.665   0.890   3.133 -1.6411 -0.8211  0.1370
 9726TIP3   OH250592   6.372   0.928   1.196  0.3148 -0.1788  0.1774
 9726TIP3    H150593   6.310   0.988   1.155  1.0697  0.1890 -0.4495
 9726TIP3    H250594   6.347   0.841   1.164 -0.0974 -0.0786  0.2198
 9727TIP3   OH250595   5.040   4.910  16.608 -1.0219 -0.4635 -0.4866
 9727TIP3    H150596   5.114   4.886  16.664 -0.6438  1.6799  0.0087
 9727TIP3    H250597   4.963   4.897  16.663 -0.9450 -1.5708 -0.6168
 9728TIP3   OH250598   1.378   1.570  14.907  0.1059  0.5098  0.5974
 9728TIP3    H150599   1.373   1.646  14.849 -0.1909  0.4080  0.4863
 9728TIP3    H250600   1.450   1.590  14.966 -0.9134  1.5680  1.5444
 9729TIP3   OH250601   2.094   4.841  16.511  0.0685  0.1479  0.4735
 9729TIP3    H150602   2.175   4.889  16.525  0.2587  0.2335 -0.7424
 9729TIP3    H250603   2.057   4.828  16.598  0.2177  2.1467  0.8828
 9730TIP3   OH250604   1.984   3.227   2.727 -0.0251 -0.1158  0.3100
 9730TIP3    H150605   1.908   3.282   2.710 -1.0300 -1.4824  0.1417
 9730TIP3    H250606   2.012   3.197   2.641 -1.2534 -2.0591  0.5096
 9731TIP3   OH250607   4.477   2.088  10.413 -0.3172 -0.5331  0.0160
 9731TIP3    H150608   4.568   2.110  10.433 -0.1748  0.3711 -1.5276
 9731TIP3    H250609   4.478   1.994  10.394 -0.1690 -1.0735  2.3551
 9732TIP3   OH250610   5.910   3.874   3.212 -0.1166  0.4387  0.2072
 9732TIP3    H150611   5.926   3.793   3.261 -1.3753  0.4086  0.5988
 9732TIP3    H250612   5.948   3.857   3.126 -0.0524 -0.4352  0.3994
 9733TIP3   OH250613   3.767   0.706   0.312  0.2979 -0.3355  0.6587
 9733TIP3    H150614   3.766   0.765   0.237  0.8756 -1.4480 -0.2561
 9733TIP3    H250615   3.843   0.733   0.363  0.8423 -0.5938 -0.0112
 9734TIP3   OH250616   1.478   1.316   2.959 -0.3843  0.2311 -0.7891
 9734TIP3    H150617   1.441   1.367   2.887  0.5018 -1.2788 -2.3939
 9734TIP3    H250618   1.571   1.309   2.937  0.4021  1.5845  1.7017
 9735TIP3   OH250619   5.742   1.571   1.227 -0.2421  0.3880 -0.1122
 9735TIP3    H150620   5.735   1.491   1.175  0.3428  0.3618 -0.1583
 9735TIP3    H250621   5.783   1.542   1.309  0.0739  0.6610 -0.1744
 9736TIP3   OH250622   3.163   2.694  13.711 -0.5176  0.0084  0.3569
 9736TIP3    H150623   3.193   2.705  13.802 -1.1595 -1.5760  0.7885
 9736TIP3    H250624   3.073   2.727  13.712 -0.5379 -0.0468  0.3033
 9737TIP3   OH250625   0.328   1.585   1.764  0.0976  0.5571  0.3430
 9737TIP3    H150626   0.356   1.520   1.828 -0.9042  0.6199  0.8717
 9737TIP3    H250627   0.321   1.537   1.681 -0.8284 -0.0762  0.7725
 9738TIP3   OH250628   0.364   1.034   6.369 -0.1628 -0.0572  0.6668
 9738TIP3    H150629   0.300   1.051   6.299  1.9785  0.3518 -1.3237
 9738TIP3    H250630   0.365   0.939   6.377 -0.5935 -0.1018  0.2811
 9739TIP3   OH250631   5.869   6.008   4.320 -0.2724 -0.3160  0.3153
 9739TIP3    H150632   5.805   5.958   4.269 -2.2866  2.6093 -0.2670
 9739TIP3    H250633   5.918   6.057   4.254  0.5706 -0.2977  0.9509
 9740TIP3   OH250634   4.325   4.156  12.001  0.6759 -0.5348  0.2285
 9740TIP3    H150635   4.412   4.152  12.041  1.2312  0.4581 -0.8205
 9740TIP3    H250636   4.318   4.075  11.950  1.6277  0.0687 -0.9030
 9741TIP3   OH250637   5.216   5.283  12.765  0.4632  0.6310  0.3718
 9741TIP3    H150638   5.274   5.292  12.841  1.0527 -2.9406  0.5543
 9741TIP3    H250639   5.141   5.234  12.799 -0.5659  1.3326 -0.8210
 9742TIP3   OH250640   0.794   1.076  15.110  0.2269  0.2219 -0.7012
 9742TIP3    H150641   0.838   1.047  15.030 -1.1853  0.6211 -1.6486
 9742TIP3    H250642   0.745   1.000  15.140  0.1763  0.2897 -0.6101
 9743TIP3   OH250643   4.448   2.969  15.430 -0.1018  0.0289 -0.1070
 9743TIP3    H150644   4.424   3.046  15.379 -0.3565 -0.0098 -0.0485
 9743TIP3    H250645   4.529   2.994  15.474  1.2108 -0.6268 -2.0439
 9744TIP3   OH250646   4.001   5.841   2.633  0.1947 -0.0243 -0.2855
 9744TIP3    H150647   4.021   5.813   2.722  0.8766  0.5569 -0.2563
 9744TIP3    H250648   3.974   5.932   2.642 -0.1553 -0.0890 -0.6301
 9745TIP3   OH250649   1.019   0.755   2.536 -0.7056  0.3073 -0.1077
 9745TIP3    H150650   1.090   0.770   2.597 -2.4233  1.1060  1.7914
 9745TIP3    H250651   1.047   0.797   2.455  1.4624 -0.4583  0.1856
 9746TIP3   OH250652   0.335   3.486   4.543  0.0119 -0.7432  0.9376
 9746TIP3    H150653   0.259   3.541   4.525  0.8504 -0.0950 -0.8124
 9746TIP3    H250654   0.331   3.417   4.476  1.7857  0.1947 -0.2014
 9747TIP3   OH250655   3.726   1.513  11.869  0.0182  0.2248 -0.2917
 9747TIP3    H150656   3.780   1.538  11.794 -0.1198  0.7636 -0.2166
 9747TIP3    H250657   3.722   1.417  11.866  1.7163  0.1035  0.1978
 9748TIP3   OH250658   3.238   5.238   3.711 -0.2630  0.5456 -0.4593
 9748TIP3    H150659   3.293   5.255   3.635 -0.2228 -2.2963 -1.2019
 9748TIP3    H250660   3.300   5.208   3.778 -0.5807  0.2030 -0.3139
 9749TIP3   OH250661   6.298   0.247   5.034  0.0396  0.4837  0.1180
 9749TIP3    H150662   6.265   0.184   5.098  0.8085  1.0004  1.0425
 9749TIP3    H250663   6.305   0.197   4.953 -2.2338  0.1496  0.0541
 9750TIP3   OH250664   5.764   2.626   4.068 -0.4037  0.7728  0.0286
 9750TIP3    H150665   5.748   2.707   4.019  0.2151  1.5433  1.0593
 9750TIP3    H250666   5.787   2.562   4.000 -0.0485  1.6820 -0.7430
 9751TIP3   OH250667   1.742   0.128   2.269  0.7784 -0.4340  0.0417
 9751TIP3    H150668   1.680   0.065   2.234  1.5677 -1.3720  0.2654
 9751TIP3    H250669   1.691   0.183   2.328  0.1905 -1.2780  0.3316
 9752TIP3   OH250670   6.702   5.151   0.996  0.1453 -0.6406  0.0742
 9752TIP3    H150671   6.652   5.216   1.046  0.2556  0.7926 -1.5939
 9752TIP3    H250672   6.769   5.121   1.057  0.8986  1.7895  0.5580
 9753TIP3   OH250673   3.996   4.589  13.130 -0.2731 -0.3020 -0.0042
 9753TIP3    H150674   3.991   4.681  13.158 -0.3961  0.4530 -2.2751
 9753TIP3    H250675   3.917   4.549  13.166 -0.4114  0.5605  0.7049
 9754TIP3   OH250676   3.249   5.595  15.999 -0.3252  0.0588  0.2263
 9754TIP3    H150677   3.218   5.611  16.089  0.0155 -1.2926  0.6090
 9754TIP3    H250678   3.337   5.631  15.997  0.4580 -1.6680  1.0962
 9755TIP3   OH250679   2.785   2.085  13.963  0.0079  0.7823  0.2182
 9755TIP3    H150680   2.749   2.006  13.922 -1.3198  1.5352 -0.1155
 9755TIP3    H250681   2.751   2.082  14.053  0.3411  0.7505  0.3458
 9756TIP3   OH250682   6.576   2.610   0.349 -0.5162  0.2345  0.7437
 9756TIP3    H150683   6.604   2.628   0.439  1.6415  0.1688  0.1475
 9756TIP3    H250684   6.642   2.653   0.294 -1.4918 -0.1571 -0.8163
 9757TIP3   OH250685   0.430   0.321  14.356 -0.4052 -0.3653  0.2101
 9757TIP3    H150686   0.439   0.270  14.437  1.6051 -1.0112 -0.3507
 9757TIP3    H250687   0.505   0.293  14.302 -0.5504  1.5244 -1.0561
 9758TIP3   OH250688   4.963   0.798   2.989 -0.4257 -0.6903  0.4437
 9758TIP3    H150689   5.030   0.739   3.022  0.0941 -0.1129  0.4524
 9758TIP3    H250690   5.006   0.884   2.988 -0.9110 -0.4487 -0.3014
 9759TIP3   OH250691   5.707   3.815  12.928 -1.2855  0.7033  0.1644
 9759TIP3    H150692   5.718   3.907  12.949  1.5126  0.5995 -0.5221
 9759TIP3    H250693   5.622   3.810  12.884 -0.9877  3.1665 -0.8236
 9760TIP3   OH250694   5.177   6.391   6.343 -0.2242 -0.1039 -0.6563
 9760TIP3    H150695   5.123   6.375   6.266 -0.7459  1.8258 -0.7287
 9760TIP3    H250696   5.115   6.406   6.414  0.1664  1.7546 -0.6625
 9761TIP3   OH250697   1.943   0.687  12.063  0.1574 -0.1083  0.1601
 9761TIP3    H150698   1.957   0.692  11.969 -0.6854  0.9814  0.0638
 9761TIP3    H250699   1.855   0.723  12.076  0.4440  0.2055  1.4057
 9762TIP3   OH250700   0.774   3.234  13.065  0.4853 -0.0885  0.3048
 9762TIP3    H150701   0.707   3.167  13.079  2.6467 -2.4777 -0.1144
 9762TIP3    H250702   0.796   3.228  12.973  1.3979  0.5191  0.4692
 9763TIP3   OH250703   6.412   3.269  16.211 -0.1437  0.0405 -0.6425
 9763TIP3    H150704   6.459   3.352  16.209 -1.6999  0.9850  0.0409
 9763TIP3    H250705   6.366   3.265  16.127  0.1214 -0.2455 -0.7741
 9764TIP3   OH250706   2.644   5.955  10.604  0.2342 -0.2254 -0.4480
 9764TIP3    H150707   2.657   5.861  10.604  0.2403 -0.2266  0.0972
 9764TIP3    H250708   2.573   5.969  10.541  0.0807 -0.6101 -0.3622
 9765TIP3   OH250709   1.627   4.158   4.244  0.3186  0.0939  0.1917
 9765TIP3    H150710   1.559   4.223   4.262  0.3583  0.4131 -0.7174
 9765TIP3    H250711   1.709   4.208   4.242  0.5848 -0.2840  1.2520
 9766TIP3   OH250712   1.061   2.427   2.578  0.9130  0.0428  0.3869
 9766TIP3    H150713   1.012   2.345   2.581 -0.4432  0.7002 -1.7326
 9766TIP3    H250714   1.119   2.417   2.502 -1.6584  2.1980 -2.0596
 9767TIP3   OH250715   5.045   0.274   5.956  0.3660  0.2657  0.5003
 9767TIP3    H150716   4.993   0.310   6.029  0.1359 -0.2031  0.5725
 9767TIP3    H250717   5.012   0.185   5.945  0.3785  0.3431 -0.2011
 9768TIP3   OH250718   3.940   2.988  15.581 -0.1064 -0.2095  0.2007
 9768TIP3    H150719   3.977   3.020  15.664 -1.4461 -1.3994  1.3089
 9768TIP3    H250720   3.863   3.043  15.567 -1.8868 -2.1730  1.6342
 9769TIP3   OH250721   0.037   1.940  13.086 -0.4200  0.2066 -0.2222
 9769TIP3    H150722  -0.022   1.907  13.153 -1.0029  0.6407 -0.5087
 9769TIP3    H250723   0.114   1.971  13.134  1.1065 -3.3247 -0.0556
 9770TIP3   OH250724   0.634   5.459   5.421 -0.2352  0.8308 -0.5864
 9770TIP3    H150725   0.602   5.380   5.464  5.0630 -1.4211 -0.0276
 9770TIP3    H250726   0.582   5.530   5.459 -1.5348 -1.8456  3.1726
 9771TIP3   OH250727   5.475   1.944   0.745  0.0176  0.5764 -0.6603
 9771TIP3    H150728   5.513   1.984   0.667 -1.8427  2.2489 -0.7689
 9771TIP3    H250729   5.444   2.018   0.797 -3.7738 -0.6002 -0.9659
 9772TIP3   OH250730   2.301   4.121  16.712 -0.1440 -0.0818 -0.2579
 9772TIP3    H150731   2.317   4.178  16.788  1.6609  0.1917 -0.8128
 9772TIP3    H250732   2.207   4.104  16.716 -0.3588  1.1517  1.1815
 9773TIP3   OH250733   2.646   4.943   2.270 -0.0266  0.0506 -0.0309
 9773TIP3    H150734   2.630   4.978   2.358 -3.0804  1.6399 -1.0885
 9773TIP3    H250735   2.678   5.018   2.220  1.0674 -0.6886 -0.4830
 9774TIP3   OH250736   5.110   4.942   4.022  0.2773  0.6149  0.3856
 9774TIP3    H150737   5.194   4.968   3.981  1.1752  0.1079  1.8489
 9774TIP3    H250738   5.088   4.858   3.981 -0.7831  1.8257 -1.7268
 9775TIP3   OH250739   3.781   3.224  13.951 -0.0165  0.4775 -0.0793
 9775TIP3    H150740   3.763   3.131  13.969  0.6280  0.3453 -0.0940
 9775TIP3    H250741   3.748   3.270  14.028  0.6577  0.1312  0.4316
 9776TIP3   OH250742   2.499   5.792   5.290  0.1079 -0.3953 -0.2557
 9776TIP3    H150743   2.429   5.741   5.250  0.1345  0.1146 -0.9700
 9776TIP3    H250744   2.580   5.752   5.256  0.1634 -0.8728  0.4297
 9777TIP3   OH250745   4.363   1.334  12.012 -0.3000 -0.1539 -0.7904
 9777TIP3    H150746   4.384   1.422  12.043 -1.5263 -0.4638  1.1177
 9777TIP3    H250747   4.423   1.319  11.939  1.6921  1.3073  0.4245
 9778TIP3   OH250748   3.058   1.341   4.649 -0.3053  0.1680 -0.3562
 9778TIP3    H150749   3.039   1.331   4.743 -0.5678 -4.6561 -0.6925
 9778TIP3    H250750   2.972   1.352   4.608 -0.5439 -1.2263 -0.2631
 9779TIP3   OH250751   2.934   6.033  16.622  0.4500 -0.3652  0.1348
 9779TIP3    H150752   2.936   5.960  16.684 -0.7932 -0.0697  0.5553
 9779TIP3    H250753   2.956   5.993  16.537  0.5344 -1.0744  0.4813
 9780TIP3   OH250754   1.482   5.186  16.888  0.3259  0.1134  0.5215
 9780TIP3    H150755   1.455   5.262  16.837  0.3145 -0.6699 -0.6580
 9780TIP3    H250756   1.578   5.185  16.880  0.2457 -0.6756 -0.4739
 9781TIP3   OH250757   3.293   4.166   1.267  0.4801  0.0277  0.1839
 9781TIP3    H150758   3.368   4.193   1.215  1.5318 -3.9104 -0.6550
 9781TIP3    H250759   3.244   4.108   1.210 -1.3303 -0.2146  1.8781
 9782TIP3   OH250760   4.157   2.811  11.682 -0.2078  0.0749  0.4764
 9782TIP3    H150761   4.232   2.772  11.638  0.2016  1.0882  0.2307
 9782TIP3    H250762   4.115   2.739  11.728 -1.6758 -1.4796 -2.9212
 9783TIP3   OH250763   3.436   1.573   5.703 -0.1587 -0.1975 -0.0204
 9783TIP3    H150764   3.354   1.563   5.753 -0.9365 -0.4180 -1.2922
 9783TIP3    H250765   3.444   1.491   5.654  0.2168  0.2870 -0.7830
 9784TIP3   OH250766   0.079   6.602   4.072 -0.2518 -0.6165 -0.5356
 9784TIP3    H150767   0.037   6.570   4.152 -1.1346 -0.5837 -0.9716
 9784TIP3    H250768   0.173   6.601   4.092 -0.4845 -0.1877  0.6446
 9785TIP3   OH250769   2.994   3.132   1.336  0.2762 -0.3843  0.5041
 9785TIP3    H150770   2.968   3.212   1.292 -1.2350 -1.6693 -1.1143
 9785TIP3    H250771   3.090   3.130   1.329  0.3386  1.2560  0.6335
 9786TIP3   OH250772   4.267   1.775  11.662  0.7884  0.2390 -0.6900
 9786TIP3    H150773   4.356   1.771  11.628  0.3414 -1.8470 -1.7996
 9786TIP3    H250774   4.213   1.796  11.585  0.1297 -0.6951 -0.4993
 9787TIP3   OH250775   3.682   5.876  12.860  0.5406 -0.1847  0.0313
 9787TIP3    H150776   3.613   5.811  12.879 -1.2942  1.1310 -1.7259
 9787TIP3    H250777   3.635   5.951  12.824  2.6309  2.0586  1.6797
 9788TIP3   OH250778   5.605   3.069   5.799  0.4564  0.1630 -0.1573
 9788TIP3    H150779   5.572   3.054   5.888  0.9300 -1.5403 -0.2420
 9788TIP3    H250780   5.634   3.160   5.800 -0.8702  0.6039  0.9981
 9789TIP3   OH250781   4.617   0.137  14.316  0.5639 -0.4671 -0.1007
 9789TIP3    H150782   4.691   0.096  14.272 -0.1827 -0.1012 -1.7822
 9789TIP3    H250783   4.547   0.072  14.310  0.7039 -0.7785  1.4021
 9790TIP3   OH250784   5.791   2.424  13.605  0.3744  0.1367 -0.5298
 9790TIP3    H150785   5.880   2.416  13.571  0.8963 -0.5722  0.9233
 9790TIP3    H250786   5.801   2.468  13.690 -0.7877  1.0389 -0.8231
 9791TIP3   OH250787   4.736   6.262  11.686  0.6624 -0.0791  0.4338
 9791TIP3    H150788   4.821   6.242  11.725  0.3426 -0.4839  0.9360
 9791TIP3    H250789   4.674   6.261  11.759  0.3967  1.3601  0.2578
 9792TIP3   OH250790   1.987   2.518   4.368 -0.2999 -0.4068 -0.5038
 9792TIP3    H150791   1.957   2.603   4.401 -0.1528 -0.7515  0.5601
 9792TIP3    H250792   2.078   2.513   4.395  1.1578  1.0394 -4.5286
 9793TIP3   OH250793   2.289   1.681  11.620  0.2323  0.0749  0.1935
 9793TIP3    H150794   2.322   1.764  11.656 -0.0771 -0.0159  0.7067
 9793TIP3    H250795   2.239   1.706  11.543  0.0660  0.3828  0.3971
 9794TIP3   OH250796   5.762   5.030   6.450 -0.0330  0.3946  0.4619
 9794TIP3    H150797   5.742   4.967   6.519  0.1900  0.8065  0.9071
 9794TIP3    H250798   5.690   5.094   6.455 -0.2380  0.2039  0.0380
 9795TIP3   OH250799   3.622   0.624  14.550 -0.1311  0.0612  0.2498
 9795TIP3    H150800   3.627   0.713  14.514 -1.0775  0.3023  0.6978
 9795TIP3    H250801   3.710   0.588  14.535 -0.3369  0.3121 -1.8636
 9796TIP3   OH250802   5.413   3.979   2.078  0.0412  0.7906  0.4238
 9796TIP3    H150803   5.455   3.899   2.048 -0.1391  0.2459  1.5821
 9796TIP3    H250804   5.429   4.042   2.007 -1.2732 -0.7025 -1.3135
 9797TIP3   OH250805   3.845   0.506  12.941 -0.2105  0.4517  0.2869
 9797TIP3    H150806   3.924   0.527  12.990 -0.2413  1.0959  0.0634
 9797TIP3    H250807   3.847   0.410  12.932  1.6147  0.5934 -1.5030
 9798TIP3   OH250808   0.736   0.454  13.249 -0.4442 -0.0361  0.6971
 9798TIP3    H150809   0.719   0.501  13.168  1.9204 -0.3497 -0.0576
 9798TIP3    H250810   0.728   0.520  13.318  0.9313  1.0732 -0.1629
 9799TIP3   OH250811   4.268   0.604   5.781  0.2706 -0.5991 -0.0791
 9799TIP3    H150812   4.292   0.667   5.849 -0.0299  1.7744 -2.0299
 9799TIP3    H250813   4.174   0.589   5.795 -0.2247  1.3288 -0.9785
 9800TIP3   OH250814   2.957   0.616   2.126 -0.0405 -0.1744  0.0425
 9800TIP3    H150815   2.974   0.551   2.195 -1.4707 -1.3809 -0.6888
 9800TIP3    H250816   3.020   0.595   2.057  1.2565  0.9086  0.8216
 9801TIP3   OH250817   2.085   4.396   4.204  0.2560 -0.0411 -0.2725
 9801TIP3    H150818   2.122   4.478   4.236 -0.4016  1.3490 -2.8036
 9801TIP3    H250819   2.127   4.383   4.119 -2.4830 -0.1731 -1.7087
 9802TIP3   OH250820   6.674   0.338   5.009 -0.3313  0.4041  0.0211
 9802TIP3    H150821   6.615   0.411   5.028 -0.1574  0.1898  1.5634
 9802TIP3    H250822   6.629   0.262   5.046  0.1220 -0.0327 -0.3326
 9803TIP3   OH250823   4.695   3.800   1.946 -0.3544  0.6004 -0.6916
 9803TIP3    H150824   4.617   3.823   1.896  0.9524  1.5692 -2.4022
 9803TIP3    H250825   4.691   3.705   1.954 -2.8334  0.7925  1.2860
 9804TIP3   OH250826   6.737   1.041  13.561 -1.0307  0.3934  0.0903
 9804TIP3    H150827   6.769   1.092  13.636 -0.6020  0.7400 -0.3207
 9804TIP3    H250828   6.650   1.077  13.543  0.6221  3.5648 -2.4658
 9805TIP3   OH250829   4.254   0.343   6.015 -0.5330 -0.2639 -0.7940
 9805TIP3    H150830   4.202   0.305   6.085  0.3995 -0.4113 -0.1553
 9805TIP3    H250831   4.199   0.411   5.978 -0.3392  1.2125  1.4214
 9806TIP3   OH250832   3.363   2.931  13.635 -0.1123  0.5582  0.9004
 9806TIP3    H150833   3.389   3.007  13.687 -0.1675 -0.0604  1.8520
 9806TIP3    H250834   3.338   2.865  13.700 -0.4683 -0.1299  0.0782
 9807TIP3   OH250835   4.386   2.652  11.672  0.4715  0.7002  0.3028
 9807TIP3    H150836   4.456   2.715  11.654  1.9101 -0.4983  1.4699
 9807TIP3    H250837   4.384   2.596  11.594 -0.2004  1.6102 -0.3524
 9808TIP3   OH250838   1.152   6.750   1.069 -0.0425 -0.6592 -0.0588
 9808TIP3    H150839   1.061   6.730   1.046  0.2375 -0.6293 -1.2800
 9808TIP3    H250840   1.179   6.815   1.004 -0.4381  2.6973  2.7872
 9809TIP3   OH250841   6.073   5.703  13.707  0.4432  0.1214 -0.1181
 9809TIP3    H150842   6.106   5.775  13.652  0.4770 -0.0895 -0.3762
 9809TIP3    H250843   6.150   5.672  13.755  0.9530 -1.2878 -1.7455
 9810TIP3   OH250844   5.706   2.777   3.088  0.0666 -0.1587  0.5310
 9810TIP3    H150845   5.636   2.732   3.135  1.1091 -1.7570  0.6280
 9810TIP3    H250846   5.751   2.708   3.040 -0.5112  1.2871 -2.3160
 9811TIP3   OH250847   0.193   4.804   1.828  0.8732 -0.6504 -0.3062
 9811TIP3    H150848   0.137   4.734   1.795  2.9580 -2.8262  0.4642
 9811TIP3    H250849   0.143   4.843   1.900 -0.5144 -1.0064 -1.0390
 9812TIP3   OH250850   0.438   2.251  15.998  0.3954 -0.4151  0.5985
 9812TIP3    H150851   0.430   2.217  16.087  0.8300 -2.2162 -0.0063
 9812TIP3    H250852   0.408   2.342  16.004 -0.9165 -0.9085  2.2918
 9813TIP3   OH250853   4.725   6.325   3.609  0.2803  0.1578 -0.0851
 9813TIP3    H150854   4.640   6.300   3.646  0.6177 -0.8112  0.0729
 9813TIP3    H250855   4.782   6.337   3.685  0.6292 -0.5312 -0.2293
 9814TIP3   OH250856   0.800   4.730  16.144  0.4647  0.5171  0.1591
 9814TIP3    H150857   0.740   4.681  16.200  1.2461 -0.4273  0.1874
 9814TIP3    H250858   0.883   4.683  16.151  0.5867  0.3756 -1.7868
 9815TIP3   OH250859   5.238   6.744   4.600 -0.2368  0.3430  0.7434
 9815TIP3    H150860   5.290   6.814   4.560 -1.0005 -0.9664 -2.9276
 9815TIP3    H250861   5.292   6.713   4.673  2.1696  1.7924 -0.2942
 9816TIP3   OH250862   0.062   6.475  16.432  0.4285  0.1366  0.0218
 9816TIP3    H150863   0.022   6.394  16.400 -0.0367 -0.2209  1.4540
 9816TIP3    H250864  -0.004   6.542  16.417  0.2498 -0.0075  0.1721
 9817TIP3   OH250865   3.558   1.044  16.536  0.2321  0.3353 -0.0784
 9817TIP3    H150866   3.532   1.052  16.444  1.7229 -1.3950 -0.7166
 9817TIP3    H250867   3.552   1.133  16.571 -2.6225  0.6756 -1.1580
 9818TIP3   OH250868   6.777   2.111   5.038  0.0412  0.4528  0.5032
 9818TIP3    H150869   6.699   2.082   4.990  0.8811 -1.5401  0.2501
 9818TIP3    H250870   6.799   2.037   5.095  1.5698  1.0968  0.7891
 9819TIP3   OH250871   4.701   1.456  11.093  0.2724  0.2232  0.3932
 9819TIP3    H150872   4.741   1.370  11.100 -1.7180 -0.9171 -1.0405
 9819TIP3    H250873   4.746   1.498  11.020 -0.1916 -0.4905 -0.3161
 9820TIP3   OH250874   0.425   3.023  13.708  0.0880  0.3349  0.0387
 9820TIP3    H150875   0.357   3.004  13.772  0.6813 -0.6142  0.3987
 9820TIP3    H250876   0.434   3.119  13.711 -0.3935  0.3648  0.8476
 9821TIP3   OH250877   5.185   2.136  14.622  0.5489  0.2298  0.2547
 9821TIP3    H150878   5.259   2.119  14.681 -0.2305  0.9358  1.4745
 9821TIP3    H250879   5.118   2.175  14.678 -1.8700 -2.8664 -0.1641
 9822TIP3   OH250880   2.170   2.170   0.755  0.0484  0.6764 -0.0609
 9822TIP3    H150881   2.144   2.102   0.817  0.5213  2.0987  1.7870
 9822TIP3    H250882   2.088   2.200   0.717 -0.3398  0.3737  0.5155
 9823TIP3   OH250883   4.868   6.552  13.327  0.1718 -0.1173 -0.2184
 9823TIP3    H150884   4.932   6.576  13.260  0.4753  2.2541  0.8215
 9823TIP3    H250885   4.918   6.504  13.393  0.3569 -0.3324 -0.5111
 9824TIP3   OH250886   0.842   0.455  16.652  0.0464  0.2184 -0.1602
 9824TIP3    H150887   0.893   0.519  16.702  1.5206 -0.1095 -1.2045
 9824TIP3    H250888   0.897   0.433  16.577 -0.7971 -1.6533 -0.2801
 9825TIP3   OH250889   0.735   1.090   5.821 -0.2756  0.2709 -0.6696
 9825TIP3    H150890   0.714   1.125   5.908  2.2521 -0.5379  0.3684
 9825TIP3    H250891   0.829   1.076   5.824 -0.4833 -2.1291 -2.6808
 9826TIP3   OH250892   4.961   5.910   0.800 -0.2497 -0.1840  0.0863
 9826TIP3    H150893   4.981   5.866   0.882 -0.2060  2.2343  1.4914
 9826TIP3    H250894   4.871   5.943   0.812 -0.0281  0.6985 -0.5717
 9827TIP3   OH250895   1.813   5.846   5.140 -0.1233 -0.3178  0.1849
 9827TIP3    H150896   1.756   5.923   5.141  0.1998  0.0162  3.3487
 9827TIP3    H250897   1.759   5.777   5.101 -0.9411  1.0771 -1.3252
 9828TIP3   OH250898   1.823   5.036   5.609 -0.1360 -0.2619  0.3726
 9828TIP3    H150899   1.828   5.001   5.520  1.2111  0.8699 -0.0523
 9828TIP3    H250900   1.903   5.004   5.651 -1.0967 -1.3561  1.4264
 9829TIP3   OH250901   6.802   2.296  14.602  0.4233  0.3484 -0.3554
 9829TIP3    H150902   6.835   2.207  14.605  1.5626  0.7454 -0.6450
 9829TIP3    H250903   6.813   2.329  14.692  0.5206  0.3781 -0.3782
 9830TIP3   OH250904   5.399   6.445   5.536 -0.2474 -0.2420 -1.0067
 9830TIP3    H150905   5.399   6.389   5.458 -3.6476 -1.2589 -0.4267
 9830TIP3    H250906   5.421   6.385   5.608  0.3778  0.1610 -0.8479
 9831TIP3   OH250907   3.764   5.477   2.368  0.1443 -0.3200 -0.2264
 9831TIP3    H150908   3.775   5.388   2.401  1.5820 -0.5592 -1.2425
 9831TIP3    H250909   3.821   5.530   2.425 -0.5764 -0.0587  0.2667
 9832TIP3   OH250910   6.282   0.203  13.508  0.0602 -0.1194  1.0627
 9832TIP3    H150911   6.207   0.232  13.560  0.4361 -0.1093  1.6185
 9832TIP3    H250912   6.265   0.111  13.490 -0.4278  0.0684  0.5718
 9833TIP3   OH250913   1.095   3.208  12.882 -0.3704  0.3686  0.3420
 9833TIP3    H150914   1.023   3.163  12.838 -1.3590  1.8945  0.3546
 9833TIP3    H250915   1.077   3.301  12.872  0.5529  0.7925  2.0512
 9834TIP3   OH250916   0.079   5.717  11.628 -0.2633 -0.0800  0.3281
 9834TIP3    H150917   0.022   5.760  11.692 -0.8159  1.2812 -1.0333
 9834TIP3    H250918   0.028   5.717  11.547  0.9102 -0.6390 -0.4308
 9835TIP3   OH250919   2.529   1.566  13.199 -0.1714 -0.8643 -0.1532
 9835TIP3    H150920   2.555   1.616  13.122  0.5189 -1.9749 -0.6580
 9835TIP3    H250921   2.450   1.520  13.173 -0.3462 -0.6845  0.0490
 9836TIP3   OH250922   3.323   1.571  14.778 -0.8806  0.3564  0.5015
 9836TIP3    H150923   3.365   1.657  14.777  1.6185 -0.7820  0.3398
 9836TIP3    H250924   3.268   1.572  14.857  2.6845  0.5837  3.2142
 9837TIP3   OH250925   4.166   2.617   4.628  0.1708  0.1278 -0.1785
 9837TIP3    H150926   4.191   2.542   4.682 -0.2809 -0.4190 -0.7121
 9837TIP3    H250927   4.246   2.670   4.622  1.0223 -1.1877 -1.2065
 9838TIP3   OH250928   0.433   0.620   6.161 -0.1738  0.1646 -0.5840
 9838TIP3    H150929   0.366   0.681   6.131 -1.5303 -0.8778  0.1752
 9838TIP3    H250930   0.473   0.586   6.081 -0.3916  0.9657 -1.0435
 9839TIP3   OH250931   1.642   6.327  11.310  0.5435 -0.1272  0.1691
 9839TIP3    H150932   1.667   6.416  11.284 -0.3762  0.0217 -0.2558
 9839TIP3    H250933   1.547   6.332  11.325  0.5428 -0.9495  0.5048
 9840TIP3   OH250934   3.616   6.458  17.069  0.0877 -0.1459 -0.6550
 9840TIP3    H150935   3.541   6.426  17.118 -0.3366 -0.3894 -1.4381
 9840TIP3    H250936   3.578   6.507  16.996  0.6926 -0.0916 -0.9415
 9841TIP3   OH250937   6.460   5.760  11.153 -0.3166 -0.0178 -0.1145
 9841TIP3    H150938   6.429   5.826  11.090 -1.2895 -1.0139 -0.7073
 9841TIP3    H250939   6.417   5.783  11.235 -1.7222 -0.6635 -0.6366
 9842TIP3   OH250940   3.571   0.384   3.581 -0.4383 -0.3552  0.0838
 9842TIP3    H150941   3.533   0.373   3.669 -1.5860  0.2729 -0.3036
 9842TIP3    H250942   3.583   0.295   3.549  0.8647 -0.6142  1.2219
 9843TIP3   OH250943   3.003   2.819  13.987  0.1914 -0.1578 -0.0556
 9843TIP3    H150944   2.923   2.789  13.943 -0.0729  0.2268  0.1583
 9843TIP3    H250945   3.034   2.892  13.934 -1.6345  2.1399  1.8188
 9844TIP3   OH250946   2.494   5.919  13.067  0.4493  0.2877 -0.1043
 9844TIP3    H150947   2.472   5.829  13.090  1.0577  0.2710  0.4528
 9844TIP3    H250948   2.449   5.935  12.984 -0.5305 -0.1684  0.3274
 9845TIP3   OH250949   2.168   3.411  12.732 -0.2903 -0.2568  0.2965
 9845TIP3    H150950   2.244   3.464  12.753  0.6249 -0.2854 -2.4862
 9845TIP3    H250951   2.186   3.325  12.771  1.4313 -0.4446 -0.8094
 9846TIP3   OH250952   6.247   2.615   3.133  0.0791 -0.2580 -0.3242
 9846TIP3    H150953   6.179   2.681   3.148 -0.4408 -1.0825  1.2455
 9846TIP3    H250954   6.298   2.649   3.059 -2.6294 -0.0749 -2.2683
 9847TIP3   OH250955   4.534   5.220   0.892 -0.2275 -0.0778 -0.0079
 9847TIP3    H150956   4.484   5.201   0.813  2.2522 -1.2769 -1.3970
 9847TIP3    H250957   4.484   5.179   0.963 -1.8670 -0.0478 -1.1038
 9848TIP3   OH250958   0.510   1.796   5.022  0.2639  0.6997 -0.6124
 9848TIP3    H150959   0.545   1.751   5.098 -0.3112  0.3283 -0.5629
 9848TIP3    H250960   0.458   1.867   5.058 -1.2746 -0.3943 -0.5939
 9849TIP3   OH250961   4.776   5.134   0.074 -0.2372 -0.4643 -0.1235
 9849TIP3    H150962   4.836   5.153   0.146 -0.5479 -1.5517  0.4425
 9849TIP3    H250963   4.779   5.213   0.020  1.1673 -0.2215  0.2504
 9850TIP3   OH250964   3.178   1.784   3.953  0.7316  0.7116 -0.2257
 9850TIP3    H150965   3.204   1.849   3.888  0.5422  1.0079 -0.0104
 9850TIP3    H250966   3.201   1.824   4.037  0.8345  0.3984 -0.1032
 9851TIP3   OH250967   1.991   3.677   0.500  0.2592  0.0972 -0.6678
 9851TIP3    H150968   2.059   3.735   0.536  0.1200 -0.4271  0.4916
 9851TIP3    H250969   1.909   3.724   0.513  0.1516 -0.3192  0.2276
 9852TIP3   OH250970   0.861   1.995   1.623  0.0967  0.4128  0.5281
 9852TIP3    H150971   0.870   2.081   1.664 -0.1436  0.0218  1.4194
 9852TIP3    H250972   0.952   1.966   1.611  0.2275  1.3521 -1.0402
 9853TIP3   OH250973   2.648   4.933  14.844 -0.6501  0.3088  0.0919
 9853TIP3    H150974   2.724   4.992  14.846 -1.6189  1.6006  0.2092
 9853TIP3    H250975   2.599   4.955  14.923 -0.2524 -1.7936  0.9850
 9854TIP3   OH250976   4.729   6.329   4.489  0.1218  0.3504 -0.4834
 9854TIP3    H150977   4.669   6.397   4.522 -0.2254 -0.1984  0.0409
 9854TIP3    H250978   4.685   6.294   4.412 -0.5945 -0.5394  0.3037
 9855TIP3   OH250979   0.334   2.003  16.821  0.2620 -0.4101  0.0182
 9855TIP3    H150980   0.324   2.097  16.838 -1.1735 -0.6303  0.5467
 9855TIP3    H250981   0.244   1.971  16.813  0.7595 -1.3681 -2.3392
 9856TIP3   OH250982   3.442   3.458   5.080  0.1389  0.0294  0.4233
 9856TIP3    H150983   3.498   3.384   5.103 -1.2390 -0.8923  0.9033
 9856TIP3    H250984   3.476   3.531   5.133  0.7208 -0.5652  0.8924
 9857TIP3   OH250985   0.837   2.668  14.207 -0.3542 -0.4697  0.5183
 9857TIP3    H150986   0.761   2.725  14.222 -0.3301 -0.7722  1.8556
 9857TIP3    H250987   0.903   2.727  14.171 -1.0904 -0.1318 -0.3447
 9858TIP3   OH250988   6.076   5.698  12.514 -0.3985  0.6402  0.7392
 9858TIP3    H150989   6.019   5.694  12.437 -0.6960  1.7370  0.8886
 9858TIP3    H250990   6.126   5.779  12.504  1.6218 -0.5812  0.3047
 9859TIP3   OH250991   5.267   4.921   3.660 -0.0158 -0.3113  0.2458
 9859TIP3    H150992   5.273   4.903   3.567 -1.0958  2.2556 -0.4076
 9859TIP3    H250993   5.174   4.909   3.681  0.2698 -1.2049  1.1121
 9860TIP3   OH250994   4.994   4.626   1.039  0.5297 -0.3925 -0.1794
 9860TIP3    H150995   4.930   4.611   0.970 -0.9083  0.4063  0.9264
 9860TIP3    H250996   5.010   4.720   1.037  2.2576 -0.6594 -0.9002
 9861TIP3   OH250997   1.964   2.947   5.671 -0.3653  0.4718  0.1237
 9861TIP3    H150998   1.957   3.004   5.594  0.0196  1.1774  0.6097
 9861TIP3    H250999   2.039   2.981   5.720 -0.0240 -0.5487  0.3413
 9862TIP3   OH251000   5.574   2.566  16.653  0.1311 -0.1382 -0.3158
 9862TIP3    H151001   5.531   2.650  16.636 -1.2937  0.1936  3.7419
 9862TIP3    H251002   5.655   2.589  16.697 -0.3141 -0.8265  0.9158
 9863TIP3   OH251003   4.993   3.775   5.687  0.1082  0.5323  0.0326
 9863TIP3    H151004   4.921   3.826   5.725 -0.8881 -1.9533  1.7086
 9863TIP3    H251005   4.955   3.731   5.611  0.0356 -0.2260  0.4988
 9864TIP3   OH251006   0.617   5.246   2.630 -0.9705  0.2858 -0.4226
 9864TIP3    H151007   0.533   5.232   2.673  0.2631 -0.4522  1.9311
 9864TIP3    H251008   0.637   5.163   2.587 -1.5573  0.5595 -1.2405
 9865TIP3   OH251009   5.150   5.327  13.652  0.6408  0.2634  0.3502
 9865TIP3    H151010   5.176   5.283  13.732  1.6208 -0.3437 -0.2810
 9865TIP3    H251011   5.073   5.379  13.676 -0.0895 -1.2020  1.2869
 9866TIP3   OH251012   3.971   4.701   4.490 -0.3169 -0.0761  0.2694
 9866TIP3    H151013   3.981   4.731   4.400 -2.0688 -2.0053 -0.6551
 9866TIP3    H251014   4.052   4.652   4.508 -0.6242 -1.0954 -0.9072
 9867TIP3   OH251015   3.430   0.553   1.439 -0.1019 -0.0512  0.2255
 9867TIP3    H151016   3.376   0.474   1.450  0.4290 -0.2490  1.5688
 9867TIP3    H251017   3.451   0.554   1.345 -0.0023 -1.6061  0.1943
 9868TIP3   OH251018   4.307   1.193   5.174  0.0174 -0.4759  0.5261
 9868TIP3    H151019   4.277   1.240   5.252 -1.5380 -2.7413  1.4188
 9868TIP3    H251020   4.351   1.115   5.209  0.4121 -0.9093 -0.8553
 9869TIP3   OH251021   2.242   3.383   4.612 -0.6161  0.2197 -0.0888
 9869TIP3    H151022   2.238   3.476   4.591 -0.1074  0.3446  0.3656
 9869TIP3    H251023   2.170   3.369   4.673 -0.6087  0.3404 -0.0525
 9870TIP3   OH251024   6.794   0.244   0.923 -0.4628  0.6540  0.3423
 9870TIP3    H151025   6.699   0.248   0.928 -0.6056  0.7359 -1.7371
 9870TIP3    H251026   6.822   0.238   1.014 -2.5405 -2.2143  0.9378
 9871TIP3   OH251027   5.285   6.113   3.178 -0.1578  0.4138  0.1997
 9871TIP3    H151028   5.375   6.080   3.182 -0.7489 -1.5218 -1.1016
 9871TIP3    H251029   5.238   6.061   3.244 -0.6837  0.1104 -0.4062
 9872TIP3   OH251030   5.707   2.178  12.873  0.4201  0.4608  0.0893
 9872TIP3    H151031   5.755   2.126  12.937 -0.6184 -2.4979 -1.3466
 9872TIP3    H251032   5.614   2.161  12.893  0.0727  0.4429 -1.3947
 9873TIP3   OH251033   6.612   1.068   2.055 -0.1944 -0.4049 -0.2203
 9873TIP3    H151034   6.652   1.114   2.129  0.6521 -0.5268 -0.5953
 9873TIP3    H251035   6.638   1.119   1.978 -0.5325 -0.6479 -0.4999
 9874TIP3   OH251036   6.610   5.287   1.201  0.0038  0.3975  0.3560
 9874TIP3    H151037   6.684   5.244   1.243 -0.4310  0.6022  1.3637
 9874TIP3    H251038   6.619   5.380   1.225 -0.4290  0.4653  0.2747
 9875TIP3   OH251039   1.793   4.005   1.675  0.0903  0.0282 -0.1252
 9875TIP3    H151040   1.756   3.975   1.759 -0.2825 -0.7305 -0.5442
 9875TIP3    H251041   1.836   4.087   1.696  1.5305 -1.0062  1.1738
 9876TIP3   OH251042   5.169   3.475  12.583  0.1347 -0.0068  0.2023
 9876TIP3    H151043   5.202   3.537  12.518 -0.4296 -0.1952 -0.2836
 9876TIP3    H251044   5.189   3.389  12.545 -1.1966 -0.1256 -0.2759
 9877TIP3   OH251045   6.381   6.209  14.661 -0.1965  0.3464 -1.1149
 9877TIP3    H151046   6.431   6.216  14.580 -0.0552 -1.2341 -1.1933
 9877TIP3    H251047   6.352   6.117  14.664 -0.8893  0.5783  0.2135
 9878TIP3   OH251048   2.594   3.118   3.029 -0.6300 -0.0863 -0.0646
 9878TIP3    H151049   2.676   3.075   3.003 -0.5813  0.3152 -0.5896
 9878TIP3    H251050   2.534   3.046   3.049 -0.1579 -0.3834  0.3067
 9879TIP3   OH251051   4.284   1.825  13.892  0.6396  0.4081  0.4093
 9879TIP3    H151052   4.216   1.811  13.827  0.2274  0.7813  0.7536
 9879TIP3    H251053   4.317   1.913  13.873 -0.4535  1.0946  1.5757
 9880TIP3   OH251054   4.163   6.715   1.788  0.3825 -0.2318 -0.3437
 9880TIP3    H151055   4.249   6.674   1.792  0.0164 -0.9780  3.8412
 9880TIP3    H251056   4.102   6.643   1.802 -0.9935  0.3993 -2.5589
 9881TIP3   OH251057   1.821   1.640  15.465 -0.3740  0.7786  0.5632
 9881TIP3    H151058   1.752   1.595  15.513 -1.4335  1.1121 -0.5752
 9881TIP3    H251059   1.825   1.594  15.381  1.2417  0.3772  0.8246
 9882TIP3   OH251060   3.438   1.242   2.301 -0.3938  0.2044  0.5391
 9882TIP3    H151061   3.415   1.334   2.289 -0.3861  0.3408  1.5386
 9882TIP3    H251062   3.526   1.234   2.263  0.4322  1.0607  2.1995
 9883TIP3   OH251063   3.066   3.815   5.308  0.4634  0.1190 -0.3977
 9883TIP3    H151064   3.019   3.758   5.247 -1.2854  0.1958  0.8054
 9883TIP3    H251065   3.155   3.779   5.311 -0.3507 -1.9865 -0.3516
 9884TIP3   OH251066   2.429   4.628  16.488  0.2084 -0.2721  0.5282
 9884TIP3    H151067   2.381   4.550  16.460 -2.5199  1.2577  0.4921
 9884TIP3    H251068   2.402   4.641  16.579 -0.8748  1.5702  0.0009
 9885TIP3   OH251069   3.627   1.836   3.702 -0.5260 -0.1058  0.2585
 9885TIP3    H151070   3.714   1.803   3.721 -1.1087 -2.1559 -0.3400
 9885TIP3    H251071   3.586   1.849   3.788  0.6557  1.9206  0.5866
 9886TIP3   OH251072   6.459   4.854  16.543  0.1804  0.0141 -0.3212
 9886TIP3    H151073   6.478   4.913  16.470  0.8371  0.5541  0.2724
 9886TIP3    H251074   6.462   4.910  16.620 -1.1198 -0.4370  0.0707
 9887TIP3   OH251075   1.671   6.220  12.640  0.1791 -0.0252 -0.0957
 9887TIP3    H151076   1.738   6.288  12.629  2.2944 -2.0034 -0.3334
 9887TIP3    H251077   1.667   6.176  12.555 -1.0869 -0.2809  0.0735
 9888TIP3   OH251078   1.795   5.248  16.876 -0.0314  0.1802 -0.1266
 9888TIP3    H151079   1.815   5.160  16.844  0.3043  0.7616 -1.6347
 9888TIP3    H251080   1.842   5.306  16.816  0.2047  1.3839  1.1703
 9889TIP3   OH251081   4.462   2.845   1.319  0.4770  0.2382  0.5422
 9889TIP3    H151082   4.487   2.892   1.239  2.7907 -1.8018 -0.0664
 9889TIP3    H251083   4.523   2.876   1.386  0.7091 -0.3895  0.6351
 9890TIP3   OH251084   0.410   1.150  13.896 -0.0954 -0.1454 -0.4400
 9890TIP3    H151085   0.459   1.165  13.977 -1.1139  1.3040 -0.0400
 9890TIP3    H251086   0.431   1.060  13.870  2.8736  0.4441 -0.3911
 9891TIP3   OH251087   3.713   0.190   2.625  0.3442  0.5284 -0.1550
 9891TIP3    H151088   3.688   0.196   2.718 -2.0584  0.5196 -0.7526
 9891TIP3    H251089   3.678   0.269   2.586  0.2309 -0.0835 -1.3130
 9892TIP3   OH251090   6.367   3.491   4.999  0.7419 -0.2338 -0.5733
 9892TIP3    H151091   6.339   3.579   4.974 -1.2359 -0.3421  0.9999
 9892TIP3    H251092   6.462   3.491   4.985  1.8519  3.9066  3.9189
 9893TIP3   OH251093   0.521   0.630  11.656  0.3033 -0.4710 -0.0393
 9893TIP3    H151094   0.583   0.640  11.728 -0.6077  0.8772  0.5959
 9893TIP3    H251095   0.540   0.544  11.619  1.7487 -0.5704  0.8868
 9894TIP3   OH251096   0.371   5.009  11.682  0.2629  0.8957  0.1043
 9894TIP3    H151097   0.354   4.931  11.629  1.5946  0.8535 -0.2953
 9894TIP3    H251098   0.338   4.986  11.769  0.2950  0.0233 -0.0986
 9895TIP3   OH251099   1.633   0.555  15.432  0.1289 -0.1379 -0.0396
 9895TIP3    H151100   1.722   0.587  15.416  0.3783 -1.4669 -1.5601
 9895TIP3    H251101   1.644   0.463  15.455 -0.6066  0.5401  3.7437
 9896TIP3   OH251102   4.104   1.285  12.398 -0.4202  0.2202  0.2272
 9896TIP3    H151103   4.020   1.240  12.383 -0.8652  1.4573 -1.2294
 9896TIP3    H251104   4.088   1.340  12.474 -0.8438  0.2237  0.1403
 9897TIP3   OH251105   1.421   2.377   1.219  0.8079 -0.4364  0.1438
 9897TIP3    H151106   1.361   2.452   1.219 -1.8123 -2.3781 -0.2548
 9897TIP3    H251107   1.424   2.347   1.310  1.2299 -0.3055  0.1741
 9898TIP3   OH251108   6.035   0.376   2.810 -0.5390  0.0924  0.0930
 9898TIP3    H151109   5.944   0.351   2.824 -0.2256 -1.1649  0.0274
 9898TIP3    H251110   6.039   0.401   2.718 -0.9578  0.8885  0.2750
 9899TIP3   OH251111   3.695   0.065  15.950 -0.2974 -0.3174  0.3389
 9899TIP3    H151112   3.688   0.100  15.861 -1.0031 -0.0853  0.4820
 9899TIP3    H251113   3.633   0.116  16.001 -0.9340 -1.3945  0.6724
 9900TIP3   OH251114   0.810   5.423  11.112 -0.2255 -0.1927 -0.1899
 9900TIP3    H151115   0.821   5.429  11.206  0.9519  0.1107 -0.3370
 9900TIP3    H251116   0.895   5.394  11.079 -0.6925 -0.5354 -1.1359
 9901TIP3   OH251117   6.729   3.717   1.441  0.2096  0.0592  0.1808
 9901TIP3    H151118   6.823   3.705   1.455  0.7112  1.5018 -1.6324
 9901TIP3    H251119   6.703   3.640   1.390  0.2987 -0.4979  0.9390
 9902TIP3   OH251120   3.631   1.186   3.856 -0.0571  0.0127 -0.4342
 9902TIP3    H151121   3.581   1.107   3.834 -0.9777  0.0181  1.4755
 9902TIP3    H251122   3.577   1.258   3.825 -0.7986 -0.0220  0.7152
 9903TIP3   OH251123   4.741   3.226   0.108 -0.3166 -0.6155  0.4164
 9903TIP3    H151124   4.735   3.197   0.017 -1.5702  0.1131  0.2356
 9903TIP3    H251125   4.802   3.300   0.106 -1.8571  0.7143 -0.2364
 9904TIP3   OH251126   2.518   2.472  10.541 -0.4231 -0.8318  0.3747
 9904TIP3    H151127   2.538   2.425  10.622 -0.4739 -1.7112 -0.1084
 9904TIP3    H251128   2.479   2.554  10.570 -0.3347 -1.0863  1.2461
 9905TIP3   OH251129   3.215   4.777   6.303 -0.2486  0.5695 -0.3566
 9905TIP3    H151130   3.227   4.855   6.358  0.1726  1.8105 -2.1173
 9905TIP3    H251131   3.121   4.761   6.306 -0.0777 -0.3917  1.9685
 9906TIP3   OH251132   5.106   6.690   2.953 -0.0816  0.1200  0.3444
 9906TIP3    H151133   5.161   6.759   2.917 -1.8148  1.6672  0.5200
 9906TIP3    H251134   5.034   6.681   2.890 -0.2040 -1.1309  0.6245
 9907TIP3   OH251135   3.931   1.211   0.055  0.6848 -0.6531  0.0811
 9907TIP3    H151136   3.956   1.192   0.146 -1.5167  0.1324  0.9323
 9907TIP3    H251137   3.836   1.220   0.059  0.5217 -0.7880 -2.3755
 9908TIP3   OH251138   0.358   5.490   5.882 -0.5351  0.4328 -0.1407
 9908TIP3    H151139   0.324   5.420   5.825  1.9513 -1.5575  0.6236
 9908TIP3    H251140   0.344   5.570   5.832 -0.3845 -0.9828 -2.6404
 9909TIP3   OH251141   0.911   1.579   4.135 -0.3908  0.3113  0.1059
 9909TIP3    H151142   0.827   1.598   4.178 -0.6394  1.5952 -0.9098
 9909TIP3    H251143   0.974   1.576   4.207 -1.1940 -0.1094  0.8254
 9910TIP3   OH251144   5.276   0.236   2.417 -0.2344 -0.2572 -0.2765
 9910TIP3    H151145   5.336   0.166   2.444  0.7358  0.4232 -0.5969
 9910TIP3    H251146   5.238   0.204   2.335  0.1813 -0.4308 -0.4098
 9911TIP3   OH251147   4.949   5.479   1.213  0.1129  0.7096  0.0093
 9911TIP3    H151148   5.019   5.428   1.173 -0.5571 -0.2174 -0.0188
 9911TIP3    H251149   4.904   5.520   1.139 -0.4175 -0.0782 -0.1164
 9912TIP3   OH251150   3.308   4.524   4.068  0.0544  0.2013 -0.5083
 9912TIP3    H151151   3.365   4.547   3.995 -0.9412  1.1199 -1.0235
 9912TIP3    H251152   3.367   4.521   4.144  0.9692 -0.0134 -1.2014
 9913TIP3   OH251153   6.597   1.672   4.414 -0.7030  0.2086 -0.3665
 9913TIP3    H151154   6.560   1.754   4.380  1.3073  2.0533  1.5076
 9913TIP3    H251155   6.551   1.658   4.497 -0.0460  0.2599  0.0113
 9914TIP3   OH251156   0.113   4.676  15.290 -0.7402  0.0482 -0.3891
 9914TIP3    H151157   0.086   4.672  15.199 -2.1897 -1.3275  0.0577
 9914TIP3    H251158   0.034   4.653  15.340 -0.0065  0.7967  1.2249
 9915TIP3   OH251159   1.670   1.298   2.759 -0.1590 -0.2063  0.0659
 9915TIP3    H151160   1.763   1.280   2.773 -0.0992 -0.2562 -0.3812
 9915TIP3    H251161   1.663   1.393   2.761 -0.3467 -0.2208  1.6186
 9916TIP3   OH251162   0.871   6.268   5.710  0.4042 -0.2104  0.3015
 9916TIP3    H151163   0.938   6.225   5.764  0.8300 -1.1527 -0.9385
 9916TIP3    H251164   0.896   6.248   5.620 -1.3411 -0.2800 -0.2108
 9917TIP3   OH251165   2.074   3.216  10.248 -0.0509  0.2115  0.1541
 9917TIP3    H151166   2.151   3.273  10.250  0.3048 -0.1830 -1.3480
 9917TIP3    H251167   2.001   3.274  10.270  0.3590  1.1719 -0.9286
 9918TIP3   OH251168   1.427   0.766   5.181 -0.4346  0.0824 -0.1724
 9918TIP3    H151169   1.393   0.855   5.195 -3.3717 -0.8397 -0.6913
 9918TIP3    H251170   1.373   0.711   5.236  1.4816 -1.4226  0.3078
 9919TIP3   OH251171   1.942   5.582   5.539 -0.4122 -0.1109  0.4607
 9919TIP3    H151172   1.874   5.528   5.578  0.9469 -0.6022  2.3451
 9919TIP3    H251173   1.936   5.665   5.586 -0.3604  0.1955 -0.0727
 9920TIP3   OH251174   4.483   1.015  16.104  0.1520  0.3412 -0.1296
 9920TIP3    H151175   4.495   1.088  16.044 -0.6385  2.3110  1.9523
 9920TIP3    H251176   4.571   0.996  16.137  0.2407  1.0856  0.0878
 9921TIP3   OH251177   4.220   5.982   3.259  0.3384  0.6578 -0.0273
 9921TIP3    H151178   4.215   6.074   3.233 -1.4466  0.7900  0.6197
 9921TIP3    H251179   4.212   5.984   3.355 -0.1561 -0.1711 -0.0424
 9922TIP3   OH251180   6.053   2.224  12.547 -0.4145 -0.3754  0.2593
 9922TIP3    H151181   6.105   2.248  12.623 -2.4456  1.3572  1.1965
 9922TIP3    H251182   6.110   2.166  12.496  2.2088  1.0220  1.4286
 9923TIP3   OH251183   2.122   3.089   5.462  0.2923  0.3935  0.0384
 9923TIP3    H151184   2.139   3.003   5.423  0.5747  0.7727 -0.6859
 9923TIP3    H251185   2.191   3.099   5.528 -0.1294 -0.2048  0.5946
 9924TIP3   OH251186   5.526   5.449   4.297 -0.2896  0.0557  0.1496
 9924TIP3    H151187   5.436   5.424   4.316  0.1806 -2.2339 -0.3298
 9924TIP3    H251188   5.539   5.530   4.346 -2.7127  0.7099 -0.1265
 9925TIP3   OH251189   1.007   1.410   0.629  0.6504  0.3047 -0.7691
 9925TIP3    H151190   0.999   1.486   0.686  2.7478 -0.0061  0.0375
 9925TIP3    H251191   1.073   1.435   0.565  0.8072 -0.5744 -0.9628
 9926TIP3   OH251192   1.202   1.219  15.544 -0.4908 -0.4455  0.3640
 9926TIP3    H151193   1.178   1.297  15.594  2.0955  1.4194 -1.0402
 9926TIP3    H251194   1.146   1.223  15.466 -0.0177  0.3356  0.0541
 9927TIP3   OH251195   5.006   5.324  15.491 -0.4159  0.0947  0.4682
 9927TIP3    H151196   4.922   5.358  15.521 -0.5185  0.2762 -0.0207
 9927TIP3    H251197   5.046   5.287  15.570 -0.6899  0.5495  0.8279
 9928TIP3   OH251198   1.082   3.377   5.215 -0.3530 -0.3222  0.5106
 9928TIP3    H151199   1.029   3.332   5.150  2.5500 -1.5267 -1.2298
 9928TIP3    H251200   1.074   3.470   5.193 -1.1287 -0.5433 -0.1560
 9929TIP3   OH251201   2.552   0.584  11.981 -0.5083 -0.0990 -0.0522
 9929TIP3    H151202   2.525   0.502  12.022 -0.5122  0.2369  0.6217
 9929TIP3    H251203   2.636   0.564  11.941 -0.1948 -0.2515  0.6821
 9930TIP3   OH251204   4.750   3.672  10.638  0.2697 -0.1624 -0.1030
 9930TIP3    H151205   4.807   3.634  10.704  2.6937 -0.5346 -2.2442
 9930TIP3    H251206   4.721   3.598  10.585  0.1210  0.3504 -0.7488
 9931TIP3   OH251207   4.990   1.482   2.805  0.2803 -0.5197 -0.0264
 9931TIP3    H151208   5.005   1.425   2.729 -0.9873  0.6380 -1.2016
 9931TIP3    H251209   4.897   1.505   2.799  0.4033  0.4114  1.3060
 9932TIP3   OH251210   0.489   4.669   1.655 -0.0879  0.7352 -0.1034
 9932TIP3    H151211   0.485   4.605   1.726 -0.1512  0.1161 -0.6585
 9932TIP3    H251212   0.579   4.665   1.624 -0.1312  0.8120 -0.2413
 9933TIP3   OH251213   2.805   0.312   4.630  0.7151 -0.0471 -0.2218
 9933TIP3    H151214   2.792   0.219   4.613 -0.8619  0.2277 -0.7617
 9933TIP3    H251215   2.784   0.354   4.546  1.0045  0.8131  0.1268
 9934TIP3   OH251216   3.386   2.569   5.156  0.8048 -0.1024 -0.3057
 9934TIP3    H151217   3.411   2.483   5.189  2.3399 -0.5297 -2.3253
 9934TIP3    H251218   3.442   2.631   5.204 -0.1425 -0.2232  0.9876
 9935TIP3   OH251219   6.733   0.214  12.170  0.1503 -0.3301  0.0281
 9935TIP3    H151220   6.708   0.262  12.091 -0.4916  0.6038  0.7685
 9935TIP3    H251221   6.828   0.225  12.176 -0.0448  1.5020  0.5421
 9936TIP3   OH251222   0.563   5.480   0.253 -0.4994 -0.2774 -0.0063
 9936TIP3    H151223   0.576   5.566   0.294  2.9608 -0.9283  0.5535
 9936TIP3    H251224   0.624   5.479   0.180 -2.2293 -1.4275 -1.4985
 9937TIP3   OH251225   4.660   2.648   4.863 -0.5336 -0.0723 -0.6049
 9937TIP3    H151226   4.636   2.731   4.822  0.7930 -0.5638 -2.5087
 9937TIP3    H251227   4.579   2.616   4.902 -0.9981  2.2329  0.4298
 9938TIP3   OH251228   1.583   6.714   3.530 -0.0835 -0.8139 -0.2424
 9938TIP3    H151229   1.515   6.770   3.493 -1.6504 -1.8166  1.0035
 9938TIP3    H251230   1.657   6.724   3.470 -0.7785  1.4728 -0.8174
 9939TIP3   OH251231   2.805   5.019  13.127 -0.1001  0.2551  0.3539
 9939TIP3    H151232   2.721   5.062  13.141  0.4198  1.7581 -0.8280
 9939TIP3    H251233   2.792   4.963  13.051  0.0038  0.6602  0.0310
 9940TIP3   OH251234   2.267   6.692  16.173 -0.3710 -0.4408  0.0355
 9940TIP3    H151235   2.284   6.610  16.219 -0.4587 -0.0763  0.7399
 9940TIP3    H251236   2.265   6.668  16.081 -0.5618 -1.2578  0.2438
 9941TIP3   OH251237   5.613   0.901  12.963  0.4494  0.6108  0.6369
 9941TIP3    H151238   5.536   0.956  12.978 -1.9004 -1.6967 -1.8228
 9941TIP3    H251239   5.619   0.848  13.043 -2.2832 -0.9359 -0.0165
 9942TIP3   OH251240   3.601   2.295   1.441  0.0400 -0.0644 -0.2009
 9942TIP3    H151241   3.608   2.348   1.520 -1.2186  3.1823 -2.0673
 9942TIP3    H251242   3.692   2.274   1.419  0.4637 -0.2201  1.5300
 9943TIP3   OH251243   1.947   4.891   3.831 -0.6975 -0.3868  0.7371
 9943TIP3    H151244   2.021   4.910   3.775 -0.7402 -1.9769  0.0992
 9943TIP3    H251245   1.943   4.965   3.892 -1.1296  1.7992 -1.7964
 9944TIP3   OH251246   6.492   4.525  11.401 -0.1581 -0.0424 -0.2133
 9944TIP3    H151247   6.527   4.540  11.313 -0.3804  0.3489 -0.2377
 9944TIP3    H251248   6.404   4.491  11.387 -0.3588  0.4444 -0.1380
 9945TIP3   OH251249   1.112   3.946   4.493 -0.2199 -0.1124 -0.4712
 9945TIP3    H151250   1.166   3.933   4.572 -1.3297 -0.9217  0.1882
 9945TIP3    H251251   1.156   3.894   4.426  0.2472 -0.1586 -0.1393
 9946TIP3   OH251252   4.294   1.611   3.552 -0.0472 -0.7488 -0.7608
 9946TIP3    H151253   4.327   1.580   3.468 -0.9183  0.7767 -1.7199
 9946TIP3    H251254   4.371   1.615   3.609  0.5103 -2.0463 -1.4027
 9947TIP3   OH251255   3.169   5.794  12.595  0.4079 -0.1238 -0.0958
 9947TIP3    H151256   3.083   5.827  12.570 -0.0916 -0.1396  1.5114
 9947TIP3    H251257   3.167   5.789  12.691  2.5120  0.7238  0.0533
 9948TIP3   OH251258   2.749   1.270   2.753  0.0377  0.5197 -0.0047
 9948TIP3    H151259   2.807   1.210   2.801 -0.9388 -0.1816  0.3201
 9948TIP3    H251260   2.803   1.348   2.739  0.1925  1.0307  2.8010
 9949TIP3   OH251261   0.632   5.242  12.021  0.1982 -0.2915 -0.6152
 9949TIP3    H151262   0.567   5.178  12.050  1.3297 -1.1153  0.2118
 9949TIP3    H251263   0.581   5.314  11.985 -1.2173 -0.3531  1.1591
 9950TIP3   OH251264   4.892   5.320  11.931  0.0968 -0.1350 -0.1034
 9950TIP3    H151265   4.919   5.235  11.896  0.3558 -0.3362  0.5653
 9950TIP3    H251266   4.944   5.384  11.882  0.8532 -0.4471  0.2749
 9951TIP3   OH251267   3.221   0.650   0.161 -0.2702 -0.2029  0.2857
 9951TIP3    H151268   3.243   0.560   0.182  0.9293 -0.2011 -0.8259
 9951TIP3    H251269   3.264   0.702   0.230 -0.2490 -0.4358  0.4482
 9952TIP3   OH251270   3.190   4.008   5.096 -0.0075  0.7456  0.0965
 9952TIP3    H151271   3.155   4.039   5.179 -0.9557  1.1696 -0.4439
 9952TIP3    H251272   3.233   4.086   5.058 -2.0216  1.3566 -1.0681
 9953TIP3   OH251273   0.283   3.212  11.336 -0.6301  0.1567  1.2114
 9953TIP3    H151274   0.375   3.231  11.317 -0.9208  0.2510 -0.1396
 9953TIP3    H251275   0.270   3.123  11.303 -1.1519  0.3240  0.9632
 9954TIP3   OH251276   1.102   5.652  13.199 -0.2977  0.1817  0.1199
 9954TIP3    H151277   1.111   5.740  13.236  0.2493  0.2166 -0.0837
 9954TIP3    H251278   1.130   5.662  13.108 -0.3832 -0.1702  0.0550
 9955TIP3   OH251279   1.091   3.644  11.371 -0.6307  0.1230  0.1689
 9955TIP3    H151280   1.184   3.628  11.355 -1.0797  0.2362 -3.1988
 9955TIP3    H251281   1.088   3.730  11.412  0.7671 -0.4762  1.6669
 9956TIP3   OH251282   4.533   4.481  12.403  0.1893 -0.0647 -0.4527
 9956TIP3    H151283   4.504   4.449  12.317 -0.2453  0.3534 -0.4668
 9956TIP3    H251284   4.589   4.556  12.383  1.1952 -0.8034 -0.4193
 9957TIP3   OH251285   5.634   3.044  14.659  0.6796  0.1963  0.2488
 9957TIP3    H151286   5.707   3.009  14.609  0.3720 -0.9229  0.5518
 9957TIP3    H251287   5.560   2.987  14.637  0.6347 -0.6229  2.2688
 9958TIP3   OH251288   5.482   2.510   5.848  0.3327 -0.1350 -0.7629
 9958TIP3    H151289   5.455   2.443   5.785  0.4788 -1.0106  0.0734
 9958TIP3    H251290   5.521   2.460   5.921  1.3183  0.9161 -0.5392
 9959TIP3   OH251291   3.669   2.663  14.849 -0.1928 -0.8251 -0.0995
 9959TIP3    H151292   3.739   2.702  14.797  0.3975 -0.4836  0.9318
 9959TIP3    H251293   3.691   2.685  14.940 -0.6763 -2.2460  0.3881
 9960TIP3   OH251294   2.014   6.016  13.960  0.4479 -0.2358 -0.1386
 9960TIP3    H151295   2.095   5.990  13.915  0.2872  0.3315 -0.7736
 9960TIP3    H251296   2.041   6.086  14.019  0.6772 -1.0483  0.7466
 9961TIP3   OH251297   4.527   5.398  13.376 -0.1405  0.3879 -0.1034
 9961TIP3    H151298   4.567   5.482  13.398 -0.2887  1.0532 -2.1756
 9961TIP3    H251299   4.433   5.413  13.386 -0.2052  0.6777 -1.0455
 9962TIP3   OH251300   1.080   3.722  17.176 -0.0236  0.8744 -0.3980
 9962TIP3    H151301   1.109   3.638  17.143 -0.4583 -0.4827  2.3791
 9962TIP3    H251302   1.155   3.757  17.224 -0.7053  0.6896  0.8459
 9963TIP3   OH251303   1.838   4.301   4.147 -0.3014 -0.3696 -0.1311
 9963TIP3    H151304   1.856   4.211   4.121  0.9824 -0.5675  1.2990
 9963TIP3    H251305   1.925   4.340   4.161 -0.8295  1.1085 -0.7617
 9964TIP3   OH251306   4.546   4.896   5.493 -0.9844 -0.0543  0.4573
 9964TIP3    H151307   4.501   4.875   5.575 -0.0053 -2.6813  0.4094
 9964TIP3    H251308   4.504   4.840   5.427  0.6580 -0.7312 -0.0748
 9965TIP3   OH251309   1.500   6.080   5.844 -0.4859  0.3134  0.9140
 9965TIP3    H151310   1.491   6.005   5.902 -1.0097  0.1899  0.6800
 9965TIP3    H251311   1.419   6.080   5.792 -0.5756  1.1510  1.0475
 9966TIP3   OH251312   4.370   5.653  13.662  0.1667 -0.2882  0.0030
 9966TIP3    H151313   4.438   5.707  13.622  0.5973  0.5532  1.7579
 9966TIP3    H251314   4.415   5.573  13.688  0.9181  0.8200  2.4181
 9967TIP3   OH251315   3.013   5.863   4.192  0.1344 -0.0744  0.2358
 9967TIP3    H151316   2.938   5.877   4.249 -0.7073 -0.4904 -0.7365
 9967TIP3    H251317   3.063   5.944   4.196 -0.9539  0.6217  0.0551
 9968TIP3   OH251318   2.782   5.308   0.374 -0.2525 -0.4239  0.7418
 9968TIP3    H151319   2.837   5.275   0.446 -0.6825 -1.0938  0.7724
 9968TIP3    H251320   2.833   5.380   0.337  1.0870 -1.6100  0.1814
 9969TIP3   OH251321   4.940   5.042   4.597  0.1032 -0.0728  0.6475
 9969TIP3    H151322   4.982   5.075   4.676 -0.4397  1.3838  0.3654
 9969TIP3    H251323   4.846   5.045   4.617 -0.0007 -0.6057  0.2756
 9970TIP3   OH251324   3.568   3.686   5.238  0.0059 -0.1362 -0.4290
 9970TIP3    H151325   3.649   3.696   5.288 -0.9615  2.0866  0.8506
 9970TIP3    H251326   3.573   3.755   5.172 -1.5423  1.2504  0.7984
 9971TIP3   OH251327   0.668   3.591  11.421  0.5753 -0.6775 -0.2401
 9971TIP3    H151328   0.705   3.549  11.343 -0.2330 -2.5969  0.3516
 9971TIP3    H251329   0.627   3.520  11.470 -0.8232  0.8051  0.8835
 9972TIP3   OH251330   4.294   3.937   3.538  0.6464  0.5147 -0.1707
 9972TIP3    H151331   4.361   4.005   3.544  0.4016  0.8050 -0.6901
 9972TIP3    H251332   4.214   3.985   3.518  0.7115 -0.0426 -1.8608
 9973TIP3   OH251333   0.702   0.210  12.825 -0.1568  0.7803 -0.5184
 9973TIP3    H151334   0.754   0.159  12.764  0.3620 -1.0688  1.3685
 9973TIP3    H251335   0.765   0.270  12.866  0.0999 -0.0207  0.2802
 9974TIP3   OH251336   6.616   5.718   6.138 -0.1542  0.1017  0.6565
 9974TIP3    H151337   6.610   5.784   6.069  0.2710  0.6899  1.1809
 9974TIP3    H251338   6.708   5.718   6.163 -0.3202 -0.0569  1.2802
 9975TIP3   OH251339   0.317   1.591   0.258  0.1371 -0.1990 -0.1922
 9975TIP3    H151340   0.244   1.580   0.319  0.7714 -1.3603  0.3843
 9975TIP3    H251341   0.381   1.644   0.306 -1.2045  2.8863 -1.5115
 9976TIP3   OH251342   3.210   6.459  14.080 -0.2448  0.1786  0.4697
 9976TIP3    H151343   3.300   6.484  14.059  0.0646 -0.1829  1.3280
 9976TIP3    H251344   3.205   6.366  14.057 -1.5526  0.9935 -3.2368
 9977TIP3   OH251345   3.191   6.264   3.289  0.0905 -0.1397 -0.5253
 9977TIP3    H151346   3.223   6.198   3.228 -0.0819 -0.2148 -0.5364
 9977TIP3    H251347   3.121   6.220   3.338 -0.4142  0.2044 -0.9313
 9978TIP3   OH251348   0.422   3.034   4.771 -0.9953 -0.1332  0.0108
 9978TIP3    H151349   0.408   2.979   4.694 -1.4636 -0.4016  0.2771
 9978TIP3    H251350   0.375   3.115   4.752 -0.6188  0.0272 -0.2282
 9979TIP3   OH251351   1.604   2.225  16.908 -0.9177  0.3204  0.2429
 9979TIP3    H151352   1.611   2.129  16.914 -0.8175  0.2505 -0.8759
 9979TIP3    H251353   1.541   2.240  16.838 -0.1481  1.0800 -0.3012
 9980TIP3   OH251354   6.666   5.572   1.326 -0.1682  0.0085 -0.3679
 9980TIP3    H151355   6.645   5.660   1.293  2.1060  0.9426  0.4595
 9980TIP3    H251356   6.634   5.573   1.416  0.2761  0.1584 -0.2118
 9981TIP3   OH251357   2.799   2.287   5.147  0.1444 -0.3542 -0.2311
 9981TIP3    H151358   2.741   2.316   5.077  0.2142  0.7178  0.1269
 9981TIP3    H251359   2.789   2.192   5.150 -0.2994 -0.3479 -1.2967
 9982TIP3   OH251360   6.627   5.081   2.797  0.1927  0.4228  0.3840
 9982TIP3    H151361   6.633   5.147   2.865  1.5910  0.7874 -0.0637
 9982TIP3    H251362   6.546   5.033   2.817  0.5086  0.5930  2.2007
 9983TIP3   OH251363   6.319   1.470   4.841  0.5342  0.2127  0.2081
 9983TIP3    H151364   6.341   1.386   4.882  0.6843  0.7210  1.1979
 9983TIP3    H251365   6.234   1.456   4.801  0.8089 -0.5758 -0.1138
 9984TIP3   OH251366   2.742   6.050   1.678 -0.4713 -0.2671 -0.6532
 9984TIP3    H151367   2.675   6.097   1.727  1.0131 -0.2925  1.5833
 9984TIP3    H251368   2.802   6.118   1.647 -0.0115 -0.4366 -0.1509
 9985TIP3   OH251369   1.043   5.173  15.367  0.4136 -0.1840 -0.3740
 9985TIP3    H151370   1.033   5.079  15.350 -0.1090 -0.3048  0.5350
 9985TIP3    H251371   1.137   5.190  15.355  0.5611 -0.8833 -0.2659
 9986TIP3   OH251372   0.821   1.094  11.658  0.3860  0.1766  0.8763
 9986TIP3    H151373   0.770   1.014  11.671 -2.9456  2.1420  1.1873
 9986TIP3    H251374   0.884   1.073  11.589 -1.1445 -2.3723  0.1643
 9987TIP3   OH251375   5.511   4.865  13.436 -0.4233  0.1801  0.3150
 9987TIP3    H151376   5.528   4.880  13.343 -1.5632  1.3587  0.2690
 9987TIP3    H251377   5.583   4.909  13.481  0.2206 -0.5313  0.0024
 9988TIP3   OH251378   6.649   3.071   1.786 -0.3318 -0.2449 -0.1032
 9988TIP3    H151379   6.699   2.999   1.824 -0.1202 -0.2320 -0.3565
 9988TIP3    H251380   6.695   3.092   1.705 -1.4032 -0.9998 -0.9415
 9989TIP3   OH251381   2.085   1.996   0.940  1.0298 -0.3391 -0.5332
 9989TIP3    H151382   2.103   1.985   1.033  0.0882 -1.7436 -0.4853
 9989TIP3    H251383   2.093   1.908   0.904 -1.3549 -0.3290 -1.2605
 9990TIP3   OH251384   1.657   4.002   3.478 -0.0480 -0.1481  0.1305
 9990TIP3    H151385   1.610   3.957   3.408 -0.6490 -0.6984  0.8655
 9990TIP3    H251386   1.685   4.085   3.439  0.8588 -1.0388 -1.1736
 9991TIP3   OH251387   3.891   2.690   0.007 -0.0952  0.1546  0.6644
 9991TIP3    H151388   3.943   2.760  -0.031  0.5984 -2.1660 -3.1986
 9991TIP3    H251389   3.954   2.620   0.024 -1.2506 -0.8932  0.7831
 9992TIP3   OH251390   0.449   3.983  13.545 -0.4347 -0.1596 -0.1701
 9992TIP3    H151391   0.501   4.063  13.550  0.1713 -0.5778  0.3980
 9992TIP3    H251392   0.497   3.920  13.599 -0.9472 -0.8797 -0.5403
 9993TIP3   OH251393   4.852   2.713   5.537  0.0271  0.1853 -0.6091
 9993TIP3    H151394   4.849   2.792   5.483 -0.1958 -1.2392 -2.8184
 9993TIP3    H251395   4.760   2.692   5.555  0.0477 -0.0031 -0.7164
 9994TIP3   OH251396   0.435   4.588   4.395  0.1426 -0.7985  0.2583
 9994TIP3    H151397   0.415   4.661   4.454 -1.2556 -0.6414 -0.3568
 9994TIP3    H251398   0.485   4.628   4.324 -0.7216 -0.3762 -0.1391
 9995TIP3   OH251399   6.083   4.701  12.345 -0.4472  0.2189  0.2653
 9995TIP3    H151400   6.125   4.640  12.406 -1.4578 -2.4153 -1.4913
 9995TIP3    H251401   6.130   4.691  12.263  1.5769  4.4979  0.6377
 9996TIP3   OH251402   5.946   2.758  15.030  0.6919  0.2551 -0.1419
 9996TIP3    H151403   5.996   2.808  15.094  0.1320  4.1042 -2.3615
 9996TIP3    H251404   6.010   2.733  14.963  0.9007 -1.8359  0.7815
 9997TIP3   OH251405   3.548   1.769  16.434  0.2701  0.1584  0.0441
 9997TIP3    H151406   3.504   1.833  16.379  1.3967  0.7831 -0.1698
 9997TIP3    H251407   3.634   1.808  16.452  0.6461 -0.8985  0.6484
 9998TIP3   OH251408   6.482   4.402   3.179 -0.1227  0.4220  1.2038
 9998TIP3    H151409   6.457   4.319   3.221  0.6504  0.9619  2.8145
 9998TIP3    H251410   6.403   4.430   3.133 -0.3865 -1.2281  0.5569
 9999TIP3   OH251411   1.505   5.079   3.521  0.5436 -0.0934 -0.6167
 9999TIP3    H151412   1.491   5.169   3.491 -0.3185 -0.4919 -1.4502
 9999TIP3    H251413   1.585   5.051   3.477  0.6430  0.1609 -0.5975
10000TIP3   OH251414   2.400   5.995  10.480  0.7598 -0.3736 -0.3420
10000TIP3    H151415   2.370   5.929  10.418 -1.0173 -0.7892  0.8562
10000TIP3    H251416   2.325   6.055  10.490  0.5377 -0.9253  2.1179
10001TIP3   OH251417   0.262   4.557   2.083 -0.4777  0.1591 -0.6140
10001TIP3    H151418   0.280   4.499   2.009 -0.2053  0.1308 -0.5298
10001TIP3    H251419   0.169   4.546   2.101 -0.4117 -0.3163 -0.5484
10002TIP3   OH251420   5.140   5.372   1.030 -0.1649 -0.2890 -0.1649
10002TIP3    H151421   5.126   5.456   0.987  1.3991  0.7690  1.2241
10002TIP3    H251422   5.096   5.308   0.975  1.0505  1.0547 -2.8782
10003TIP3   OH251423   1.926   5.920   0.562 -0.1732 -0.0337  0.7281
10003TIP3    H151424   1.930   5.824   0.562 -1.0602 -0.0787  0.6755
10003TIP3    H251425   1.976   5.946   0.640 -0.8621 -0.5883  1.3710
10004TIP3   OH251426   6.627   6.195  11.579  0.2881 -0.0854  0.0214
10004TIP3    H151427   6.535   6.190  11.604  0.3536  0.8305  0.5211
10004TIP3    H251428   6.674   6.152  11.651  0.3031  0.2315  0.2033
10005TIP3   OH251429   1.492   6.419   3.360 -0.5479  0.1101 -0.1742
10005TIP3    H151430   1.517   6.485   3.424 -0.0071  0.8045 -1.0694
10005TIP3    H251431   1.546   6.343   3.381 -0.1730  0.4270  0.0176
10006TIP3   OH251432   1.631   2.782   1.295 -0.5709 -0.6593  0.2773
10006TIP3    H151433   1.546   2.756   1.260  0.0233 -0.2725 -1.5641
10006TIP3    H251434   1.616   2.868   1.333 -1.3630 -1.3474  1.6202
10007TIP3   OH251435   5.230   3.225  12.895  0.2508 -0.0525 -0.4793
10007TIP3    H151436   5.142   3.235  12.860 -0.2615  0.0518  0.7846
10007TIP3    H251437   5.274   3.308  12.875 -0.1493  0.1467 -0.5297
10008TIP3   OH251438   3.086   0.966  16.121  0.0149 -0.1164  0.6652
10008TIP3    H151439   3.142   0.894  16.150 -0.7607 -0.1817  2.0864
10008TIP3    H251440   3.100   1.035  16.187 -0.4056  0.4503  0.1665
10009TIP3   OH251441   5.586   4.441   4.037 -0.7957  0.0903  0.3440
10009TIP3    H151442   5.590   4.362   4.091  0.0113  0.8400  1.4322
10009TIP3    H251443   5.609   4.512   4.097 -2.6558  1.3268 -0.3028
10010TIP3   OH251444   0.112   0.696  13.556 -0.5136  0.0367 -0.3063
10010TIP3    H151445   0.047   0.766  13.558 -0.3012  0.2576  2.6794
10010TIP3    H251446   0.193   0.738  13.583 -0.0397 -1.0351 -0.0174
10011TIP3   OH251447   3.438   4.823   2.951  0.3897 -0.4290  0.4503
10011TIP3    H151448   3.354   4.829   2.997  0.4767 -1.1977  0.7258
10011TIP3    H251449   3.415   4.831   2.859 -0.1621 -1.9624  0.4275
10012TIP3   OH251450   3.274   3.772  16.650  0.4199  0.0463 -0.2717
10012TIP3    H151451   3.231   3.852  16.620 -0.4665 -0.5165 -0.5206
10012TIP3    H251452   3.342   3.803  16.709 -0.2331  0.9621  0.0276
10013TIP3   OH251453   5.896   0.210  15.942 -0.0756  0.1797  0.2288
10013TIP3    H151454   5.853   0.234  15.860  0.1604  1.6577  0.5085
10013TIP3    H251455   5.978   0.171  15.915  0.8854  2.3725 -0.2756
10014TIP3   OH251456   5.424   3.770  12.331  0.3462  0.1375  0.0250
10014TIP3    H151457   5.503   3.798  12.378  0.6724 -0.7982  0.0583
10014TIP3    H251458   5.425   3.674  12.337 -0.6512  0.1002 -0.2094
10015TIP3   OH251459   6.181   4.312   0.258 -0.1426  0.2181  0.1942
10015TIP3    H151460   6.135   4.256   0.321 -1.1316  0.7432 -0.0352
10015TIP3    H251461   6.135   4.396   0.263 -0.7966  0.0325 -1.7998
10016TIP3   OH251462   5.960   5.489  15.812 -0.2142 -0.5754  0.2621
10016TIP3    H151463   6.000   5.499  15.726  1.3341 -1.1389  0.8773
10016TIP3    H251464   5.994   5.405  15.845 -0.8404 -0.4183  1.3786
10017TIP3   OH251465   5.134   6.429   2.146  0.2875 -0.6876  1.0880
10017TIP3    H151466   5.173   6.500   2.197  1.1353 -0.2362 -0.1375
10017TIP3    H251467   5.164   6.445   2.057  0.4015 -2.5285  0.7674
10018TIP3   OH251468   5.830   0.482   0.594  0.2141 -0.0463  0.3262
10018TIP3    H151469   5.833   0.465   0.500  0.7850 -1.5913  0.6107
10018TIP3    H251470   5.921   0.489   0.621  0.1035  3.5518  0.2905
10019TIP3   OH251471   1.662   4.024   6.049  0.4735  0.4585 -0.4112
10019TIP3    H151472   1.732   3.962   6.030  1.5470  1.3745  0.3698
10019TIP3    H251473   1.635   4.004   6.139  1.3859  1.5839  0.1459
10020TIP3   OH251474   3.883   3.965  15.245 -0.1566  0.3066 -0.5471
10020TIP3    H151475   3.941   3.962  15.169 -0.1282 -0.7504 -0.4961
10020TIP3    H251476   3.940   3.993  15.317  0.0216  0.4215 -0.7300
10021TIP3   OH251477   1.374   3.206  15.184  0.2549 -0.1742 -0.3730
10021TIP3    H151478   1.436   3.267  15.224 -0.4229  0.6435 -0.5597
10021TIP3    H251479   1.299   3.204  15.244  0.6043 -1.4656  0.0610
10022TIP3   OH251480   1.040   4.299  17.011  0.2493 -0.4229 -0.0814
10022TIP3    H151481   1.078   4.353  17.080 -1.8254 -0.7183  1.3956
10022TIP3    H251482   1.085   4.215  17.018  1.1218  0.0290 -0.1321
10023TIP3   OH251483   6.769   6.090  17.115  0.1036  0.1461  0.2674
10023TIP3    H151484   6.687   6.117  17.155 -1.0761 -1.0305 -1.2081
10023TIP3    H251485   6.812   6.036  17.182 -1.7577 -1.6874  0.0718
10024TIP3   OH251486   0.890   5.990   4.469  0.4773  0.3790  0.0089
10024TIP3    H151487   0.865   6.081   4.452 -2.6578 -0.3169  0.2098
10024TIP3    H251488   0.929   5.992   4.557 -0.2736  1.4436  0.3372
10025TIP3   OH251489   0.762   2.809   3.135 -0.3132  0.1298  0.3586
10025TIP3    H151490   0.752   2.742   3.068  0.7802 -0.8382  1.1332
10025TIP3    H251491   0.856   2.828   3.137 -0.3588  0.2989  1.4572
10026TIP3   OH251492   2.850   0.295  12.549  0.5453 -0.7450 -0.1225
10026TIP3    H151493   2.889   0.321  12.466  0.1330 -0.5670 -0.2665
10026TIP3    H251494   2.838   0.200  12.542  2.0408 -0.9969  0.3985
10027TIP3   OH251495   0.101   2.592   1.262 -0.1513  1.1672  0.5420
10027TIP3    H151496   0.151   2.596   1.180  1.2230  1.2247  1.3457
10027TIP3    H251497   0.102   2.682   1.295  0.5483  0.8878  1.3140
10028TIP3   OH251498   6.558   6.761  11.530 -0.3123 -0.1316 -0.1319
10028TIP3    H151499   6.558   6.855  11.552  2.9030 -0.4172  1.6625
10028TIP3    H251500   6.571   6.759  11.435  1.3964  1.2964  0.0233
10029TIP3   OH251501   6.336   6.441  15.308  0.2447  0.2042  0.1697
10029TIP3    H151502   6.388   6.429  15.228  1.2384 -0.1010  0.8383
10029TIP3    H251503   6.302   6.354  15.328  2.3538 -0.3600  1.6161
10030TIP3   OH251504   6.552   0.872   2.330  0.0389 -0.2185 -0.3268
10030TIP3    H151505   6.533   0.927   2.406 -0.3046 -0.8391  0.0518
10030TIP3    H251506   6.635   0.829   2.352 -0.7734 -1.5076  0.3705
10031TIP3   OH251507   5.867   1.034   5.572 -0.0801  0.1165 -0.8328
10031TIP3    H151508   5.888   1.001   5.659  1.7193  0.3299 -1.1460
10031TIP3    H251509   5.777   1.065   5.579  0.5227  1.5960  1.4190
10032TIP3   OH251510   0.567   0.974   2.816 -0.7347 -0.0747  0.0897
10032TIP3    H151511   0.597   0.898   2.867 -1.0929  0.3021  0.8805
10032TIP3    H251512   0.614   0.967   2.733  0.5036 -0.2687  0.7658
10033TIP3   OH251513   6.081   0.323  11.318  0.5996  0.2311 -0.1721
10033TIP3    H151514   6.016   0.255  11.300  0.6937 -0.2258  1.1527
10033TIP3    H251515   6.163   0.288  11.282  0.6933 -0.4646  0.6960
10034TIP3   OH251516   5.598   5.936  16.163 -0.8754  0.0271  0.3114
10034TIP3    H151517   5.570   5.864  16.220  0.1709 -0.1738  0.5909
10034TIP3    H251518   5.653   5.991  16.219 -2.2093  1.4560  0.3028
10035TIP3   OH251519   4.577   6.036  13.722 -0.6013 -0.7723  0.3814
10035TIP3    H151520   4.613   6.125  13.718  0.4765 -1.1518  1.0871
10035TIP3    H251521   4.581   6.013  13.815 -0.3358 -1.7592  0.1373
10036TIP3   OH251522   4.176   1.102  15.955 -0.2386 -0.3765  0.3323
10036TIP3    H151523   4.211   1.022  15.917  1.6039 -0.7194  2.5565
10036TIP3    H251524   4.110   1.072  16.018 -0.0605 -0.0940  0.6554
10037TIP3   OH251525   2.376   3.213  13.336  0.2103  0.1049 -0.8488
10037TIP3    H151526   2.361   3.178  13.248 -0.3040 -1.1523 -0.2855
10037TIP3    H251527   2.291   3.248  13.363  0.4325  0.7373 -0.9358
10038TIP3   OH251528   1.963   2.331  16.809  0.2879 -0.0175  0.0610
10038TIP3    H151529   1.954   2.299  16.720  1.1102  0.0248 -0.0451
10038TIP3    H251530   1.920   2.265  16.863  0.7379 -0.5939 -0.2736
10039TIP3   OH251531   6.677   2.860   4.431  0.1581 -0.6715  0.3804
10039TIP3    H151532   6.748   2.797   4.422  1.7335  1.1889 -0.8189
10039TIP3    H251533   6.637   2.838   4.515  1.4686 -2.4162  0.6097
10040TIP3   OH251534   4.352   1.432   3.145  0.0885 -0.0533  0.0777
10040TIP3    H151535   4.297   1.507   3.168 -0.1099 -0.3661  0.6500
10040TIP3    H251536   4.301   1.382   3.082  1.3192  1.7134 -2.5158
10041TIP3   OH251537   2.857   5.692   1.960 -0.3878  0.2710  0.2626
10041TIP3    H151538   2.882   5.671   1.870 -3.4164  0.9268 -0.8241
10041TIP3    H251539   2.893   5.620   2.012  1.5380 -0.0535 -1.4088
10042TIP3   OH251540   1.562   2.573   4.031  0.0781  0.5920  0.1793
10042TIP3    H151541   1.617   2.580   4.109 -1.2899  1.7096  1.0995
10042TIP3    H251542   1.474   2.559   4.066 -0.1586 -2.2471 -1.2521
10043TIP3   OH251543   4.076   4.122  14.497  0.0733  0.0410 -0.8558
10043TIP3    H151544   4.155   4.086  14.539 -0.2623 -0.3473 -0.5381
10043TIP3    H251545   4.107   4.163  14.417  0.9756  2.3176  0.5747
10044TIP3   OH251546   5.826   2.128  15.585 -0.2124 -0.1085  0.1038
10044TIP3    H151547   5.842   2.127  15.679  1.1156 -0.3063 -0.1060
10044TIP3    H251548   5.795   2.217  15.567 -1.8079 -0.4578  0.9013
10045TIP3   OH251549   0.699   2.430   4.459 -0.0775 -0.6946  0.4893
10045TIP3    H151550   0.670   2.469   4.376  1.9575 -0.8626 -0.3558
10045TIP3    H251551   0.629   2.451   4.521 -0.3368  1.9645 -0.5702
10046TIP3   OH251552   5.836   1.627   3.569 -0.0399  0.8248 -0.1889
10046TIP3    H151553   5.922   1.664   3.551  0.3279  0.1081  0.0311
10046TIP3    H251554   5.849   1.573   3.647 -0.6238  0.4925 -0.3147
10047TIP3   OH251555   1.636   6.467  11.938  0.1175 -0.4126  0.2991
10047TIP3    H151556   1.619   6.554  11.974  2.5422  0.2604  0.0088
10047TIP3    H251557   1.606   6.406  12.006 -1.4644  0.6123  0.5755
10048TIP3   OH251558   2.798   3.267  15.487 -0.5544  0.7651  0.2928
10048TIP3    H151559   2.845   3.188  15.513 -2.4573 -0.5691 -0.1626
10048TIP3    H251560   2.825   3.283  15.397  1.3517  1.8517  0.9949
10049TIP3   OH251561   3.563   0.847  12.287 -0.1580  0.8845 -0.5693
10049TIP3    H151562   3.519   0.931  12.273 -1.6902  0.2305  0.0843
10049TIP3    H251563   3.591   0.849  12.378 -1.4786  0.1605 -0.1140
10050TIP3   OH251564   0.761   4.970   5.257 -0.3207 -0.5183  0.3517
10050TIP3    H151565   0.714   5.052   5.238 -0.7131 -0.9014 -0.3704
10050TIP3    H251566   0.692   4.904   5.262  0.1063 -1.0331 -0.4095
10051TIP3   OH251567   5.368   1.097   2.358  0.1006 -0.5208  0.3462
10051TIP3    H151568   5.318   1.029   2.404  0.3935  0.0243  1.5128
10051TIP3    H251569   5.431   1.048   2.305 -3.1478 -1.3569 -3.1975
10052TIP3   OH251570   1.233   4.190  12.338 -0.2253  0.6733 -0.4299
10052TIP3    H151571   1.312   4.235  12.369 -0.2997  0.6450 -0.1952
10052TIP3    H251572   1.182   4.258  12.295  0.5314  0.4281 -1.7646
10053TIP3   OH251573   2.597   0.344   2.594  0.6462  0.5598 -0.5057
10053TIP3    H151574   2.548   0.402   2.534  1.9027  1.8993 -0.2866
10053TIP3    H251575   2.600   0.393   2.676 -2.6755 -2.0234  1.3850
10054TIP3   OH251576   5.174   0.342  16.521  0.0401  0.1211 -0.0739
10054TIP3    H151577   5.207   0.254  16.538 -0.1290  0.0665 -0.0276
10054TIP3    H251578   5.228   0.374  16.448 -0.1794 -0.1834 -0.3732
10055TIP3   OH251579   3.121   2.262   0.356 -0.7832  0.2583  0.0167
10055TIP3    H151580   3.118   2.203   0.432 -1.0972 -0.2642 -0.3939
10055TIP3    H251581   3.050   2.231   0.299  1.0019 -0.9661 -1.6611
10056TIP3   OH251582   5.722   1.702   5.242 -0.4157 -0.1418 -0.3207
10056TIP3    H151583   5.758   1.741   5.163 -1.1583  0.2132 -0.4952
10056TIP3    H251584   5.638   1.747   5.255  0.6152  1.3137  1.8374
10057TIP3   OH251585   4.024   0.399  17.109 -0.2195 -0.3441  0.2993
10057TIP3    H151586   4.007   0.456  17.033 -1.5844  1.1917  1.6891
10057TIP3    H251587   3.966   0.324  17.096  0.8097 -0.9536 -1.0095
10058TIP3   OH251588   2.881   3.282   4.592 -0.7224 -0.2200  0.4091
10058TIP3    H151589   2.930   3.238   4.522  0.0681 -1.3449  1.6220
10058TIP3    H251590   2.790   3.260   4.575 -0.4691 -1.1540  0.1638
10059TIP3   OH251591   2.217   1.317  11.090  0.5118 -0.0738 -0.5167
10059TIP3    H151592   2.291   1.310  11.029  0.1081  0.6559 -1.1053
10059TIP3    H251593   2.206   1.411  11.104 -0.7188 -0.1347 -0.9655
10060TIP3   OH251594   6.553   3.182   0.816 -0.3412  0.6286  0.1259
10060TIP3    H151595   6.499   3.245   0.767  2.9363  3.0399 -0.7255
10060TIP3    H251596   6.614   3.147   0.751  0.2141 -0.7419  1.3434
10061TIP3   OH251597   2.738   3.103  13.248 -0.0388 -0.4353  0.3428
10061TIP3    H151598   2.832   3.100  13.267 -0.2410 -0.9336  1.3895
10061TIP3    H251599   2.697   3.073  13.330 -1.1599  1.0842  0.3628
10062TIP3   OH251600   2.235   1.647   2.678  0.0395 -0.6583  0.3500
10062TIP3    H151601   2.223   1.734   2.715 -1.2279 -1.4729  1.9959
10062TIP3    H251602   2.224   1.588   2.753  3.0816 -2.1702 -0.2533
10063TIP3   OH251603   2.451   4.474  14.716  0.5907 -0.1028 -0.1044
10063TIP3    H151604   2.505   4.515  14.783 -1.8266  0.9569  1.3558
10063TIP3    H251605   2.363   4.472  14.754  0.0571 -4.6207 -1.0148
10064TIP3   OH251606   2.615   6.544  16.514  0.1823  0.1577  0.3018
10064TIP3    H151607   2.575   6.613  16.460 -1.2958  0.2650  1.4817
10064TIP3    H251608   2.543   6.508  16.565  1.2520 -1.0855  0.9952
10065TIP3   OH251609   5.424   5.052   2.454  0.0899 -0.0525  0.1001
10065TIP3    H151610   5.419   5.098   2.538  0.6643  0.3655 -0.0854
10065TIP3    H251611   5.339   5.010   2.444 -0.8990  1.9286 -0.2693
10066TIP3   OH251612   6.286   1.142   5.347  0.4205  0.0796  0.3723
10066TIP3    H151613   6.202   1.184   5.369  0.3996 -0.1932  0.8173
10066TIP3    H251614   6.276   1.052   5.377  0.9329  0.0851  0.5573
10067TIP3   OH251615   3.764   5.970  11.600  0.5349  0.0109  0.5031
10067TIP3    H151616   3.699   5.915  11.644  1.6310 -0.7321  1.2490
10067TIP3    H251617   3.725   5.990  11.515 -0.4373 -0.8563  0.7249
10068TIP3   OH251618   0.423   1.877  15.714  0.1596 -0.0522  0.3883
10068TIP3    H151619   0.512   1.862  15.684 -0.2209  0.2585 -0.9388
10068TIP3    H251620   0.397   1.793  15.753  0.5187 -0.6324 -0.5779
10069TIP3   OH251621   6.092   6.788  15.428 -0.2781  0.2671  0.3314
10069TIP3    H151622   6.133   6.833  15.501 -1.0787  0.6911  0.5320
10069TIP3    H251623   6.043   6.716  15.468 -0.2548  0.1514  0.1565
10070TIP3   OH251624   4.580   3.167   0.915 -0.8836 -0.0048 -0.3118
10070TIP3    H151625   4.637   3.228   0.868  2.2018 -2.7151 -0.4709
10070TIP3    H251626   4.496   3.175   0.870  0.3069  1.6780 -2.4979
10071TIP3   OH251627   3.045   0.571   3.202 -0.2114  0.6998 -0.3626
10071TIP3    H151628   3.099   0.637   3.157 -0.1417  1.2747  0.5252
10071TIP3    H251629   3.018   0.615   3.283  1.5853 -1.0486  1.2968
10072TIP3   OH251630   2.050   3.682   1.543  0.7674  0.5759  0.7366
10072TIP3    H151631   2.115   3.735   1.497  0.2502 -0.1675 -0.9438
10072TIP3    H251632   2.087   3.594   1.544 -0.3423  0.0446 -0.6601
10073TIP3   OH251633   4.577   0.195  16.080  0.2654 -0.4832 -0.3751
10073TIP3    H151634   4.482   0.201  16.089  0.1888 -1.9405 -0.0830
10073TIP3    H251635   4.600   0.111  16.119  1.9315  0.7789  1.5456
10074TIP3   OH251636   4.167   6.193   4.201  0.0191  0.3441  0.7545
10074TIP3    H151637   4.120   6.159   4.277 -1.0806  0.4108  0.1271
10074TIP3    H251638   4.150   6.287   4.203 -1.3275  0.1466 -0.4310
10075TIP3   OH251639   4.500   3.002  15.988 -0.0539 -0.4496  0.1738
10075TIP3    H151640   4.492   2.912  15.955  1.6875 -0.5538 -0.0704
10075TIP3    H251641   4.503   3.056  15.910 -1.2456 -0.1477  0.3247
10076TIP3   OH251642   1.995   1.402   1.981 -0.3774  0.2287  0.2989
10076TIP3    H151643   1.968   1.322   2.026  1.2116  0.7151  2.2882
10076TIP3    H251644   2.084   1.382   1.949  1.0666  1.8783  2.9630
10077TIP3   OH251645   1.873   6.192   4.634  0.4809  0.2632 -0.0648
10077TIP3    H151646   1.908   6.266   4.684  2.7670 -0.3072 -0.6878
10077TIP3    H251647   1.843   6.230   4.552 -0.2140  0.7541  0.4101
10078TIP3   OH251648   4.859   4.359   4.365 -1.0520  0.2274 -0.1158
10078TIP3    H151649   4.933   4.420   4.364 -1.7568  1.1450 -1.6406
10078TIP3    H251650   4.888   4.286   4.310 -1.2449  0.5700 -0.6842
10079TIP3   OH251651   1.234   1.583  16.372  0.0835 -0.1169  0.5230
10079TIP3    H151652   1.269   1.496  16.351 -0.4419 -0.0723 -0.6632
10079TIP3    H251653   1.185   1.570  16.453 -0.4380 -1.0741  0.0820
10080TIP3   OH251654   0.840   3.762   0.225  0.0602 -0.6137 -0.3698
10080TIP3    H151655   0.922   3.798   0.192  0.8143 -2.5910 -0.7908
10080TIP3    H251656   0.781   3.837   0.228  1.3720  0.5479 -1.6532
10081TIP3   OH251657   2.048   1.229  15.735  0.0863  0.2947 -0.1435
10081TIP3    H151658   1.985   1.183  15.679  2.1165 -2.1089 -0.6480
10081TIP3    H251659   2.023   1.203  15.824  1.2756 -2.1005 -0.4211
10082TIP3   OH251660   1.550   0.853   0.861 -0.0453  0.1721 -0.5073
10082TIP3    H151661   1.523   0.943   0.846  3.1305  0.8638 -3.2539
10082TIP3    H251662   1.636   0.860   0.903  0.0789 -1.5590 -0.3957
10083TIP3   OH251663   1.402   6.064   1.911 -0.0856  0.2049  0.4092
10083TIP3    H151664   1.370   6.132   1.971 -0.7599  0.5091 -0.2878
10083TIP3    H251665   1.324   6.018   1.881  0.4153 -1.5026  1.5585
10084TIP3   OH251666   6.019   5.177   4.677 -0.4863  0.7519  0.1326
10084TIP3    H151667   6.005   5.083   4.688 -2.4260  0.8206 -1.2422
10084TIP3    H251668   6.105   5.193   4.717 -0.2886 -1.5086  0.7670
10085TIP3   OH251669   3.098   1.294  15.703 -0.1978 -0.0016 -0.4630
10085TIP3    H151670   3.089   1.387  15.723  1.2967 -0.0118  0.3545
10085TIP3    H251671   3.008   1.262  15.698 -0.7415  1.5242 -0.9993
10086TIP3   OH251672   6.028   1.795  13.851  0.4383 -0.0119  0.4400
10086TIP3    H151673   5.987   1.709  13.864 -0.6590  0.3364 -0.5274
10086TIP3    H251674   6.118   1.784  13.881 -0.2372 -0.9343  2.2399
10087TIP3   OH251675   0.871   5.573  12.221  0.1951  0.2706 -0.3304
10087TIP3    H151676   0.804   5.505  12.217  1.3311 -0.8427 -1.7028
10087TIP3    H251677   0.827   5.652  12.191 -0.4005 -0.5592 -1.7401
10088TIP3   OH251678   3.925   3.295  14.430  0.4502  0.0873  0.6636
10088TIP3    H151679   3.967   3.283  14.515  0.1493  0.1293  0.8195
10088TIP3    H251680   3.995   3.280  14.367  0.8347  0.7267  0.9323
10089TIP3   OH251681   5.125   6.108   5.508  0.4179  0.1525 -0.3589
10089TIP3    H151682   5.143   6.061   5.427  0.5439 -0.6067  0.0955
10089TIP3    H251683   5.040   6.150   5.493 -0.1547 -0.9952 -0.4506
10090TIP3   OH251684   0.278   4.521  15.963  0.1608  0.1991  0.8775
10090TIP3    H151685   0.318   4.565  15.888 -1.4586  0.5636  0.1930
10090TIP3    H251686   0.341   4.533  16.034  1.9402 -0.5211 -0.4884
10091TIP3   OH251687   2.488   2.549  11.823 -0.0778  0.0889  0.3601
10091TIP3    H151688   2.543   2.506  11.757  0.7132 -0.7023  1.4819
10091TIP3    H251689   2.398   2.532  11.794  0.2383  0.5246 -0.9637
10092TIP3   OH251690   5.426   1.519   2.124 -0.2277 -0.4739  0.5855
10092TIP3    H151691   5.402   1.475   2.042 -1.5316  0.2856  0.5363
10092TIP3    H251692   5.449   1.608   2.097  0.5701 -0.5780  0.9059
10093TIP3   OH251693   3.544   3.003  11.417 -0.3989  0.1422 -0.0896
10093TIP3    H151694   3.616   2.964  11.367 -0.9514 -0.2189 -0.6116
10093TIP3    H251695   3.587   3.043  11.493  0.2864 -0.5644 -0.0970
10094TIP3   OH251696   3.031   4.727  12.963  0.6843 -0.1703  0.1612
10094TIP3    H151697   3.108   4.781  12.945  1.9036 -1.3775  1.4750
10094TIP3    H251698   3.057   4.639  12.935  0.1323 -0.7695  1.4460
10095TIP3   OH251699   4.261   5.512   4.283 -0.0399 -0.2336  0.3033
10095TIP3    H151700   4.176   5.526   4.243 -0.6141 -0.2921  1.4641
10095TIP3    H251701   4.281   5.420   4.266  0.3093  0.0348 -0.8857
10096TIP3   OH251702   4.274   2.955   0.180 -0.7834 -0.1431 -0.5823
10096TIP3    H151703   4.233   3.006   0.250 -0.2503 -0.6982  0.1592
10096TIP3    H251704   4.338   2.899   0.225  1.5006  1.3430 -1.7635
10097TIP3   OH251705   2.517   3.865   0.819  0.3874 -0.0990 -0.3114
10097TIP3    H151706   2.570   3.910   0.884  0.2713 -0.6879  0.1975
10097TIP3    H251707   2.451   3.818   0.870  0.1484 -0.3725 -0.8652
10098TIP3   OH251708   1.497   3.370  13.598 -0.1910  0.1504 -0.5226
10098TIP3    H151709   1.451   3.453  13.613 -0.3161 -0.1593  0.9249
10098TIP3    H251710   1.436   3.319  13.545 -0.5482  0.5901 -0.5447
10099TIP3   OH251711   3.102   5.996   6.154 -0.2330  0.2838 -0.1689
10099TIP3    H151712   3.145   6.059   6.212 -0.7978  1.1466 -0.6664
10099TIP3    H251713   3.017   6.036   6.133 -0.9634 -1.0292  0.1700
10100TIP3   OH251714   0.577   1.856   2.293 -0.5896 -0.0259 -0.4227
10100TIP3    H151715   0.657   1.807   2.312 -0.9286 -1.2628 -1.9422
10100TIP3    H251716   0.543   1.882   2.379  1.0867 -0.0313  0.2732
10101TIP3   OH251717   1.475   3.862  15.627  0.4295 -0.5123 -0.0742
10101TIP3    H151718   1.386   3.898  15.630  0.7363  0.4178 -1.3132
10101TIP3    H251719   1.531   3.933  15.656  0.8620 -0.7101 -0.4203
10102TIP3   OH251720   5.340   5.773  15.135 -0.1923  0.1428  0.7003
10102TIP3    H151721   5.423   5.759  15.089 -0.3874  0.8026  0.1356
10102TIP3    H251722   5.326   5.691  15.184  1.2023  0.3470  1.4854
10103TIP3   OH251723   0.448   1.082   4.564 -0.3502  0.2386 -0.3200
10103TIP3    H151724   0.442   1.010   4.501 -0.9347  1.0152 -1.1769
10103TIP3    H251725   0.369   1.134   4.550  0.3220  1.3679 -0.1125
10104TIP3   OH251726   2.808   2.227   3.360  0.5940  0.1679 -0.5306
10104TIP3    H151727   2.751   2.184   3.423  0.1360 -0.1413 -1.1476
10104TIP3    H251728   2.836   2.307   3.404 -1.3362  0.9768 -0.6715
10105TIP3   OH251729   0.408   0.228  14.761 -0.0377  0.1027 -0.0755
10105TIP3    H151730   0.427   0.213  14.668 -1.0881 -1.0133 -0.1339
10105TIP3    H251731   0.493   0.221  14.804  0.4233  0.3744 -0.9172
10106TIP3   OH251732   4.587   4.787   0.690 -0.2684 -0.2478  0.1029
10106TIP3    H151733   4.520   4.841   0.648  0.7836  0.5495 -0.6170
10106TIP3    H251734   4.590   4.707   0.638  1.0501  0.7498 -1.4444
10107TIP3   OH251735   0.829   5.804   3.086 -0.0417  0.4201  0.5126
10107TIP3    H151736   0.907   5.752   3.068  0.0432  0.9352 -0.6624
10107TIP3    H251737   0.859   5.895   3.084 -0.8208  0.6807 -0.9267
10108TIP3   OH251738   6.025   3.475  12.384  0.3407  0.2829 -0.2309
10108TIP3    H151739   6.054   3.562  12.412  1.7825 -0.2807  0.1166
10108TIP3    H251740   6.091   3.447  12.321 -0.2487 -0.4520 -0.5224
10109TIP3   OH251741   6.253   2.948   3.783 -0.3164 -0.1359 -0.0654
10109TIP3    H151742   6.198   3.008   3.733 -1.3690  0.8581  2.1522
10109TIP3    H251743   6.201   2.868   3.789 -1.7224  0.8489  2.1508
10110TIP3   OH251744   1.250   1.623   0.885  0.1448 -0.1370 -0.0346
10110TIP3    H151745   1.274   1.570   0.961  0.5561  0.0013 -0.0687
10110TIP3    H251746   1.155   1.613   0.879  0.4651 -3.8822 -2.2305
10111TIP3   OH251747   3.492   5.371  16.289 -0.4792 -0.0080 -0.0029
10111TIP3    H151748   3.469   5.462  16.309  0.8559  0.2582  0.4199
10111TIP3    H251749   3.430   5.319  16.339 -1.2348  0.6628 -0.2157
10112TIP3   OH251750   6.269   2.456   4.532 -0.2130 -0.2032 -0.2058
10112TIP3    H151751   6.224   2.381   4.572 -0.1306 -0.0846  0.1080
10112TIP3    H251752   6.317   2.418   4.458 -0.2519 -0.4435 -0.1083
10113TIP3   OH251753   5.559   2.461  11.153 -0.1525  0.0858  0.0284
10113TIP3    H151754   5.614   2.531  11.118  1.0494 -1.1321 -0.5826
10113TIP3    H251755   5.584   2.454  11.245 -0.0949  0.2737  0.0276
10114TIP3   OH251756   4.156   1.921  14.311  0.0924 -0.2955  0.1287
10114TIP3    H151757   4.118   1.879  14.388  1.0159 -0.3204  0.5825
10114TIP3    H251758   4.243   1.948  14.339 -0.0851  0.9765 -0.4752
10115TIP3   OH251759   5.424   3.778   1.406  0.4703  0.3016  0.1021
10115TIP3    H151760   5.371   3.697   1.405 -0.3106  0.6786 -3.3501
10115TIP3    H251761   5.514   3.747   1.401  0.3294 -0.3417  1.1961
10116TIP3   OH251762   1.754   2.356   2.552 -0.3254  0.2289 -0.0077
10116TIP3    H151763   1.833   2.378   2.502  0.3461 -1.5276  0.2376
10116TIP3    H251764   1.776   2.377   2.643 -0.4642  0.5703 -0.0515
10117TIP3   OH251765   0.825   0.531  14.715 -0.5855  0.1515 -0.1977
10117TIP3    H151766   0.777   0.557  14.793 -1.8460 -0.6992 -0.6672
10117TIP3    H251767   0.910   0.502  14.748 -0.3373  1.7108  0.6425
10118TIP3   OH251768   0.118   4.147  16.862  0.4477  0.2467  0.4035
10118TIP3    H151769   0.144   4.237  16.883 -0.9813  0.9999 -0.9136
10118TIP3    H251770   0.068   4.154  16.781 -0.5928 -1.5976  0.8187
10119TIP3   OH251771   1.696   1.076  14.682 -0.5923  0.2001  0.2084
10119TIP3    H151772   1.785   1.053  14.707 -0.0231  1.4204 -0.6224
10119TIP3    H251773   1.689   1.170  14.701 -1.6843  0.1358  0.1923
10120TIP3   OH251774   2.159   6.102  12.583  0.9818  1.0429  0.4906
10120TIP3    H151775   2.219   6.041  12.541 -0.0013 -0.0362  0.6350
10120TIP3    H251776   2.139   6.062  12.668  1.3808  2.2296  1.1746
10121TIP3   OH251777   2.063   3.213  12.253 -0.2033  0.0359  0.6620
10121TIP3    H151778   2.039   3.235  12.342 -0.8677 -0.4307  0.6105
10121TIP3    H251779   2.150   3.250  12.241 -0.8167  1.6414  0.9141
10122TIP3   OH251780   5.370   1.704   4.370  0.6689  0.0361 -0.4152
10122TIP3    H151781   5.411   1.645   4.308 -0.3346 -0.8691 -0.2370
10122TIP3    H251782   5.327   1.647   4.433  1.5802  0.9289  1.0869
10123TIP3   OH251783   1.333   1.943  16.747  0.3936  0.3917 -0.3775
10123TIP3    H151784   1.393   2.004  16.705  0.3983  0.5549 -0.1316
10123TIP3    H251785   1.289   1.994  16.815  0.9120 -0.0535  0.3085
10124TIP3   OH251786   2.706   1.141   1.070  0.0866  0.1746  0.6654
10124TIP3    H151787   2.671   1.054   1.090  1.3040 -0.4939 -0.0108
10124TIP3    H251788   2.733   1.177   1.155  0.6820 -0.6085  0.8170
10125TIP3   OH251789   1.382   5.361   4.755 -0.1598 -0.5581  0.5486
10125TIP3    H151790   1.402   5.413   4.677  1.9907 -1.2710  0.5657
10125TIP3    H251791   1.327   5.290   4.723 -1.1242  0.3553  0.1025
10126TIP3   OH251792   0.946   4.819  16.378  0.4817  0.1439 -0.0163
10126TIP3    H151793   0.982   4.743  16.332 -1.2098 -0.3627 -0.5931
10126TIP3    H251794   0.927   4.882  16.309  1.7861  1.0801  0.4535
10127TIP3   OH251795   3.160   4.200   3.122  0.6771 -0.2046  0.3745
10127TIP3    H151796   3.136   4.292   3.112  0.7556 -0.1120  1.0354
10127TIP3    H251797   3.239   4.190   3.067  1.3836  0.4224  1.2516
10128TIP3   OH251798   4.828   5.602   0.972 -0.4923 -0.4934  0.2916
10128TIP3    H151799   4.820   5.679   1.028  1.0871  0.8275 -1.1942
10128TIP3    H251800   4.742   5.593   0.930 -0.3627  1.2247 -0.4107
10129TIP3   OH251801   3.397   2.389  11.300  0.1438  0.4471 -0.5178
10129TIP3    H151802   3.339   2.386  11.223 -0.2495  0.2871 -0.2173
10129TIP3    H251803   3.343   2.427  11.369  0.6827  1.1524 -0.4744
10130TIP3   OH251804   1.279   2.251  12.669 -0.3199 -0.3082 -0.1828
10130TIP3    H151805   1.292   2.222  12.759 -2.5467 -0.4629  0.1410
10130TIP3    H251806   1.223   2.184  12.630 -0.4452  0.4158 -1.2899
10131TIP3   OH251807   4.801   0.818   4.551 -0.0186  0.3305 -0.4836
10131TIP3    H151808   4.795   0.913   4.541  1.4004  0.2218 -3.7726
10131TIP3    H251809   4.893   0.798   4.533 -0.0720 -1.6359  1.0449
10132TIP3   OH251810   1.313   1.493  12.489 -0.3712  0.1628 -0.3319
10132TIP3    H151811   1.239   1.543  12.524 -0.5024 -0.1379 -0.1813
10132TIP3    H251812   1.345   1.547  12.416 -0.4860  0.4856 -0.1440
10133TIP3   OH251813   6.101   5.667  13.308  0.1540  0.3344  0.6607
10133TIP3    H151814   6.165   5.662  13.379  1.4742  0.0339 -0.5069
10133TIP3    H251815   6.081   5.576  13.287 -1.0579  0.4280  1.3431
10134TIP3   OH251816   0.774   0.185  15.840 -0.1156 -0.3580  0.3982
10134TIP3    H151817   0.777   0.259  15.779 -1.4716  1.4450  2.3790
10134TIP3    H251818   0.700   0.132  15.809  0.0271 -0.1746 -0.2736
10135TIP3   OH251819   0.980   0.551  13.955 -0.5506  0.2420  0.9078
10135TIP3    H151820   0.931   0.631  13.973  0.6584  1.0560  0.7437
10135TIP3    H251821   0.964   0.534  13.862 -1.3860 -0.1273  1.1103
10136TIP3   OH251822   4.789   6.662   4.052  0.6497  0.3899  0.1435
10136TIP3    H151823   4.763   6.593   3.990  2.4829  0.8819 -1.2678
10136TIP3    H251824   4.814   6.615   4.131  0.9161 -0.4997 -0.4480
10137TIP3   OH251825   2.737   6.408  15.537 -0.4043 -0.1733  0.0838
10137TIP3    H151826   2.768   6.318  15.548  1.2930  0.1050 -1.8310
10137TIP3    H251827   2.680   6.405  15.460 -2.2711  0.0296  1.3766
10138TIP3   OH251828   0.141   5.837   4.214  0.1958  0.4183  0.2166
10138TIP3    H151829   0.220   5.784   4.222 -0.6172 -0.6657  1.4717
10138TIP3    H251830   0.129   5.848   4.119  1.2838 -0.2628 -0.0165
10139TIP3   OH251831   1.147   6.459   0.419  0.3509 -0.1570  0.5186
10139TIP3    H151832   1.054   6.436   0.418  0.6381 -1.3117 -0.0748
10139TIP3    H251833   1.175   6.439   0.508  0.4049 -1.3526  0.2411
10140TIP3   OH251834   4.708   3.147   2.901  0.1697  0.1047 -0.1112
10140TIP3    H151835   4.768   3.085   2.942  0.5691 -0.1533 -1.0518
10140TIP3    H251836   4.649   3.174   2.971  0.4052 -0.8402  0.4630
10141TIP3   OH251837   0.249   1.785   3.744 -0.5321 -0.2093  0.2504
10141TIP3    H151838   0.196   1.784   3.664 -0.6658 -0.2959  0.3399
10141TIP3    H251839   0.224   1.866   3.789 -1.8688 -1.0810  1.1464
10142TIP3   OH251840   5.432   1.606  13.859 -0.5543  0.1112 -0.4096
10142TIP3    H151841   5.478   1.535  13.903 -1.8594 -0.4421  0.1082
10142TIP3    H251842   5.379   1.647  13.927  0.5933  1.9742 -0.5703
10143TIP3   OH251843   2.503   2.398   0.569 -0.4742  0.5406  0.6282
10143TIP3    H151844   2.453   2.326   0.531 -1.3688  1.0778  0.7518
10143TIP3    H251845   2.537   2.446   0.493  1.3070 -0.7704  0.5354
10144TIP3   OH251846   6.001   2.510   4.458 -0.4693 -0.1666 -0.0468
10144TIP3    H151847   6.046   2.445   4.511  0.3938  0.8048  0.4593
10144TIP3    H251848   6.052   2.515   4.377  0.2211  0.7421  0.4185
10145TIP3   OH251849   2.528   3.910  12.621 -0.0527  0.3509 -0.0350
10145TIP3    H151850   2.459   3.861  12.666  1.1817 -0.7804  0.6982
10145TIP3    H251851   2.515   3.891  12.529  0.2433 -1.1880  0.2219
10146TIP3   OH251852   2.106   2.445   0.340  0.4057 -0.5354  0.0483
10146TIP3    H151853   2.181   2.389   0.360  0.3171  0.0681  2.3781
10146TIP3    H251854   2.035   2.384   0.320  1.3970 -1.1205 -2.0115
10147TIP3   OH251855   2.814   4.054   1.350  0.1337  0.1282  0.1061
10147TIP3    H151856   2.781   4.038   1.438  0.2053 -0.1795  0.0792
10147TIP3    H251857   2.875   3.982   1.334 -0.2968 -0.1319 -0.4009
10148TIP3   OH251858   2.959   6.166  16.330 -0.4800 -0.5811 -1.0080
10148TIP3    H151859   2.880   6.212  16.358  0.0781 -0.0137 -0.2825
10148TIP3    H251860   2.969   6.190  16.238 -0.9320 -0.3290 -0.9957
10149TIP3   OH251861   3.691   6.637   4.024  0.8127  0.4661  0.1588
10149TIP3    H151862   3.617   6.697   4.032  1.6191  1.5771 -0.3896
10149TIP3    H251863   3.768   6.690   4.046  1.4988 -0.5288  0.2555
10150TIP3   OH251864   3.932   1.544   3.554 -0.2077 -0.0376 -0.2129
10150TIP3    H151865   3.879   1.473   3.592 -2.2651  1.5961  0.1823
10150TIP3    H251866   3.937   1.610   3.623  0.4518  0.7992 -1.0286
10151TIP3   OH251867   6.062   3.454  15.409 -0.3580  0.4668 -0.1743
10151TIP3    H151868   6.080   3.414  15.324  0.7725  1.5736 -0.4993
10151TIP3    H251869   6.120   3.409  15.470 -1.9968 -1.1350  0.2914
10152TIP3   OH251870   3.667   6.718   3.367 -0.2591  0.1245  0.3409
10152TIP3    H151871   3.753   6.736   3.329 -1.1535  1.3416 -1.2451
10152TIP3    H251872   3.643   6.633   3.332  0.0338  0.0714  0.2648
10153TIP3   OH251873   4.088   6.776   4.978  0.5607  0.0857 -0.2553
10153TIP3    H151874   4.071   6.861   5.019 -0.9776  0.0026 -0.6428
10153TIP3    H251875   4.008   6.726   4.993  2.5044 -2.4999  2.7003
10154TIP3   OH251876   5.236   6.657  14.607  0.3676 -0.1071 -0.3206
10154TIP3    H151877   5.206   6.609  14.530  1.6871 -1.2609 -0.1588
10154TIP3    H251878   5.169   6.641  14.673  0.4864 -1.2507 -0.4583
10155TIP3   OH251879   2.610   6.459   2.404  0.2602 -0.1816 -0.6698
10155TIP3    H151880   2.647   6.454   2.316  3.3124 -2.2067  0.5604
10155TIP3    H251881   2.658   6.529   2.447 -0.6974  0.3130 -0.3849
10156TIP3   OH251882   2.861   1.683   3.084  0.0622  0.3907  0.1804
10156TIP3    H151883   2.892   1.686   3.174  0.8483  0.7231 -0.0895
10156TIP3    H251884   2.904   1.757   3.041 -1.3483  1.0480 -0.1583
10157TIP3   OH251885   2.446   6.129   6.029 -0.2090 -0.0253 -0.1487
10157TIP3    H151886   2.392   6.186   6.083  1.3282  0.1914  1.2328
10157TIP3    H251887   2.435   6.042   6.068 -2.2168 -0.6895 -1.9905
10158TIP3   OH251888   0.928   6.653   0.047 -0.1478 -0.9225 -0.1475
10158TIP3    H151889   0.979   6.731   0.067  0.6845 -0.9346 -2.0768
10158TIP3    H251890   0.982   6.580   0.079 -0.3789 -0.7815  0.5745
10159TIP3   OH251891   2.514   2.395  14.389  0.3162 -0.4571 -0.4768
10159TIP3    H151892   2.601   2.403  14.428  0.3984 -0.7317 -0.5986
10159TIP3    H251893   2.481   2.484  14.384  0.1664 -0.4457  0.5219
10160TIP3   OH251894   3.647   5.040  16.644  0.2616 -0.2734  0.2420
10160TIP3    H151895   3.597   5.116  16.615  1.7475  0.9133  0.6540
10160TIP3    H251896   3.656   4.986  16.566  0.8499  0.9568 -0.5733
10161TIP3   OH251897   0.303   1.870   2.185  0.2180 -0.4508 -0.0757
10161TIP3    H151898   0.366   1.918   2.239  0.2974 -1.9366  1.2386
10161TIP3    H251899   0.337   1.875   2.096  0.8443  0.8745  0.2189
10162TIP3   OH251900   3.626   0.394   2.252 -0.0941 -0.6290  0.4789
10162TIP3    H151901   3.715   0.358   2.255 -0.2652 -1.3022 -1.4578
10162TIP3    H251902   3.638   0.487   2.231  0.1646 -0.6834  0.3808
10163TIP3   OH251903   5.015   5.697   2.922 -0.2867 -0.4308  0.3572
10163TIP3    H151904   5.084   5.675   2.983  1.0257  2.3021  0.0256
10163TIP3    H251905   5.040   5.656   2.840 -0.3889 -1.4856  0.8443
10164TIP3   OH251906   1.081   3.693  13.344 -0.3861 -0.5564 -0.6461
10164TIP3    H151907   1.168   3.733  13.340  0.0881 -1.3914  0.6127
10164TIP3    H251908   1.098   3.600  13.362 -1.5304 -0.6901 -0.1291
10165TIP3   OH251909   1.730   3.638  11.792 -0.0622 -0.0337 -0.4264
10165TIP3    H151910   1.691   3.554  11.768 -1.4428  0.7086 -0.8544
10165TIP3    H251911   1.761   3.674  11.709 -0.2332  0.2549 -0.3648
10166TIP3   OH251912   3.205   3.422   5.411 -0.3747  0.0926 -0.9213
10166TIP3    H151913   3.168   3.383   5.490 -0.4670  2.2623  0.1951
10166TIP3    H251914   3.295   3.390   5.407 -0.7085 -0.8986 -0.5564
10167TIP3   OH251915   0.517   2.683  12.120 -0.1094 -0.0808  0.2514
10167TIP3    H151916   0.481   2.771  12.132  1.8532  0.5554  2.2987
10167TIP3    H251917   0.459   2.627  12.171 -0.4913  0.2877  0.2297
10168TIP3   OH251918   5.199   0.397   4.897  0.7268 -0.3863 -0.0264
10168TIP3    H151919   5.190   0.302   4.909 -0.0370 -0.4189 -0.7310
10168TIP3    H251920   5.136   0.435   4.958 -0.4544 -0.4176 -1.2010
10169TIP3   OH251921   1.013   1.515   3.489  0.3888 -0.5348  0.0079
10169TIP3    H151922   1.039   1.607   3.491  0.4550 -0.5357 -0.5264
10169TIP3    H251923   1.095   1.467   3.489  0.4612 -0.5267 -2.2173
10170TIP3   OH251924   5.980   1.276  13.441  0.2001  0.1252 -0.3948
10170TIP3    H151925   6.041   1.223  13.388  0.3073 -1.4624  1.2259
10170TIP3    H251926   5.904   1.218  13.455  0.3037  0.3701  1.4149
10171TIP3   OH251927   0.447   3.859   0.430  0.0737  0.1704 -0.1155
10171TIP3    H151928   0.515   3.792   0.435  1.4361  1.5005 -0.0113
10171TIP3    H251929   0.368   3.815   0.460  0.7628 -1.5714 -0.7131
10172TIP3   OH251930   3.381   4.440   5.574  0.3131 -0.1247 -0.5595
10172TIP3    H151931   3.380   4.511   5.510  0.1906 -1.1047 -1.6874
10172TIP3    H251932   3.357   4.362   5.523  1.3136 -1.1241  0.4489
10173TIP3   OH251933   6.700   2.868   3.983 -0.1632 -0.1285 -0.1644
10173TIP3    H151934   6.731   2.924   4.054  1.2257  2.3496 -2.5442
10173TIP3    H251935   6.673   2.929   3.914 -0.3104 -2.3812 -2.2517
10174TIP3   OH251936   0.647   6.215   2.071 -0.2857  0.3118  0.2059
10174TIP3    H151937   0.715   6.180   2.129  1.3449 -0.0612 -1.8345
10174TIP3    H251938   0.578   6.149   2.072  0.8266 -0.8873 -0.1940
10175TIP3   OH251939   6.218   1.901   5.648 -0.0284 -0.1299 -0.6311
10175TIP3    H151940   6.226   1.807   5.663 -0.9180 -0.1321 -0.0869
10175TIP3    H251941   6.139   1.926   5.696  0.5032  0.9944 -0.3153
10176TIP3   OH251942   1.498   3.927   4.341 -0.2412 -0.4281  0.0198
10176TIP3    H151943   1.478   3.961   4.429  1.0856  0.7846 -0.1067
10176TIP3    H251944   1.563   3.988   4.307 -0.6561 -0.9492 -1.7820
10177TIP3   OH251945   4.532   2.625   0.938 -0.0811  0.2142 -0.1262
10177TIP3    H151946   4.488   2.660   1.015 -0.5667  0.2674 -0.4242
10177TIP3    H251947   4.504   2.682   0.866  1.1195  0.7447 -0.1860
10178TIP3   OH251948   6.553   1.985   4.944 -0.1167 -0.0229 -0.1745
10178TIP3    H151949   6.490   2.047   4.908  0.6274  1.3958  0.8711
10178TIP3    H251950   6.503   1.903   4.951 -1.4544  0.7148 -0.5974
10179TIP3   OH251951   5.723   2.978  11.444  0.1855  0.0199  0.2628
10179TIP3    H151952   5.785   3.050  11.456  1.9488 -1.4194  0.2444
10179TIP3    H251953   5.698   2.953  11.532  0.4878 -0.1101  0.3107
10180TIP3   OH251954   6.331   3.351   3.745  0.2098 -0.1808 -0.1253
10180TIP3    H151955   6.411   3.364   3.796  0.9188 -1.7886 -0.7562
10180TIP3    H251956   6.260   3.359   3.809  0.9636 -0.3101  0.7474
10181TIP3   OH251957   4.747   5.653   5.800  0.8039  0.5536 -0.2413
10181TIP3    H151958   4.719   5.620   5.715  1.2033 -1.4080  0.3385
10181TIP3    H251959   4.674   5.634   5.859  1.9088 -1.4811  0.5685
10182TIP3   OH251960   6.477   3.177   3.206  0.0541 -0.1512  0.4311
10182TIP3    H151961   6.409   3.163   3.272 -1.3809  1.5288 -0.6155
10182TIP3    H251962   6.446   3.252   3.155  1.0659 -1.4555 -2.2424
10183TIP3   OH251963   3.788   5.989   5.298 -0.4538 -0.0946  0.3342
10183TIP3    H151964   3.707   5.961   5.342 -0.5775 -1.9115 -0.9314
10183TIP3    H251965   3.809   5.917   5.239  1.5392  0.8055 -0.1366
10184TIP3   OH251966   5.382   1.210  14.177 -0.2559 -0.0228  0.6028
10184TIP3    H151967   5.407   1.188  14.266 -0.9199 -0.6813  0.6382
10184TIP3    H251968   5.295   1.248  14.185  0.2948  1.3242  0.3817
10185TIP3   OH251969   5.829   5.956  13.464 -0.3149  0.2302 -0.4665
10185TIP3    H151970   5.765   6.026  13.474  2.3144  3.1774 -2.1524
10185TIP3    H251971   5.811   5.919  13.378  0.1750  1.1226 -0.9818
10186TIP3   OH251972   2.317   2.039  16.686 -0.1043 -0.3098  0.0404
10186TIP3    H151973   2.271   2.051  16.770  0.2788 -0.4188  0.2698
10186TIP3    H251974   2.326   2.128  16.651  0.3547 -0.1870  0.4538
10187TIP3   OH251975   5.771   3.207  17.051 -0.0426 -0.1489  0.2162
10187TIP3    H151976   5.730   3.135  17.098 -1.0732  0.2484 -0.0667
10187TIP3    H251977   5.771   3.279  17.114 -1.2427  0.3244 -0.2980
10188TIP3   OH251978   2.434   3.236   4.737  0.0795  0.5007 -0.1703
10188TIP3    H151979   2.367   3.271   4.678  0.4884  0.0728 -0.9047
10188TIP3    H251980   2.465   3.311   4.786  0.2115  0.9894 -0.9815
10189TIP3   OH251981   5.649   6.727   3.408  0.1030 -0.6780  0.0573
10189TIP3    H151982   5.660   6.812   3.449  1.6957 -1.1121  0.6206
10189TIP3    H251983   5.736   6.703   3.379 -0.1894 -2.3689  0.4520
10190TIP3   OH251984   1.909   4.907  13.227 -0.4706 -0.3116 -0.0594
10190TIP3    H151985   1.965   4.957  13.167 -0.2819 -1.7505 -1.1558
10190TIP3    H251986   1.941   4.817  13.219 -0.2647 -0.5333  2.4461
10191TIP3   OH251987   6.263   3.278   2.411  0.3022 -0.2130  0.2116
10191TIP3    H151988   6.202   3.296   2.339 -0.5522  0.5104  1.0695
10191TIP3    H251989   6.324   3.213   2.376  1.4802  1.9056 -2.0141
10192TIP3   OH251990   6.503   2.196  15.132 -0.1041  0.3920 -0.6547
10192TIP3    H151991   6.454   2.276  15.117 -1.1952  0.4428  2.4854
10192TIP3    H251992   6.573   2.222  15.193 -0.0800 -0.8851 -0.1034
10193TIP3   OH251993   6.054   0.529   4.672 -0.7681 -0.4459 -0.2207
10193TIP3    H151994   6.131   0.527   4.615 -0.7095  2.4436 -0.4305
10193TIP3    H251995   6.064   0.453   4.729  0.3394 -2.1666 -2.5573
10194TIP3   OH251996   6.779   2.706   3.672 -0.0560  0.5607  0.2680
10194TIP3    H151997   6.839   2.746   3.735 -0.0060 -1.7180  1.7754
10194TIP3    H251998   6.743   2.630   3.718  0.9330 -1.9840 -2.8141
10195TIP3   OH251999   5.004   0.904  14.940  0.1923 -0.4484  0.4794
10195TIP3    H152000   4.946   0.884  14.866  0.0466 -0.7212  0.6672
10195TIP3    H252001   5.062   0.828  14.946  0.1349 -0.4723  0.7152
10196TIP3   OH252002   5.894   3.151  16.485  0.0236  0.0758  0.3811
10196TIP3    H152003   5.820   3.092  16.476  0.5204 -0.2925 -1.6296
10196TIP3    H252004   5.966   3.096  16.515  0.4107 -0.3220 -1.2141
10197TIP3   OH252005   0.715   6.581   3.176 -0.1995 -0.3293 -0.9102
10197TIP3    H152006   0.772   6.624   3.112  0.5547  1.2413  0.7229
10197TIP3    H252007   0.756   6.496   3.191  0.7966  0.1204 -0.9888
10198TIP3   OH252008   0.292   6.286   5.813 -0.0639 -0.5757 -0.2492
10198TIP3    H152009   0.380   6.280   5.776 -0.0457 -1.6626 -0.0869
10198TIP3    H252010   0.237   6.315   5.740  0.8071  3.0343  0.3335
10199TIP3   OH252011   1.223   0.669   3.938 -0.1885 -0.5265  0.1624
10199TIP3    H152012   1.165   0.597   3.915 -0.1082  0.0023 -1.9159
10199TIP3    H252013   1.294   0.664   3.873 -0.3058  1.5264 -0.1927
10200TIP3   OH252014   4.048   3.335  14.020 -1.0176 -0.4095 -0.2959
10200TIP3    H152015   3.962   3.322  13.981 -0.4860 -0.5490 -1.4690
10200TIP3    H252016   4.109   3.329  13.946 -0.0647  0.4348  0.3941
10201TIP3   OH252017   1.760   5.659   6.316 -0.0135 -1.0576 -0.2849
10201TIP3    H152018   1.666   5.647   6.333 -0.0216  0.1730  0.6187
10201TIP3    H252019   1.799   5.669   6.403  0.5625  1.0376 -0.7342
10202TIP3   OH252020   6.630   2.719   1.133  0.4138 -0.1135 -0.1063
10202TIP3    H152021   6.592   2.801   1.102  1.6939  0.6190  0.2067
10202TIP3    H252022   6.724   2.732   1.128  0.6558 -1.7393 -0.4734
10203TIP3   OH252023   6.666   4.700   2.423  0.4099  0.1704 -0.1546
10203TIP3    H152024   6.607   4.712   2.348 -2.2791 -0.8864  1.6127
10203TIP3    H252025   6.653   4.779   2.476 -0.4346 -0.5848  0.8224
10204TIP3   OH252026   0.809   1.608   2.338  0.4471 -0.2392 -0.2330
10204TIP3    H152027   0.758   1.620   2.418  0.0735 -1.8770 -0.1908
10204TIP3    H252028   0.756   1.550   2.284  2.3740 -2.3273 -0.0311
10205TIP3   OH252029   4.061   3.040   5.535  0.4240  0.1207  0.0796
10205TIP3    H152030   4.141   3.029   5.483  0.6907 -0.4687  0.6083
10205TIP3    H252031   4.040   2.952   5.566  0.0885  0.4156  0.7053
10206TIP3   OH252032   5.467   1.700   0.961  0.7689 -0.3646 -0.2832
10206TIP3    H152033   5.557   1.686   0.933  0.6450  0.1855 -1.0055
10206TIP3    H252034   5.436   1.773   0.907  0.0115 -0.2969  0.2169
10207TIP3   OH252035   0.064   2.357   3.734 -0.0298  0.1707 -0.0206
10207TIP3    H152036   0.104   2.418   3.672 -0.4603  1.9011  1.3498
10207TIP3    H252037   0.111   2.370   3.816 -0.4060 -1.0535  0.4208
10208TIP3   OH252038   4.705   2.529  14.847  0.0622  0.0838 -0.2210
10208TIP3    H152039   4.664   2.545  14.932  0.4388 -2.5567  0.5413
10208TIP3    H252040   4.634   2.541  14.784 -0.6209  0.5106  0.6093
10209TIP3   OH252041   4.630   5.742   2.392  0.2360  0.6377  0.5707
10209TIP3    H152042   4.552   5.788   2.423 -0.1575  1.1018 -1.0351
10209TIP3    H252043   4.699   5.808   2.394 -0.2125  1.2045 -1.2436
10210TIP3   OH252044   6.592   0.277   4.144 -0.2811 -1.1252  0.5460
10210TIP3    H152045   6.618   0.189   4.172 -1.3520 -0.6931  3.2585
10210TIP3    H252046   6.674   0.323   4.128  0.3133 -2.3026  0.0536
10211TIP3   OH252047   3.559   5.719  14.734  0.1262  0.2810 -0.4099
10211TIP3    H152048   3.575   5.634  14.775  0.5248  0.0858 -0.9583
10211TIP3    H252049   3.508   5.698  14.656 -0.7358  0.6610  0.0323
10212TIP3   OH252050   6.131   3.482  14.980 -0.0579  0.3616 -0.5899
10212TIP3    H152051   6.200   3.545  14.996 -0.3353  1.2195 -2.4588
10212TIP3    H252052   6.069   3.528  14.923 -0.6891 -1.3071 -1.3435
10213TIP3   OH252053   2.225   3.440  11.413  0.0506 -0.4007  0.5640
10213TIP3    H152054   2.280   3.364  11.436  0.5231  0.2874  1.7713
10213TIP3    H252055   2.244   3.505  11.480 -0.6180  0.6752 -0.2523
10214TIP3   OH252056   3.357   1.525  13.431  0.4278 -0.0250  0.1492
10214TIP3    H152057   3.351   1.579  13.510 -1.1185  3.0815 -1.8767
10214TIP3    H252058   3.272   1.483  13.424  0.4866 -0.1225  0.0082
10215TIP3   OH252059   5.547   1.454   5.331 -0.1290 -0.2085 -0.1972
10215TIP3    H152060   5.607   1.487   5.264 -0.6142  0.0176 -0.5258
10215TIP3    H252061   5.518   1.532   5.378 -1.9286 -0.0162 -1.5115
10216TIP3   OH252062   4.078   4.689   6.209 -0.0870  0.1401 -0.3979
10216TIP3    H152063   4.122   4.685   6.124  1.7466 -0.4064  0.5261
10216TIP3    H252064   4.140   4.650   6.270  0.1358  3.6307  1.8228
10217TIP3   OH252065   2.603   2.948  14.584  0.2274  0.1016  0.1330
10217TIP3    H152066   2.533   2.940  14.519 -0.4890  1.3011  0.7274
10217TIP3    H252067   2.560   2.930  14.668  0.7310  0.3922  0.4571
10218TIP3   OH252068   2.519   6.795   5.662 -0.1488  0.1304  0.0404
10218TIP3    H152069   2.520   6.873   5.717 -1.4271  0.0177  0.2623
10218TIP3    H252070   2.598   6.801   5.609 -0.1742  1.5193  0.1425
10219TIP3   OH252071   0.076   4.162   4.784 -0.0678 -0.0822 -0.1510
10219TIP3    H152072   0.002   4.113   4.748  0.3454 -0.9444  0.1395
10219TIP3    H252073   0.040   4.246   4.810 -0.7712 -0.1831 -0.7821
10220TIP3   OH252074   2.839   4.217  11.629  0.2782 -0.3034  0.0551
10220TIP3    H152075   2.784   4.205  11.707 -0.8436  1.7204 -0.3663
10220TIP3    H252076   2.779   4.202  11.556  0.9661 -0.7072 -0.4278
10221TIP3   OH252077   2.668   0.960  15.290 -0.4008  0.4056  0.0486
10221TIP3    H152078   2.625   0.927  15.211 -1.1454  1.6940 -0.1247
10221TIP3    H252079   2.609   1.029  15.322 -0.1394 -0.1188  1.7661
10222TIP3   OH252080   4.822   4.595  17.163 -0.5506  0.1248  0.6339
10222TIP3    H152081   4.780   4.520  17.206 -1.3749  1.3790  2.1079
10222TIP3    H252082   4.896   4.616  17.220 -0.6340  0.7478  0.5156
10223TIP3   OH252083   0.273   3.698  16.525 -0.8318  0.2704 -0.0710
10223TIP3    H152084   0.237   3.648  16.452 -1.4854  0.4416  0.1247
10223TIP3    H252085   0.244   3.651  16.603 -1.2006  0.7816  0.1053
10224TIP3   OH252086   3.240   4.982   1.947  0.1266  0.3323  0.1790
10224TIP3    H152087   3.196   5.066   1.957  0.1069  0.2986  0.3882
10224TIP3    H252088   3.310   4.984   2.013  1.1182  0.8226 -0.8593
10225TIP3   OH252089   3.638   5.192   4.621 -0.6317 -0.0978 -0.0545
10225TIP3    H152090   3.587   5.117   4.652  2.0804 -2.6256 -1.2851
10225TIP3    H252091   3.703   5.207   4.690  0.6280 -0.7918 -1.0540
10226TIP3   OH252092   1.198   5.956  13.636  0.3710  0.1916  0.8887
10226TIP3    H152093   1.285   5.978  13.602  0.3458  2.2426  2.0021
10226TIP3    H252094   1.138   6.006  13.581 -0.0743 -0.7437  0.5112
10227TIP3   OH252095   1.554   0.907   3.985 -0.1886  0.0280  0.0986
10227TIP3    H152096   1.573   0.837   4.048 -0.2911  1.2153  1.4905
10227TIP3    H252097   1.559   0.988   4.036  1.4102  1.1929 -1.7690
10228TIP3   OH252098   3.198   5.679  16.642 -0.3696  0.1536  0.4797
10228TIP3    H152099   3.150   5.640  16.568 -0.5152  0.4777  0.4016
10228TIP3    H252100   3.251   5.608  16.676  1.0498  0.4158 -1.0386
10229TIP3   OH252101   1.679   1.831   1.856  0.3584 -0.2510 -0.8537
10229TIP3    H152102   1.708   1.883   1.781 -0.9390  0.9209 -0.5699
10229TIP3    H252103   1.715   1.875   1.932 -0.4292  0.0233 -0.6335
10230TIP3   OH252104   5.692   5.231   1.403 -0.4648  0.3576  0.2922
10230TIP3    H152105   5.723   5.284   1.330 -0.0768 -0.7752 -0.3899
10230TIP3    H252106   5.613   5.276   1.434  0.0294  1.4927 -0.0455
10231TIP3   OH252107   3.010   1.199  14.398  0.1172  0.4947 -0.6395
10231TIP3    H152108   3.007   1.198  14.493 -1.6294 -2.2018 -0.5926
10231TIP3    H252109   2.925   1.234  14.371  0.7018  1.5010 -1.2435
10232TIP3   OH252110   0.363   6.723  16.958  0.2007  0.2519  0.2714
10232TIP3    H152111   0.327   6.809  16.939 -0.2869 -0.4158 -2.1737
10232TIP3    H252112   0.445   6.719  16.909  2.0930  0.5207  3.1418
10233TIP3   OH252113   2.543   6.152   2.041  0.1616  0.1350  0.7021
10233TIP3    H152114   2.566   6.190   1.957 -0.7629  0.5556  0.6237
10233TIP3    H252115   2.482   6.215   2.080 -1.5879 -1.3515  0.4806
10234TIP3   OH252116   1.795   1.132   5.724  0.0621 -0.5823 -0.5533
10234TIP3    H152117   1.799   1.198   5.655 -0.0733 -1.1347 -1.0983
10234TIP3    H252118   1.730   1.070   5.693  1.1773 -1.7128 -0.7249
10235TIP3   OH252119   0.128   6.754  12.509  0.3855 -0.0719 -0.2034
10235TIP3    H152120   0.064   6.699  12.464  0.5087 -0.8664  0.5575
10235TIP3    H252121   0.084   6.838  12.520 -0.7149 -0.7325  0.6983
10236TIP3   OH252122   0.942   0.694  13.610 -0.0993 -0.0100 -0.1932
10236TIP3    H152123   0.960   0.739  13.693  1.6271  0.5913 -0.8496
10236TIP3    H252124   0.886   0.620  13.635  2.6616 -1.5872  2.0413
10237TIP3   OH252125   5.386   1.624  13.219  0.5708 -0.3936  0.2914
10237TIP3    H152126   5.384   1.537  13.260 -1.5468 -0.1630  0.7701
10237TIP3    H252127   5.303   1.664  13.245  0.0298  0.5374 -2.6140
10238TIP3   OH252128   2.900   2.353   5.443  0.4098  0.1481  0.4175
10238TIP3    H152129   2.983   2.324   5.405  0.0921  0.3283 -0.4105
10238TIP3    H252130   2.906   2.326   5.535  0.8614 -0.9795  0.0791
10239TIP3   OH252131   1.916   0.895  14.768  0.3862  0.1699  0.0207
10239TIP3    H152132   1.926   0.809  14.810 -0.2317 -0.2854 -0.7415
10239TIP3    H252133   1.934   0.879  14.676 -0.1083  0.7844 -0.1904
10240TIP3   OH252134   0.982   2.255   0.521  0.0979  0.0209  0.4367
10240TIP3    H152135   0.917   2.205   0.572  0.2034  0.3630  0.9134
10240TIP3    H252136   0.929   2.313   0.467 -0.0518 -1.1184 -0.6742
10241TIP3   OH252137   3.701   2.755   2.939 -0.1390 -0.3434  0.0197
10241TIP3    H152138   3.621   2.764   2.887  0.4512 -0.0882 -0.8468
10241TIP3    H252139   3.767   2.806   2.893  0.4643 -0.3154  0.8838
10242TIP3   OH252140   6.414   4.949   5.196 -0.5103  0.2191 -0.0101
10242TIP3    H152141   6.429   4.880   5.132 -0.3773  0.8854 -0.7167
10242TIP3    H252142   6.325   4.981   5.177 -0.9840 -0.4540  0.9989
10243TIP3   OH252143   3.001   6.472  14.363 -0.1472  0.4211 -0.4458
10243TIP3    H152144   3.017   6.541  14.299 -1.7018  0.5126 -0.7826
10243TIP3    H252145   2.943   6.512  14.428  2.1025  0.6215  1.6084
10244TIP3   OH252146   0.124   0.531   4.422 -0.5185  0.1552  0.1930
10244TIP3    H152147   0.091   0.581   4.348 -2.7089 -0.7944  0.4534
10244TIP3    H252148   0.046   0.494   4.463  0.8233 -1.4017  1.4947
10245TIP3   OH252149   6.198   2.482  10.520 -0.8062  0.0616  0.0639
10245TIP3    H152150   6.140   2.409  10.538  0.0734 -1.3871 -2.5069
10245TIP3    H252151   6.285   2.451  10.547 -0.5306  0.4384 -0.3673
10246TIP3   OH252152   0.771   1.732   2.582  0.6430  0.2509 -0.5051
10246TIP3    H152153   0.815   1.788   2.646  0.4197  0.4140 -0.4934
10246TIP3    H252154   0.747   1.653   2.632  1.0296  0.1111 -0.5422
10247TIP3   OH252155   6.464   4.746   4.993 -0.0976 -0.1432  0.1151
10247TIP3    H152156   6.536   4.683   5.003 -0.3760 -0.2897  1.3387
10247TIP3    H252157   6.387   4.691   4.978 -0.5731 -0.2243  2.4737
10248TIP3   OH252158   1.146   4.005   6.270 -0.2971 -0.7325  0.1317
10248TIP3    H152159   1.198   3.932   6.235  0.2467 -0.8441  1.1429
10248TIP3    H252160   1.081   4.022   6.202  1.5533 -0.0438 -1.5520
10249TIP3   OH252161   5.510   0.719   1.578 -0.2565  0.6515 -0.4620
10249TIP3    H152162   5.584   0.778   1.590  0.1954  0.3305 -1.5350
10249TIP3    H252163   5.514   0.660   1.653 -0.1678  1.4004  0.1356
10250TIP3   OH252164   2.060   4.810   2.005  0.4978  0.1436 -0.6122
10250TIP3    H152165   2.033   4.840   1.918  0.4387 -1.3847 -1.1590
10250TIP3    H252166   2.151   4.838   2.013  1.3747 -1.9726 -2.3198
10251TIP3   OH252167   0.118   1.789  15.653 -0.3808  0.2161 -0.0410
10251TIP3    H152168   0.180   1.727  15.614 -1.6656 -0.6032 -0.8282
10251TIP3    H252169   0.091   1.845  15.581  0.6910  1.6906  0.6419
10252TIP3   OH252170   4.821   0.574  12.865 -0.2591 -0.2914 -0.8412
10252TIP3    H152171   4.858   0.491  12.836 -1.2643 -0.9958 -0.1598
10252TIP3    H252172   4.734   0.552  12.897 -1.4794  1.3722 -2.7853
10253TIP3   OH252173   4.013   0.559   1.948  0.6227 -0.2778  0.2723
10253TIP3    H152174   4.035   0.614   2.023 -1.3025  1.3863 -0.3052
10253TIP3    H252175   3.989   0.620   1.878  0.2032 -1.8065 -1.0061
10254TIP3   OH252176   5.828   2.360   4.929 -0.0753  0.1062 -0.1482
10254TIP3    H152177   5.851   2.289   4.989 -2.4065  0.4763  1.2710
10254TIP3    H252178   5.783   2.316   4.857 -2.1448  0.1295  1.0636
10255TIP3   OH252179   1.619   1.648  15.775 -0.4566 -0.1009  0.2801
10255TIP3    H152180   1.558   1.613  15.839  0.4927 -0.0030  1.2667
10255TIP3    H252181   1.576   1.726  15.740 -1.8730 -1.2920 -0.7319
10256TIP3   OH252182   4.115   6.522  16.635 -0.2500 -0.5476 -0.0717
10256TIP3    H152183   4.199   6.551  16.672 -0.3654 -0.3004 -0.0003
10256TIP3    H252184   4.131   6.431  16.608 -0.0045 -0.5515  0.0805
10257TIP3   OH252185   1.106   2.653  16.533  0.1025 -0.6547  0.9166
10257TIP3    H152186   1.080   2.563  16.554 -3.1489 -0.0195  0.1646
10257TIP3    H252187   1.153   2.645  16.449  0.0984 -1.6485  0.9983
10258TIP3   OH252188   3.530   5.455  12.664  0.2957  0.2785 -0.0818
10258TIP3    H152189   3.524   5.485  12.573 -0.2818  0.9279  0.1651
10258TIP3    H252190   3.470   5.381  12.669 -0.4384  0.8718  0.0160
10259TIP3   OH252191   5.786   3.481  15.842  0.8819  0.0865  0.5912
10259TIP3    H152192   5.735   3.550  15.883  0.5068  0.2276 -0.0945
10259TIP3    H252193   5.874   3.489  15.880  0.9325  1.1551  0.2656
10260TIP3   OH252194   0.014   6.122   3.168  0.2890  0.0795 -0.2836
10260TIP3    H152195   0.095   6.097   3.124  1.8211  0.9796  1.8630
10260TIP3    H252196  -0.000   6.053   3.233 -0.4080  0.1842 -0.3142
10261TIP3   OH252197   6.600   2.534   5.146  0.4112  0.2695  0.0059
10261TIP3    H152198   6.604   2.447   5.185  0.4136 -0.4783 -1.5887
10261TIP3    H252199   6.673   2.581   5.186  1.9819 -1.2621 -0.9225
10262TIP3   OH252200   0.782   0.006  16.049 -0.4047  0.3052  0.1056
10262TIP3    H152201   0.767   0.086  15.999  0.5901  1.5069  1.6387
10262TIP3    H252202   0.764   0.030  16.140  1.4228 -0.7447  0.8034
10263TIP3   OH252203   6.270   2.670   0.018 -0.6677 -0.2536  0.1942
10263TIP3    H152204   6.251   2.732  -0.053 -0.9019  0.6829  1.0459
10263TIP3    H252205   6.346   2.707   0.062 -0.9655 -0.4269  0.8684
10264TIP3   OH252206   3.471   5.836  14.171  0.3804  0.1853  0.5891
10264TIP3    H152207   3.534   5.904  14.146 -0.1219  0.3864 -0.1568
10264TIP3    H252208   3.460   5.784  14.091 -0.0977 -0.0881  0.8321
10265TIP3   OH252209   0.303   3.673   0.888 -0.1528  0.8515  0.0592
10265TIP3    H152210   0.325   3.668   0.981  1.2824  1.6085 -0.2035
10265TIP3    H252211   0.378   3.633   0.843 -0.8184  0.5136 -0.7738
10266TIP3   OH252212   4.463   5.757   1.578 -0.1552 -0.4462  0.1304
10266TIP3    H152213   4.521   5.808   1.521 -0.3272  0.1368  0.4703
10266TIP3    H252214   4.486   5.784   1.667 -1.5114  0.4485  0.2466
10267TIP3   OH252215   0.687   0.868  13.472  0.7585 -0.1677 -0.1337
10267TIP3    H152216   0.721   0.864  13.561 -0.4174 -1.4349  0.3018
10267TIP3    H252217   0.763   0.890  13.418  1.6281 -0.0547  1.0943
10268TIP3   OH252218   6.128   3.094  10.815 -0.3396  0.5274  0.8058
10268TIP3    H152219   6.077   3.030  10.767 -0.1476  0.6850  0.3892
10268TIP3    H252220   6.200   3.117  10.757  0.3707  0.1036  1.4915
10269TIP3   OH252221   3.017   1.190  12.393  0.1005  0.1080 -0.5998
10269TIP3    H152222   2.978   1.277  12.395 -1.2023 -0.4593 -0.6119
10269TIP3    H252223   2.983   1.150  12.313 -1.7793 -1.4850  0.9135
10270TIP3   OH252224   0.488   5.032  14.593 -0.1978 -0.3226  0.2086
10270TIP3    H152225   0.438   5.100  14.638 -0.7247  0.9672 -2.1440
10270TIP3    H252226   0.426   4.994  14.530  1.2445  0.1797 -1.6322
10271TIP3   OH252227   0.203   6.014   1.104 -0.0218  0.0909  0.0755
10271TIP3    H152228   0.109   6.024   1.117  0.2505  3.0743  0.5622
10271TIP3    H252229   0.239   6.101   1.122  2.8273 -0.9086 -0.2437
10272TIP3   OH252230   2.372   1.432  15.465 -0.6589  0.0515  0.5722
10272TIP3    H152231   2.370   1.371  15.539  0.5340 -0.2128  0.4097
10272TIP3    H252232   2.294   1.486  15.476 -0.8557 -0.4261  1.6493
10273TIP3   OH252233   5.806   3.840   1.337 -1.1962 -0.4627 -0.2636
10273TIP3    H152234   5.760   3.831   1.253  0.0497  0.4338 -1.0850
10273TIP3    H252235   5.810   3.935   1.351 -0.6656 -0.5800  0.3984
10274TIP3   OH252236   0.587   2.185  15.742  0.2526 -0.2893 -0.1445
10274TIP3    H152237   0.637   2.116  15.786  0.2170  0.0123  0.3709
10274TIP3    H252238   0.530   2.221  15.810  0.7330  0.6901 -0.2331
10275TIP3   OH252239   2.290   4.572   3.761 -0.0698  0.1590 -0.1756
10275TIP3    H152240   2.379   4.570   3.726 -0.1761 -0.4507 -0.4138
10275TIP3    H252241   2.235   4.597   3.686 -0.0440  1.0664  0.0975
10276TIP3   OH252242   6.015   4.498  12.059  0.2294 -0.0862 -0.1181
10276TIP3    H152243   5.996   4.591  12.074  1.3497 -0.0201  1.1448
10276TIP3    H252244   5.954   4.452  12.116  0.4052 -0.0732  0.0831
10277TIP3   OH252245   6.696   1.266   4.950 -0.0498 -0.1175 -0.1766
10277TIP3    H152246   6.674   1.276   5.043  0.2777  0.8669 -0.1974
10277TIP3    H252247   6.792   1.272   4.948 -0.1214  0.9249 -0.7020
10278TIP3   OH252248   2.898   0.615   0.733  0.3098 -0.0435  0.1870
10278TIP3    H152249   2.988   0.623   0.703  1.4345 -1.3018  2.9104
10278TIP3    H252250   2.902   0.553   0.806 -3.1291 -1.8618 -0.9563
10279TIP3   OH252251   5.550   2.934  16.873  0.1263  0.1287 -0.3371
10279TIP3    H152252   5.499   2.873  16.819 -0.0057 -0.1431  0.0847
10279TIP3    H252253   5.613   2.878  16.919 -0.5042  0.1912  0.6474
10280TIP3   OH252254   6.205   0.389   2.058  0.6133  0.3863  0.2896
10280TIP3    H152255   6.284   0.425   2.017  0.1071  0.4923 -0.6440
10280TIP3    H252256   6.142   0.461   2.053 -0.0160 -0.1913 -0.4249
10281TIP3   OH252257   2.234   1.996   5.564  0.3729 -0.4672  0.3985
10281TIP3    H152258   2.158   2.042   5.602 -1.4530 -1.3868 -1.8645
10281TIP3    H252259   2.261   2.052   5.491  0.9701 -0.8629  0.3130
10282TIP3   OH252260   1.798   1.441   4.103 -0.2564  0.0400 -0.0162
10282TIP3    H152261   1.851   1.521   4.113 -0.3423  0.0162  0.6681
10282TIP3    H252262   1.811   1.393   4.184 -0.0927 -0.7245 -0.4832
10283TIP3   OH252263   1.027   1.868  16.243 -0.6504  0.1537 -0.2447
10283TIP3    H152264   1.066   1.802  16.186 -2.4979 -0.2589 -1.1150
10283TIP3    H252265   0.984   1.817  16.312 -1.7372  0.4256 -0.6935
10284TIP3   OH252266   0.839   1.285  13.435 -0.3600  0.0292  0.6250
10284TIP3    H152267   0.859   1.379  13.434 -0.5602  0.0742  0.0036
10284TIP3    H252268   0.744   1.281  13.436 -0.3879 -0.1832  3.5491
10285TIP3   OH252269   2.951   5.519   4.257  0.3999  0.1228  0.2798
10285TIP3    H152270   2.916   5.609   4.252  0.3700  0.0592 -0.9384
10285TIP3    H252271   3.029   5.521   4.202  0.3490 -0.6172  0.1774
10286TIP3   OH252272   4.352   1.058  16.552 -0.2611  0.1186 -0.2253
10286TIP3    H152273   4.382   1.138  16.595  0.0253 -0.1329  0.0494
10286TIP3    H252274   4.317   1.087  16.468 -1.0929  0.6652  0.2847
10287TIP3   OH252275   0.868   0.433   5.460 -0.0795 -0.0900 -0.2177
10287TIP3    H152276   0.804   0.496   5.494 -0.3925 -0.7981  0.5304
10287TIP3    H252277   0.928   0.418   5.532 -0.7001 -1.5421  0.0388
10288TIP3   OH252278   3.379   1.201   4.355  0.4921 -0.1832 -0.4360
10288TIP3    H152279   3.442   1.153   4.300  1.7910 -1.8315  2.2752
10288TIP3    H252280   3.432   1.239   4.424 -1.3333 -0.4968  1.2109
10289TIP3   OH252281   4.964   0.044   4.314 -0.1849  0.1012  0.2517
10289TIP3    H152282   4.966   0.003   4.400  0.7265 -0.9481 -0.2438
10289TIP3    H252283   5.049   0.023   4.275 -0.8036  0.0438 -1.1369
10290TIP3   OH252284   4.430   6.267   5.120 -0.1995 -0.2283 -0.0447
10290TIP3    H152285   4.345   6.238   5.153 -0.6914  2.0829  0.8783
10290TIP3    H252286   4.414   6.290   5.029 -0.9473  1.4685  0.4789
10291TIP3   OH252287   4.902   5.631   0.281 -0.5896  0.0304 -0.1560
10291TIP3    H152288   4.849   5.707   0.306  1.9482  1.7264  0.4767
10291TIP3    H252289   4.953   5.611   0.359  0.2767 -1.0277 -0.9690
10292TIP3   OH252290   0.122   1.767   3.486 -0.6839 -0.1071 -0.1307
10292TIP3    H152291   0.168   1.704   3.431 -0.7352 -0.5846  0.3556
10292TIP3    H252292   0.029   1.753   3.465 -0.6105  0.9731 -1.2346
10293TIP3   OH252293   4.234   1.813   2.123  0.6752 -0.2150 -0.5820
10293TIP3    H152294   4.279   1.892   2.154 -1.1648  0.8291 -0.4764
10293TIP3    H252295   4.291   1.741   2.152  2.1520  1.0200 -0.2641
10294TIP3   OH252296   2.964   3.855   1.202  0.7473 -0.1378  0.0402
10294TIP3    H152297   3.027   3.787   1.176 -0.0659 -1.0560  0.4324
10294TIP3    H252298   2.879   3.816   1.186  0.2259 -0.0384  2.3283
10295TIP3   OH252299   0.984   1.683  15.650 -0.1367  0.2148  0.2616
10295TIP3    H152300   0.975   1.695  15.556 -0.8599  0.3052  0.3349
10295TIP3    H252301   1.040   1.606  15.659 -0.8750 -0.3982 -0.2570
10296TIP3   OH252302   4.980   3.249  16.981 -1.0606 -0.2789 -0.5822
10296TIP3    H152303   4.985   3.272  16.888 -2.1881 -3.5439 -1.5900
10296TIP3    H252304   4.913   3.308  17.017 -0.3868  1.2509 -1.7215
10297TIP3   OH252305   2.010   6.241  11.800  0.3734 -0.2917 -0.2120
10297TIP3    H152306   1.931   6.204  11.840  1.1824  0.1915  1.9925
10297TIP3    H252307   1.983   6.325  11.765  0.1405  0.5270  1.8055
10298TIP3   OH252308   3.238   0.211  14.367 -0.1027 -0.6979  0.4127
10298TIP3    H152309   3.328   0.240  14.353 -0.6579 -0.0704 -2.4531
10298TIP3    H252310   3.246   0.120  14.397  1.4620 -0.5951  0.3872
10299TIP3   OH252311   2.589   5.696   5.733  0.2628 -0.7110  0.3083
10299TIP3    H152312   2.523   5.676   5.666  1.0521 -1.2209 -0.3371
10299TIP3    H252313   2.563   5.642   5.808 -1.9603  1.5558  1.3107
10300TIP3   OH252314   5.390   2.499  17.099  0.1421  0.7093 -0.1715
10300TIP3    H152315   5.341   2.428  17.057  0.6351  0.0455  0.3477
10300TIP3    H252316   5.476   2.497  17.057  0.1435  1.0334 -0.1859
10301TIP3   OH252317   3.108   4.710   2.539  0.3223  0.3792 -0.3267
10301TIP3    H152318   3.149   4.714   2.626 -0.1314 -0.6817 -0.0514
10301TIP3    H252319   3.096   4.617   2.522  1.8129  0.4644 -2.2245
10302TIP3   OH252320   5.491   0.607  14.483 -0.3909  0.0060 -0.1901
10302TIP3    H152321   5.474   0.569  14.397  0.5183 -1.5793  0.2815
10302TIP3    H252322   5.586   0.614  14.488 -0.4255 -0.0278  0.7155
10303TIP3   OH252323   6.352   6.506   3.784  0.0567  0.4147  0.4833
10303TIP3    H152324   6.310   6.590   3.767 -0.0002  0.7737  2.2628
10303TIP3    H252325   6.284   6.441   3.764  0.0168  0.7790 -0.6373
10304TIP3   OH252326   1.510   1.999   6.082 -0.4785  0.2929  0.0453
10304TIP3    H152327   1.530   1.914   6.121 -2.0634 -0.2944 -0.3387
10304TIP3    H252328   1.577   2.011   6.014 -0.0562 -0.4907  0.3086
10305TIP3   OH252329   4.729   6.743  16.769  0.3270 -0.0839  0.1690
10305TIP3    H152330   4.694   6.736  16.858 -0.5631  1.2566 -0.0381
10305TIP3    H252331   4.703   6.661  16.727 -2.2306  0.6188  0.1843
10306TIP3   OH252332   2.388   1.103  17.106 -0.2746  0.7775 -0.2686
10306TIP3    H152333   2.425   1.016  17.121 -1.4170 -0.1355 -2.3319
10306TIP3    H252334   2.461   1.155  17.071 -0.2599 -0.2391 -1.8320
10307TIP3   OH252335   1.336   5.724   3.122 -0.1966  0.4938  0.4028
10307TIP3    H152336   1.397   5.713   3.195  0.6249  1.9010 -0.0461
10307TIP3    H252337   1.391   5.751   3.049 -1.3181  1.5652 -0.0700
10308TIP3   OH252338   0.108   1.879  10.428  0.1053 -0.6992 -0.0847
10308TIP3    H152339   0.099   1.958  10.481 -0.9266 -1.5086  1.0072
10308TIP3    H252340   0.201   1.857  10.434  0.0042 -0.8456  1.5612
10309TIP3   OH252341   0.617   3.785  15.920 -0.6899  0.1487 -0.0568
10309TIP3    H152342   0.580   3.697  15.911  0.1161 -0.0385 -2.0438
10309TIP3    H252343   0.601   3.827  15.835 -0.1831  1.5711  0.5172
10310TIP3   OH252344   2.453   3.605   2.723  0.1798 -0.2052  0.2441
10310TIP3    H152345   2.537   3.570   2.693  0.2681 -1.1461  1.4780
10310TIP3    H252346   2.393   3.531   2.714 -0.3144  0.1963  0.2120
10311TIP3   OH252347   2.043   1.613   5.605 -0.1096 -0.0298  0.3796
10311TIP3    H152348   2.088   1.642   5.685 -2.6442  3.3069  0.7938
10311TIP3    H252349   1.953   1.644   5.615 -1.3460 -2.2403 -2.4695
10312TIP3   OH252350   3.568   6.271   2.651  0.1051 -0.5644  0.3243
10312TIP3    H152351   3.556   6.282   2.746 -0.0689  0.9472  0.1515
10312TIP3    H252352   3.592   6.179   2.641  0.3079 -0.7140  1.8557
10313TIP3   OH252353   4.877   6.348   0.790 -0.3016 -0.2727 -0.1995
10313TIP3    H152354   4.787   6.316   0.804 -0.1369 -1.1364 -0.9808
10313TIP3    H252355   4.904   6.307   0.708  1.2982 -1.1478  0.7185
10314TIP3   OH252356   0.371   3.823  11.308 -0.0847  0.1820  0.1281
10314TIP3    H152357   0.455   3.853  11.344 -0.5636  0.0941  1.3581
10314TIP3    H252358   0.395   3.775  11.229  0.9473  0.9359 -0.0432
10315TIP3   OH252359   5.959   0.855  11.803 -0.2520  0.0094  0.2858
10315TIP3    H152360   5.916   0.875  11.720  1.1554 -0.1927 -0.5200
10315TIP3    H252361   5.962   0.759  11.807  0.9139  0.0174 -0.1097
10316TIP3   OH252362   1.761   5.709   4.535 -0.3711  0.0613  0.2685
10316TIP3    H152363   1.666   5.695   4.535 -0.5147  0.9514 -0.3249
10316TIP3    H252364   1.793   5.652   4.466 -0.6090  0.5152 -0.2273
10317TIP3   OH252365   1.326   0.903   4.633  0.1980  0.2097  0.3160
10317TIP3    H152366   1.341   0.809   4.644  0.0897  0.2787  1.1402
10317TIP3    H252367   1.253   0.908   4.571 -0.2463 -0.2784  0.7766
10318TIP3   OH252368   4.887   1.880   0.971  0.1417 -0.6052  0.2640
10318TIP3    H152369   4.864   1.947   1.035  0.0476 -0.8583  0.4910
10318TIP3    H252370   4.941   1.927   0.907  1.0755 -0.5686  1.0502
10319TIP3   OH252371   0.023   6.508   4.367  0.3569 -0.1330 -0.5298
10319TIP3    H152372   0.003   6.560   4.446 -0.6646  0.1122 -0.9352
10319TIP3    H252373  -0.053   6.520   4.311 -0.7415 -3.4668  0.0421
10320TIP3   OH252374   2.374   2.575   5.928 -0.0609  0.2481 -0.2034
10320TIP3    H152375   2.426   2.599   5.851 -0.5851 -0.3185 -0.7452
10320TIP3    H252376   2.313   2.648   5.940  1.6667  1.5564  1.2300
10321TIP3   OH252377   5.868   2.521   5.379  0.4079  0.0865 -0.0554
10321TIP3    H152378   5.821   2.532   5.461  0.2600  0.8946 -0.2441
10321TIP3    H252379   5.925   2.445   5.395  0.0288 -0.0689  0.6211
10322TIP3   OH252380   2.787   3.004   5.457  0.1884  0.2846 -0.1583
10322TIP3    H152381   2.864   3.027   5.510 -0.1102 -1.2797  1.0285
10322TIP3    H252382   2.747   2.931   5.504 -1.3734  0.3074 -1.3903
10323TIP3   OH252383   1.779   6.601   3.334  0.0561  0.1451  0.1707
10323TIP3    H152384   1.739   6.558   3.259 -0.1357 -1.8180  1.3265
10323TIP3    H252385   1.844   6.661   3.296 -0.4579 -0.3441 -1.5596
10324TIP3   OH252386   4.297   3.264   0.835 -0.5073 -0.1978 -0.1162
10324TIP3    H152387   4.291   3.169   0.849 -1.2223 -0.3723 -1.4842
10324TIP3    H252388   4.300   3.300   0.924 -0.0322 -1.5015  0.4277
10325TIP3   OH252389   1.780   4.936   4.601 -0.8728  0.3658  0.1412
10325TIP3    H152390   1.702   4.923   4.546 -1.1611  0.4362  0.5355
10325TIP3    H252391   1.841   4.869   4.570 -0.8731  0.6764 -0.5569
10326TIP3   OH252392   1.017   3.170  13.167  0.2473 -0.1162  0.0945
10326TIP3    H152393   1.074   3.146  13.093 -0.8268 -2.2599 -0.0974
10326TIP3    H252394   0.938   3.205  13.126  0.6162  1.0462  0.3265
10327TIP3   OH252395   2.644   3.472  16.392 -0.7144  0.5173  0.0809
10327TIP3    H152396   2.570   3.521  16.427 -0.5505  0.6450  0.2500
10327TIP3    H252397   2.712   3.478  16.459 -0.0590  1.5453 -0.6417
10328TIP3   OH252398   6.052   1.657   1.841  0.1484  0.3023 -0.0837
10328TIP3    H152399   6.024   1.743   1.809 -0.0343 -0.0092 -0.7772
10328TIP3    H252400   6.007   1.648   1.925  1.1941  1.4343  0.6303
10329TIP3   OH252401   1.144   4.433  11.453  0.3423 -0.1823  0.1348
10329TIP3    H152402   1.055   4.448  11.421  0.5261 -0.4009 -0.4856
10329TIP3    H252403   1.134   4.421  11.547 -0.0176  2.1058  0.4500
10330TIP3   OH252404   5.329   1.138  11.263  0.2022  0.5909  0.1074
10330TIP3    H152405   5.349   1.147  11.170  2.4443 -0.6780  0.3887
10330TIP3    H252406   5.415   1.139  11.306 -0.7033  0.0528  2.0504
10331TIP3   OH252407   0.523   3.853   5.347  0.5947 -0.3512 -0.1081
10331TIP3    H152408   0.573   3.851   5.265 -0.4783 -0.2036 -0.7932
10331TIP3    H252409   0.432   3.864   5.319  0.2153 -0.2059  1.1163
10332TIP3   OH252410   3.694   1.583  13.996 -0.1479  0.1824 -0.5189
10332TIP3    H152411   3.735   1.498  13.977  0.7499  0.3293  0.5990
10332TIP3    H252412   3.701   1.592  14.091  0.3241  1.7668 -0.6685
10333TIP3   OH252413   3.294   0.004   4.779 -0.0366 -0.3138 -0.2324
10333TIP3    H152414   3.237   0.082   4.780  1.2186  0.6699 -1.2103
10333TIP3    H252415   3.304  -0.019   4.871 -4.0970 -2.1808 -0.0209
10334TIP3   OH252416   3.568   3.009  13.399 -0.3035 -0.1444  1.5389
10334TIP3    H152417   3.478   3.042  13.408 -0.1007  1.0900 -0.4880
10334TIP3    H252418   3.619   3.086  13.375  0.9637 -1.1762  0.8241
10335TIP3   OH252419   6.426   0.128  14.544  0.3153  0.3031  0.5303
10335TIP3    H152420   6.433   0.111  14.638 -0.1246 -2.4317  0.1496
10335TIP3    H252421   6.510   0.100  14.508  0.1766  0.5420  0.0160
10336TIP3   OH252422   6.371   1.046  16.077  0.1623 -0.3667  0.3487
10336TIP3    H152423   6.429   1.036  16.152  0.8732  2.1397  0.2412
10336TIP3    H252424   6.297   1.097  16.111 -1.6327 -2.7236  0.2578
10337TIP3   OH252425   3.990   5.657   5.602 -0.2802  0.7971  0.1623
10337TIP3    H152426   3.925   5.724   5.619 -1.2445 -0.6703  3.1116
10337TIP3    H252427   4.063   5.679   5.660  1.0858  1.3626 -1.6958
10338TIP3   OH252428   4.060   2.343   5.826 -0.6382 -0.1419  0.0719
10338TIP3    H152429   4.086   2.419   5.877  1.8574 -0.6348 -0.3462
10338TIP3    H252430   4.114   2.271   5.858 -2.4890 -1.6576  0.0429
10339TIP3   OH252431   0.175   1.338   3.524 -0.1315 -0.0180 -0.4318
10339TIP3    H152432   0.092   1.361   3.483 -0.4190  0.2203  0.2787
10339TIP3    H252433   0.189   1.406   3.590  1.4771  0.9508 -1.6682
10340TIP3   OH252434   6.082   2.668   0.793  0.0353  0.0343  0.3219
10340TIP3    H152435   6.140   2.600   0.829  1.6029  1.2546  0.1869
10340TIP3    H252436   6.103   2.746   0.844  0.7109  1.2517 -1.7261
10341TIP3   OH252437   2.830   2.510  15.405 -0.0249 -0.2807  0.9847
10341TIP3    H152438   2.802   2.452  15.476  0.3417 -0.7096  0.7846
10341TIP3    H252439   2.750   2.528  15.356 -0.2305 -0.2097  1.3472
10342TIP3   OH252440   2.303   4.390   2.216  0.3446 -0.0342  0.3494
10342TIP3    H152441   2.355   4.355   2.144  0.5267  0.6012  0.1627
10342TIP3    H252442   2.213   4.370   2.193  0.4818 -0.8904  0.5336
10343TIP3   OH252443   2.816   2.703   3.693  0.1502  0.1261 -0.3764
10343TIP3    H152444   2.853   2.789   3.676 -0.0128  0.0016 -1.4668
10343TIP3    H252445   2.798   2.702   3.787 -1.2281  1.8403 -0.5690
10344TIP3   OH252446   2.857   4.061   0.813 -1.0583 -0.8016 -0.0576
10344TIP3    H152447   2.791   4.036   0.878 -1.8338 -2.6766 -1.5113
10344TIP3    H252448   2.807   4.104   0.744 -0.2949  0.7359  0.3039
10345TIP3   OH252449   1.682   3.048   3.808 -0.3818  0.2487  0.4141
10345TIP3    H152450   1.743   3.066   3.879 -1.1396  1.3476  0.8180
10345TIP3    H252451   1.596   3.060   3.847 -0.8569 -0.6596 -0.3096
10346TIP3   OH252452   3.487   0.829  13.090 -0.2541 -0.7798  0.0561
10346TIP3    H152453   3.551   0.761  13.109 -0.7223 -1.3766 -0.4749
10346TIP3    H252454   3.505   0.854  12.999  0.5294  0.4915  0.5212
10347TIP3   OH252455   1.350   3.339  12.920  0.7047 -0.1638  0.8346
10347TIP3    H152456   1.303   3.261  12.950  1.3420 -0.3379  1.3995
10347TIP3    H252457   1.302   3.367  12.842  0.0278 -0.6889  1.0496
10348TIP3   OH252458   6.396   1.113   3.527 -0.3234  0.1695 -0.5590
10348TIP3    H152459   6.456   1.059   3.578  0.0941 -2.0359 -3.1323
10348TIP3    H252460   6.452   1.157   3.463 -1.1089  0.3577 -1.1288
10349TIP3   OH252461   2.099   6.146   6.022  0.5366  0.7857 -0.5544
10349TIP3    H152462   2.146   6.229   6.010 -2.6718  2.8847  0.0205
10349TIP3    H252463   2.112   6.125   6.115 -1.0921  2.4503  0.1276
10350TIP3   OH252464   6.678   1.771   4.137  0.3239 -0.1854 -0.0397
10350TIP3    H152465   6.654   1.711   4.066 -0.5413 -1.3220  1.1720
10350TIP3    H252466   6.700   1.714   4.210  0.3296  0.9765  0.8851
10351TIP3   OH252467   2.544   0.421   1.656  0.2032 -0.2860 -0.1290
10351TIP3    H152468   2.602   0.370   1.713  0.2567  0.8355  0.8600
10351TIP3    H252469   2.470   0.364   1.638  1.8231 -1.9733 -1.8735
10352TIP3   OH252470   3.237   2.702   3.749  0.1589  0.1442 -1.1256
10352TIP3    H152471   3.261   2.678   3.839 -0.6986 -0.1346 -0.9708
10352TIP3    H252472   3.244   2.798   3.748  0.2180  0.1474 -0.7769
10353TIP3   OH252473   2.593   3.939  16.809  0.6141  0.5814 -0.4186
10353TIP3    H152474   2.619   3.885  16.735  4.4155  2.8007 -0.9692
10353TIP3    H252475   2.503   3.912  16.828  0.2105 -1.6493 -4.3633
10354TIP3   OH252476   1.678   5.434  15.389  0.1808  0.2265 -0.6531
10354TIP3    H152477   1.587   5.418  15.362 -0.0034  0.9631 -0.4985
10354TIP3    H252478   1.709   5.500  15.327  0.8662 -0.5756 -1.1852
10355TIP3   OH252479   3.412   2.449  17.158 -0.3575  0.1422 -0.0534
10355TIP3    H152480   3.323   2.420  17.142  0.0005 -0.2413 -1.4541
10355TIP3    H252481   3.420   2.532  17.111  0.0119  0.2142  0.1240
10356TIP3   OH252482   4.962   6.042  15.956 -0.0205  0.5864  0.6221
10356TIP3    H152483   5.032   6.103  15.933  1.7767 -0.9210  1.8250
10356TIP3    H252484   4.997   5.992  16.030 -2.8596  0.5684  2.0632
10357TIP3   OH252485   3.870   5.947  15.883 -0.5365 -0.4186 -0.2162
10357TIP3    H152486   3.911   5.986  15.960  0.8603  0.0712 -1.1574
10357TIP3    H252487   3.778   5.974  15.888 -0.1542  0.8086  0.5235
10358TIP3   OH252488   0.723   5.478  14.704  0.5938  0.6802 -0.3377
10358TIP3    H152489   0.692   5.537  14.773  3.3374  1.2444  0.5460
10358TIP3    H252490   0.735   5.394  14.748  1.1984  0.7214 -0.4195
10359TIP3   OH252491   5.734   4.455   0.165 -0.5759 -0.3749 -0.3548
10359TIP3    H152492   5.761   4.381   0.111 -1.1621  0.3777 -1.7412
10359TIP3    H252493   5.673   4.419   0.228 -0.3238 -1.1872 -0.5692
10360TIP3   OH252494   6.667   4.912   0.806 -0.3585  0.1843  0.0275
10360TIP3    H152495   6.682   4.977   0.874 -0.8138 -0.4909  0.7946
10360TIP3    H252496   6.722   4.837   0.831  1.8465  0.9874 -1.9845
10361TIP3   OH252497   0.635   6.407  17.145  0.2277  0.4400 -0.0976
10361TIP3    H152498   0.728   6.383  17.144  0.2580  0.4684 -2.6816
10361TIP3    H252499   0.635   6.501  17.162  0.6904  0.4910 -0.3550
10362TIP3   OH252500   4.537   2.146  10.711  0.5898 -0.0251  0.3999
10362TIP3    H152501   4.494   2.068  10.677  0.3923  0.8167 -1.4407
10362TIP3    H252502   4.479   2.218  10.686  1.7591  0.8845  0.1934
10363TIP3   OH252503   4.587   1.064   3.377  0.4855 -0.1272  0.0234
10363TIP3    H152504   4.590   1.158   3.394 -1.6477 -0.1323  0.7675
10363TIP3    H252505   4.652   1.049   3.308  0.6595  1.9278 -0.2992
10364TIP3   OH252506   5.846   1.970  11.963 -0.3630  0.1195  0.1352
10364TIP3    H152507   5.870   1.882  11.990  2.4154  0.4501 -0.9453
10364TIP3    H252508   5.919   2.000  11.908 -2.6967  1.8812 -2.3046
10365TIP3   OH252509   2.874   3.562   4.687 -0.1752 -0.2909 -0.2339
10365TIP3    H152510   2.964   3.582   4.662  0.6334  0.2775  2.6812
10365TIP3    H252511   2.871   3.466   4.690 -0.3382 -0.3911 -2.3082
10366TIP3   OH252512   5.888   1.310  15.992 -0.2987 -0.4087  0.2195
10366TIP3    H152513   5.933   1.377  16.044 -1.1562  0.3196  0.0487
10366TIP3    H252514   5.938   1.306  15.910 -1.2588  1.3161 -0.4923
10367TIP3   OH252515   3.012   3.613  16.307 -0.6766  0.5435 -0.2876
10367TIP3    H152516   3.044   3.692  16.263 -1.6777  0.1155 -1.9114
10367TIP3    H252517   2.940   3.644  16.362  0.8234  1.1421  1.3937
10368TIP3   OH252518   3.136   1.476   2.370  0.1589 -0.2659 -0.4686
10368TIP3    H152519   3.044   1.497   2.386 -0.0652  0.4033 -2.3668
10368TIP3    H252520   3.184   1.551   2.405 -0.1665  0.2665 -1.1419
10369TIP3   OH252521   1.497   2.201  13.515  0.0922 -0.1130  0.1499
10369TIP3    H152522   1.422   2.241  13.471  1.7940  1.4559 -1.5104
10369TIP3    H252523   1.495   2.109  13.487  0.7213  0.6748 -2.7712
10370TIP3   OH252524   3.214   2.849  14.175  0.1516  1.0930 -0.0603
10370TIP3    H152525   3.187   2.927  14.225 -0.6058  0.7682  0.0518
10370TIP3    H252526   3.144   2.837  14.111 -0.1901 -0.0187  0.5082
10371TIP3   OH252527   3.592   4.906   3.885 -0.3009 -0.0425  0.0991
10371TIP3    H152528   3.582   4.890   3.979 -2.6258 -0.8945 -0.2239
10371TIP3    H252529   3.541   4.837   3.844 -0.9403  1.4507 -1.7398
10372TIP3   OH252530   5.088   2.416  12.277  0.1040  0.3558  0.7880
10372TIP3    H152531   5.015   2.446  12.331  0.8591  1.8151  1.0736
10372TIP3    H252532   5.159   2.478  12.297  1.0461 -0.3158 -0.3445
10373TIP3   OH252533   4.800   3.204  13.567 -0.5643  0.6597 -0.0725
10373TIP3    H152534   4.880   3.155  13.545 -0.0702  0.3708  2.0815
10373TIP3    H252535   4.830   3.272  13.627 -1.8904  0.6717  0.6130
10374TIP3   OH252536   4.427   6.285  16.420  0.0471  0.3580 -0.5708
10374TIP3    H152537   4.432   6.194  16.392  1.3527  0.1993  0.1172
10374TIP3    H252538   4.372   6.283  16.498 -0.4768  0.2702 -0.9339
10375TIP3   OH252539   3.588   1.322   1.531  0.2853  0.6060  0.3986
10375TIP3    H152540   3.629   1.257   1.474 -0.7494  0.9678 -0.8088
10375TIP3    H252541   3.653   1.391   1.539  0.6241  0.3352  0.0343
10376TIP3   OH252542   0.493   4.484  12.762 -0.2656  0.3424 -0.0593
10376TIP3    H152543   0.586   4.462  12.764  0.2220  1.8737 -2.1372
10376TIP3    H252544   0.483   4.539  12.684 -2.7937  0.7889  0.4855
10377TIP3   OH252545   3.204   1.329  15.149  0.1945 -0.3060  0.1499
10377TIP3    H152546   3.201   1.317  15.243  1.6368  2.3545  0.6380
10377TIP3    H252547   3.281   1.279  15.120  0.9542  0.4827  0.7423
10378TIP3   OH252548   3.330   0.745  12.758 -0.4689  0.0694 -0.2470
10378TIP3    H152549   3.345   0.759  12.664 -0.1644  1.0224 -0.0620
10378TIP3    H252550   3.382   0.813  12.801  0.6950 -1.3540  0.6777
10379TIP3   OH252551   6.735   0.439  14.326  0.3188  0.3415  0.6367
10379TIP3    H152552   6.769   0.436  14.416  0.3069  0.8880  0.6638
10379TIP3    H252553   6.777   0.366  14.282  1.2553  0.7929  0.7633
10380TIP3   OH252554   2.777   0.610   3.043  0.4278 -0.6745 -0.3054
10380TIP3    H152555   2.714   0.541   3.022 -0.1125 -0.8284  1.6129
10380TIP3    H252556   2.859   0.564   3.061 -0.0265 -0.9116  1.3427
10381TIP3   OH252557   5.499   0.393  15.174 -0.1744 -0.6804  0.0338
10381TIP3    H152558   5.555   0.463  15.139 -2.6545  1.9893  0.9993
10381TIP3    H252559   5.538   0.372  15.259 -0.4496  1.0342  0.6302
10382TIP3   OH252560   2.451   5.768   1.805  0.0601  0.2654  0.4652
10382TIP3    H152561   2.405   5.852   1.800  0.6920  0.7711  2.3820
10382TIP3    H252562   2.497   5.761   1.721 -0.2262  1.6937  0.1655
10383TIP3   OH252563   3.067   2.437  13.164 -0.4708  0.2179  0.0738
10383TIP3    H152564   3.128   2.364  13.180 -1.3565 -0.5804 -0.0806
10383TIP3    H252565   2.997   2.398  13.111 -2.1197  0.5985  1.8684
10384TIP3   OH252566   6.162   6.135   4.218 -0.0112 -0.1037 -0.0052
10384TIP3    H152567   6.169   6.141   4.123 -1.7346 -0.3132 -0.1915
10384TIP3    H252568   6.188   6.046   4.239  0.4619 -0.0279 -0.2739
10385TIP3   OH252569   6.182   1.574  16.983 -0.5956  0.1276 -0.6420
10385TIP3    H152570   6.254   1.625  16.944  2.0273 -2.3936  0.5492
10385TIP3    H252571   6.182   1.600  17.075 -2.4187  1.2812 -0.9032
10386TIP3   OH252572   6.101   1.021   1.906  0.1340  0.4849  0.6793
10386TIP3    H152573   6.129   0.973   1.828  0.1343  2.4841 -0.6120
10386TIP3    H252574   6.180   1.069   1.934  0.3740 -0.8074  2.4577
10387TIP3   OH252575   0.672   3.323   2.401 -0.3952  0.0173  0.0081
10387TIP3    H152576   0.625   3.265   2.460  0.4475  0.0834  0.7685
10387TIP3    H252577   0.657   3.287   2.314  2.8274 -3.4581  0.6184
10388TIP3   OH252578   5.428   5.434   0.782  0.4290  0.1352 -0.2325
10388TIP3    H152579   5.487   5.438   0.858  0.0487  1.7767  0.0206
10388TIP3    H252580   5.341   5.453   0.818 -0.2470 -1.8925 -0.6622
10389TIP3   OH252581   2.821   4.912   5.857 -0.2585  0.3236  0.2753
10389TIP3    H152582   2.883   4.977   5.825 -0.2045 -0.4892 -1.3495
10389TIP3    H252583   2.846   4.831   5.813 -1.0586 -0.5487  1.3589
10390TIP3   OH252584   0.220   6.159  14.412 -0.4970  0.1279 -0.5568
10390TIP3    H152585   0.240   6.103  14.336  1.0248  0.2448 -0.2846
10390TIP3    H252586   0.306   6.180  14.449 -1.2310 -2.2937  2.9553
10391TIP3   OH252587   4.701   1.981   5.110 -0.6338 -0.0500 -0.2258
10391TIP3    H152588   4.628   1.966   5.049 -1.1733 -0.9786  0.6270
10391TIP3    H252589   4.698   1.906   5.169  0.2039  0.5866  0.6338
10392TIP3   OH252590   5.173   3.981   0.635  0.4254  0.1764 -0.2938
10392TIP3    H152591   5.254   3.981   0.686  0.5892 -0.0191 -0.5453
10392TIP3    H252592   5.191   3.918   0.564  0.7989  1.6157 -1.5273
10393TIP3   OH252593   3.272   3.489  15.761  0.4856  0.7333 -0.0119
10393TIP3    H152594   3.207   3.481  15.690 -0.0167 -2.3338  0.6388
10393TIP3    H252595   3.220   3.480  15.841  1.3374  1.8337  0.6880
10394TIP3   OH252596   0.375   1.771  16.382  0.6217 -0.4063  0.2591
10394TIP3    H152597   0.394   1.680  16.361  0.8143  0.2874 -3.3326
10394TIP3    H252598   0.306   1.796  16.320  1.9072  2.3228 -0.2195
10395TIP3   OH252599   4.200   2.618  16.253  0.7522  0.5279 -0.6592
10395TIP3    H152600   4.241   2.705  16.259  4.2900 -0.9260 -1.1357
10395TIP3    H252601   4.242   2.567  16.323 -0.4871 -1.0863 -1.0318
10396TIP3   OH252602   0.432   5.624  13.776  0.3467  0.6925 -0.1232
10396TIP3    H152603   0.415   5.535  13.744 -1.9836  0.9686  0.1218
10396TIP3    H252604   0.472   5.669  13.702  1.7710 -0.5793 -0.1784
10397TIP3   OH252605   1.703   1.881  12.713 -0.0914  0.1260 -0.1080
10397TIP3    H152606   1.668   1.892  12.802  0.5162  1.1436  0.0239
10397TIP3    H252607   1.650   1.812  12.675 -1.5978  0.9468  0.4075
10398TIP3   OH252608   3.344   5.079   5.333 -0.0520  0.1418  1.0263
10398TIP3    H152609   3.350   5.174   5.324 -0.9633  0.3563  2.4085
10398TIP3    H252610   3.334   5.064   5.427  1.1052 -1.3945  0.9470
10399TIP3   OH252611   5.108   5.471   2.503 -0.2675  0.0006  0.6827
10399TIP3    H152612   5.159   5.466   2.422 -0.5027  2.0158  0.3627
10399TIP3    H252613   5.042   5.402   2.494  0.4620 -0.6000 -0.2761
10400TIP3   OH252614   5.804   2.230  14.078 -0.1444 -0.2455 -0.0959
10400TIP3    H152615   5.733   2.177  14.115 -0.0164 -0.3380  0.0196
10400TIP3    H252616   5.881   2.173  14.082  0.4170  0.5590  1.7396
10401TIP3   OH252617   6.408   2.866   1.917  0.8109 -0.1729  0.0337
10401TIP3    H152618   6.406   2.956   1.884 -0.4722  0.4346  1.6729
10401TIP3    H252619   6.443   2.816   1.844  0.0771  1.4207 -1.5063
10402TIP3   OH252620   4.020   5.639   5.235  0.2171  0.1732  0.1708
10402TIP3    H152621   3.971   5.558   5.249 -0.0141  0.2081 -0.4239
10402TIP3    H252622   4.107   5.621   5.272  0.8195 -1.0550 -1.6781
10403TIP3   OH252623   3.254   6.611  16.375 -0.3097 -0.0787  0.0304
10403TIP3    H152624   3.316   6.539  16.365 -0.1967 -0.0758  0.7147
10403TIP3    H252625   3.232   6.611  16.468  0.2482  1.2392  0.1695
10404TIP3   OH252626   0.394   5.168  16.879 -0.0765 -0.0390  0.0643
10404TIP3    H152627   0.391   5.076  16.853 -0.1505  0.6943 -2.9534
10404TIP3    H252628   0.460   5.171  16.948  1.7156 -2.0372 -1.4201
10405TIP3   OH252629   5.664   4.033  16.689 -0.6545  0.5314 -0.1945
10405TIP3    H152630   5.658   4.070  16.601  0.5578  0.9358 -0.1384
10405TIP3    H252631   5.577   4.045  16.726 -1.0581  0.7710 -1.1781
10406TIP3   OH252632   5.403   3.804  12.870  0.4800  0.4123  0.7233
10406TIP3    H152633   5.393   3.731  12.931  0.6114  0.9487  1.3970
10406TIP3    H252634   5.390   3.765  12.784 -2.2614  0.0688  1.1991
10407TIP3   OH252635   6.785   6.466   5.881 -0.4265 -0.1354 -0.1659
10407TIP3    H152636   6.764   6.532   5.947 -0.2885  0.6520 -0.8888
10407TIP3    H252637   6.853   6.413   5.921 -1.2997 -0.5318  0.8502
10408TIP3   OH252638   2.258   0.811  14.378  0.4221 -0.0908  0.0218
10408TIP3    H152639   2.331   0.805  14.440  1.0737  0.4037 -0.6801
10408TIP3    H252640   2.279   0.746  14.310 -0.4913 -0.9204  0.5086
10409TIP3   OH252641   6.776   3.302  12.362 -0.4620 -0.6708  0.4171
10409TIP3    H152642   6.771   3.364  12.435 -0.2211  0.4658 -0.5012
10409TIP3    H252643   6.766   3.216  12.403 -0.0517 -0.0836  1.8258
10410TIP3   OH252644   6.765   2.775   3.160  0.2955  0.4826  0.5593
10410TIP3    H152645   6.758   2.868   3.139  0.5768  0.4247  0.2104
10410TIP3    H252646   6.681   2.754   3.200 -0.3617  0.5209 -0.7586
10411TIP3   OH252647   4.479   3.533  15.237 -0.1550 -0.2882 -0.1557
10411TIP3    H152648   4.456   3.604  15.178 -0.2235  1.7572  2.1931
10411TIP3    H252649   4.406   3.527  15.298  0.5323 -1.3484  0.6014
10412TIP3   OH252650   4.750   6.017   5.959 -0.1615 -0.1159 -0.6928
10412TIP3    H152651   4.785   5.929   5.973 -0.2653 -0.1901 -0.8863
10412TIP3    H252652   4.827   6.073   5.950 -0.0644  0.1450  1.3381
10413TIP3   OH252653   3.065   0.634   3.663 -0.4769 -0.1320 -0.5985
10413TIP3    H152654   3.118   0.662   3.738  1.7667 -0.6528 -1.8968
10413TIP3    H252655   3.040   0.544   3.683  0.1440 -0.2798 -0.4707
10414TIP3   OH252656   4.136   0.929   6.376 -0.3847 -0.1834  0.4685
10414TIP3    H152657   4.152   0.965   6.463 -1.6863 -0.3719  0.8115
10414TIP3    H252658   4.040   0.926   6.369 -0.2935 -0.3702 -0.8854
10415TIP3   OH252659   3.909   1.806   5.787  0.4193 -0.8393  0.3000
10415TIP3    H152660   3.961   1.750   5.845 -0.3219  0.1348  1.9800
10415TIP3    H252661   3.823   1.809   5.829 -0.3679 -0.6860 -1.2763
10416TIP3   OH252662   2.047   3.882   3.530  0.0723  0.2586  0.0807
10416TIP3    H152663   1.985   3.833   3.477 -0.8715 -1.1750  2.3562
10416TIP3    H252664   2.132   3.866   3.490 -0.8660  1.8919 -2.8390
10417TIP3   OH252665   5.004   1.633  14.886 -0.0763  0.0675  0.0560
10417TIP3    H152666   5.066   1.616  14.956  0.2230  1.8181  0.2567
10417TIP3    H252667   5.034   1.714  14.846 -1.1069 -0.0989 -1.1417
10418TIP3   OH252668   1.462   4.378   4.265  0.3162  0.2691 -0.0803
10418TIP3    H152669   1.394   4.367   4.331  0.4122 -2.3347 -0.3165
10418TIP3    H252670   1.508   4.458   4.290 -2.1852  1.5893  0.6250
10419TIP3   OH252671   5.304   0.278  14.193  0.0721  0.1863 -0.1892
10419TIP3    H152672   5.247   0.299  14.267  0.9223  0.5049  0.3960
10419TIP3    H252673   5.318   0.183  14.201  1.2438  0.4111  0.9004
10420TIP3   OH252674   3.422   4.951   6.828 -0.2975  0.4762  0.2858
10420TIP3    H152675   3.501   5.004   6.839 -1.1365  1.7032  0.5867
10420TIP3    H252676   3.417   4.898   6.908  0.5985 -0.1631 -0.0620
10421TIP3   OH252677   5.291   4.374  16.929 -0.0136  0.0675  0.0613
10421TIP3    H152678   5.200   4.405  16.935 -0.5627 -1.5442  0.4503
10421TIP3    H252679   5.340   4.450  16.898 -0.9678  1.8961  2.7300
10422TIP3   OH252680   4.595   5.235   1.199 -0.6073 -0.0348 -0.7310
10422TIP3    H152681   4.649   5.158   1.184 -0.2125 -0.0407  0.5634
10422TIP3    H252682   4.558   5.256   1.113  0.9634 -0.3868 -1.5314
10423TIP3   OH252683   2.079   2.604   3.793 -0.5335  0.3244  0.1613
10423TIP3    H152684   2.052   2.628   3.882  0.8621 -1.2588  1.0520
10423TIP3    H252685   2.069   2.509   3.789  1.0836  0.1627 -0.7783
10424TIP3   OH252686   1.495   3.814  11.440 -0.3928  0.3263  0.0535
10424TIP3    H152687   1.403   3.826  11.463 -0.1091  0.9077  0.9579
10424TIP3    H252688   1.506   3.859  11.357 -1.2739 -1.1257 -0.9056
10425TIP3   OH252689   1.585   6.078  11.522 -0.2060 -0.6933  0.0054
10425TIP3    H152690   1.622   6.133  11.453 -0.4276 -0.6741 -0.0984
10425TIP3    H252691   1.551   6.141  11.586  0.8628 -0.7033  0.6104
10426TIP3   OH252692   3.526   1.548  12.618 -0.0271 -0.5752  0.5136
10426TIP3    H152693   3.598   1.569  12.677  0.2653 -1.4566  0.4808
10426TIP3    H252694   3.556   1.575  12.531 -0.9078  1.8219  0.8686
10427TIP3   OH252695   5.711   3.666  16.036 -0.1567 -0.3836 -0.3750
10427TIP3    H152696   5.730   3.610  16.112 -3.1853  0.9939  1.6162
10427TIP3    H252697   5.768   3.742  16.048  0.5811 -0.9140 -0.4395
10428TIP3   OH252698   1.206   3.975  12.505 -0.1732 -0.2918 -0.4142
10428TIP3    H152699   1.213   4.012  12.417 -0.4344 -0.2907 -0.4352
10428TIP3    H252700   1.162   4.044  12.556  3.4116  1.4038  0.7115
10429TIP3   OH252701   3.605   5.568  11.216 -0.4856 -0.3623  0.3471
10429TIP3    H152702   3.648   5.629  11.155 -1.0629 -0.6563 -0.3602
10429TIP3    H252703   3.513   5.572  11.192 -0.3719 -2.5320 -0.6246
10430TIP3   OH252704   4.007   5.990   4.987  0.0109  0.3701 -0.1145
10430TIP3    H152705   4.067   5.926   4.949  1.7273  1.9442 -0.1746
10430TIP3    H252706   3.947   5.938   5.040  0.7271 -1.3644 -0.9401
10431TIP3   OH252707   1.504   5.844   1.620  0.1041  0.5027  0.2303
10431TIP3    H152708   1.578   5.841   1.559  0.9700  0.2279  1.2614
10431TIP3    H252709   1.483   5.937   1.628 -0.1744  0.5211 -0.6662
10432TIP3   OH252710   4.811   4.579  15.454  0.1805 -0.1611 -0.4812
10432TIP3    H152711   4.903   4.563  15.474  0.5105 -0.2732 -1.9640
10432TIP3    H252712   4.764   4.509  15.499  0.5925  0.9733  1.8743
10433TIP3   OH252713   4.771   4.915  13.927  0.0834  0.0554  0.0116
10433TIP3    H152714   4.851   4.897  13.877 -0.5788  0.2581 -1.1734
10433TIP3    H252715   4.800   4.971  13.999  1.2497 -1.1253  0.5160
10434TIP3   OH252716   6.079   5.565  12.757  0.0995 -0.2629 -0.3518
10434TIP3    H152717   6.147   5.499  12.744 -0.1485 -0.3974 -0.9842
10434TIP3    H252718   6.064   5.601  12.670 -0.4992 -0.0892 -0.1800
10435TIP3   OH252719   1.485   2.589   6.024  0.1504  0.2753 -0.0098
10435TIP3    H152720   1.486   2.521   6.092 -1.5407 -0.8889 -1.0754
10435TIP3    H252721   1.537   2.660   6.061  1.3971 -1.3110  1.4481
10436TIP3   OH252722   2.418   4.079  11.476 -0.1092 -0.5867 -1.0877
10436TIP3    H152723   2.511   4.055  11.469 -0.2324 -0.7572 -2.1942
10436TIP3    H252724   2.409   4.157  11.421  0.1387  1.7407  1.8777
10437TIP3   OH252725   6.582   2.829   6.256 -0.0553  0.1453 -0.4382
10437TIP3    H152726   6.661   2.837   6.309  0.1567  0.2318 -0.7670
10437TIP3    H252727   6.532   2.908   6.276 -0.7605 -0.5810  0.8957
10438TIP3   OH252728   3.927   1.613   1.843  0.2839 -0.1572  0.2603
10438TIP3    H152729   3.925   1.679   1.912 -0.1994  1.0112 -0.8178
10438TIP3    H252730   4.020   1.599   1.825  0.3953 -0.0305  0.7171
10439TIP3   OH252731   0.729   5.106   0.231 -0.3154 -0.0733  0.4696
10439TIP3    H152732   0.634   5.100   0.247  0.1930 -0.1326  4.4278
10439TIP3    H252733   0.749   5.029   0.177 -2.1052 -2.0862  2.4741
10440TIP3   OH252734   4.072   4.359  13.273 -0.1836  0.2421 -0.1768
10440TIP3    H152735   3.977   4.362  13.289 -0.0527  0.8599  0.5610
10440TIP3    H252736   4.090   4.437  13.221 -0.2875 -0.6633 -1.6126
10441TIP3   OH252737   0.260   2.751  15.553  0.4313 -0.5045 -0.3389
10441TIP3    H152738   0.325   2.749  15.483  1.3383 -0.7969  0.4788
10441TIP3    H252739   0.270   2.837  15.593  0.1924 -0.4842 -0.3205
10442TIP3   OH252740   6.255   1.527   2.133 -0.0999  0.0586  0.4271
10442TIP3    H152741   6.211   1.455   2.179 -0.8362 -0.5862 -1.2142
10442TIP3    H252742   6.295   1.486   2.056 -0.1434  1.3307 -0.3016
10443TIP3   OH252743   1.809   6.036   4.863  0.5102 -0.2401 -0.1117
10443TIP3    H152744   1.726   5.989   4.851  0.2939  0.2428 -0.5469
10443TIP3    H252745   1.826   6.076   4.777  0.3183  1.0655  0.4403
10444TIP3   OH252746   3.336   5.386   0.149  0.3971 -0.7349  0.0015
10444TIP3    H152747   3.336   5.466   0.097  1.2711 -0.5805  0.2312
10444TIP3    H252748   3.269   5.401   0.216 -1.8810 -1.5371 -1.9334
10445TIP3   OH252749   1.572   2.556  14.256 -0.4456 -0.0393 -0.1184
10445TIP3    H152750   1.656   2.585  14.289  0.8599  0.7024 -3.6086
10445TIP3    H252751   1.544   2.626  14.196 -3.1697 -0.6476  0.2929
10446TIP3   OH252752   5.796   6.618  12.300  0.3990 -0.2529 -0.0374
10446TIP3    H152753   5.822   6.526  12.286  0.9443 -0.3907  1.6007
10446TIP3    H252754   5.872   6.657  12.343  0.4875  1.2107 -1.4466
10447TIP3   OH252755   0.269   5.893  14.278  0.0656 -0.1989  0.3057
10447TIP3    H152756   0.299   5.803  14.270  0.7188 -0.0027  0.4565
10447TIP3    H252757   0.217   5.908  14.199  0.2540 -0.5954  0.1022
10448TIP3   OH252758   1.048   1.048   1.888 -0.4715 -0.2067  0.1361
10448TIP3    H152759   1.135   1.064   1.926 -0.4358 -0.7672  0.2917
10448TIP3    H252760   1.064   0.990   1.814 -0.7695 -0.7214  0.4703
10449TIP3   OH252761   6.007   4.380   0.653 -0.1702  0.1702  0.0963
10449TIP3    H152762   5.971   4.359   0.739  0.2280 -0.4714  0.1099
10449TIP3    H252763   6.044   4.298   0.621  0.5123  0.6117 -0.2871
10450TIP3   OH252764   4.356   2.839  14.016  0.4599 -0.1240 -0.2301
10450TIP3    H152765   4.302   2.800  14.085  0.2022 -1.3190 -1.0526
10450TIP3    H252766   4.294   2.856  13.945  1.0296 -0.8681 -0.9296
10451TIP3   OH252767   0.511   4.257  15.111  0.0767 -0.6179 -0.1115
10451TIP3    H152768   0.446   4.322  15.137 -0.3698 -1.9117  2.3695
10451TIP3    H252769   0.526   4.273  15.018 -1.8410  1.3886 -0.1557
10452TIP3   OH252770   3.753   6.554  13.539  0.5519  0.1106  0.2581
10452TIP3    H152771   3.715   6.626  13.588 -0.2732  0.2368 -0.5418
10452TIP3    H252772   3.678   6.502  13.511  0.9931  0.1166 -0.9768
10453TIP3   OH252773   5.997   0.009  12.001 -0.4713  0.1786  0.1055
10453TIP3    H152774   6.038   0.035  12.083  0.8617 -0.6181 -0.2733
10453TIP3    H252775   5.920   0.065  11.993  0.1030  1.1686  1.2459
10454TIP3   OH252776   4.506   0.771   5.607 -0.4582 -0.3465 -0.5497
10454TIP3    H152777   4.438   0.715   5.644 -1.5793  1.0340 -0.4427
10454TIP3    H252778   4.535   0.725   5.529 -0.9260 -1.3521 -0.1460
10455TIP3   OH252779   4.569   4.088   3.610  0.3319  0.4312 -0.0529
10455TIP3    H152780   4.630   4.137   3.554 -2.0353  1.3668 -1.9697
10455TIP3    H252781   4.600   3.998   3.605  0.8871  0.6682 -1.9948
10456TIP3   OH252782   3.705   1.246   5.923  0.0990  0.0906 -0.9414
10456TIP3    H152783   3.670   1.193   5.851 -1.0529  0.2218 -0.4992
10456TIP3    H252784   3.642   1.236   5.994 -0.7772  2.8870 -1.1942
10457TIP3   OH252785   3.536   0.438  15.406 -0.3269 -0.1779  0.3017
10457TIP3    H152786   3.474   0.401  15.469 -2.0969 -0.8755 -1.6941
10457TIP3    H252787   3.490   0.513  15.369  1.1439  0.9153  0.6241
10458TIP3   OH252788   6.632   2.177  11.307 -0.1729  0.2831 -0.1794
10458TIP3    H152789   6.684   2.129  11.371  1.7499  0.8579 -1.2201
10458TIP3    H252790   6.590   2.110  11.254  2.1977 -0.3427 -1.3996
10459TIP3   OH252791   4.024   0.677   4.895 -0.0858 -0.0949  0.5721
10459TIP3    H152792   4.059   0.766   4.903 -0.8098  0.1442  1.1144
10459TIP3    H252793   3.963   0.682   4.822 -0.1512 -0.1458  0.6241
10460TIP3   OH252794   1.724   4.000  11.721 -0.6506 -0.1562  0.0744
10460TIP3    H152795   1.673   3.966  11.794 -0.1117  0.1453  0.5910
10460TIP3    H252796   1.810   4.020  11.757  0.3342 -2.0084 -1.0902
10461TIP3   OH252797   0.571   2.942   3.505 -0.0147  0.2296 -0.5007
10461TIP3    H152798   0.514   3.020   3.510 -0.3832  0.0614 -1.7814
10461TIP3    H252799   0.659   2.976   3.520 -0.2760  0.7297 -0.0342
10462TIP3   OH252800   4.973   4.351  14.562 -0.4233 -0.2493  0.0707
10462TIP3    H152801   4.939   4.430  14.605  1.9037  0.9484 -0.1280
10462TIP3    H252802   4.944   4.360  14.471  0.6290  0.9411 -0.1819
10463TIP3   OH252803   5.743   1.202  12.187 -0.6125  0.0454  0.0246
10463TIP3    H152804   5.752   1.140  12.115  0.6815  0.2577 -0.0284
10463TIP3    H252805   5.729   1.286  12.145 -0.3515  0.0912  0.0237
10464TIP3   OH252806   4.855   1.800   1.664 -0.1098 -0.0823 -0.2680
10464TIP3    H152807   4.862   1.832   1.754  0.3933  0.1223 -0.3760
10464TIP3    H252808   4.818   1.711   1.673 -5.3183  1.7427 -0.1617
10465TIP3   OH252809   3.089   2.450   4.542 -0.1975 -0.0017  0.1918
10465TIP3    H152810   3.127   2.415   4.622 -2.3298 -0.5485  1.0359
10465TIP3    H252811   3.060   2.538   4.565 -3.2131 -1.0547  0.9605
10466TIP3   OH252812   2.127   2.627   4.852  0.1147 -0.0290 -0.1378
10466TIP3    H152813   2.137   2.641   4.758  1.1045  2.5700  0.2755
10466TIP3    H252814   2.033   2.613   4.865 -0.1573  0.5287 -1.3945
10467TIP3   OH252815   4.916   6.173   6.579  0.5746  0.0173 -0.2630
10467TIP3    H152816   4.821   6.181   6.570  0.6128  0.1736 -0.5304
10467TIP3    H252817   4.951   6.254   6.541  0.7612  0.5507  0.9938
10468TIP3   OH252818   4.685   5.474   0.184 -0.0812  0.3074  0.2714
10468TIP3    H152819   4.746   5.518   0.242  0.8700 -1.6778  0.8658
10468TIP3    H252820   4.739   5.449   0.108 -0.2611 -0.9411  0.5359
10469TIP3   OH252821   1.825   0.442   1.381 -0.0153 -0.1880  0.3725
10469TIP3    H152822   1.789   0.433   1.293  0.0603  0.9167  0.2078
10469TIP3    H252823   1.799   0.362   1.427 -1.0741 -0.2415 -0.2960
10470TIP3   OH252824   0.161   6.213   6.029  0.2405 -0.2912  0.0433
10470TIP3    H152825   0.226   6.261   5.977  0.1138 -0.7759 -0.5627
10470TIP3    H252826   0.213   6.149   6.077  0.1576 -1.0567 -0.8691
10471TIP3   OH252827   4.031   4.641   1.810 -0.0602 -0.1308 -0.0922
10471TIP3    H152828   4.042   4.589   1.730  0.9868 -1.4556  0.8671
10471TIP3    H252829   4.100   4.611   1.868  2.1280  3.9893 -0.2274
10472TIP3   OH252830   5.112   6.283  15.036 -0.2258 -0.8624  0.6433
10472TIP3    H152831   5.130   6.214  14.973 -4.6639 -1.4506 -0.3295
10472TIP3    H252832   5.080   6.238  15.113 -0.8317  0.0191  0.9267
10473TIP3   OH252833   5.637   1.955   2.588  0.6951  0.2100 -0.0032
10473TIP3    H152834   5.643   1.864   2.616 -1.6047  0.2050  0.6189
10473TIP3    H252835   5.603   2.002   2.664  1.5791  1.5722 -0.3980
10474TIP3   OH252836   2.827   2.090  16.080  0.2636 -0.4901  0.1207
10474TIP3    H152837   2.850   2.005  16.040 -1.0566 -1.3183  1.0365
10474TIP3    H252838   2.780   2.136  16.011  0.3044 -0.8151 -0.1342
10475TIP3   OH252839   0.840   1.859   3.427 -0.0996  0.0916 -0.2363
10475TIP3    H152840   0.878   1.886   3.343 -1.0274 -0.0323 -0.7094
10475TIP3    H252841   0.849   1.764   3.428 -1.5205 -0.0732 -0.9345
10476TIP3   OH252842   0.380   4.993   4.449  0.1989 -0.5905  0.3885
10476TIP3    H152843   0.362   5.075   4.495  3.0712  0.3359  0.0356
10476TIP3    H252844   0.320   4.994   4.375 -2.5218 -0.7533  2.4060
10477TIP3   OH252845   0.456   1.655  14.188 -0.0443 -0.4153  0.4926
10477TIP3    H152846   0.369   1.663  14.148 -0.0294  1.7748  0.7728
10477TIP3    H252847   0.517   1.669  14.116  0.1102 -1.7934  0.3278
10478TIP3   OH252848   6.797   4.630  12.384 -0.3655 -0.4275 -0.2363
10478TIP3    H152849   6.868   4.677  12.427 -2.7256  1.5692  1.7554
10478TIP3    H252850   6.794   4.667  12.296 -0.4029  1.2140  0.4170
10479TIP3   OH252851   1.160   2.799   2.770  0.3955  0.4148  0.3319
10479TIP3    H152852   1.100   2.760   2.706  0.3829  0.2042  0.4682
10479TIP3    H252853   1.139   2.753   2.852 -2.3793  3.3502  1.4840
10480TIP3   OH252854   0.386   3.001  15.626  0.0052 -0.0192  0.4692
10480TIP3    H152855   0.413   3.091  15.645 -0.2151 -0.1937  1.6935
10480TIP3    H252856   0.468   2.954  15.610  0.0397  0.6999 -1.6867
10481TIP3   OH252857   5.040   5.098  13.360 -0.3209 -0.2473 -0.2448
10481TIP3    H152858   5.071   5.023  13.310 -0.6547 -0.5513  0.0026
10481TIP3    H252859   5.007   5.159  13.294 -2.1645 -1.2866 -0.3266
10482TIP3   OH252860   6.029   5.025  15.160 -0.0709 -0.3009 -0.4650
10482TIP3    H152861   5.993   5.083  15.093 -0.1549 -0.4675 -0.5638
10482TIP3    H252862   6.098   5.077  15.202  0.1196 -0.2695 -0.8158
10483TIP3   OH252863   5.913   4.436  13.264 -0.3652  0.8599  0.0421
10483TIP3    H152864   5.911   4.389  13.181 -0.4834 -0.3486  0.6937
10483TIP3    H252865   5.825   4.471  13.275 -0.6544  0.1297  0.1261
10484TIP3   OH252866   1.407   3.634   1.573  0.4692  0.1172 -0.0495
10484TIP3    H152867   1.493   3.626   1.616  0.7959  1.6746 -0.3381
10484TIP3    H252868   1.344   3.622   1.643  0.8895 -1.3665  0.1176
10485TIP3   OH252869   1.800   0.872   0.100 -0.6295  0.4001  0.0668
10485TIP3    H152870   1.792   0.914   0.014 -0.7571  0.8059  0.2756
10485TIP3    H252871   1.865   0.925   0.147 -0.1334 -0.1612  0.0170
10486TIP3   OH252872   5.724   3.955   5.584 -0.0705 -0.4744  0.7937
10486TIP3    H152873   5.790   3.982   5.648 -0.5681 -0.0117  1.1150
10486TIP3    H252874   5.723   4.026   5.520  0.4729 -0.9679  0.2276
10487TIP3   OH252875   1.819   4.124  17.051 -0.1663 -0.0969 -0.1509
10487TIP3    H152876   1.881   4.180  17.099 -0.2961 -0.6681  0.7133
10487TIP3    H252877   1.735   4.170  17.057 -0.1469 -0.0840  0.0266
10488TIP3   OH252878   3.276   3.282  15.476 -0.3119 -0.0526  0.9218
10488TIP3    H152879   3.344   3.347  15.491  0.2376 -0.3964 -0.0050
10488TIP3    H252880   3.194   3.329  15.490  0.0848  0.7536  0.5929
10489TIP3   OH252881   2.106   4.086   4.720 -0.6264 -0.0483  0.1893
10489TIP3    H152882   2.121   4.180   4.711 -0.2454 -0.1889 -0.7645
10489TIP3    H252883   2.017   4.072   4.688 -0.3589 -0.1255 -0.5488
10490TIP3   OH252884   2.119   4.474  16.581 -0.5520  0.1786 -0.1308
10490TIP3    H152885   2.114   4.564  16.615 -0.8843 -0.4832  1.6838
10490TIP3    H252886   2.049   4.469  16.515 -2.9905  0.2663  2.2813
10491TIP3   OH252887   5.764   4.977  11.635  0.3562  0.1497 -0.2426
10491TIP3    H152888   5.837   4.958  11.694  0.4257 -1.2604 -0.7416
10491TIP3    H252889   5.796   4.953  11.549 -1.0110 -1.5285 -0.3509
10492TIP3   OH252890   4.856   5.291   3.698 -0.8502  0.3397 -0.1984
10492TIP3    H152891   4.798   5.242   3.640  0.2992 -0.5072 -0.6567
10492TIP3    H252892   4.812   5.376   3.709 -2.4279 -0.4499 -0.1067
10493TIP3   OH252893   0.106   1.844  13.456  0.0921  0.2579 -0.0321
10493TIP3    H152894   0.115   1.896  13.536  0.7550  0.7495 -0.4175
10493TIP3    H252895   0.132   1.903  13.386  0.4490 -0.4595 -0.5190
10494TIP3   OH252896   6.658   3.115  11.674  0.3440 -0.6970  0.7807
10494TIP3    H152897   6.702   3.180  11.728 -1.4237  1.4357 -0.1865
10494TIP3    H252898   6.713   3.107  11.596  0.3873 -0.0895  0.7497
10495TIP3   OH252899   3.259   4.043   4.698 -0.9662 -0.1692  0.4573
10495TIP3    H152900   3.267   4.109   4.630 -2.3208 -1.0344 -0.6049
10495TIP3    H252901   3.338   4.054   4.752 -0.2258  1.0232 -0.8024
10496TIP3   OH252902   0.953   3.171  11.834 -0.5698  0.1057  0.3962
10496TIP3    H152903   0.935   3.094  11.888  1.1926 -0.6414 -0.0243
10496TIP3    H252904   0.874   3.182  11.781 -0.4751 -2.0586 -0.2818
10497TIP3   OH252905   2.996   1.487   2.937  0.1071 -0.2299  0.5619
10497TIP3    H152906   2.987   1.476   2.842 -0.0432  0.5498  0.4836
10497TIP3    H252907   2.925   1.546   2.961  0.8796  0.5520  0.9738
10498TIP3   OH252908   1.268   4.147  10.729 -0.7238  0.5162 -0.2477
10498TIP3    H152909   1.320   4.188  10.661 -0.2585  1.7216  0.7914
10498TIP3    H252910   1.247   4.060  10.695  0.3764  0.7093 -1.4719
10499TIP3   OH252911   6.134   3.910  15.776  0.5965  0.0376  0.4553
10499TIP3    H152912   6.128   3.889  15.683 -1.3152  0.4705  0.4256
10499TIP3    H252913   6.053   3.958  15.794  0.8317 -0.2228  2.3830
10500TIP3   OH252914   2.742   0.297  13.026 -0.1210  0.1250  0.6756
10500TIP3    H152915   2.667   0.307  12.968  0.7648 -0.7758 -0.6650
10500TIP3    H252916   2.769   0.206  13.016  1.4716  0.5532  0.7337
10501TIP3   OH252917   1.163   3.774   5.452  0.6830  0.2381  0.2521
10501TIP3    H152918   1.189   3.827   5.527  0.6237 -0.1767  0.5656
10501TIP3    H252919   1.240   3.775   5.394  1.2906 -0.6947  1.0171
10502TIP3   OH252920   1.522   6.523  13.847  0.1846 -0.1223  0.4107
10502TIP3    H152921   1.489   6.581  13.779 -0.4090  1.0371  1.6543
10502TIP3    H252922   1.615   6.513  13.827  0.1710  0.7784 -0.1430
10503TIP3   OH252923   3.539   0.462   1.954  0.9829 -0.0329 -0.4185
10503TIP3    H152924   3.503   0.551   1.950  1.6040  0.2458  0.0914
10503TIP3    H252925   3.605   0.466   2.023  1.1207 -0.8563 -0.4974
10504TIP3   OH252926   4.308   1.308   0.185  0.0377  0.1745  0.0533
10504TIP3    H152927   4.393   1.281   0.150  0.8986  0.2064  1.9652
10504TIP3    H252928   4.287   1.389   0.139  1.1764  0.2977 -0.2733
10505TIP3   OH252929   5.724   0.868   1.049  0.1243  0.2553  0.1900
10505TIP3    H152930   5.751   0.855   0.959  0.9336 -0.0461  0.4681
10505TIP3    H252931   5.753   0.957   1.071  0.3871  0.1408  0.3106
10506TIP3   OH252932   1.222   2.570   0.119 -0.6111  0.0751  0.0676
10506TIP3    H152933   1.313   2.574   0.149 -0.1068  0.3640 -1.4445
10506TIP3    H252934   1.185   2.494   0.165  0.4765 -0.2332  0.4633
10507TIP3   OH252935   4.998   0.167  13.070  0.8257  0.3258 -0.6697
10507TIP3    H152936   4.906   0.166  13.041  1.3074  1.7243 -2.3691
10507TIP3    H252937   4.994   0.202  13.159 -0.2592  0.6916 -0.8410
10508TIP3   OH252938   3.107   6.244  10.456  0.0884 -0.4722 -0.1052
10508TIP3    H152939   3.072   6.333  10.456  1.5232  0.1273  0.6165
10508TIP3    H252940   3.032   6.188  10.475 -0.1499  0.9369  4.1143
10509TIP3   OH252941   2.618   0.214  16.472 -0.1850  0.2557 -0.0906
10509TIP3    H152942   2.664   0.297  16.485  0.1348 -0.1291  1.5534
10509TIP3    H252943   2.632   0.193  16.380  2.6771  0.3417  0.2184
10510TIP3   OH252944   0.965   4.495  10.788  0.1631  0.6135  0.3372
10510TIP3    H152945   0.973   4.460  10.700  0.6230  1.6310 -0.0505
10510TIP3    H252946   1.051   4.480  10.828 -0.0499  0.1396  0.6135
10511TIP3   OH252947   0.367   4.799   3.110 -0.3571  0.0201 -0.0029
10511TIP3    H152948   0.429   4.764   3.174  1.1117 -0.2246 -1.4853
10511TIP3    H252949   0.411   4.875   3.073 -1.8902  1.1631  0.4197
10512TIP3   OH252950   0.538   1.826   3.800 -0.0639 -0.3237 -0.2970
10512TIP3    H152951   0.454   1.787   3.775  0.0668  0.0310 -1.3554
10512TIP3    H252952   0.602   1.758   3.781 -0.2794 -1.5195  2.7863
10513TIP3   OH252953   3.839   4.172   5.669 -0.4661 -0.1490 -0.2561
10513TIP3    H152954   3.821   4.101   5.731 -0.4330 -1.0476 -1.2416
10513TIP3    H252955   3.877   4.128   5.593  1.1943  1.1363 -0.2244
10514TIP3   OH252956   0.119   3.486   0.299  0.3426 -0.2782  0.6201
10514TIP3    H152957   0.161   3.544   0.235 -1.1209 -1.1778 -1.2939
10514TIP3    H252958   0.027   3.511   0.296  0.1249 -0.8943  1.7971
10515TIP3   OH252959   2.100   1.753  14.036 -0.1531 -0.0545 -0.0993
10515TIP3    H152960   2.024   1.809  14.048 -1.1417 -1.4903  0.7347
10515TIP3    H252961   2.147   1.790  13.962 -0.8194  1.7679  0.3566
10516TIP3   OH252962   6.284   2.053   3.495 -0.1141 -0.2001  0.6475
10516TIP3    H152963   6.322   2.141   3.505  0.1287 -0.4696  2.4380
10516TIP3    H252964   6.317   2.023   3.410  0.6788  1.0126  0.4847
10517TIP3   OH252965   1.119   4.810  15.461  0.5477  0.2159 -0.3883
10517TIP3    H152966   1.208   4.787  15.435 -0.1477 -1.8778 -1.0927
10517TIP3    H252967   1.122   4.813  15.557  1.7595  2.0703 -0.4234
10518TIP3   OH252968   4.898   0.937  13.314  0.4511 -0.0483 -0.1320
10518TIP3    H152969   4.846   0.991  13.372  0.7906 -0.0829  0.2095
10518TIP3    H252970   4.847   0.931  13.233 -0.0903 -0.1216  0.2166
10519TIP3   OH252971   1.468   2.451  11.654 -0.2226 -0.0584  0.1593
10519TIP3    H152972   1.516   2.375  11.688 -0.6983 -0.0915  0.7713
10519TIP3    H252973   1.463   2.435  11.559 -0.0289 -0.6231  0.2347
10520TIP3   OH252974   4.601   5.674  16.567  0.5854 -0.0198  0.3588
10520TIP3    H152975   4.619   5.594  16.518  1.0234 -0.8496  1.8390
10520TIP3    H252976   4.518   5.706  16.530  0.4809 -1.0567 -0.3508
10521TIP3   OH252977   0.312   2.279   4.313 -0.0685 -0.1615  0.0245
10521TIP3    H152978   0.379   2.227   4.268  0.2702  0.8862 -0.7189
10521TIP3    H252979   0.250   2.214   4.348  2.2922 -1.3142  2.4337
10522TIP3   OH252980   4.160   3.689   3.132  0.3533  0.3514  0.1857
10522TIP3    H152981   4.125   3.777   3.145 -1.3769 -0.3115  0.2198
10522TIP3    H252982   4.139   3.668   3.041  0.5177 -0.1474  0.2600
10523TIP3   OH252983   3.119   1.798  12.112  0.4003 -0.3754  0.1729
10523TIP3    H152984   3.038   1.833  12.075  0.8444  1.8534  1.1382
10523TIP3    H252985   3.189   1.837  12.059  0.8975 -0.4951  0.7290
10524TIP3   OH252986   0.092   4.229   2.422  0.2847 -0.2220 -0.0858
10524TIP3    H152987   0.007   4.269   2.403  0.7444  1.3651  1.0085
10524TIP3    H252988   0.125   4.277   2.497  2.3658 -0.5046 -0.7504
10525TIP3   OH252989   5.980   4.377  10.672 -1.0983  0.9218  0.5063
10525TIP3    H152990   6.075   4.386  10.676 -0.8856 -1.0793  1.1867
10525TIP3    H252991   5.953   4.368  10.763 -1.6233 -0.9563  0.2034
10526TIP3   OH252992   3.778   5.400  16.903 -0.1366  0.1551  0.1796
10526TIP3    H152993   3.817   5.343  16.837  0.4756  0.4069  0.3143
10526TIP3    H252994   3.853   5.444  16.944 -0.4009 -0.9434  1.9294
10527TIP3   OH252995   2.299   6.085  13.926  0.4263  0.1618  0.3860
10527TIP3    H152996   2.320   6.082  13.833 -3.0181  0.3186 -0.5520
10527TIP3    H252997   2.329   6.170  13.956  1.4011  0.1821 -0.6121
10528TIP3   OH252998   5.148   3.991   0.196 -0.4877  0.1966  0.0900
10528TIP3    H152999   5.187   4.060   0.142 -0.6773  0.4061  0.2167
10528TIP3    H253000   5.222   3.941   0.228 -0.4304 -0.9744 -1.7159
10529TIP3   OH253001   6.641   1.481  13.739  0.2522  0.3711 -0.1000
10529TIP3    H153002   6.662   1.510  13.828 -0.6729  0.8613 -0.0279
10529TIP3    H253003   6.681   1.548  13.683 -0.6004  0.9912  0.0144
10530TIP3   OH253004   3.190   0.719  14.035 -0.2912 -0.6644  0.1115
10530TIP3    H153005   3.180   0.703  14.129 -0.6467  0.9373  0.3681
10530TIP3    H253006   3.102   0.709  14.000 -0.2758 -0.6165  0.0598
10531TIP3   OH253007   2.921   0.474   2.739 -0.4476  0.1985  0.3585
10531TIP3    H153008   2.831   0.498   2.717 -0.0535  0.3079 -1.2997
10531TIP3    H253009   2.928   0.382   2.714 -0.4215 -0.1436  1.5923
10532TIP3   OH253010   5.155   2.624  13.097  0.0131  0.5695 -0.2345
10532TIP3    H153011   5.148   2.657  13.187  3.9125 -0.4427  0.6164
10532TIP3    H253012   5.178   2.700  13.045  1.5857  0.5795  0.4028
10533TIP3   OH253013   0.451   5.987   1.798  0.1380 -0.4389 -0.1099
10533TIP3    H153014   0.437   6.000   1.892  0.2360  0.1639 -0.1711
10533TIP3    H253015   0.364   5.977   1.761  0.1444 -1.9460  0.2019
10534TIP3   OH253016   4.274   0.518   0.894  0.1712 -0.5228 -0.0183
10534TIP3    H153017   4.199   0.482   0.942 -0.4830  0.2657 -0.4227
10534TIP3    H253018   4.320   0.572   0.957  0.7171 -1.4210  0.3781
10535TIP3   OH253019   4.528   5.251   4.500 -0.7073  0.6352 -0.3324
10535TIP3    H153020   4.604   5.248   4.558 -0.4780  1.5080 -0.5709
10535TIP3    H253021   4.465   5.191   4.539 -0.8020  1.6823  1.1875
10536TIP3   OH253022   4.584   3.906  10.623 -0.5760  0.0161 -0.0605
10536TIP3    H153023   4.636   3.842  10.672 -0.0529  0.1003 -0.5087
10536TIP3    H253024   4.590   3.987  10.674 -0.9374 -0.1841  0.3112
10537TIP3   OH253025   1.745   4.494   0.105  0.4720  0.5855  0.1934
10537TIP3    H153026   1.785   4.577   0.079 -1.2525  1.8470  1.3426
10537TIP3    H253027   1.760   4.488   0.199 -1.6769  0.9732  0.6180
10538TIP3   OH253028   3.287   2.363   1.281  0.2282 -0.0858  0.3666
10538TIP3    H153029   3.296   2.326   1.369 -1.0189  1.8975  1.4087
10538TIP3    H253030   3.233   2.301   1.233 -1.7878  0.2751  2.0360
10539TIP3   OH253031   0.510   1.422  15.608  0.3887 -0.1521  0.1012
10539TIP3    H153032   0.488   1.335  15.576 -2.0408  0.7266 -0.8911
10539TIP3    H253033   0.602   1.434  15.583  0.4612 -2.0021 -0.6873
10540TIP3   OH253034   2.789   3.354  14.434 -0.1372  0.7073 -0.0369
10540TIP3    H153035   2.821   3.287  14.495 -1.2798 -0.1021 -0.2858
10540TIP3    H253036   2.852   3.355  14.363  0.7103  0.9986  0.6922
10541TIP3   OH253037   3.100   2.062   2.646  0.4445 -0.0717  0.0166
10541TIP3    H153038   3.080   2.118   2.721 -1.4596 -0.6259 -0.0248
10541TIP3    H253039   3.129   1.979   2.684 -0.6936 -0.4138  0.1664
10542TIP3   OH253040   4.181   0.321  12.075  0.6921  0.3742  0.7104
10542TIP3    H153041   4.139   0.289  11.995  1.6532  1.8891 -0.4630
10542TIP3    H253042   4.275   0.315  12.057  0.9150  1.6032  1.3489
10543TIP3   OH253043   1.474   0.346  15.270  0.3119  0.0142 -0.4728
10543TIP3    H153044   1.535   0.419  15.255  1.3560 -0.9202 -0.8839
10543TIP3    H253045   1.528   0.268  15.265 -0.4674 -0.7385  1.7035
10544TIP3   OH253046   3.464   4.469  12.324 -0.0496  0.7043 -0.1747
10544TIP3    H153047   3.436   4.389  12.368 -0.0052 -0.2240 -1.7617
10544TIP3    H253048   3.443   4.539  12.386 -2.1888 -0.3170  0.3527
10545TIP3   OH253049   5.515   4.130   1.444 -0.2530 -0.1988 -0.4720
10545TIP3    H153050   5.493   4.077   1.521 -1.0291 -1.9056 -1.7997
10545TIP3    H253051   5.609   4.118   1.433  0.0962  1.0198  0.8503
10546TIP3   OH253052   6.689   4.652  11.560  0.0495  0.5598  0.5797
10546TIP3    H153053   6.620   4.591  11.534 -0.5504  0.4019  2.3815
10546TIP3    H253054   6.646   4.738  11.558  0.2656  0.6617  0.1856
10547TIP3   OH253055   3.901   6.280   0.904  0.7189  0.3399  0.3600
10547TIP3    H153056   3.936   6.293   0.992 -0.3479 -0.5308  0.9321
10547TIP3    H253057   3.943   6.200   0.873  1.8976  1.2135 -0.3589
10548TIP3   OH253058   1.993   5.726  13.140 -0.5144  0.4371 -0.0915
10548TIP3    H153059   1.985   5.686  13.054 -2.3130 -0.9810  0.6740
10548TIP3    H253060   2.013   5.818  13.122 -1.7522  0.3780 -2.0456
10549TIP3   OH253061   2.030   0.693  13.473 -0.2561  0.0822  0.1128
10549TIP3    H153062   2.032   0.644  13.391  1.7138  0.1056  0.0834
10549TIP3    H253063   1.987   0.635  13.536  0.5667 -1.0319 -0.3236
10550TIP3   OH253064   4.547   3.563  11.809 -0.0861  0.1811  0.1731
10550TIP3    H153065   4.575   3.652  11.828 -0.0828  0.0885  0.6046
10550TIP3    H253066   4.453   3.570  11.790 -0.0061  0.3298 -0.1707
10551TIP3   OH253067   0.121   4.973  15.764  0.0151  0.3930 -0.3646
10551TIP3    H153068   0.094   5.052  15.811  0.4387 -0.8881  2.2046
10551TIP3    H253069   0.040   4.928  15.744 -0.1531  0.8038 -0.6300
10552TIP3   OH253070   3.279   0.951  11.511 -0.3928  0.7793 -0.3545
10552TIP3    H153071   3.185   0.946  11.490 -0.0211 -0.8481 -1.9221
10552TIP3    H253072   3.303   0.861  11.533  1.1892  0.7472 -1.9605
10553TIP3   OH253073   1.477   6.553   0.037  0.3222 -0.0175 -0.1706
10553TIP3    H153074   1.544   6.616   0.061 -0.2111 -0.0067  1.3947
10553TIP3    H253075   1.519   6.468   0.047  0.1253 -0.0113  0.8151
10554TIP3   OH253076   5.164   1.059   0.983 -0.6363  0.0496 -0.1430
10554TIP3    H153077   5.080   1.070   1.028 -0.7931 -1.5495  0.0043
10554TIP3    H253078   5.227   1.107   1.037 -1.4323  1.3133 -0.2803
10555TIP3   OH253079   1.662   3.246  15.046  0.1089 -0.0500  0.4055
10555TIP3    H153080   1.622   3.186  15.109  0.5517 -2.8731 -1.7487
10555TIP3    H253081   1.749   3.210  15.031 -0.7691 -1.0910 -3.4769
10556TIP3   OH253082   5.550   5.209  11.053 -0.2965  0.1852  0.3503
10556TIP3    H153083   5.492   5.237  10.982 -0.2684  1.5327  0.8344
10556TIP3    H253084   5.603   5.286  11.072  1.0619 -0.7648  0.5161
10557TIP3   OH253085   3.064   3.141  10.761  0.2163 -0.5466  0.0948
10557TIP3    H153086   3.124   3.086  10.812 -2.0571 -0.9697  2.5853
10557TIP3    H253087   3.026   3.082  10.696  0.7669 -0.8662  0.0630
10558TIP3   OH253088   3.197   3.015  15.440 -0.2111 -0.1331 -0.7283
10558TIP3    H153089   3.210   3.110  15.431 -0.0228 -0.2976 -2.6176
10558TIP3    H253090   3.122   2.996  15.385  0.4707 -1.2366 -1.3146
10559TIP3   OH253091   5.042   2.862  11.135  0.1575 -0.2083 -0.1895
10559TIP3    H153092   5.088   2.945  11.140  1.7346 -1.0468 -0.2719
10559TIP3    H253093   5.001   2.852  11.221  3.0178 -1.0062  1.1869
10560TIP3   OH253094   4.697   4.316   3.433  0.5474 -0.0776  0.8064
10560TIP3    H153095   4.785   4.320   3.395  0.8197  2.4710  1.5008
10560TIP3    H253096   4.700   4.378   3.506 -2.6690  2.5895 -1.0367
10561TIP3   OH253097   0.226   4.311  14.231  0.0479  0.4301  0.4788
10561TIP3    H153098   0.321   4.315  14.238  0.1271  1.1828 -0.7676
10561TIP3    H253099   0.206   4.217  14.227  0.6943  0.2570  1.0636
10562TIP3   OH253100   6.171   6.657   3.147  0.3870 -0.5218 -0.0159
10562TIP3    H153101   6.188   6.743   3.183 -2.6587 -0.0242  0.5079
10562TIP3    H253102   6.160   6.600   3.223 -3.1790 -0.0688  0.0023
10563TIP3   OH253103   0.419   5.281  12.312 -0.3866 -0.1895  0.0110
10563TIP3    H153104   0.430   5.231  12.393  3.2337 -0.3063 -0.3969
10563TIP3    H253105   0.414   5.214  12.244 -1.6357 -0.0443 -0.0681
10564TIP3   OH253106   0.578   0.513  12.206  0.0462 -0.1536  0.3460
10564TIP3    H153107   0.624   0.439  12.245  0.1250  0.1801  0.9030
10564TIP3    H253108   0.607   0.589  12.257 -0.1523  0.2411 -0.1140
10565TIP3   OH253109   3.616   2.886   0.302 -0.1012  0.5677  0.0897
10565TIP3    H153110   3.531   2.894   0.345 -0.9022  1.1010 -1.4958
10565TIP3    H253111   3.608   2.808   0.247  0.4292  0.6286 -0.0839
10566TIP3   OH253112   6.582   5.392  17.116 -0.5643  0.9519  0.2551
10566TIP3    H153113   6.607   5.339  17.191 -0.4520  0.1026 -0.3688
10566TIP3    H253114   6.553   5.329  17.050 -0.8643  1.6923 -0.3377
10567TIP3   OH253115   4.672   4.718   1.350  0.0399  0.0229  0.0387
10567TIP3    H153116   4.624   4.697   1.429  0.1470  0.8894  0.3443
10567TIP3    H253117   4.705   4.634   1.318 -1.0815 -0.4877  0.1983
10568TIP3   OH253118   4.721   2.986   2.449 -0.5194  0.1787 -0.0707
10568TIP3    H153119   4.679   2.936   2.379 -1.9714 -0.1009  0.9431
10568TIP3    H253120   4.648   3.016   2.504  0.4359  1.9758  0.3021
10569TIP3   OH253121   1.296   2.955   4.636 -0.1457  0.5805  0.2127
10569TIP3    H153122   1.271   3.042   4.602  1.4630  1.7834  1.9306
10569TIP3    H253123   1.349   2.917   4.566  0.3944  1.6250  0.0391
10570TIP3   OH253124   1.835   6.728   2.465 -0.1229 -0.3665  0.6346
10570TIP3    H153125   1.784   6.778   2.529  1.7344  2.5453  0.0036
10570TIP3    H253126   1.869   6.653   2.514  1.0554  1.6405  3.0916
10571TIP3   OH253127   4.628   4.105   0.972 -0.7110 -0.2782  0.4326
10571TIP3    H153128   4.631   4.010   0.980  0.2704 -1.2503 -6.0792
10571TIP3    H253129   4.711   4.135   1.010 -0.0835 -2.2394  0.7161
10572TIP3   OH253130   5.582   3.896   5.138  0.1489 -0.0062 -0.0694
10572TIP3    H153131   5.525   3.973   5.133 -0.5056 -0.5265 -0.8645
10572TIP3    H253132   5.658   3.926   5.188  0.2209  1.3612 -0.9459
10573TIP3   OH253133   1.931   0.458   0.162 -0.3846 -0.0100 -0.0759
10573TIP3    H153134   1.978   0.375   0.166  0.7707  0.5882 -0.6806
10573TIP3    H253135   1.991   0.521   0.201 -1.4943  0.4490  0.9198
10574TIP3   OH253136   2.495   1.381   4.639 -0.1044  0.5043  0.2798
10574TIP3    H153137   2.533   1.425   4.563  1.4766  0.4776  1.0175
10574TIP3    H253138   2.402   1.405   4.636  0.2838  2.0363 -0.6020
10575TIP3   OH253139   5.241   3.972   1.512  0.2084 -0.3865  0.4152
10575TIP3    H153140   5.277   4.050   1.470  1.3288 -0.5369  1.0481
10575TIP3    H253141   5.290   3.899   1.472 -1.9095 -0.9720 -1.3515
10576TIP3   OH253142   5.937   2.163  15.959  0.7859  0.1502 -0.3035
10576TIP3    H153143   5.983   2.085  15.990  2.0980  1.0984  0.2158
10576TIP3    H253144   5.978   2.235  16.007 -1.7277  0.9970  0.7285
10577TIP3   OH253145   0.246   3.911   4.797  0.5767 -0.3992  0.6535
10577TIP3    H153146   0.319   3.960   4.760 -1.0675  1.2192 -0.6510
10577TIP3    H253147   0.180   3.910   4.728 -0.1450 -3.0378  1.2775
10578TIP3   OH253148   5.087   0.454   3.541  0.0447 -0.8711  0.2764
10578TIP3    H153149   5.116   0.373   3.583  2.1288 -0.8618 -0.9665
10578TIP3    H253150   5.142   0.522   3.581 -0.2954 -0.3775 -0.0867
10579TIP3   OH253151   4.551   1.966   4.878  0.6186 -1.0080 -0.0289
10579TIP3    H153152   4.617   1.918   4.827  1.7160  0.9428 -0.5363
10579TIP3    H253153   4.545   2.051   4.835 -3.0302 -1.4119 -0.6501
10580TIP3   OH253154   3.207   1.757  16.214  0.4854 -0.1889  0.2918
10580TIP3    H153155   3.132   1.787  16.162  0.6273  0.1570  0.2877
10580TIP3    H253156   3.273   1.825  16.202  0.9580 -0.6990 -0.0465
10581TIP3   OH253157   6.701   1.447   3.506 -0.2182  0.3396  0.4673
10581TIP3    H153158   6.695   1.504   3.583  2.3618  1.4616 -0.0581
10581TIP3    H253159   6.704   1.358   3.541 -0.3674  0.7536  1.5651
10582TIP3   OH253160   3.857   2.028  15.334  0.3401 -0.5808  0.5862
10582TIP3    H153161   3.785   1.965  15.328 -0.6291  0.6136 -1.9868
10582TIP3    H253162   3.816   2.108  15.365  1.4622 -0.9531  3.2859
10583TIP3   OH253163   2.615   4.749   3.512  0.3059  0.0322  0.0879
10583TIP3    H153164   2.601   4.788   3.426 -0.5400 -0.5030 -0.0297
10583TIP3    H253165   2.576   4.812   3.573 -0.2017 -0.1632 -0.0264
10584TIP3   OH253166   1.596   0.951  11.562  0.3814 -0.1677 -0.1992
10584TIP3    H153167   1.540   0.887  11.519  0.1243 -0.2999  0.3197
10584TIP3    H253168   1.560   0.958  11.651  0.4623  0.6276 -0.2256
10585TIP3   OH253169   2.923   1.891  14.299  0.3901  0.4084  0.1380
10585TIP3    H153170   2.940   1.849  14.383  2.7657  2.4663  0.8138
10585TIP3    H253171   2.857   1.957  14.319  0.0773  0.1084  0.1070
10586TIP3   OH253172   3.303   3.058  12.751 -0.2849  0.4641  0.1875
10586TIP3    H153173   3.270   3.146  12.766  0.0045  0.4076  1.2345
10586TIP3    H253174   3.268   3.007  12.824 -2.1242 -0.7747 -1.4377
10587TIP3   OH253175   3.166   0.811   3.123 -0.1428  0.1823  0.4836
10587TIP3    H153176   3.145   0.891   3.170 -0.5925  0.7951 -0.7089
10587TIP3    H253177   3.153   0.833   3.031  2.0789 -0.5396 -0.0724
10588TIP3   OH253178   1.894   1.155   3.530 -0.5677  0.5653 -0.7324
10588TIP3    H153179   1.809   1.133   3.567 -0.2272 -0.6983 -0.6571
10588TIP3    H253180   1.888   1.248   3.508 -1.8214  0.5815 -0.3570
10589TIP3   OH253181   2.224   6.586  16.726  0.5054 -0.2573  0.3105
10589TIP3    H153182   2.153   6.647  16.707 -2.4260 -3.1882  0.9344
10589TIP3    H253183   2.240   6.596  16.819  0.8427  0.3051  0.1987
10590TIP3   OH253184   5.788   1.862   3.967 -0.0374  0.1780 -0.5517
10590TIP3    H153185   5.737   1.915   4.028  0.1255  0.0802 -0.3310
10590TIP3    H253186   5.847   1.924   3.925  0.7957  0.0365  0.3664
10591TIP3   OH253187   1.374   6.490   4.276  0.1545  0.7251  0.1696
10591TIP3    H153188   1.323   6.534   4.344 -0.5943  0.9670 -0.5305
10591TIP3    H253189   1.318   6.417   4.248  0.4088  0.6972 -0.2662
10592TIP3   OH253190   1.361   2.561   4.338 -0.8169 -0.4715 -0.1058
10592TIP3    H153191   1.341   2.634   4.279  2.7132  0.9722  0.1748
10592TIP3    H253192   1.326   2.484   4.294  0.1120  0.7602 -3.2803
10593TIP3   OH253193   5.632   6.389   5.766 -0.6050  0.5960 -0.3066
10593TIP3    H153194   5.627   6.462   5.705  0.6177  0.5340 -0.5211
10593TIP3    H253195   5.698   6.331   5.728  0.8166  0.9534  1.4505
10594TIP3   OH253196   4.730   0.471   2.402 -0.4451  0.4192  0.1671
10594TIP3    H153197   4.726   0.557   2.444 -0.0206  0.7655 -0.4681
10594TIP3    H253198   4.695   0.486   2.314 -1.0471 -0.2208  0.2909
10595TIP3   OH253199   6.028   4.984  17.011  0.3577  0.3516 -0.3517
10595TIP3    H153200   5.998   5.016  16.925 -1.0995 -1.5932 -0.6409
10595TIP3    H253201   5.951   4.993  17.068  0.5495 -0.6313  0.0830
10596TIP3   OH253202   3.706   4.537   0.334  0.1030  0.3694  0.1028
10596TIP3    H153203   3.679   4.540   0.426 -0.3256  0.6230 -0.0312
10596TIP3    H253204   3.744   4.623   0.317  0.0253  0.3822 -0.0061
10597TIP3   OH253205   4.856   2.233  12.240 -0.0757 -0.9010 -0.6325
10597TIP3    H153206   4.945   2.270  12.236  0.7987 -2.6407  0.8695
10597TIP3    H253207   4.834   2.236  12.333 -2.0504  0.4045 -1.0898
10598TIP3   OH253208   1.036   2.746  16.987 -0.3286  0.2839  0.3280
10598TIP3    H153209   1.084   2.774  17.064  0.3479 -0.6592  0.2659
10598TIP3    H253210   1.016   2.827  16.940  1.0748  0.7049  0.4292
10599TIP3   OH253211   0.095   1.144   2.233 -0.0104  0.0031 -0.4115
10599TIP3    H153212   0.155   1.096   2.291 -0.9695  0.9298  1.4549
10599TIP3    H253213   0.149   1.168   2.158  1.4638 -0.7883  0.3460
10600TIP3   OH253214   2.012   3.602  12.431 -0.0381 -0.0685 -0.3125
10600TIP3    H153215   2.107   3.612  12.430 -0.1276  0.8777 -0.7052
10600TIP3    H253216   1.997   3.509  12.419  0.8193 -0.0980 -1.2426
10601TIP3   OH253217   2.918   0.191   3.184  0.2155  0.2301 -0.2439
10601TIP3    H153218   2.869   0.261   3.228 -0.9567 -1.3188  1.0128
10601TIP3    H253219   2.901   0.205   3.091 -1.6414  0.4773  0.1025
10602TIP3   OH253220   0.691   6.289  15.531  0.9423 -0.0692  0.2674
10602TIP3    H153221   0.690   6.360  15.468  2.4621 -0.6382 -0.4529
10602TIP3    H253222   0.674   6.332  15.615  1.9646  1.1865 -0.1274
10603TIP3   OH253223   6.779   3.442  15.362 -0.1417 -0.3424  0.7179
10603TIP3    H153224   6.793   3.397  15.445 -0.6904 -0.8733  0.5310
10603TIP3    H253225   6.721   3.515  15.384  0.2282 -0.0975  0.9050
10604TIP3   OH253226   3.597   3.292   1.918 -0.2383  0.0218 -0.6257
10604TIP3    H153227   3.593   3.387   1.929  0.7810  0.0885 -0.7753
10604TIP3    H253228   3.562   3.276   1.830  0.8777  0.3928 -1.1488
10605TIP3   OH253229   4.151   0.955  14.896  0.6678  0.1939  0.1457
10605TIP3    H153230   4.116   1.040  14.868  1.0276  0.6665  1.0680
10605TIP3    H253231   4.193   0.919  14.818  1.3328  1.3049 -0.0355
10606TIP3   OH253232   5.369   2.830  10.423 -0.6736 -0.3458  0.5076
10606TIP3    H153233   5.429   2.775  10.473 -0.0373 -0.4813 -0.3909
10606TIP3    H253234   5.286   2.823  10.471  0.1092  0.1921  2.0003
10607TIP3   OH253235   0.898   3.768   4.552  0.4636 -0.4801 -0.3240
10607TIP3    H153236   0.967   3.747   4.615 -0.0111 -2.9403 -0.5225
10607TIP3    H253237   0.945   3.797   4.474  1.1347  0.6833  0.4875
10608TIP3   OH253238   4.902   6.403  14.670  0.0318 -0.1415 -0.2650
10608TIP3    H153239   4.996   6.415  14.683  0.1485 -0.3023 -0.9248
10608TIP3    H253240   4.880   6.461  14.597 -0.2141 -0.7391 -0.6735
10609TIP3   OH253241   4.670   6.544  14.316  0.3773  0.2243  0.0630
10609TIP3    H153242   4.580   6.551  14.283  0.0814 -0.8792  0.5715
10609TIP3    H253243   4.660   6.506  14.403  1.4427 -2.0418 -0.7309
10610TIP3   OH253244   4.907   5.077  14.086  0.1340  0.0859 -0.2161
10610TIP3    H153245   4.997   5.046  14.080 -0.0908 -0.9708  1.1551
10610TIP3    H253246   4.899   5.108  14.177 -0.9013  0.0741 -0.2906
10611TIP3   OH253247   5.423   1.420  12.105  0.4139 -0.5843  0.2563
10611TIP3    H153248   5.399   1.441  12.196  0.8253  0.4388  0.1375
10611TIP3    H253249   5.339   1.408  12.061  0.1788  0.0537  0.5163
10612TIP3   OH253250   5.267   1.238   1.156  0.4485  0.1653  0.0497
10612TIP3    H153251   5.293   1.325   1.127 -0.6743  0.9389  1.2416
10612TIP3    H253252   5.177   1.248   1.186  0.1958 -1.4753 -0.0455
10613TIP3   OH253253   0.946   5.161   6.251 -0.0356  0.2764  0.5568
10613TIP3    H153254   0.970   5.243   6.293 -0.8693  0.2863  1.0371
10613TIP3    H253255   0.851   5.154   6.265 -0.2925  0.1615 -1.1189
10614TIP3   OH253256   1.338   5.876  12.827  0.5112 -0.5367  0.2503
10614TIP3    H153257   1.432   5.882  12.846  0.2149  0.7563  1.5325
10614TIP3    H253258   1.328   5.924  12.744  0.8009  0.7502  0.9240
10615TIP3   OH253259   2.404   1.627   5.177  0.1855  1.0386  0.0823
10615TIP3    H153260   2.491   1.651   5.209  1.1977 -1.5310 -0.5333
10615TIP3    H253261   2.345   1.647   5.250  1.8096 -0.5116  1.9060
10616TIP3   OH253262   0.989   5.199  17.133 -0.1786 -0.3929  0.0893
10616TIP3    H153263   1.011   5.290  17.114 -1.5684 -0.1822 -0.6782
10616TIP3    H253264   0.975   5.197  17.228  0.4867  0.0337  0.2018
10617TIP3   OH253265   4.736   3.631  13.629 -0.0108 -0.2528  0.0889
10617TIP3    H153266   4.691   3.654  13.710  2.7453  1.0419  1.3740
10617TIP3    H253267   4.780   3.548  13.649 -0.6628 -0.7924 -0.6748
10618TIP3   OH253268   5.867   0.782   0.169  0.0769 -0.3599  0.0233
10618TIP3    H153269   5.915   0.720   0.114  0.3890 -0.1563  0.0645
10618TIP3    H253270   5.780   0.743   0.177  0.8373 -1.8802  1.7499
10619TIP3   OH253271   0.402   0.322   4.040  0.2585 -0.0147 -0.2095
10619TIP3    H153272   0.425   0.387   3.973 -0.0984 -0.5937 -0.9009
10619TIP3    H253273   0.388   0.374   4.119  1.4945  0.6039 -0.3627
10620TIP3   OH253274   0.998   1.624  15.365 -0.0920  0.0733  0.0469
10620TIP3    H153275   1.082   1.581  15.346  0.2215  1.1336 -1.1014
10620TIP3    H253276   0.969   1.659  15.281  0.9369  4.2946  1.2136
10621TIP3   OH253277   2.549   2.810   5.140  0.2560 -0.1038  0.2823
10621TIP3    H153278   2.545   2.897   5.178  2.3666  1.5453 -2.8287
10621TIP3    H253279   2.473   2.805   5.082  0.1963 -0.3089  0.3761
10622TIP3   OH253280   4.773   1.555  14.095  0.0120  0.3993  0.3926
10622TIP3    H153281   4.843   1.543  14.159 -0.6363  1.5859  1.3643
10622TIP3    H253282   4.789   1.487  14.029  1.9693  0.5392  0.6688
10623TIP3   OH253283   5.093   3.488   3.299 -0.1359  0.3383  0.1595
10623TIP3    H153284   5.155   3.525   3.361 -1.7012  1.4219  1.1352
10623TIP3    H253285   5.008   3.499   3.340 -1.1379  0.1849 -1.7572
10624TIP3   OH253286   5.098   0.439   1.809  0.1105 -0.4163  0.6200
10624TIP3    H153287   5.088   0.490   1.728  0.7128  0.4732  1.0877
10624TIP3    H253288   5.107   0.505   1.878 -1.7417 -1.1269  1.6283
10625TIP3   OH253289   1.851   4.014   1.007  0.2613 -0.0562  0.1321
10625TIP3    H153290   1.843   3.957   0.931 -0.8668 -0.0919  0.2620
10625TIP3    H253291   1.900   3.963   1.071  0.2100 -0.4647 -0.1536
10626TIP3   OH253292   2.121   2.935   0.087 -0.3049 -0.1107 -0.2021
10626TIP3    H153293   2.054   2.965   0.025 -0.0456  0.0310 -0.4181
10626TIP3    H253294   2.179   3.011   0.098 -0.1315 -0.2593 -0.0861
10627TIP3   OH253295   3.886   6.581   6.053  0.5455 -0.3563 -0.1630
10627TIP3    H153296   3.885   6.498   6.100  1.0421 -1.0067 -1.2495
10627TIP3    H253297   3.799   6.588   6.014 -0.4158  0.9418  2.0559
10628TIP3   OH253298   5.990   5.927  11.913  0.2811 -0.2568 -0.2699
10628TIP3    H153299   5.972   6.020  11.895  1.8144  0.6905  2.4122
10628TIP3    H253300   5.917   5.900  11.970  0.8511 -0.0670  0.5699
10629TIP3   OH253301   5.714   5.507   5.024  0.8016 -0.1160 -0.1733
10629TIP3    H153302   5.679   5.422   5.050  0.0821  0.5776  1.2305
10629TIP3    H253303   5.809   5.496   5.028  0.7126 -0.7683  0.2600
10630TIP3   OH253304   5.668   4.999   4.621  0.0512 -0.1570  0.3579
10630TIP3    H153305   5.643   4.908   4.637 -2.6239  0.6197  1.3024
10630TIP3    H253306   5.589   5.049   4.644  1.3849  2.3921 -0.2493
10631TIP3   OH253307   3.795   3.177   1.555 -0.1665 -0.1581  0.3109
10631TIP3    H153308   3.819   3.229   1.631  1.2266 -0.4181  0.0801
10631TIP3    H253309   3.795   3.086   1.586  1.0827 -0.3272 -0.1334
10632TIP3   OH253310   1.746   5.884  11.068 -0.0470 -0.3250 -0.5171
10632TIP3    H153311   1.762   5.891  11.162  0.6063  0.9615 -0.7092
10632TIP3    H253312   1.781   5.798  11.044  2.3852  0.4652 -0.0631
10633TIP3   OH253313   3.304   4.098  15.198 -0.3574 -0.3280 -0.4650
10633TIP3    H153314   3.254   4.019  15.217 -0.9437 -0.0481 -0.8300
10633TIP3    H253315   3.384   4.067  15.154  0.0885 -0.8213  0.6681
10634TIP3   OH253316   1.910   0.951   4.987 -0.0472 -0.1255  0.0034
10634TIP3    H153317   1.844   1.020   4.982 -0.1094 -0.0873  1.1281
10634TIP3    H253318   1.942   0.942   4.897 -0.2045  1.2025 -0.2011
10635TIP3   OH253319   5.477   1.926  16.287  0.2416  0.3500  0.1965
10635TIP3    H153320   5.463   1.922  16.192 -0.9831  2.9001  0.1907
10635TIP3    H253321   5.509   2.015  16.303  2.5373 -0.6905  1.9881
10636TIP3   OH253322   4.393   0.427   0.248  0.5627  0.1375 -0.2694
10636TIP3    H153323   4.389   0.460   0.337  1.3627  1.4409 -0.6981
10636TIP3    H253324   4.376   0.504   0.193  0.7707 -0.5049 -1.2586
10637TIP3   OH253325   2.424   6.738   3.518 -0.5010 -0.5685 -0.4549
10637TIP3    H153326   2.510   6.747   3.558  0.1229 -0.9448 -1.6721
10637TIP3    H253327   2.382   6.823   3.533  0.3388 -0.1508 -0.4248
10638TIP3   OH253328   6.194   1.879   1.623 -0.2344  0.0609 -0.4848
10638TIP3    H153329   6.202   1.968   1.586 -0.9852  0.4162  0.1858
10638TIP3    H253330   6.276   1.867   1.671 -0.3631  0.6140 -0.1135
10639TIP3   OH253331   2.644   2.145   5.411  0.5133 -0.0863  0.0162
10639TIP3    H153332   2.719   2.087   5.419  0.3574 -0.2992 -0.0741
10639TIP3    H253333   2.610   2.153   5.501  1.3420  0.9443  0.2573
10640TIP3   OH253334   1.007   2.699   3.664 -0.3485 -0.2680  0.6541
10640TIP3    H153335   1.039   2.615   3.631 -1.5060 -1.2040  1.8059
10640TIP3    H253336   0.935   2.722   3.606 -0.2458 -0.2328  0.5396
10641TIP3   OH253337   6.100   3.055  14.945  0.2117  0.0709  0.1584
10641TIP3    H153338   6.111   3.066  14.851 -0.4679  1.1120  0.1961
10641TIP3    H253339   6.036   3.120  14.971  2.0491  1.3848  1.7130
10642TIP3   OH253340   3.485   0.362   0.612 -0.0033  0.0282  0.3344
10642TIP3    H153341   3.537   0.420   0.557  1.8263 -0.7329  1.1735
10642TIP3    H253342   3.485   0.405   0.698  1.2084 -1.0874  0.9127
10643TIP3   OH253343   5.913   1.545  12.221 -0.7717 -0.0351  0.1623
10643TIP3    H153344   6.000   1.551  12.261 -0.8041 -0.3529  0.2786
10643TIP3    H253345   5.892   1.452  12.221 -0.7265 -0.0564 -0.6908
10644TIP3   OH253346   1.464   0.456   4.446  0.3335  0.8472 -0.2369
10644TIP3    H153347   1.414   0.486   4.369 -0.7607 -1.1370 -0.3650
10644TIP3    H253348   1.424   0.503   4.519 -1.0965  0.0495 -0.4670
10645TIP3   OH253349   2.038   4.944  16.985  0.0628 -0.1544 -0.0734
10645TIP3    H153350   1.971   4.897  17.034  0.9453 -0.7218  0.6179
10645TIP3    H253351   2.066   5.014  17.044 -1.5838  1.6321 -1.2735
10646TIP3   OH253352   6.035   0.321  16.296 -0.1900  0.4635  0.0359
10646TIP3    H153353   5.982   0.242  16.285 -0.8315  0.9847 -0.7679
10646TIP3    H253354   5.971   0.391  16.309  0.2435  1.1948 -1.5088
10647TIP3   OH253355   3.776   2.165   4.605 -0.3151 -0.2596  0.4474
10647TIP3    H153356   3.749   2.154   4.514 -2.4698  1.2726  0.8354
10647TIP3    H253357   3.828   2.245   4.605  0.2556 -0.6209  0.4860
10648TIP3   OH253358   6.050   2.751  14.461  0.5502 -0.0883 -0.0364
10648TIP3    H153359   6.007   2.682  14.410 -0.2672  0.0901  0.3846
10648TIP3    H253360   6.093   2.704  14.532  2.2761 -0.4060 -1.2342
10649TIP3   OH253361   1.846   3.424  13.791  0.1609  0.2963  0.1046
10649TIP3    H153362   1.942   3.426  13.783  0.0587 -1.0375 -2.7711
10649TIP3    H253363   1.825   3.331  13.797 -1.0388  0.3749 -2.0190
10650TIP3   OH253364   0.151   4.432   2.887  0.2699  1.0012 -0.0185
10650TIP3    H153365   0.078   4.399   2.939  0.1034 -0.6932 -1.2716
10650TIP3    H253366   0.226   4.379   2.915  0.6708  1.6091  0.0812
10651TIP3   OH253367   5.048   1.043  11.857  0.5962 -0.1103 -0.1333
10651TIP3    H153368   4.970   1.022  11.805  0.4146 -0.4252  0.2638
10651TIP3    H253369   5.016   1.052  11.946  0.9785 -0.0010 -0.0050
10652TIP3   OH253370   3.177   6.312  14.604  0.1391 -0.0810 -0.1394
10652TIP3    H153371   3.099   6.351  14.642  0.5317 -0.9666  1.7080
10652TIP3    H253372   3.189   6.357  14.521 -1.5955  0.9586  0.1301
10653TIP3   OH253373   4.555   2.396  16.417  0.4095 -0.5869  0.5954
10653TIP3    H153374   4.637   2.349  16.437  0.7025 -0.5308 -0.4540
10653TIP3    H253375   4.569   2.484  16.453  1.0579 -0.3929 -0.1037
10654TIP3   OH253376   3.328   6.581   2.612 -0.7122  0.3765 -0.1685
10654TIP3    H153377   3.420   6.570   2.634 -0.8410  0.3445  0.3645
10654TIP3    H253378   3.328   6.608   2.520 -0.2476 -1.2016 -0.6623
10655TIP3   OH253379   6.650   1.461  14.968 -0.0558  0.1490  0.5966
10655TIP3    H153380   6.589   1.394  14.999 -0.4225  0.1189 -0.1611
10655TIP3    H253381   6.645   1.455  14.873 -0.3106  1.4562  0.5206
10656TIP3   OH253382   4.082   4.139   6.831  0.3516  0.9016  0.0929
10656TIP3    H153383   4.016   4.206   6.812  0.7814  1.2608 -0.1381
10656TIP3    H253384   4.045   4.059   6.793 -1.0337  0.5813  1.9961
10657TIP3   OH253385   0.197   4.469   0.487 -0.9574  1.0074  0.1954
10657TIP3    H153386   0.180   4.549   0.437 -0.0053  0.9764 -0.1894
10657TIP3    H253387   0.152   4.484   0.571 -1.0187  1.8311  0.0291
10658TIP3   OH253388   1.643   2.133   4.250 -0.0312 -0.2419  0.3228
10658TIP3    H153389   1.663   2.188   4.326 -1.3964  0.5533  0.1418
10658TIP3    H253390   1.671   2.045   4.276  0.0732  0.1207  1.5163
10659TIP3   OH253391   2.377   1.847   0.359  0.4803  0.2171  0.5659
10659TIP3    H153392   2.458   1.896   0.373  0.2903  0.2439  1.6305
10659TIP3    H253393   2.336   1.842   0.445 -1.3924  1.4844 -0.2008
10660TIP3   OH253394   6.716   2.022   3.364  0.4663  0.0406 -0.2240
10660TIP3    H153395   6.666   2.049   3.287  1.0849  0.7806 -0.3725
10660TIP3    H253396   6.701   1.927   3.370  1.5701 -0.2910 -2.1153
10661TIP3   OH253397   2.766   3.531  11.112 -0.3485 -0.1382 -0.0462
10661TIP3    H153398   2.798   3.592  11.046 -3.4206  0.3477 -1.2640
10661TIP3    H253399   2.763   3.583  11.193  0.4736  0.1988 -0.2168
10662TIP3   OH253400   3.765   5.335  16.593  0.3443 -0.1452  0.0102
10662TIP3    H153401   3.832   5.401  16.613  1.1194 -0.9269  0.0537
10662TIP3    H253402   3.805   5.281  16.524 -1.6516  1.5442 -2.6500
10663TIP3   OH253403   4.384   3.578   4.408 -0.7068  0.5170  0.1901
10663TIP3    H153404   4.370   3.666   4.371 -2.7517  0.0955 -0.1624
10663TIP3    H253405   4.450   3.539   4.350 -1.9363  0.8066 -1.4967
10664TIP3   OH253406   0.745   0.852   5.294  0.4744 -0.0488 -0.2278
10664TIP3    H153407   0.782   0.765   5.280  0.2994  0.0410 -1.3112
10664TIP3    H253408   0.682   0.840   5.366  1.5225 -0.4916  0.6505
10665TIP3   OH253409   0.276   4.440   5.366  0.1051 -0.3409  0.2285
10665TIP3    H153410   0.263   4.460   5.273 -0.6734 -0.7672  0.2369
10665TIP3    H253411   0.188   4.430   5.401  0.4176 -1.4695  0.7260
10666TIP3   OH253412   5.731   0.698   5.706  0.4417 -0.8084 -0.0395
10666TIP3    H153413   5.766   0.732   5.788 -1.2865  1.2121 -0.0236
10666TIP3    H253414   5.732   0.773   5.647 -1.0462 -1.4154 -0.9089
10667TIP3   OH253415   5.456   3.222  13.686 -0.0321  0.1933 -0.4303
10667TIP3    H153416   5.521   3.290  13.669  0.3841 -0.4519 -1.5037
10667TIP3    H253417   5.420   3.201  13.600 -1.2799  0.1422  0.0745
10668TIP3   OH253418   6.438   6.716  12.819  0.0447 -0.2453  0.7919
10668TIP3    H153419   6.518   6.733  12.869  1.2649  4.4567 -2.1231
10668TIP3    H253420   6.373   6.775  12.857 -0.6948 -0.6865  0.2415
10669TIP3   OH253421   4.270   3.126  16.777  0.6621 -0.7008 -0.2090
10669TIP3    H153422   4.344   3.073  16.747  0.5290  0.2663 -2.4527
10669TIP3    H253423   4.219   3.066  16.832  2.6897 -1.6022  0.7835
10670TIP3   OH253424   5.356   3.777  17.024 -0.0125  0.0990  0.2730
10670TIP3    H153425   5.346   3.870  17.046  0.5826  0.3119 -0.3368
10670TIP3    H253426   5.310   3.731  17.095  1.4353  0.7839  1.7258
10671TIP3   OH253427   2.411   0.034   2.203 -0.1040  0.2497 -0.6294
10671TIP3    H153428   2.490   0.060   2.251  0.3616 -0.0007 -1.2587
10671TIP3    H253429   2.426   0.062   2.113 -1.2454  1.2935 -0.5361
10672TIP3   OH253430   3.413   3.980   5.287 -0.4843 -0.0767  0.3090
10672TIP3    H153431   3.392   3.891   5.315  0.2236 -0.0416  1.0054
10672TIP3    H253432   3.435   3.972   5.194  1.9120 -1.0857  0.8770
10673TIP3   OH253433   0.805   2.422   4.929  0.1315  0.4244  0.6519
10673TIP3    H153434   0.830   2.341   4.883  0.6272 -0.7456  2.8300
10673TIP3    H253435   0.800   2.488   4.860  0.8923 -1.1958 -1.0572
10674TIP3   OH253436   4.076   5.002   5.418  0.7222  0.5932 -0.5749
10674TIP3    H153437   4.110   4.935   5.359  1.2345  0.1646  0.1965
10674TIP3    H253438   4.096   4.970   5.506  1.6270  2.0851 -0.1870
10675TIP3   OH253439   1.233   3.297   0.142  0.6410 -0.2366 -0.2210
10675TIP3    H153440   1.244   3.228   0.077  1.1187 -0.0095 -0.3858
10675TIP3    H253441   1.155   3.272   0.191  0.7916 -0.8762 -0.3031
10676TIP3   OH253442   5.057   4.301   1.594  0.3220 -0.0454  0.1349
10676TIP3    H153443   5.031   4.387   1.562 -1.2129  0.3756  2.2956
10676TIP3    H253444   5.150   4.311   1.614  0.7930  0.2984 -1.9500
10677TIP3   OH253445   3.136   4.130  14.494  0.7297  0.2489 -0.4172
10677TIP3    H153446   3.197   4.121  14.421 -0.2223 -0.2723 -1.1764
10677TIP3    H253447   3.139   4.046  14.538  1.0374  0.4422 -0.0694
10678TIP3   OH253448   2.171   2.125  13.094 -0.3032 -0.2638 -0.1919
10678TIP3    H153449   2.173   2.062  13.166 -1.2989 -0.1260 -0.0291
10678TIP3    H253450   2.108   2.191  13.122 -0.7947 -0.2768 -1.2500
10679TIP3   OH253451   6.612   5.666   0.429 -0.5842 -0.0242 -0.3045
10679TIP3    H153452   6.637   5.581   0.393 -1.3964  0.1115 -1.2565
10679TIP3    H253453   6.657   5.730   0.373 -0.8004  0.1795 -0.2497
10680TIP3   OH253454   5.997   2.721   3.243  0.8352 -0.2568  0.1617
10680TIP3    H153455   5.933   2.655   3.217  1.6058 -0.3812 -1.4866
10680TIP3    H253456   6.000   2.783   3.170  0.8714  1.0594  1.2394
10681TIP3   OH253457   3.345   1.014   5.181 -0.2653 -0.0432  0.1172
10681TIP3    H153458   3.307   0.994   5.096  0.6469 -2.2109  0.1444
10681TIP3    H253459   3.397   1.093   5.166 -0.9544  0.2088 -1.0589
10682TIP3   OH253460   2.811   0.476  14.072  0.4883 -0.3793 -0.2959
10682TIP3    H153461   2.748   0.433  14.014 -0.6384  0.8019  0.0112
10682TIP3    H253462   2.897   0.448  14.039 -0.0102  1.4441 -3.5496
10683TIP3   OH253463   6.752   3.775  11.692 -0.2948 -0.1100 -0.1375
10683TIP3    H153464   6.667   3.739  11.717 -0.7618  2.4995  2.6917
10683TIP3    H253465   6.731   3.856  11.646  0.5520  1.1622  1.6062
10684TIP3   OH253466   4.352   4.688   1.504 -0.0375  0.0301 -0.4610
10684TIP3    H153467   4.417   4.701   1.574 -1.1164  2.4975  0.1980
10684TIP3    H253468   4.285   4.634   1.545  1.2078 -2.0152 -0.9557
10685TIP3   OH253469   2.109   5.895  12.213 -0.2832  0.8655  0.5719
10685TIP3    H153470   2.123   5.875  12.121  0.0633  2.3867  0.2706
10685TIP3    H253471   2.032   5.843  12.237 -0.3248  0.3764 -0.5349
10686TIP3   OH253472   5.503   3.304   2.477  0.3713  0.5793  0.3357
10686TIP3    H153473   5.490   3.244   2.550 -1.6181 -0.1023 -0.5018
10686TIP3    H253474   5.457   3.383   2.503  1.0278  0.9227  0.4713
10687TIP3   OH253475   2.053   4.733  16.799  0.2424 -0.0182 -0.9526
10687TIP3    H153476   2.032   4.801  16.863  2.7433  0.5425 -0.6122
10687TIP3    H253477   1.970   4.715  16.755 -0.8837  1.9126  0.2146
10688TIP3   OH253478   2.061   3.200  17.114 -0.4514  0.1785  0.2408
10688TIP3    H153479   2.144   3.205  17.067  0.6400 -1.2587  1.9200
10688TIP3    H253480   2.051   3.288  17.152  0.7680  0.1029  0.7774
10689TIP3   OH253481   3.351   5.915  16.314 -0.4282  0.5655 -0.5005
10689TIP3    H153482   3.389   5.976  16.251  1.9824  1.9313  2.0453
10689TIP3    H253483   3.320   5.970  16.386  0.9911 -1.0450  1.4753
10690TIP3   OH253484   2.944   1.378   3.189  0.2013  0.4089  0.1147
10690TIP3    H153485   3.016   1.403   3.247  0.3527 -1.5195  0.8188
10690TIP3    H253486   2.973   1.406   3.102  1.9842 -0.6332  0.3244
10691TIP3   OH253487   3.455   5.122  11.559  0.1275  0.2139 -0.9113
10691TIP3    H153488   3.451   5.027  11.558  1.1240  0.1080 -3.8749
10691TIP3    H253489   3.540   5.142  11.598 -0.1358 -0.0662 -0.1709
10692TIP3   OH253490   2.659   0.418   5.170  0.0447  0.3452  0.0951
10692TIP3    H153491   2.751   0.406   5.146 -0.0567 -0.7347  0.1797
10692TIP3    H253492   2.651   0.510   5.192  0.9048  0.6418 -0.7766
10693TIP3   OH253493   0.369   1.743  11.630 -0.0739  0.3013  0.3931
10693TIP3    H153494   0.356   1.837  11.637  0.8563  0.3953  1.0454
10693TIP3    H253495   0.430   1.732  11.557 -2.2987 -0.0194 -1.5326
10694TIP3   OH253496   4.232   6.564  13.464 -0.4962  0.6863  0.1969
10694TIP3    H153497   4.225   6.531  13.374 -2.0681 -0.2603  0.6213
10694TIP3    H253498   4.315   6.529  13.496 -0.3812  0.2175 -0.5821
10695TIP3   OH253499   1.050   1.512   1.157  0.1332 -0.5283 -0.1628
10695TIP3    H153500   1.099   1.479   1.233 -1.4880  0.7105  1.5155
10695TIP3    H253501   1.062   1.607   1.161 -0.4214 -0.4034 -1.1715
10696TIP3   OH253502   2.146   0.166  13.482 -0.4007 -0.0233 -0.0086
10696TIP3    H153503   2.127   0.199  13.394 -1.2974 -0.1864  0.1148
10696TIP3    H253504   2.165   0.245  13.533 -0.7046  0.1490 -0.1550
10697TIP3   OH253505   2.879   3.133   1.020 -0.2423 -0.3390 -0.2805
10697TIP3    H153506   2.833   3.175   1.094 -0.3202 -1.6039  0.4166
10697TIP3    H253507   2.831   3.051   1.006  1.9420 -1.8607  0.6655
10698TIP3   OH253508   0.046   0.512  12.261  0.1628 -0.4016 -0.8091
10698TIP3    H153509   0.067   0.442  12.199 -2.8919 -2.0891 -0.1344
10698TIP3    H253510  -0.049   0.510  12.267  0.2287  1.1047  2.3577
10699TIP3   OH253511   0.522   5.047  13.984 -0.3430  0.4651 -0.7609
10699TIP3    H153512   0.592   5.113  13.986  0.7225 -0.6150 -0.7417
10699TIP3    H253513   0.441   5.097  13.984  0.4395  1.7832 -1.4808
10700TIP3   OH253514   4.041   6.157   5.484 -0.0289  0.3821 -0.1785
10700TIP3    H153515   4.030   6.110   5.567 -1.0140  0.7260 -0.0940
10700TIP3    H253516   3.967   6.218   5.482  0.7548  1.3423 -0.6719
10701TIP3   OH253517   5.938   2.712   4.266  0.2604  0.5244 -0.3074
10701TIP3    H153518   5.962   2.640   4.325 -1.7100  0.1330  0.1070
10701TIP3    H253519   5.885   2.671   4.198  1.0848  1.2462 -1.4121
10702TIP3   OH253520   4.861   3.987  16.397  0.2389  0.2699 -0.5968
10702TIP3    H153521   4.924   4.050  16.432  1.3770 -0.7409 -0.7335
10702TIP3    H253522   4.914   3.927  16.344 -0.8369 -0.6345 -0.6960
10703TIP3   OH253523   6.591   0.724  12.239  0.7442 -0.5042  0.4604
10703TIP3    H153524   6.576   0.780  12.163  0.9365  0.0363  0.8177
10703TIP3    H253525   6.505   0.684  12.255  0.3379  0.4707  0.8173
10704TIP3   OH253526   4.710   6.512   5.704  0.7063  0.3098  0.4099
10704TIP3    H153527   4.755   6.573   5.646  0.0150  2.3493  1.8814
10704TIP3    H253528   4.759   6.518   5.787  0.3701 -0.8401  0.7077
10705TIP3   OH253529   3.706   5.886   2.789  0.0947  0.1096  0.0482
10705TIP3    H153530   3.754   5.965   2.766 -1.0420  0.8283  0.0742
10705TIP3    H253531   3.699   5.837   2.707  0.4979  0.2092 -0.0438
10706TIP3   OH253532   1.861   3.738   3.365 -0.0276  0.1660 -0.2390
10706TIP3    H153533   1.936   3.712   3.311 -0.6231  0.3409 -1.1749
10706TIP3    H253534   1.803   3.784   3.305 -1.3932 -0.8889  0.2072
10707TIP3   OH253535   5.451   3.854   5.539 -0.0817 -0.3930  1.0514
10707TIP3    H153536   5.483   3.804   5.463  1.4123  1.6443  0.2440
10707TIP3    H253537   5.529   3.868   5.592 -0.3481  1.3831  1.0290
10708TIP3   OH253538   5.256   1.997   5.488  0.2193 -0.1535  0.1683
10708TIP3    H153539   5.341   2.021   5.525 -0.2224  2.0917 -0.1389
10708TIP3    H253540   5.197   1.991   5.563  0.1404  0.6980  0.1846
10709TIP3   OH253541   6.731   2.250   2.715 -0.7344  0.7547 -0.1730
10709TIP3    H153542   6.780   2.228   2.795  1.2985 -1.2619 -1.8447
10709TIP3    H253543   6.769   2.194   2.648 -2.5697  2.1807 -2.5392
10710TIP3   OH253544   4.480   1.566  12.086  1.1391 -0.4612 -0.3345
10710TIP3    H153545   4.527   1.606  12.159 -0.6921  1.4637 -0.1074
10710TIP3    H253546   4.525   1.599  12.008  1.2359 -0.0465 -0.1045
10711TIP3   OH253547   6.317   4.696  11.228  0.1954  0.0132 -0.6997
10711TIP3    H153548   6.300   4.606  11.255  2.0530  0.0787  0.9107
10711TIP3    H253549   6.306   4.748  11.308  2.5881  0.6870 -0.7127
10712TIP3   OH253550   6.440   5.218   3.034 -0.0555  0.3905 -0.6048
10712TIP3    H153551   6.453   5.146   3.096 -0.0708  0.8677 -0.0384
10712TIP3    H253552   6.365   5.190   2.981 -1.5967  0.9659  1.1245
10713TIP3   OH253553   5.592   2.396   4.172  0.3072  0.3053 -0.0375
10713TIP3    H153554   5.634   2.339   4.237  0.6996 -0.9332 -1.3221
10713TIP3    H253555   5.646   2.475   4.173  1.1260 -0.2321  0.2029
10714TIP3   OH253556   0.480   3.979  12.808 -0.2171  0.2289  0.4214
10714TIP3    H153557   0.518   3.893  12.791  2.6106  1.4739 -0.2065
10714TIP3    H253558   0.432   4.000  12.727 -0.0777 -0.3291  0.1872
10715TIP3   OH253559   0.650   6.556  11.689  0.0923  0.4076  0.3902
10715TIP3    H153560   0.608   6.593  11.612  0.6433  1.6637  0.6636
10715TIP3    H253561   0.600   6.477  11.709  0.4120 -0.3970 -1.7126
10716TIP3   OH253562   5.160   3.697  11.350  0.1085 -0.0596  0.4723
10716TIP3    H153563   5.181   3.740  11.433  0.3824  0.2710  0.2319
10716TIP3    H253564   5.141   3.769  11.289 -2.4913 -0.3239  0.8546
10717TIP3   OH253565   6.021   5.159   1.320  0.2866 -0.3108  0.0828
10717TIP3    H153566   6.086   5.215   1.363 -0.8971  1.8979 -0.8548
10717TIP3    H253567   6.072   5.106   1.258  1.3520  0.3794  0.3516
10718TIP3   OH253568   0.284   2.842  11.369  0.5148 -0.7091 -0.2956
10718TIP3    H153569   0.345   2.876  11.303  1.9972 -1.5014  0.6191
10718TIP3    H253570   0.338   2.827  11.446 -1.3745  1.2816  1.5425
10719TIP3   OH253571   4.309   2.819  15.809 -0.1135 -0.3233  0.5437
10719TIP3    H153572   4.230   2.785  15.768 -0.1658  0.3634  0.0645
10719TIP3    H253573   4.324   2.903  15.767  1.0487 -0.5773  0.4155
10720TIP3   OH253574   1.800   0.027  11.232 -0.0236  0.0287  0.5821
10720TIP3    H153575   1.786   0.031  11.138 -0.6615 -0.2171  0.6606
10720TIP3    H253576   1.753  -0.052  11.260  1.0261 -0.4921  0.9550
10721TIP3   OH253577   4.248   2.126   6.550  0.0748 -0.1919  0.5647
10721TIP3    H153578   4.294   2.203   6.516  2.0987 -0.8492  1.6268
10721TIP3    H253579   4.179   2.162   6.605 -2.0299  0.8503 -2.5216
10722TIP3   OH253580   3.674   2.516   2.676  0.0342  0.4095  0.0583
10722TIP3    H153581   3.659   2.430   2.636 -0.0347  1.0576 -1.3696
10722TIP3    H253582   3.758   2.507   2.721  0.6995 -0.0461 -1.2077
10723TIP3   OH253583   0.874   0.986   1.131 -0.0756 -0.1782  0.0811
10723TIP3    H153584   0.874   0.923   1.204  1.1456 -0.5129 -0.1818
10723TIP3    H253585   0.962   1.025   1.134 -0.4342  0.6736 -0.4793
10724TIP3   OH253586   1.638   1.075   3.084 -0.1312  0.2574  0.3747
10724TIP3    H153587   1.553   1.105   3.052 -0.3861 -0.7445  0.0722
10724TIP3    H253588   1.696   1.150   3.074 -0.4778  0.3299 -1.3703
10725TIP3   OH253589   1.982   3.451  14.177 -0.5810  0.4199  0.6851
10725TIP3    H153590   1.940   3.367  14.159 -0.1152 -0.1450  2.0848
10725TIP3    H253591   1.912   3.516  14.172 -1.0294 -0.1168  0.0289
10726TIP3   OH253592   1.265   5.861   4.411  0.5086  0.0697  0.0053
10726TIP3    H153593   1.220   5.836   4.492  1.6293 -1.5621  0.1649
10726TIP3    H253594   1.262   5.957   4.411 -0.5124  0.0673  1.3910
10727TIP3   OH253595   3.064   5.309  14.397  0.1152  0.0069  0.4178
10727TIP3    H153596   3.012   5.255  14.456 -4.3982  2.2546 -0.9947
10727TIP3    H253597   3.111   5.370  14.454  0.7613 -1.7027  1.7789
10728TIP3   OH253598   0.410   4.217   5.166 -0.3416 -0.1617 -0.0395
10728TIP3    H153599   0.426   4.312   5.161  2.4885 -0.5914 -1.8425
10728TIP3    H253600   0.426   4.195   5.258 -3.2590  1.3163  0.9512
10729TIP3   OH253601   5.461   1.453  15.319 -0.2914  0.1407 -0.0190
10729TIP3    H153602   5.471   1.502  15.401 -1.2157  0.5320 -0.1304
10729TIP3    H253603   5.369   1.425  15.319 -0.5391  0.8856 -1.3348
10730TIP3   OH253604   4.252   3.235  10.567  0.2447 -0.1276  0.1819
10730TIP3    H153605   4.340   3.269  10.549  0.2303  0.4970  1.2051
10730TIP3    H253606   4.266   3.143  10.590  0.7185  0.1679  1.0860
10731TIP3   OH253607   3.525   1.082   0.336 -0.0576  0.4364 -0.4266
10731TIP3    H153608   3.552   1.172   0.322  1.0938  0.0354 -0.8916
10731TIP3    H253609   3.607   1.033   0.347 -0.6938 -0.3220  1.3458
10732TIP3   OH253610   0.580   4.995   2.524 -0.1323 -0.1711 -0.5751
10732TIP3    H153611   0.552   4.960   2.609 -0.6735 -0.5142 -0.8819
10732TIP3    H253612   0.508   4.972   2.465 -0.6396  1.7021 -0.7543
10733TIP3   OH253613   2.059   1.873   4.235 -0.1352  0.3427 -0.2213
10733TIP3    H153614   2.007   1.901   4.311 -0.0075  0.3865 -0.1503
10733TIP3    H253615   2.127   1.940   4.227 -0.8389  0.9670 -1.0746
10734TIP3   OH253616   3.422   3.486  14.259 -0.4406 -0.6856 -0.5982
10734TIP3    H153617   3.478   3.562  14.274 -2.9356  1.6334 -1.9482
10734TIP3    H253618   3.445   3.424  14.328  1.0949  1.6938  1.1625
10735TIP3   OH253619   5.694   2.866   3.932 -0.4618 -0.0311 -0.5159
10735TIP3    H153620   5.612   2.896   3.972 -0.1056  0.6802 -0.3124
10735TIP3    H253621   5.762   2.917   3.976  0.1757 -1.2168 -0.0684
10736TIP3   OH253622   1.253   3.174   5.322  0.0370  0.4910 -0.4560
10736TIP3    H153623   1.207   3.115   5.261 -1.1220  0.3096  0.5618
10736TIP3    H253624   1.226   3.262   5.296 -0.8516  0.3870  0.1038
10737TIP3   OH253625   1.897   1.019   2.104 -0.5132  0.4147 -0.8196
10737TIP3    H153626   1.826   1.034   2.166 -0.5470 -1.0267 -0.4534
10737TIP3    H253627   1.894   0.924   2.087  1.2784  0.3103 -0.8242
10738TIP3   OH253628   3.463   6.093   5.280 -0.0303 -0.5074 -0.1417
10738TIP3    H153629   3.441   6.021   5.222 -0.0003 -0.7830  0.1862
10738TIP3    H253630   3.499   6.051   5.358  2.5242 -0.0767 -0.9686
10739TIP3   OH253631   0.708   2.593  13.185 -0.2184 -0.6937  0.6085
10739TIP3    H153632   0.763   2.520  13.157  0.1081 -0.9142  1.7498
10739TIP3    H253633   0.624   2.578  13.142  0.7840  0.0633 -1.7768
10740TIP3   OH253634   2.538   4.146   6.104  0.0191  0.4343  0.0585
10740TIP3    H153635   2.445   4.144   6.079  0.7502  0.7796 -3.0055
10740TIP3    H253636   2.559   4.055   6.124 -1.4863  0.6508  3.3340
10741TIP3   OH253637   2.929   4.034   1.830  0.4564 -0.4338  0.3626
10741TIP3    H153638   2.944   3.946   1.865  0.1364 -0.0047  1.6659
10741TIP3    H253639   3.016   4.066   1.808  0.4036 -1.8683 -2.2742
10742TIP3   OH253640   0.185   3.805  11.856  0.2028 -0.0614  0.3122
10742TIP3    H153641   0.200   3.856  11.777 -1.5799  2.1002  1.2416
10742TIP3    H253642   0.133   3.730  11.827  0.8780 -0.1190 -0.7788
10743TIP3   OH253643   0.423   4.214   5.442  0.5484 -0.3763 -0.2809
10743TIP3    H153644   0.491   4.257   5.493 -1.7267  3.1433  0.0787
10743TIP3    H253645   0.365   4.285   5.414 -1.5043 -2.8474 -2.8880
10744TIP3   OH253646   3.554   3.281   5.935 -0.4250  0.1425 -0.6216
10744TIP3    H153647   3.532   3.203   5.883 -1.8871 -1.4775  2.1706
10744TIP3    H253648   3.638   3.260   5.975 -0.8856 -0.1196  0.2437
10745TIP3   OH253649   2.394   0.815  12.697  0.4677  0.0573  0.1953
10745TIP3    H153650   2.355   0.863  12.771  1.1409  1.3802 -0.2830
10745TIP3    H253651   2.371   0.723  12.714  1.3244  0.1961  2.5095
10746TIP3   OH253652   0.108   2.650  14.304  0.3802 -0.2605 -0.1982
10746TIP3    H153653   0.114   2.746  14.305  1.9211 -0.3181 -0.9840
10746TIP3    H253654   0.024   2.631  14.346  0.1208  1.4228  0.1244
10747TIP3   OH253655   2.869   1.609  11.071  0.3647 -0.0050 -0.0734
10747TIP3    H153656   2.949   1.661  11.071 -0.6793  1.6895 -0.0092
10747TIP3    H253657   2.881   1.546  11.000  1.7516  0.1976 -0.0439
10748TIP3   OH253658   5.434   4.009  13.198 -0.1055  0.5990  0.1130
10748TIP3    H153659   5.503   3.943  13.189  0.7063  1.5731 -1.0088
10748TIP3    H253660   5.374   3.972  13.264 -0.1395 -1.6306 -1.0810
10749TIP3   OH253661   6.539   3.036  16.526 -0.1994 -0.4905 -0.3398
10749TIP3    H153662   6.497   2.953  16.546  0.2244 -0.6963 -0.2968
10749TIP3    H253663   6.541   3.039  16.430 -0.1601 -0.5634 -0.3423
10750TIP3   OH253664   5.078   6.351   0.951  0.7560  0.2375 -0.7404
10750TIP3    H153665   5.005   6.335   0.892 -0.6280 -0.3229  1.0542
10750TIP3    H253666   5.056   6.432   0.996  0.8205 -0.3521  0.3915
10751TIP3   OH253667   0.588   5.671   6.278 -0.3419 -0.1972  0.0611
10751TIP3    H153668   0.594   5.631   6.365 -0.4850 -0.8207 -0.2187
10751TIP3    H253669   0.647   5.747   6.283 -1.5045  0.6809  1.1869
10752TIP3   OH253670   5.045   5.203   0.843  0.5150 -0.1328  0.7006
10752TIP3    H153671   5.030   5.109   0.844 -1.1529  0.0859 -0.2263
10752TIP3    H253672   5.022   5.230   0.754  1.0954  1.1286  0.9155
10753TIP3   OH253673   5.092   6.134   1.150  0.0455 -0.1987  0.3479
10753TIP3    H153674   4.998   6.125   1.167 -0.5011  0.2203 -2.0953
10753TIP3    H253675   5.099   6.214   1.098  1.6263 -0.8066 -0.4309
10754TIP3   OH253676   0.900   0.128   0.521  0.2144  0.0639  0.6715
10754TIP3    H153677   0.978   0.183   0.514  1.6050 -1.9641 -0.6964
10754TIP3    H253678   0.861   0.132   0.433  0.1153 -0.8067  0.6756
10755TIP3   OH253679   3.494   6.015   3.437  0.2083 -0.0013  0.1564
10755TIP3    H153680   3.580   6.030   3.398  0.9859  0.2061  1.8507
10755TIP3    H253681   3.481   6.090   3.495 -0.1689 -1.0617  1.4872
10756TIP3   OH253682   4.628   1.710  17.084 -0.6900  0.1919 -0.0493
10756TIP3    H153683   4.680   1.786  17.108 -2.4212  1.1066  1.0309
10756TIP3    H253684   4.629   1.708  16.988  0.1794  0.9820 -0.0589
10757TIP3   OH253685   1.715   0.624   6.134  0.2184 -0.5850  0.2806
10757TIP3    H153686   1.716   0.684   6.208  0.8799 -0.1560 -0.0723
10757TIP3    H253687   1.789   0.651   6.079 -0.1770 -0.9809 -0.4680
10758TIP3   OH253688   1.703   3.156   0.246 -0.1031 -0.6234 -0.1158
10758TIP3    H153689   1.663   3.241   0.267 -0.4068 -1.3189  2.3606
10758TIP3    H253690   1.791   3.178   0.216 -0.4769  0.6085 -0.3675
10759TIP3   OH253691   1.167   6.484  15.555 -0.5734 -0.5797  0.3422
10759TIP3    H153692   1.114   6.410  15.584 -1.2693 -0.8762 -1.5047
10759TIP3    H253693   1.127   6.510  15.472 -0.7078  2.2777  1.2274
10760TIP3   OH253694   5.294   5.389   0.038  0.1059  0.4546 -0.1784
10760TIP3    H153695   5.362   5.331   0.002  0.6181 -0.3881  1.9898
10760TIP3    H253696   5.342   5.461   0.077 -0.3857  0.9081 -0.3985
10761TIP3   OH253697   3.121   5.874   1.457 -0.2407  0.3334  0.0137
10761TIP3    H153698   3.037   5.828   1.462 -0.8684  1.4210 -0.0360
10761TIP3    H253699   3.099   5.959   1.417  0.9477  0.5006 -0.3356
10762TIP3   OH253700   0.958   0.475  11.830  0.2956  0.2621 -0.0165
10762TIP3    H153701   1.022   0.545  11.818  1.2326 -0.4159  0.8781
10762TIP3    H253702   1.009   0.400  11.862 -0.9718 -0.1835  1.0725
10763TIP3   OH253703   3.465   3.692  15.774 -0.0121 -0.2447  0.4858
10763TIP3    H153704   3.415   3.764  15.812  0.7058  0.2455  0.5225
10763TIP3    H253705   3.402   3.621  15.765 -0.9355  0.6465 -0.2902
10764TIP3   OH253706   2.039   5.847   1.797 -0.1881 -0.1061  0.0895
10764TIP3    H153707   1.988   5.926   1.779 -1.8165 -1.3804 -1.2869
10764TIP3    H253708   1.985   5.798   1.860 -0.4854 -1.2540 -1.0208
10765TIP3   OH253709   3.132   0.933   3.657  0.3856  0.5978 -0.5393
10765TIP3    H153710   3.090   0.886   3.729  0.5840  1.8036  0.3944
10765TIP3    H253711   3.061   0.980   3.614  0.4172  0.7198 -0.4601
10766TIP3   OH253712   3.826   6.227   0.075  0.6661  0.1150  0.3191
10766TIP3    H153713   3.797   6.231  -0.016 -0.4743 -0.2160  0.6525
10766TIP3    H253714   3.765   6.166   0.117 -0.0208  1.6843  1.7308
10767TIP3   OH253715   1.269   1.886   3.747 -0.3808  0.1756 -0.0996
10767TIP3    H153716   1.361   1.904   3.768 -1.0024  2.7878  0.6791
10767TIP3    H253717   1.221   1.914   3.824 -1.9094 -0.5343 -0.7552
10768TIP3   OH253718   0.102   3.818   5.934  0.5564  0.4107  0.3598
10768TIP3    H153719   0.098   3.733   5.978  0.4259  0.5770  0.6683
10768TIP3    H253720   0.118   3.796   5.842 -1.5812 -0.0755  0.0373
10769TIP3   OH253721   2.855   1.987  15.078  0.1176  0.4094 -0.4200
10769TIP3    H153722   2.782   2.039  15.111  0.8499  0.4644  1.1918
10769TIP3    H253723   2.894   2.042  15.010 -1.4488  0.2767 -1.4889
10770TIP3   OH253724   6.755   5.318   2.940  0.1751 -0.0489 -0.1844
10770TIP3    H153725   6.816   5.386   2.968  1.2155 -0.7651 -0.6513
10770TIP3    H253726   6.739   5.267   3.020 -0.2919  0.4891  0.0744
10771TIP3   OH253727   5.342   2.763   0.782 -0.5338 -0.0820 -0.2890
10771TIP3    H153728   5.298   2.832   0.732 -1.3520 -1.0435 -0.9546
10771TIP3    H253729   5.325   2.785   0.873  0.1300  1.1653 -0.4600
10772TIP3   OH253730   2.548   0.878  15.950 -0.4427 -0.3863 -0.1096
10772TIP3    H153731   2.572   0.881  16.042  1.8604 -2.1547 -0.5568
10772TIP3    H253732   2.528   0.786  15.933 -0.5527 -0.1446 -1.4337
10773TIP3   OH253733   4.788   1.197  13.129  0.6650  0.0325 -0.2585
10773TIP3    H153734   4.771   1.163  13.041  1.3262 -1.4165  0.1260
10773TIP3    H253735   4.715   1.164  13.182  0.1202  1.1358 -0.3074
10774TIP3   OH253736   3.658   1.036  11.812  0.2545  0.7312  0.0357
10774TIP3    H153737   3.687   0.989  11.733 -0.6918  0.3133 -0.0808
10774TIP3    H253738   3.694   0.985  11.884  0.9242  0.9783 -0.1137
10775TIP3   OH253739   5.074   3.341   3.671  0.6749  0.8046 -0.5472
10775TIP3    H153740   5.106   3.253   3.690  0.0214  0.6199 -0.2577
10775TIP3    H253741   5.129   3.372   3.600  0.1576 -0.2925 -1.4570
10776TIP3   OH253742   2.578   0.834  15.037 -0.2929  0.3570  0.2529
10776TIP3    H153743   2.499   0.863  14.991  1.2619 -0.1762 -3.0767
10776TIP3    H253744   2.594   0.745  15.004  2.2087  0.8228 -0.0405
10777TIP3   OH253745   0.691   5.147   6.316  0.0188  0.2997 -0.8639
10777TIP3    H153746   0.679   5.061   6.277 -0.3063 -0.7097  1.3075
10777TIP3    H253747   0.603   5.185   6.319 -0.1764 -0.1872  0.0386
10778TIP3   OH253748   5.958   1.634  11.319 -0.2456 -0.2808  0.1995
10778TIP3    H153749   5.998   1.713  11.355 -0.3576 -1.0359  2.1115
10778TIP3    H253750   5.956   1.648  11.224  0.0181  1.8467  0.4804
10779TIP3   OH253751   4.650   4.108   2.189 -0.3311  0.4438 -0.3210
10779TIP3    H153752   4.726   4.162   2.214 -0.9407  0.3776  1.8511
10779TIP3    H253753   4.678   4.018   2.205 -0.9909  0.4444  0.9601
10780TIP3   OH253754   2.792   0.029   2.089  0.3734 -0.1085  0.0603
10780TIP3    H153755   2.866   0.020   2.030 -0.2333  0.8113 -0.8813
10780TIP3    H253756   2.719  -0.013   2.042  0.2707 -0.9576  0.9460
10781TIP3   OH253757   4.566   6.201   2.268 -0.5751  0.0055 -0.2218
10781TIP3    H153758   4.621   6.264   2.223  1.4694 -1.1344  0.5406
10781TIP3    H253759   4.582   6.216   2.361  0.6533 -2.1356 -0.0267
10782TIP3   OH253760   0.689   4.351   3.500 -0.4273 -0.6018 -0.2384
10782TIP3    H153761   0.708   4.373   3.592 -3.3819 -0.5937  0.4637
10782TIP3    H253762   0.723   4.262   3.490  3.2242  0.6154 -0.3418
10783TIP3   OH253763   1.679   6.676  12.940 -0.1959 -0.1693  0.4196
10783TIP3    H153764   1.657   6.639  13.026 -2.1567  0.2884  0.1557
10783TIP3    H253765   1.750   6.737  12.958  0.0968 -0.8187  1.5572
10784TIP3   OH253766   2.155   3.140  11.292 -0.0136 -0.1654 -0.2593
10784TIP3    H153767   2.204   3.117  11.370  0.8096 -1.7703 -1.2106
10784TIP3    H253768   2.094   3.067  11.279 -0.3876  0.2500 -0.9308
10785TIP3   OH253769   2.042   6.747   0.758 -0.0457 -0.2253  0.0948
10785TIP3    H153770   2.074   6.801   0.686 -0.0797 -2.3916 -1.6678
10785TIP3    H253771   1.952   6.776   0.773  0.4796  1.3361  0.4259
10786TIP3   OH253772   5.234   3.947  13.388  0.1471 -0.7402 -0.0984
10786TIP3    H153773   5.250   4.040  13.403 -3.2867  0.3286 -2.0509
10786TIP3    H253774   5.252   3.906  13.472 -0.7612  2.0889  1.6343
10787TIP3   OH253775   1.625   2.816   3.285 -0.2832  0.2670  0.0162
10787TIP3    H153776   1.664   2.872   3.351 -1.5652  2.2638 -0.8175
10787TIP3    H253777   1.688   2.816   3.213 -0.3304  0.7548 -0.0269
10788TIP3   OH253778   4.464   4.350   6.502 -0.2815  0.7643 -0.1560
10788TIP3    H153779   4.387   4.321   6.551  1.1194  1.2346  2.5212
10788TIP3    H253780   4.490   4.273   6.452 -1.3628 -0.0135  0.4328
10789TIP3   OH253781   6.462   0.496  11.253  0.1928 -0.1418  0.1694
10789TIP3    H153782   6.419   0.539  11.179  0.9091  0.6050  0.1725
10789TIP3    H253783   6.546   0.467  11.218 -0.0928 -1.1507  0.2938
10790TIP3   OH253784   3.970   0.384   2.823 -0.6796 -0.1206 -0.2338
10790TIP3    H153785   3.989   0.444   2.895 -0.8839 -0.0816 -0.2108
10790TIP3    H253786   3.964   0.441   2.746 -1.3669 -0.0471 -0.1313
10791TIP3   OH253787   2.716   3.306   5.001 -0.0442  0.4658  0.2237
10791TIP3    H153788   2.677   3.290   5.087 -1.2988  0.7395 -0.2819
10791TIP3    H253789   2.651   3.358   4.954  0.5282  0.1355 -0.9713
10792TIP3   OH253790   3.685   0.677  11.600 -0.1578  0.8160  0.0682
10792TIP3    H153791   3.724   0.759  11.630  0.1453  0.8236 -0.3233
10792TIP3    H253792   3.721   0.610  11.658 -1.5760  1.1277  1.3598
10793TIP3   OH253793   5.713   2.113   5.437 -0.5064  0.5789  0.3225
10793TIP3    H153794   5.696   2.078   5.349 -0.1940  1.1678  0.0246
10793TIP3    H253795   5.796   2.073   5.463 -1.2393 -0.6371  0.9103
10794TIP3   OH253796   1.556   2.134   2.864 -0.0756 -0.3205  0.3450
10794TIP3    H153797   1.503   2.213   2.877  0.6008 -0.0630  1.7205
10794TIP3    H253798   1.624   2.140   2.930  2.0529 -0.3639 -1.7340
10795TIP3   OH253799   1.230   3.708   2.817 -0.8092  0.3731  0.0606
10795TIP3    H153800   1.220   3.647   2.890  0.0380  0.4371  0.2408
10795TIP3    H253801   1.241   3.651   2.740 -0.2344  0.2962  0.1973
10796TIP3   OH253802   1.231   0.303  16.667 -0.4807  0.2871  0.2800
10796TIP3    H153803   1.272   0.323  16.751 -0.6239 -1.7741  0.9094
10796TIP3    H253804   1.302   0.265  16.615 -1.0565 -1.3401  0.6220
10797TIP3   OH253805   2.793   6.606   3.987  0.5198  0.2690 -0.6593
10797TIP3    H153806   2.707   6.620   3.948  0.3680 -0.0170 -0.4275
10797TIP3    H253807   2.833   6.537   3.934  0.7164  0.5863 -0.9330
10798TIP3   OH253808   5.253   6.472   4.335  0.1206  0.0253 -0.2108
10798TIP3    H153809   5.219   6.412   4.269 -2.2188 -0.1329  1.0379
10798TIP3    H253810   5.287   6.416   4.404 -0.1551  0.1297  0.0157
10799TIP3   OH253811   1.301   3.845  13.815 -0.0930  0.7760 -0.1152
10799TIP3    H153812   1.259   3.896  13.884 -0.9301  0.6047 -0.4853
10799TIP3    H253813   1.355   3.909  13.769 -2.7460  1.9343 -1.9146
10800TIP3   OH253814   3.135   0.848  14.781  0.0226  0.0693 -0.2578
10800TIP3    H153815   3.153   0.817  14.870  1.5826  0.0657 -0.5596
10800TIP3    H253816   3.202   0.808  14.727 -1.4613 -0.6882 -1.6286
10801TIP3   OH253817   0.514   2.981   4.202  0.5339 -0.5878 -0.5121
10801TIP3    H153818   0.508   3.065   4.248 -1.1667  0.2685 -2.1715
10801TIP3    H253819   0.565   2.926   4.261  1.2528  1.4279  0.8797
10802TIP3   OH253820   5.198   3.767   4.841 -0.1291 -0.3826  0.2805
10802TIP3    H153821   5.280   3.719   4.853 -1.3734 -2.9041 -0.6995
10802TIP3    H253822   5.137   3.729   4.903 -0.5674  1.6266  1.1696
10803TIP3   OH253823   5.522   5.820  11.737  0.2332  0.4068  0.6586
10803TIP3    H153824   5.436   5.781  11.753  0.6179 -0.0150  1.8738
10803TIP3    H253825   5.576   5.788  11.810  1.2597  1.1290  0.2373
10804TIP3   OH253826   1.945   1.576  11.603 -0.1890 -0.8798  0.5192
10804TIP3    H153827   1.942   1.584  11.699  0.9779 -2.1111  0.6898
10804TIP3    H253828   1.982   1.489  11.588  1.8780  0.2014 -1.0494
10805TIP3   OH253829   3.623   1.914  12.802 -0.7596  0.2278 -0.0476
10805TIP3    H153830   3.556   1.873  12.857 -0.8190 -0.1681 -0.4084
10805TIP3    H253831   3.576   1.979  12.750 -0.3545  2.2198  1.9535
10806TIP3   OH253832   4.352   2.417   3.471 -0.0288 -0.8811 -0.0461
10806TIP3    H153833   4.350   2.499   3.520  3.6438 -0.8674  0.3795
10806TIP3    H253834   4.323   2.351   3.533  0.1866 -0.3003  0.6870
10807TIP3   OH253835   3.579   0.671  16.024  0.2900 -0.5907  0.1375
10807TIP3    H153836   3.551   0.758  15.998  0.3769 -0.1843  1.3426
10807TIP3    H253837   3.498   0.621  16.032  0.1137 -0.2004  0.8738
10808TIP3   OH253838   5.891   6.327   5.397 -0.2820 -0.6035  0.0023
10808TIP3    H153839   5.872   6.318   5.490  0.6886 -1.1760  0.1501
10808TIP3    H253840   5.977   6.367   5.393 -0.5054 -0.1609 -0.6580
10809TIP3   OH253841   0.122   4.183  12.508 -0.0228  0.0917  0.0504
10809TIP3    H153842   0.042   4.149  12.467 -0.1181 -1.2476  1.2797
10809TIP3    H253843   0.152   4.252  12.448 -1.0847 -0.6274 -1.3729
10810TIP3   OH253844   5.999   1.167   2.863 -0.1103  0.0499  0.1852
10810TIP3    H153845   6.022   1.086   2.818 -1.7008 -0.6117  0.5112
10810TIP3    H253846   5.991   1.232   2.793  0.6393 -0.1844 -0.1322
10811TIP3   OH253847   0.347   5.990  12.759 -0.2512 -0.1245 -0.1409
10811TIP3    H153848   0.421   6.044  12.728 -0.2305  0.6851  1.2559
10811TIP3    H253849   0.328   5.932  12.685 -0.4437  1.9652 -1.8339
10812TIP3   OH253850   1.383   2.689   1.881  0.2159 -0.3565  0.2409
10812TIP3    H153851   1.307   2.721   1.832  0.7986  0.3034 -0.2381
10812TIP3    H253852   1.348   2.671   1.969 -0.7473 -1.1895 -0.2904
10813TIP3   OH253853   4.118   5.817  15.420 -0.3738 -0.9242  0.6323
10813TIP3    H153854   4.109   5.800  15.326 -1.6260 -1.3476  0.8182
10813TIP3    H253855   4.158   5.738  15.455  1.4001 -0.2504  0.2887
10814TIP3   OH253856   4.975   2.165   2.088 -0.0140 -0.3220 -0.1515
10814TIP3    H153857   4.914   2.176   2.014 -0.4530  2.2600  0.5064
10814TIP3    H253858   4.933   2.100   2.144 -0.8033 -0.6112 -1.0547
10815TIP3   OH253859   3.947   5.776  14.847 -0.0153  0.0402 -0.0657
10815TIP3    H153860   4.039   5.789  14.823 -0.3119  1.7949 -0.3885
10815TIP3    H253861   3.922   5.858  14.891 -1.1518 -0.7992  0.9026
10816TIP3   OH253862   0.721   6.281  11.551 -0.0944  0.6639  0.7871
10816TIP3    H153863   0.662   6.350  11.520  0.5789  1.7422  1.8339
10816TIP3    H253864   0.782   6.267  11.479  0.6326  2.1845  1.0673
10817TIP3   OH253865   4.603   3.807   3.217  0.4980 -0.0607 -0.1231
10817TIP3    H153866   4.543   3.862   3.166  0.8253 -1.0002 -1.5980
10817TIP3    H253867   4.553   3.783   3.295 -0.4986  0.3774 -0.6037
10818TIP3   OH253868   3.972   0.868  12.364 -0.2526  0.4842 -0.6050
10818TIP3    H153869   3.917   0.797  12.399  2.2436 -0.2325  2.2692
10818TIP3    H253870   3.937   0.947  12.405  0.3571  0.1344  0.6194
10819TIP3   OH253871   2.014   2.656   5.927  0.0929 -0.2198 -0.0369
10819TIP3    H153872   2.077   2.720   5.959 -0.1489  0.5167 -1.0026
10819TIP3    H253873   2.054   2.619   5.848  1.4986 -3.3329  1.9303
10820TIP3   OH253874   3.962   0.744  13.619 -0.6318 -0.3467  0.3035
10820TIP3    H153875   3.876   0.703  13.612 -1.4861  1.1124  1.6507
10820TIP3    H253876   3.945   0.838  13.612  1.1409 -0.0913 -1.5907
10821TIP3   OH253877   1.080   1.660   1.712 -0.2777  0.6906 -0.0748
10821TIP3    H153878   1.074   1.577   1.759 -2.6290  0.6839 -0.2530
10821TIP3    H253879   1.073   1.727   1.780 -0.8794  0.7060 -0.1472
10822TIP3   OH253880   1.697   4.620  12.391 -0.7926 -0.5220  0.2906
10822TIP3    H153881   1.733   4.599  12.305  0.3959  1.8274  0.1181
10822TIP3    H253882   1.624   4.680  12.372 -0.9086 -0.4658  0.8969
10823TIP3   OH253883   6.231   3.326   5.827 -0.0440 -0.2512 -0.1765
10823TIP3    H153884   6.198   3.286   5.747 -1.1688  1.4442 -0.6321
10823TIP3    H253885   6.152   3.349   5.876  0.6204 -0.9505  1.2898
10824TIP3   OH253886   4.047   0.590  10.443 -0.0371 -0.1166  0.7262
10824TIP3    H153887   4.121   0.538  10.412  0.7319  1.1894  0.3029
10824TIP3    H253888   4.027   0.650  10.371 -1.2973 -0.2150  0.9693
10825TIP3   OH253889   4.991   6.586  12.779 -0.2858 -0.1074 -0.0543
10825TIP3    H153890   4.950   6.609  12.695 -0.0831  0.7316  0.0632
10825TIP3    H253891   5.085   6.594  12.761 -0.2451  2.7928  0.9355
10826TIP3   OH253892   0.570   5.169   1.857  0.2584  0.2827 -1.1537
10826TIP3    H153893   0.562   5.210   1.771  0.2744  1.8947 -0.4353
10826TIP3    H253894   0.521   5.088   1.850  0.6023  0.1835 -2.7957
10827TIP3   OH253895   3.548   0.757  16.503 -0.3911 -0.2852  0.3487
10827TIP3    H153896   3.488   0.709  16.560 -0.4939  0.4712  0.9023
10827TIP3    H253897   3.552   0.845  16.542 -2.1911  0.9634 -2.0168
10828TIP3   OH253898   2.679   2.499   1.594  0.4006  0.0432  0.1551
10828TIP3    H153899   2.719   2.586   1.600 -0.5365  0.5856 -0.9425
10828TIP3    H253900   2.718   2.459   1.516 -1.2271  0.6640 -1.0595
10829TIP3   OH253901   2.550   0.251   5.379 -0.5038 -0.0978 -0.2971
10829TIP3    H153902   2.542   0.306   5.457 -0.5068 -1.7437  0.9067
10829TIP3    H253903   2.608   0.300   5.321 -0.0330  0.9028  0.9670
10830TIP3   OH253904   6.791   4.332   5.919 -0.1576 -0.8115  0.2744
10830TIP3    H153905   6.703   4.333   5.957 -0.5499  2.6158 -0.3964
10830TIP3    H253906   6.841   4.394   5.973  0.4599  0.8392 -2.0409
10831TIP3   OH253907   0.192   2.381  10.962 -0.0328  0.2248 -0.0949
10831TIP3    H153908   0.110   2.426  10.984 -0.2295 -0.2269  0.1089
10831TIP3    H253909   0.167   2.317  10.895  0.0639 -0.2352  0.3031
10832TIP3   OH253910   2.660   0.082  13.844  0.2163 -0.2848 -0.4471
10832TIP3    H153911   2.744   0.089  13.798 -0.7435  3.0527 -2.0378
10832TIP3    H253912   2.631   0.173  13.854 -3.2526 -1.2895 -0.0327
10833TIP3   OH253913   1.808   4.618  14.451  0.0500  0.3349  0.0880
10833TIP3    H153914   1.771   4.556  14.514 -0.4368  0.8177  0.2832
10833TIP3    H253915   1.767   4.595  14.367  0.5190 -0.1542 -0.0151
10834TIP3   OH253916   0.837   4.255   5.075  0.0579  0.5979 -0.7384
10834TIP3    H153917   0.768   4.230   5.014 -0.8220 -2.0292  1.1813
10834TIP3    H253918   0.899   4.182   5.072 -0.6461 -0.2467  2.3403
10835TIP3   OH253919   5.629   0.331  12.248  0.2712 -0.0642  0.5640
10835TIP3    H153920   5.697   0.371  12.194 -0.8708  1.0299 -0.1096
10835TIP3    H253921   5.632   0.380  12.330  0.6788 -0.3905  0.7412
10836TIP3   OH253922   4.821   6.096   3.459 -0.0249 -0.1649 -0.3742
10836TIP3    H153923   4.808   6.169   3.519 -0.4924 -1.0911  0.6894
10836TIP3    H253924   4.738   6.088   3.412  0.9613  1.8194 -2.6736
10837TIP3   OH253925   3.229   2.775  16.478  0.3961 -0.0388  0.2374
10837TIP3    H153926   3.219   2.850  16.419 -2.1734 -0.6665 -0.2025
10837TIP3    H253927   3.288   2.716  16.432 -0.1464  0.2842 -0.8999
10838TIP3   OH253928   4.122   4.966  17.105 -0.1279  0.1519 -0.2113
10838TIP3    H153929   4.153   4.976  17.015  0.5400  0.4576  0.0526
10838TIP3    H253930   4.070   5.045  17.121  1.5783  1.1808  0.4088
10839TIP3   OH253931   2.971   2.374  13.655  0.5111  0.2914 -0.5781
10839TIP3    H153932   2.906   2.305  13.641  0.4085  0.0647  0.8610
10839TIP3    H253933   2.998   2.400  13.567 -1.5374  0.4111 -1.2081
10840TIP3   OH253934   5.590   1.667   4.670  0.2404  0.1789 -0.0353
10840TIP3    H153935   5.565   1.719   4.594  1.8759  0.2941 -0.5455
10840TIP3    H253936   5.538   1.702   4.742 -1.6729 -0.2149 -1.1488
10841TIP3   OH253937   2.063   3.470   0.319  0.2145 -0.0445  0.1504
10841TIP3    H153938   2.001   3.532   0.358 -0.3231 -2.1336  2.9086
10841TIP3    H253939   2.124   3.449   0.389  0.7514 -2.1754 -0.8809
10842TIP3   OH253940   3.884   4.532  17.183 -0.2825  0.3063  0.0117
10842TIP3    H153941   3.978   4.552  17.179 -0.1030 -0.6786 -0.8388
10842TIP3    H253942   3.870   4.508  17.275  0.6443 -1.1078 -0.1802
10843TIP3   OH253943   4.006   5.801  16.148 -0.3630  0.7616  0.4541
10843TIP3    H153944   4.096   5.813  16.119 -0.8300 -0.4536 -1.7347
10843TIP3    H253945   3.962   5.883  16.128 -0.0125  0.9475  0.4449
10844TIP3   OH253946   2.526   0.770  14.119  0.2363  0.4985  0.2336
10844TIP3    H153947   2.595   0.743  14.179 -0.2639 -0.5377  0.3748
10844TIP3    H253948   2.546   0.861  14.097  1.2585  0.4151  0.7920
10845TIP3   OH253949   3.623   1.504   5.964  0.0716 -0.1444  0.2528
10845TIP3    H153950   3.660   1.426   5.922  1.0143  0.1086  0.5753
10845TIP3    H253951   3.675   1.514   6.044  0.7135  1.4257 -0.3227
10846TIP3   OH253952   3.043   6.637  11.200 -0.1289 -0.6905  0.0970
10846TIP3    H153953   3.104   6.663  11.131  1.2668 -1.6133  0.9317
10846TIP3    H253954   2.958   6.636  11.157  0.4734  0.2379 -1.2193
10847TIP3   OH253955   1.042   1.519   5.200 -0.0677  0.2115 -0.8819
10847TIP3    H153956   0.971   1.457   5.184 -1.2907  1.1178  0.7019
10847TIP3    H253957   1.047   1.525   5.296  1.1009  1.3338 -0.9860
10848TIP3   OH253958   6.395   2.575   4.747 -0.8002  0.1213  0.1711
10848TIP3    H153959   6.350   2.642   4.798 -0.2314  0.1790  0.6064
10848TIP3    H253960   6.331   2.547   4.681 -1.3236  0.4908  0.5218
10849TIP3   OH253961   4.388   6.786  14.386  0.6380 -0.6426  0.0605
10849TIP3    H153962   4.406   6.794  14.479  0.1502 -0.1430  0.1145
10849TIP3    H253963   4.294   6.802  14.378  0.8350  0.2336 -0.6224
10850TIP3   OH253964   3.933   6.310  12.118 -0.7571  0.0519  0.5533
10850TIP3    H153965   4.014   6.296  12.069 -1.1389  0.8176 -0.3354
10850TIP3    H253966   3.933   6.403  12.140 -1.7509  0.2382 -0.1503
10851TIP3   OH253967   5.857   2.406  14.993 -0.4422 -0.4018  0.3853
10851TIP3    H153968   5.877   2.356  15.072 -0.8644  0.9368  1.3695
10851TIP3    H253969   5.918   2.479  14.995 -0.0103 -0.7022 -0.9034
10852TIP3   OH253970   6.785   6.735   4.969 -0.6916 -0.4698 -0.7125
10852TIP3    H153971   6.795   6.811   5.025  1.5153 -0.6767 -0.7079
10852TIP3    H253972   6.839   6.667   5.011 -1.0756 -1.4274 -1.7073
10853TIP3   OH253973   3.718   0.610   1.351  0.0530  0.6103  0.0825
10853TIP3    H153974   3.685   0.537   1.298 -1.5644  2.0119 -0.9571
10853TIP3    H253975   3.739   0.678   1.287  0.0040  1.6280  1.1292
10854TIP3   OH253976   2.813   6.681  14.924 -0.9091 -0.3608 -0.5502
10854TIP3    H153977   2.851   6.593  14.928  0.9051  0.4283  0.5233
10854TIP3    H253978   2.793   6.702  15.016 -2.0162  0.0944 -0.8716
10855TIP3   OH253979   0.270   2.319  11.386 -0.2386 -0.3784  0.3844
10855TIP3    H153980   0.338   2.261  11.422  0.5250  0.8831  1.0553
10855TIP3    H253981   0.269   2.299  11.292  0.2316 -1.2354  0.5505
10856TIP3   OH253982   6.506   0.618   3.782 -0.2345  0.0978  0.2997
10856TIP3    H153983   6.593   0.657   3.777 -0.8056  1.6569  1.6163
10856TIP3    H253984   6.503   0.558   3.708  1.1518  1.7042 -1.1596
10857TIP3   OH253985   4.224   6.302   3.190  0.4027  0.1013 -0.4690
10857TIP3    H153986   4.145   6.335   3.232 -0.2143  0.8173 -2.0891
10857TIP3    H253987   4.295   6.355   3.227 -0.3259  1.8737 -1.5019
10858TIP3   OH253988   3.948   3.085  16.069  0.1720 -0.2906  0.0345
10858TIP3    H153989   3.884   3.075  15.999  0.4814  0.7300 -0.4146
10858TIP3    H253990   4.018   3.024  16.047 -0.0082 -0.4036 -0.2261
10859TIP3   OH253991   1.697   0.529   1.932  0.1579  0.2076  0.1731
10859TIP3    H153992   1.713   0.440   1.898  1.1350 -0.2986  1.8542
10859TIP3    H253993   1.616   0.556   1.890  0.3453 -1.1009 -1.1157
10860TIP3   OH253994   3.887   0.185  14.615 -0.1639 -0.0077  0.0648
10860TIP3    H153995   3.954   0.227  14.669  0.8370 -0.9582 -0.3971
10860TIP3    H253996   3.857   0.254  14.556  0.9617  0.2466 -0.2300
10861TIP3   OH253997   1.911   4.180  13.547  0.2834  0.1782  0.1246
10861TIP3    H153998   1.997   4.220  13.536 -0.3211  1.4946 -0.0792
10861TIP3    H253999   1.874   4.177  13.458  0.6003 -1.5888  0.0111
10862TIP3   OH254000   5.537   2.360  13.746 -0.7901 -0.0311  0.1102
10862TIP3    H154001   5.601   2.406  13.692 -0.1347  0.2259  1.0804
10862TIP3    H254002   5.517   2.280  13.698 -0.6874  0.4716 -0.7957
10863TIP3   OH254003   0.378   6.316   1.488  0.5202 -0.1005  0.0621
10863TIP3    H154004   0.365   6.331   1.582 -0.2611  0.6080 -0.1437
10863TIP3    H254005   0.473   6.318   1.476  0.7078 -1.4502  1.0201
10864TIP3   OH254006   5.996   3.863   1.672  0.3248 -0.1613  0.2574
10864TIP3    H154007   6.010   3.957   1.682  0.5088  0.0973 -1.9971
10864TIP3    H254008   6.082   3.824   1.683  0.6356  0.1709 -0.8749
10865TIP3   OH254009   4.021   2.145  14.494  0.4137  0.4474  0.8139
10865TIP3    H154010   4.068   2.192  14.563 -0.8419  0.3103  1.8042
10865TIP3    H254011   4.031   2.053  14.517  1.3527  0.2850 -0.1286
10866TIP3   OH254012   2.089   2.841   1.073 -0.1720 -0.0841  0.4205
10866TIP3    H154013   2.179   2.822   1.101 -0.1011 -1.4181 -0.5978
10866TIP3    H254014   2.052   2.755   1.054 -1.1637  0.5587 -0.6527
10867TIP3   OH254015   5.962   1.638   2.775 -0.5931  0.0101 -0.1905
10867TIP3    H154016   6.050   1.677   2.771 -0.7871  0.4091 -0.5364
10867TIP3    H254017   5.909   1.692   2.717 -1.1646  0.0081  0.3262
10868TIP3   OH254018   1.343   3.138  12.108  0.3113 -0.4159 -0.2311
10868TIP3    H154019   1.364   3.106  12.196  0.4870 -1.5419 -0.6716
10868TIP3    H254020   1.376   3.071  12.049 -0.1692  0.1334 -1.1503
10869TIP3   OH254021   2.701   6.263   3.036 -0.5090  0.2422  0.4832
10869TIP3    H154022   2.714   6.184   3.088 -2.0095 -0.3414  0.0264
10869TIP3    H254023   2.765   6.325   3.070 -0.5726 -0.5420  2.1309
10870TIP3   OH254024   1.834   3.608   3.595 -0.1670  0.5956  0.4909
10870TIP3    H154025   1.742   3.626   3.615 -0.8768 -1.8378 -0.2641
10870TIP3    H254026   1.849   3.648   3.510 -0.4463  1.2208  0.7317
10871TIP3   OH254027   0.097   3.339  12.079  0.1782 -0.2712  0.0809
10871TIP3    H154028   0.087   3.333  12.174 -0.3320  0.7187  0.1098
10871TIP3    H254029   0.191   3.334  12.065  0.1658 -3.0301  0.3940
10872TIP3   OH254030   4.939   4.543   1.542  0.8530 -0.7015 -0.1624
10872TIP3    H154031   4.857   4.533   1.591 -0.7381 -0.1256 -2.5565
10872TIP3    H254032   4.977   4.625   1.573 -0.9557  0.4912 -1.0008
10873TIP3   OH254033   1.007   1.435  16.174  0.1880 -0.2253 -0.2096
10873TIP3    H154034   0.915   1.460  16.165 -0.1215 -1.2051  0.0913
10873TIP3    H254035   1.032   1.465  16.262  0.3345  0.5584 -0.5118
10874TIP3   OH254036   2.591   0.849   5.045 -0.2107 -0.0555 -0.1910
10874TIP3    H154037   2.501   0.817   5.035 -0.5995  0.3770  1.5848
10874TIP3    H254038   2.645   0.781   5.004 -1.3415 -0.0499 -1.8149
10875TIP3   OH254039   4.512   4.528   2.294  0.6785  0.4278  0.1394
10875TIP3    H154040   4.445   4.574   2.346  0.3818  0.4865 -0.2920
10875TIP3    H254041   4.594   4.568   2.320  0.4424  1.0762 -0.0906
10876TIP3   OH254042   0.773   3.666   5.194 -0.0199 -0.1579 -0.6089
10876TIP3    H154043   0.719   3.623   5.260 -1.5941  0.7029 -1.2921
10876TIP3    H254044   0.791   3.596   5.130 -0.2371 -0.4783 -0.3257
10877TIP3   OH254045   1.599   0.357  17.139 -0.2768 -0.0224  0.1197
10877TIP3    H154046   1.516   0.311  17.148  0.0053 -0.6803 -0.5245
10877TIP3    H254047   1.636   0.358  17.228 -1.4957  1.3435  0.6585
10878TIP3   OH254048   5.118   6.288   4.162  0.3778  0.2555  0.2166
10878TIP3    H154049   5.087   6.203   4.193  3.0484 -1.1302 -0.6033
10878TIP3    H254050   5.095   6.289   4.069 -0.2736  0.7811  0.3733
10879TIP3   OH254051   2.591   1.519  11.024 -0.3347  0.9463  0.3564
10879TIP3    H154052   2.684   1.499  11.012 -0.1217  1.9687  0.2010
10879TIP3    H254053   2.547   1.460  10.963  0.1325 -0.2385  1.1354
10880TIP3   OH254054   3.214   5.310  16.008 -0.1972 -0.1965 -0.0092
10880TIP3    H154055   3.139   5.318  15.949 -0.6253 -0.5091  0.4712
10880TIP3    H254056   3.214   5.391  16.058 -0.7558 -0.5533  0.5890
10881TIP3   OH254057   1.074   2.979   5.226 -0.1151 -0.2923  0.0388
10881TIP3    H154058   1.031   2.903   5.265  1.3831 -1.3952 -0.3901
10881TIP3    H254059   1.019   3.003   5.151 -0.6782 -0.8486  0.2695
10882TIP3   OH254060   4.648   2.995   5.050  0.1081  0.2155 -0.2978
10882TIP3    H154061   4.734   3.012   5.011  0.2211  1.7618  0.5141
10882TIP3    H254062   4.647   2.901   5.067  2.1027  0.3187  0.6748
10883TIP3   OH254063   5.716   1.764   3.033 -0.2872 -0.1536  0.0332
10883TIP3    H154064   5.715   1.683   3.084 -0.9828 -0.2988 -0.2046
10883TIP3    H254065   5.625   1.792   3.031  0.2283  1.9181  2.1410
10884TIP3   OH254066   4.612   4.552  11.396  0.4398 -0.0776  0.7021
10884TIP3    H154067   4.614   4.574  11.489  0.4686  0.2127  0.6331
10884TIP3    H254068   4.546   4.610  11.358 -0.4045 -0.9921  0.7444
10885TIP3   OH254069   5.936   4.905   4.666 -0.5286 -0.0330 -0.1864
10885TIP3    H154070   5.856   4.956   4.676 -0.8027 -0.5420  0.2678
10885TIP3    H254071   5.927   4.834   4.729  0.2034 -0.1951 -0.2594
10886TIP3   OH254072   3.206   1.530  12.208 -0.3375 -0.4223 -0.1511
10886TIP3    H154073   3.286   1.526  12.156  0.9800  1.4320  1.5672
10886TIP3    H254074   3.167   1.615  12.185  0.0526  0.2395  1.4936
10887TIP3   OH254075   4.730   6.095  15.107 -0.3465 -0.2231  0.0818
10887TIP3    H154076   4.707   6.078  15.016 -0.0594  0.2230 -0.0747
10887TIP3    H254077   4.676   6.033  15.157  0.6813 -1.6306 -0.4714
10888TIP3   OH254078   3.996   1.023  13.570  0.1758  0.1125  0.2421
10888TIP3    H154079   3.913   1.072  13.568 -1.7135 -2.8417  0.4301
10888TIP3    H254080   4.042   1.057  13.647 -2.1728 -0.0667  1.8307
10889TIP3   OH254081   2.342   2.361   1.175 -0.7656 -0.5188 -0.7458
10889TIP3    H154082   2.376   2.450   1.179 -2.7873  0.3366 -1.2158
10889TIP3    H254083   2.367   2.330   1.088 -1.3057  0.1498 -1.1475
10890TIP3   OH254084   0.050   0.373   4.060  0.3866  0.0372 -0.2646
10890TIP3    H154085   0.081   0.346   4.146 -0.1794  0.8478  0.2113
10890TIP3    H254086   0.086   0.308   4.000  1.7577  0.1260  0.4342
10891TIP3   OH254087   1.619   3.719  16.959 -0.1165 -0.0303  0.3625
10891TIP3    H154088   1.545   3.727  16.899  1.0056 -1.4925 -1.3539
10891TIP3    H254089   1.594   3.649  17.019  0.1867 -1.1875 -0.8082
10892TIP3   OH254090   4.188   6.021  12.083 -0.3853 -0.0642  0.1737
10892TIP3    H154091   4.276   6.014  12.121  0.1303  2.4719 -0.3790
10892TIP3    H254092   4.203   6.022  11.988 -1.5307 -4.7300 -0.3097
10893TIP3   OH254093   3.960   2.151  12.540  0.1327 -0.5730 -0.5471
10893TIP3    H154094   3.979   2.063  12.572 -0.4185 -0.3851  0.3341
10893TIP3    H254095   4.004   2.210  12.602  0.7363 -0.2189 -1.2876
10894TIP3   OH254096   2.332   4.731  16.151 -0.4164  0.3337 -0.1473
10894TIP3    H154097   2.245   4.726  16.191  0.0718 -1.1464  0.8220
10894TIP3    H254098   2.389   4.762  16.222  0.3250 -1.5688  0.1476
10895TIP3   OH254099   5.282   4.898   3.053 -0.0867 -0.6934 -0.4114
10895TIP3    H154100   5.375   4.919   3.042 -0.1701  0.3609  0.7230
10895TIP3    H254101   5.237   4.953   2.988 -0.1342  1.1663  1.1305
10896TIP3   OH254102   4.194   6.181  13.220  0.3500  0.3293 -0.3149
10896TIP3    H154103   4.196   6.165  13.315  3.5453  0.8348 -0.2008
10896TIP3    H254104   4.187   6.276  13.212 -1.1437  0.2219 -0.6807
10897TIP3   OH254105   2.155   5.743  15.240 -0.1078 -0.3945  0.3111
10897TIP3    H154106   2.169   5.652  15.265 -3.6916 -1.5673 -1.3356
10897TIP3    H254107   2.134   5.739  15.147 -1.5346  1.9628  0.4544
10898TIP3   OH254108   1.486   0.558  16.010 -0.6196  0.6992  0.2646
10898TIP3    H154109   1.403   0.547  16.055 -0.6683  2.1779  0.5894
10898TIP3    H254110   1.468   0.534  15.919 -1.0919 -0.1190  0.5690
10899TIP3   OH254111   2.380   1.067   2.572 -0.2857  0.4217  0.2524
10899TIP3    H154112   2.312   1.016   2.615  1.7373 -1.2742  1.6088
10899TIP3    H254113   2.453   1.006   2.561  1.3914  2.3939 -0.2622
10900TIP3   OH254114   0.621   0.453   4.303 -0.3535  0.4175 -0.1671
10900TIP3    H154115   0.538   0.405   4.304 -0.3883  0.4200  2.2853
10900TIP3    H254116   0.634   0.481   4.394  5.3904 -4.9404  1.3517
10901TIP3   OH254117   6.419   2.293   3.422 -0.0651  0.3395  0.1202
10901TIP3    H154118   6.422   2.303   3.327  0.8285 -2.4130 -0.2279
10901TIP3    H254119   6.509   2.307   3.451  0.0660 -0.7880  0.2865
10902TIP3   OH254120   1.835   3.702  16.364  0.1726 -0.3046 -0.3225
10902TIP3    H154121   1.892   3.779  16.367 -1.8273  1.3677 -1.7324
10902TIP3    H254122   1.876   3.639  16.423  1.2480  2.2919  1.9333
10903TIP3   OH254123   0.082   0.485  13.160 -0.8194 -0.0570 -0.3112
10903TIP3    H154124   0.048   0.491  13.071  0.5899 -0.8410 -0.9375
10903TIP3    H254125   0.072   0.573  13.196 -1.4098  0.2660 -1.2337
10904TIP3   OH254126   0.196   4.682  16.650 -0.0577 -0.7010 -0.1425
10904TIP3    H154127   0.117   4.670  16.597  0.6285 -1.2098 -1.0815
10904TIP3    H254128   0.266   4.695  16.586  0.1302  3.4562  0.6235
10905TIP3   OH254129   0.038   5.606   0.594 -0.4646  0.1420  0.2626
10905TIP3    H154130   0.014   5.569   0.679 -2.0303 -0.6255 -0.4717
10905TIP3    H254131  -0.045   5.633   0.555  0.0474 -0.7208 -1.5480
10906TIP3   OH254132   0.628   0.979   0.496 -0.0378  0.1887 -0.5105
10906TIP3    H154133   0.670   0.917   0.437  0.2807 -0.0361 -0.0541
10906TIP3    H254134   0.700   1.027   0.537 -0.1520 -0.8483  0.9750
10907TIP3   OH254135   3.649   0.606  16.891 -0.2197 -0.5484 -0.4750
10907TIP3    H154136   3.612   0.572  16.809 -0.2948  0.1736 -0.7466
10907TIP3    H254137   3.622   0.543  16.958  0.7058 -1.6973 -1.1545
10908TIP3   OH254138   6.026   0.014  13.236  0.4033 -0.0569 -0.1917
10908TIP3    H154139   6.082  -0.055  13.200 -0.3380 -0.2707 -0.9855
10908TIP3    H254140   6.052   0.093  13.190 -0.2292 -0.2435 -0.9068
10909TIP3   OH254141   5.729   5.183  12.960 -0.1082  0.3656  0.3010
10909TIP3    H154142   5.680   5.230  13.027 -0.0780  1.0427 -0.1500
10909TIP3    H254143   5.666   5.163  12.891  0.1066  0.6798  0.0090
10910TIP3   OH254144   5.143   3.701  14.750  0.7623  0.0815 -0.4299
10910TIP3    H154145   5.110   3.655  14.827 -0.4707  0.5252 -0.6710
10910TIP3    H254146   5.152   3.792  14.777  3.7199 -0.2844  0.2090
10911TIP3   OH254147   0.755   4.163  14.962  0.2816 -0.1635 -0.5968
10911TIP3    H154148   0.675   4.132  15.004  0.9781  0.3552  1.2375
10911TIP3    H254149   0.809   4.085  14.952 -0.2285 -0.4280 -1.3456
10912TIP3   OH254150   5.240   6.018   0.972  0.1204 -0.3852 -0.2578
10912TIP3    H154151   5.200   6.043   1.055  3.8397 -1.3931  2.0794
10912TIP3    H254152   5.259   6.100   0.927  0.8613  0.3569  1.3746
10913TIP3   OH254153   3.692   5.682  16.278  0.0802  0.4410 -0.2557
10913TIP3    H154154   3.719   5.757  16.226 -0.7625  0.5019 -0.6302
10913TIP3    H254155   3.598   5.673  16.259  0.4256 -1.5419 -1.3096
10914TIP3   OH254156   3.456   4.558   0.014 -0.4114  0.0451 -0.2468
10914TIP3    H154157   3.522   4.503   0.058 -2.6165 -1.7995  0.9420
10914TIP3    H254158   3.381   4.556   0.073 -2.1570  0.6465 -2.3614
10915TIP3   OH254159   5.624   3.537   3.927 -0.3334 -0.2909  0.1758
10915TIP3    H154160   5.535   3.569   3.942 -0.4171  0.6766 -2.0762
10915TIP3    H254161   5.679   3.615   3.938 -0.0992 -0.2222 -1.3454
10916TIP3   OH254162   0.191   0.738  16.311  0.1182  0.3356  0.4882
10916TIP3    H154163   0.272   0.722  16.360  0.6380  2.1778  0.2816
10916TIP3    H254164   0.148   0.652  16.308  1.4461 -0.4132  1.6859
10917TIP3   OH254165   5.926   6.273   3.588  0.3548 -0.2498 -0.2300
10917TIP3    H154166   5.999   6.285   3.649  0.5981 -0.8782 -0.3979
10917TIP3    H254167   5.917   6.179   3.578  0.1164 -0.1613 -0.9321
10918TIP3   OH254168   5.437   3.953   6.547 -0.0211  0.6841  0.3680
10918TIP3    H154169   5.372   4.024   6.551 -0.2396  0.6736 -1.6273
10918TIP3    H254170   5.502   3.984   6.484  1.3921  0.2597  1.5837
10919TIP3   OH254171   0.648   2.916  16.622  0.1552  0.0440 -0.1679
10919TIP3    H154172   0.720   2.941  16.564  0.9371  1.5321  1.3412
10919TIP3    H254173   0.598   2.996  16.634  1.5384  0.5870  3.1812
10920TIP3   OH254174   5.286   6.245   0.794 -0.1322  0.5317 -0.1466
10920TIP3    H154175   5.301   6.309   0.724  0.4616  0.1679 -0.3682
10920TIP3    H254176   5.236   6.293   0.860 -0.1937  1.0544 -0.5600
10921TIP3   OH254177   1.460   4.218  13.953 -0.2181 -0.1039 -0.2770
10921TIP3    H154178   1.525   4.244  14.018  0.4745 -3.1765  0.4062
10921TIP3    H254179   1.415   4.300  13.930  1.6805  1.5942  1.6289
10922TIP3   OH254180   5.982   0.128   3.138 -0.7486  0.0708  0.1945
10922TIP3    H154181   6.056   0.100   3.084 -0.4060 -1.7434  1.5044
10922TIP3    H254182   5.983   0.223   3.133  0.0411 -0.0095 -1.9342
10923TIP3   OH254183   3.443   5.635  16.432 -0.1459 -0.5692  0.2756
10923TIP3    H154184   3.392   5.714  16.417  3.1981  1.7245 -0.0502
10923TIP3    H254185   3.530   5.667  16.457  1.3458 -4.1574  0.2405
10924TIP3   OH254186   3.562   4.725  13.628  0.0067  0.0821  0.2415
10924TIP3    H154187   3.574   4.807  13.677  0.8370 -1.1254  2.2089
10924TIP3    H254188   3.534   4.662  13.695  1.2393 -1.6771 -0.8135
10925TIP3   OH254189   2.018   4.215  14.138  0.2198  0.1112 -0.2480
10925TIP3    H154190   1.943   4.176  14.183  0.4706  0.8598  0.8451
10925TIP3    H254191   2.032   4.158  14.063 -1.9545  0.3990 -0.9657
10926TIP3   OH254192   4.832   2.595  15.916  0.6824 -0.4272 -0.1464
10926TIP3    H154193   4.866   2.612  15.828  0.5884  1.6597  0.1856
10926TIP3    H254194   4.737   2.590  15.905  0.4063  2.5558  0.1518
10927TIP3   OH254195   0.532   5.731  14.580  0.6547  0.2774 -0.1335
10927TIP3    H154196   0.615   5.778  14.572  0.2149  1.3541  1.1832
10927TIP3    H254197   0.528   5.707  14.673  0.1281 -1.0096 -0.4720
10928TIP3   OH254198   5.975   5.243   5.712 -0.4316  0.0393  0.4328
10928TIP3    H154199   5.976   5.298   5.791 -0.2836  1.4635 -0.5164
10928TIP3    H254200   5.886   5.252   5.678 -0.4367 -0.4029  0.3209
10929TIP3   OH254201   6.027   2.366   0.400  0.2721 -0.3730  0.5361
10929TIP3    H154202   6.060   2.358   0.489  1.1131  0.0978  0.2723
10929TIP3    H254203   6.070   2.295   0.352 -0.8066 -1.1470  0.6702
10930TIP3   OH254204   4.584   0.021  15.450 -0.4270  0.2465 -0.1364
10930TIP3    H154205   4.494  -0.003  15.430 -0.0787 -1.6194  0.3099
10930TIP3    H254206   4.619   0.058  15.369 -1.3871  0.3419 -0.5107
10931TIP3   OH254207   5.340   5.884  11.066  0.0662 -0.8492  0.3426
10931TIP3    H154208   5.381   5.833  10.996  0.0578 -2.3230  1.3751
10931TIP3    H254209   5.413   5.908  11.123  0.6213  3.0549 -1.6481
10932TIP3   OH254210   5.961   3.572   4.194  0.3252  0.1553 -0.7157
10932TIP3    H154211   5.930   3.485   4.170 -2.1297  0.0826  2.0496
10932TIP3    H254212   5.964   3.621   4.111 -1.9582 -1.5133 -1.8888
10933TIP3   OH254213   4.371   0.930  13.235 -0.3447 -0.4020 -0.4185
10933TIP3    H154214   4.281   0.916  13.263  0.1787 -2.0232  0.5643
10933TIP3    H254215   4.372   1.020  13.201 -1.8141  0.4244  1.5484
10934TIP3   OH254216   5.614   5.333   4.606 -0.2808 -0.1178 -0.1219
10934TIP3    H154217   5.690   5.303   4.656 -0.7075 -2.5574 -0.8155
10934TIP3    H254218   5.636   5.423   4.582  2.0698 -0.4901  0.3312
10935TIP3   OH254219   5.032   5.639  14.113 -0.0173 -0.4961 -0.2337
10935TIP3    H154220   5.112   5.591  14.136 -0.3931 -2.6189 -2.8870
10935TIP3    H254221   5.050   5.676  14.027 -0.7592  1.9330  0.5695
10936TIP3   OH254222   5.422   0.129  11.447  0.3429 -0.0813  0.2337
10936TIP3    H154223   5.473   0.187  11.390 -0.3432  1.3067  1.0048
10936TIP3    H254224   5.437   0.163  11.535  2.3195 -2.8642  1.1317
10937TIP3   OH254225   2.825   5.419  11.068  0.4930  0.3019  0.2110
10937TIP3    H154226   2.886   5.345  11.061  0.6579  0.3698  0.8463
10937TIP3    H254227   2.851   5.478  10.998  0.0700 -0.4413 -0.5989
10938TIP3   OH254228   4.382   4.419   5.374 -1.2060  0.6507 -0.6185
10938TIP3    H154229   4.348   4.374   5.296 -0.1553 -0.2593 -0.5661
10938TIP3    H254230   4.448   4.479   5.340 -1.1928  0.7111 -0.4846
10939TIP3   OH254231   5.430   2.519   2.120  0.3692 -0.5573 -0.1647
10939TIP3    H154232   5.400   2.496   2.208  1.7752 -1.4118  0.1256
10939TIP3    H254233   5.369   2.473   2.061 -1.9860  1.7952  0.2367
10940TIP3   OH254234   4.781   2.248  16.459  0.3798  0.5149  0.0360
10940TIP3    H154235   4.831   2.219  16.383 -0.7920  1.7071 -1.2204
10940TIP3    H254236   4.839   2.310  16.504 -0.0773  2.2139 -1.6383
10941TIP3   OH254237   4.965   4.823   0.371 -0.2386  0.1636 -0.5464
10941TIP3    H154238   4.912   4.758   0.417  1.0050  0.1807  0.9899
10941TIP3    H254239   4.909   4.900   0.366 -1.2810 -0.6004 -1.3009
10942TIP3   OH254240   2.991   0.710   2.463  0.4117 -0.3645 -0.4046
10942TIP3    H154241   2.948   0.625   2.462 -1.6262  0.5885 -0.0900
10942TIP3    H254242   3.043   0.713   2.383  1.2369 -2.2172  0.0208
10943TIP3   OH254243   0.866   5.452   3.651  0.5775 -0.5276  0.0032
10943TIP3    H154244   0.828   5.453   3.739  0.9543  0.9315  0.1738
10943TIP3    H254245   0.919   5.532   3.647  0.2977 -0.4015 -1.6746
10944TIP3   OH254246   5.568   2.760   2.137  0.6267  0.9581 -0.0292
10944TIP3    H154247   5.540   2.670   2.148 -1.8260  1.7707  1.1573
10944TIP3    H254248   5.564   2.798   2.224  0.9392  2.4079 -0.6057
10945TIP3   OH254249   5.379   5.475   3.639 -0.5524 -0.1868 -0.6921
10945TIP3    H154250   5.392   5.431   3.555  0.1639 -0.7847 -0.2812
10945TIP3    H254251   5.467   5.493   3.671 -0.8062  1.8524 -0.9792
10946TIP3   OH254252   5.861   4.055   0.754  0.1899  0.0086 -0.0068
10946TIP3    H154253   5.836   4.021   0.839  1.2227  0.1395  0.3677
10946TIP3    H254254   5.810   4.003   0.691  1.5076 -2.0923  0.5440
10947TIP3   OH254255   6.336   5.673  13.851  0.0562 -0.0063 -0.2989
10947TIP3    H154256   6.394   5.660  13.925  0.5702  0.0227 -0.6918
10947TIP3    H254257   6.383   5.733  13.793 -0.2691 -0.1416 -0.7152
10948TIP3   OH254258   3.867   2.374  11.218 -0.2802 -0.2502 -0.3402
10948TIP3    H154259   3.812   2.450  11.200 -0.7222 -0.3205  0.6321
10948TIP3    H254260   3.852   2.316  11.144 -1.6867 -0.3559 -0.0021
10949TIP3   OH254261   6.078   0.676  13.999  0.0842 -0.1180 -0.6249
10949TIP3    H154262   6.172   0.690  13.990  0.0586  1.1203  0.6763
10949TIP3    H254263   6.058   0.607  13.935  2.0921 -1.3749 -0.0107
10950TIP3   OH254264   4.364   0.198   1.749  0.2806  0.0318  0.1885
10950TIP3    H154265   4.425   0.245   1.692 -0.7920 -0.6359 -1.5722
10950TIP3    H254266   4.413   0.120   1.777  0.2811 -0.5323 -1.2629
10951TIP3   OH254267   2.947   6.578  15.957 -0.2976 -0.4931  0.3467
10951TIP3    H154268   2.985   6.613  16.037 -0.2449 -1.5215  0.7854
10951TIP3    H254269   2.854   6.569  15.977 -0.3431 -0.4117  0.1711
10952TIP3   OH254270   2.982   0.944  11.437  0.7580 -0.3672  0.0186
10952TIP3    H154271   3.004   0.989  11.355 -0.9330  0.6401  0.0589
10952TIP3    H254272   2.974   0.852  11.412  0.8993 -0.1619 -0.8240
10953TIP3   OH254273   2.114   0.287  14.475 -0.3527 -1.0269  0.2936
10953TIP3    H154274   2.207   0.265  14.480 -0.3793 -0.9395  1.9084
10953TIP3    H254275   2.082   0.242  14.397  1.1418 -0.6438 -0.5680
10954TIP3   OH254276   4.533   1.939   1.959 -0.1458  0.2364  0.2941
10954TIP3    H154277   4.472   1.993   1.909 -0.5638  0.4906  1.0789
10954TIP3    H254278   4.512   1.849   1.932 -1.3616  0.2644  1.0932
10955TIP3   OH254279   3.117   3.852  12.427 -0.3580 -0.0814  0.4042
10955TIP3    H154280   3.045   3.819  12.481  0.0078 -1.2694  0.1966
10955TIP3    H254281   3.107   3.807  12.344 -1.3054  2.2230 -0.8057
10956TIP3   OH254282   4.417   6.049   4.760 -0.2631 -0.5371 -0.3321
10956TIP3    H154283   4.474   6.009   4.826 -1.7542 -2.8829 -0.3290
10956TIP3    H254284   4.448   6.139   4.753  2.9506 -1.4715  0.1603
10957TIP3   OH254285   1.725   0.856   2.676  0.8262  0.1493 -0.5990
10957TIP3    H154286   1.793   0.891   2.734  0.0956  0.5820  0.0272
10957TIP3    H254287   1.714   0.923   2.609  0.7595  0.2526 -0.4863
10958TIP3   OH254288   2.639   5.002   3.922  0.2085  0.4108 -0.0370
10958TIP3    H154289   2.662   5.019   4.014  1.3647  0.0985 -0.2565
10958TIP3    H254290   2.621   5.089   3.886 -0.3303  0.5301  0.4961
10959TIP3   OH254291   0.057   5.423  10.993  0.1238  0.1969  0.3409
10959TIP3    H154292   0.059   5.479  10.915 -0.1986 -1.8157 -1.1743
10959TIP3    H254293  -0.030   5.384  10.993  0.9134 -1.6525  0.3396
10960TIP3   OH254294   0.410   6.431   3.271  0.4290  0.4438  0.1223
10960TIP3    H154295   0.435   6.499   3.209  0.7261 -0.6924 -1.0489
10960TIP3    H254296   0.492   6.410   3.317  0.4098  0.6467  0.2487
10961TIP3   OH254297   0.115   2.407  15.290 -0.1635  0.3708  0.0461
10961TIP3    H154298   0.188   2.439  15.237  0.7401  0.0185  1.0401
10961TIP3    H254299   0.092   2.323  15.251 -0.8283  1.0005 -0.9770
10962TIP3   OH254300   6.378   0.421  12.025 -0.4788  0.2644  0.3768
10962TIP3    H154301   6.472   0.414  12.042  0.1176  0.4326 -2.4337
10962TIP3    H254302   6.359   0.514  12.035  0.4243  0.8005 -2.1127
10963TIP3   OH254303   2.501   5.663   6.287  0.2755 -0.6108  0.5128
10963TIP3    H154304   2.514   5.570   6.272 -0.9768 -0.8379  0.7887
10963TIP3    H254305   2.460   5.668   6.373  1.6081  0.2910  1.1293
10964TIP3   OH254306   3.478   6.516  13.207 -0.3364 -0.1605  0.1772
10964TIP3    H154307   3.473   6.503  13.112  0.5035 -2.8261  0.4119
10964TIP3    H254308   3.571   6.526  13.225 -0.5123  0.5655  0.7118
10965TIP3   OH254309   0.196   6.440  13.166  0.3685  0.1680  0.0465
10965TIP3    H154310   0.243   6.364  13.200  2.1143  0.9013 -0.6411
10965TIP3    H254311   0.171   6.415  13.077  0.8306  0.3354 -0.1342
10966TIP3   OH254312   3.431   6.422   4.937  0.3041 -0.1488 -0.0590
10966TIP3    H154313   3.496   6.434   5.006  1.1550  0.0160 -0.8842
10966TIP3    H254314   3.465   6.470   4.862 -0.5883 -0.3710 -0.6254
10967TIP3   OH254315   1.875   0.660   4.409  0.5945  0.0147  0.2722
10967TIP3    H154316   1.876   0.623   4.320  1.5961  0.6338  0.0013
10967TIP3    H254317   1.834   0.593   4.463 -0.8402 -0.0191 -0.8024
10968TIP3   OH254318   1.568   1.494  16.600 -0.1700 -0.1819 -0.1981
10968TIP3    H154319   1.544   1.587  16.607  0.5769 -0.0155  0.3883
10968TIP3    H254320   1.485   1.448  16.595 -0.5470  0.6139 -2.0521
10969TIP3   OH254321   2.200   3.337   5.852 -0.5279  0.0315  0.0826
10969TIP3    H154322   2.291   3.362   5.841  0.0479 -1.9343 -0.0748
10969TIP3    H254323   2.171   3.385   5.929  1.4849 -1.3244  1.7887
10970TIP3   OH254324   2.494   6.676   4.904 -0.1955 -0.1027  0.1039
10970TIP3    H154325   2.433   6.747   4.922 -1.1157 -0.8946  0.2594
10970TIP3    H254326   2.551   6.672   4.981 -1.5705 -0.9299  1.1383
10971TIP3   OH254327   1.853   3.176  16.186  0.7463 -0.6044 -0.2028
10971TIP3    H154328   1.789   3.106  16.184  1.1115 -0.9470 -1.9659
10971TIP3    H254329   1.802   3.255  16.203 -0.0286 -0.9974 -0.6270
10972TIP3   OH254330   1.090   5.026  14.441  0.2962 -0.1324  0.2978
10972TIP3    H154331   1.116   5.119  14.445  1.4840 -0.2812 -2.3517
10972TIP3    H254332   1.159   4.984  14.390 -1.0768 -2.1732  0.0213
10973TIP3   OH254333   2.056   6.347   2.635  0.9088 -0.5035 -0.4112
10973TIP3    H154334   2.042   6.286   2.708  0.1016 -0.0603 -0.1769
10973TIP3    H254335   2.029   6.432   2.670  0.0261 -0.3712 -1.3648
10974TIP3   OH254336   2.764   5.852  15.230  0.2802 -0.1310  0.1016
10974TIP3    H154337   2.789   5.785  15.166 -0.8558 -2.1956  1.6675
10974TIP3    H254338   2.696   5.904  15.186  0.9642 -0.1764 -1.0497
10975TIP3   OH254339   1.270   1.429  15.955  0.4036 -0.0532 -0.0806
10975TIP3    H154340   1.296   1.509  15.909  0.6550 -0.0993 -0.0197
10975TIP3    H254341   1.276   1.452  16.048 -0.0717  0.0301 -0.0665
10976TIP3   OH254342   2.297   3.173  16.967 -0.7028 -0.1406  0.2620
10976TIP3    H154343   2.336   3.085  16.963  1.0253  0.5597  0.6590
10976TIP3    H254344   2.364   3.226  17.010 -1.2329  1.6244 -0.9836
10977TIP3   OH254345   1.257   5.787   5.810 -0.0593  0.1382 -0.1343
10977TIP3    H154346   1.183   5.776   5.750  0.7925  0.7842 -1.3461
10977TIP3    H254347   1.230   5.858   5.869 -1.1870 -0.9718  0.7472
10978TIP3   OH254348   4.612   3.953  17.049 -0.1786  0.2349 -0.5707
10978TIP3    H154349   4.668   3.977  16.975 -1.0564  0.3135 -1.2301
10978TIP3    H254350   4.542   3.902  17.010 -0.4194 -0.1052  0.2825
10979TIP3   OH254351   4.115   3.616   3.645 -0.0127 -0.5287 -0.2423
10979TIP3    H154352   4.109   3.540   3.587 -0.9293 -0.1570 -0.6615
10979TIP3    H254353   4.043   3.603   3.707 -0.2138  0.0139 -0.3552
10980TIP3   OH254354   1.884   0.446  13.493 -0.5302  0.0007  0.1536
10980TIP3    H154355   1.835   0.479  13.568  0.4350  1.6706  0.0918
10980TIP3    H254356   1.816   0.419  13.430 -1.3509 -1.4050  1.5619
10981TIP3   OH254357   1.284   5.332   1.236  0.4887  0.0439  0.0041
10981TIP3    H154358   1.302   5.243   1.205 -0.1052 -0.4333  1.0075
10981TIP3    H254359   1.222   5.367   1.171 -0.7425 -0.9467  0.6107
10982TIP3   OH254360   6.030   6.787   1.159 -0.4458 -0.3883 -0.1119
10982TIP3    H154361   5.947   6.752   1.126  0.0821 -0.5360 -1.3456
10982TIP3    H254362   6.015   6.800   1.253 -0.8875 -3.2820  0.3059
10983TIP3   OH254363   1.451   2.703  12.261  0.3168  0.4888  0.0698
10983TIP3    H154364   1.539   2.703  12.224  0.4517  1.4724  0.3634
10983TIP3    H254365   1.466   2.708  12.356 -0.0565  0.5134  0.1266
10984TIP3   OH254366   4.554   6.064   1.622  0.0698  0.0597  0.6455
10984TIP3    H154367   4.557   5.978   1.664  2.6606 -0.5296 -0.5619
10984TIP3    H254368   4.621   6.115   1.666  0.4509  0.5530 -0.4624
10985TIP3   OH254369   2.811   6.445   3.216 -0.4299  0.1187  0.1662
10985TIP3    H154370   2.723   6.447   3.253 -0.0858 -3.1411  1.4384
10985TIP3    H254371   2.860   6.510   3.266 -1.2863 -0.5136  1.8931
10986TIP3   OH254372   5.233   0.131   4.944  0.0457 -0.0165 -0.4367
10986TIP3    H154373   5.318   0.121   4.988 -0.0238  1.1570  0.0181
10986TIP3    H254374   5.169   0.107   5.011 -0.0206  0.6620 -0.2464
10987TIP3   OH254375   2.000   1.470  11.306  0.6110 -0.0833 -0.0742
10987TIP3    H154376   1.996   1.419  11.387  0.5246 -0.1577 -0.1243
10987TIP3    H254377   1.950   1.418  11.243  0.6591 -0.0150 -0.1692
10988TIP3   OH254378   2.523   5.533  17.038 -0.2012 -0.4664  0.2051
10988TIP3    H154379   2.575   5.478  17.097 -0.3164 -1.1781 -0.3462
10988TIP3    H254380   2.570   5.616  17.036  1.0957 -1.1768 -0.4909
10989TIP3   OH254381   2.709   5.035   1.689 -0.0823 -0.0034  0.2998
10989TIP3    H154382   2.736   4.944   1.701  0.7537 -0.0912 -1.7271
10989TIP3    H254383   2.643   5.050   1.756  0.7678 -1.6601  1.5897
10990TIP3   OH254384   6.203   2.843   5.860  0.2895 -0.1237  0.2047
10990TIP3    H154385   6.130   2.781   5.870  0.4638 -0.1876  1.2357
10990TIP3    H254386   6.213   2.853   5.766  0.7942 -2.3064 -0.0251
10991TIP3   OH254387   6.679   3.771  14.170 -0.3401 -0.4775  1.0341
10991TIP3    H154388   6.613   3.794  14.105  0.9645  1.7929  0.4425
10991TIP3    H254389   6.634   3.784  14.254 -0.8130  0.5229  0.6421
10992TIP3   OH254390   2.483   2.915  16.189  0.0007  0.2556 -0.1348
10992TIP3    H154391   2.574   2.923  16.161 -0.4648 -1.2263 -2.3633
10992TIP3    H254392   2.484   2.847  16.256  0.6947  1.2747  0.9083
10993TIP3   OH254393   0.737   1.886   1.003 -0.3153  0.5270  0.6654
10993TIP3    H154394   0.798   1.846   1.065  0.7005  0.7462 -0.1659
10993TIP3    H254395   0.651   1.862   1.036  0.1987 -3.0465 -0.2131
10994TIP3   OH254396   2.234   4.724  14.961  0.4085  0.5886 -0.2063
10994TIP3    H154397   2.191   4.735  15.046  2.4282  0.1484  0.9346
10994TIP3    H254398   2.244   4.630  14.950  0.0236  0.6305 -1.0368
10995TIP3   OH254399   1.559   3.036  10.452 -0.9535 -0.3989 -0.2443
10995TIP3    H154400   1.504   2.959  10.443  0.6438 -1.7697  0.9710
10995TIP3    H254401   1.648   3.001  10.458 -0.2394  1.4611  1.1364
10996TIP3   OH254402   2.220   4.406   5.245  0.7645 -0.0668  0.0737
10996TIP3    H154403   2.160   4.353   5.192  0.4778 -0.3021  0.6231
10996TIP3    H254404   2.298   4.414   5.192 -0.8065  2.8832 -2.0681
10997TIP3   OH254405   2.406   5.932   3.061 -0.1971  0.6640 -0.0154
10997TIP3    H154406   2.495   5.950   3.090 -0.5128 -0.2862  1.6588
10997TIP3    H254407   2.361   6.016   3.068  0.0125  0.6916  1.3628
10998TIP3   OH254408   0.116   0.205   0.650  0.3230  0.1123  0.2875
10998TIP3    H154409   0.072   0.199   0.565  0.5992  0.9169  0.0803
10998TIP3    H254410   0.045   0.200   0.714  0.1262 -0.6559  0.0254
10999TIP3   OH254411   5.013   4.806  13.837  0.5897 -0.2818 -0.3181
10999TIP3    H154412   5.050   4.857  13.765  2.2912  1.1741  1.4761
10999TIP3    H254413   5.073   4.820  13.910 -1.1042 -1.6122  1.4443
11000TIP3   OH254414   0.045   4.011  12.007 -0.3763 -0.2026 -0.0518
11000TIP3    H154415   0.083   4.082  11.955 -0.6777 -0.4749 -0.6512
11000TIP3    H254416   0.065   3.932  11.957 -1.1138 -0.4170 -0.0139
11001TIP3   OH254417   0.450   5.244   6.339  0.3183 -0.3095 -0.2106
11001TIP3    H154418   0.383   5.233   6.272 -0.0674 -1.0020  0.2847
11001TIP3    H254419   0.410   5.301   6.404  1.4607  2.2983 -1.5862
11002TIP3   OH254420   5.729   0.376  16.862 -0.4827 -0.4680  0.1317
11002TIP3    H154421   5.710   0.428  16.940 -1.9461  1.0643 -1.1636
11002TIP3    H254422   5.757   0.291  16.897  1.3422  0.8991  2.3210
11003TIP3   OH254423   6.498   5.255  11.251 -0.0199  0.4814  0.1857
11003TIP3    H154424   6.520   5.338  11.208  0.8055  1.2823  2.0106
11003TIP3    H254425   6.431   5.280  11.315 -0.9666 -0.5934 -0.3739
11004TIP3   OH254426   1.904   3.251   4.896  0.3769  0.2917 -0.1011
11004TIP3    H154427   1.942   3.187   4.957  0.9888 -0.1344 -0.9087
11004TIP3    H254428   1.837   3.296   4.947  0.3920 -0.5446  0.6773
11005TIP3   OH254429   2.913   0.365  17.026 -0.5484  0.0633  0.4289
11005TIP3    H154430   2.958   0.286  17.056 -2.4191 -0.7923  1.1450
11005TIP3    H254431   2.923   0.365  16.931 -2.7451 -2.5765  0.0725
11006TIP3   OH254432   3.632   5.742   2.577 -0.1335 -0.1282 -0.0295
11006TIP3    H154433   3.658   5.779   2.492 -0.7300  3.4625  1.1855
11006TIP3    H254434   3.536   5.739   2.573 -0.1118 -2.7814 -0.4456
11007TIP3   OH254435   5.025   2.729   3.776  0.0599  0.3751  0.5030
11007TIP3    H154436   5.089   2.721   3.847 -1.0317  0.3192  1.4990
11007TIP3    H254437   4.948   2.682   3.807 -0.8532  1.3471 -0.2236
11008TIP3   OH254438   6.233   0.125   2.983  0.1412 -0.0462  0.2893
11008TIP3    H154439   6.244   0.119   2.888 -0.1887  1.4268  0.1300
11008TIP3    H254440   6.272   0.209   3.006  0.7230 -0.6426  1.5528
11009TIP3   OH254441   5.000   1.308   4.466  0.0346 -0.4805  0.4720
11009TIP3    H154442   5.087   1.342   4.445  0.9051 -2.4922  0.6913
11009TIP3    H254443   4.950   1.386   4.491  0.8535  1.1425 -2.4846
11010TIP3   OH254444   1.882   4.556  11.792  0.2123 -0.6699  0.0180
11010TIP3    H154445   1.924   4.574  11.708  0.4821 -2.0869 -0.1687
11010TIP3    H254446   1.865   4.462  11.791 -2.6195 -0.2530  0.2469
11011TIP3   OH254447   6.567   0.042   1.169 -0.1758  0.3370 -0.2238
11011TIP3    H154448   6.585  -0.019   1.240  1.5198  1.3122  0.2453
11011TIP3    H254449   6.473   0.061   1.175 -0.0126  0.6470  1.9725
11012TIP3   OH254450   4.300   0.439   5.368 -0.0512 -0.2482  0.1782
11012TIP3    H154451   4.255   0.520   5.344  1.1701  1.4008  2.9578
11012TIP3    H254452   4.239   0.394   5.426  0.1887 -0.1218  0.5321
11013TIP3   OH254453   6.392   4.928  15.006 -0.2854 -0.2717 -0.1216
11013TIP3    H154454   6.363   4.909  14.917 -0.9354 -0.7439  0.1819
11013TIP3    H254455   6.311   4.943  15.054  0.0728  0.2187  0.3403
11014TIP3   OH254456   6.295   5.575   4.458 -0.3380  0.5576  0.1669
11014TIP3    H154457   6.387   5.562   4.482 -0.6658 -0.7423  0.8105
11014TIP3    H254458   6.299   5.626   4.377  0.9789 -0.2375 -0.3049
11015TIP3   OH254459   2.535   4.723  12.370  0.3313  0.4685 -0.9717
11015TIP3    H154460   2.583   4.796  12.330  0.2086  2.3644  2.0314
11015TIP3    H254461   2.469   4.765  12.426  1.3711 -1.7896  2.2637
11016TIP3   OH254462   5.411   2.386   5.626  0.2567 -0.3896 -0.5771
11016TIP3    H154463   5.390   2.428   5.543  0.2977 -1.0181 -0.9135
11016TIP3    H254464   5.328   2.347   5.655  0.5027 -1.2074 -0.9361
11017TIP3   OH254465   0.140   3.836  14.155  0.1309 -0.2793 -0.2166
11017TIP3    H154466   0.060   3.784  14.142  0.3629 -0.5632 -0.5416
11017TIP3    H254467   0.115   3.925  14.132 -0.4946 -0.0769  1.1268
11018TIP3   OH254468   6.275   2.383  15.107 -0.0558  0.3201  0.1620
11018TIP3    H154469   6.312   2.469  15.123  2.2492 -0.5883  0.1496
11018TIP3    H254470   6.216   2.368  15.181  0.6407  1.3203  0.9495
11019TIP3   OH254471   0.974   1.181  16.086  0.1544 -0.6203  0.4891
11019TIP3    H154472   0.982   1.272  16.058 -0.1015 -0.8311 -0.2951
11019TIP3    H254473   1.032   1.174  16.162 -1.0909  0.6045  1.6029
11020TIP3   OH254474   4.351   5.872   5.154  0.3549  0.5141  0.6624
11020TIP3    H154475   4.427   5.913   5.195 -0.5237  0.3154  2.5676
11020TIP3    H254476   4.287   5.864   5.224 -1.0265 -0.3407 -0.6425
11021TIP3   OH254477   5.712   1.246   3.312  0.0892  0.0012  0.6379
11021TIP3    H154478   5.674   1.180   3.371 -0.2699 -1.6834 -1.3748
11021TIP3    H254479   5.782   1.286   3.363 -0.0938 -1.4965  2.1623
11022TIP3   OH254480   1.884   1.271   0.095  0.7549 -0.0490 -0.4852
11022TIP3    H154481   1.863   1.247   0.004 -0.4014  0.8670 -0.4850
11022TIP3    H254482   1.873   1.190   0.144 -1.8995  0.1209 -0.6599
11023TIP3   OH254483   3.698   5.224   2.155  0.0110  0.6660  0.3663
11023TIP3    H154484   3.717   5.192   2.244 -0.2766  1.4547  0.7213
11023TIP3    H254485   3.653   5.308   2.169  0.7271  1.2175 -0.5316
11024TIP3   OH254486   4.863   3.680  15.633 -0.4536  0.2843 -0.3209
11024TIP3    H154487   4.889   3.594  15.601  0.3674 -0.0444  1.1555
11024TIP3    H254488   4.795   3.709  15.572 -0.9804 -1.5448 -0.6519
11025TIP3   OH254489   6.710   0.675   3.578  0.3829  0.2126 -0.1746
11025TIP3    H154490   6.799   0.646   3.563  0.7879  0.2819  1.8337
11025TIP3    H254491   6.713   0.770   3.563  0.4832  0.1273 -0.7225
11026TIP3   OH254492   5.082   5.869  11.129 -0.1569  0.2127  0.3256
11026TIP3    H154493   5.170   5.847  11.097 -0.3925 -1.5319  0.7804
11026TIP3    H254494   5.038   5.906  11.052  0.9549  1.1190  0.0905
11027TIP3   OH254495   1.955   1.542  17.184 -0.3364  0.0912  0.1373
11027TIP3    H154496   2.047   1.537  17.212 -0.7045  1.5327  1.7265
11027TIP3    H254497   1.943   1.463  17.131  1.3978 -0.9257  1.1544
11028TIP3   OH254498   4.935   3.451  15.824  0.1262  0.0098  0.0432
11028TIP3    H154499   4.862   3.390  15.816 -0.7121  1.0427 -0.6150
11028TIP3    H254500   4.961   3.447  15.916  2.2683 -3.6952 -0.5378
11029TIP3   OH254501   2.855   5.991  13.551 -0.1549 -0.0147 -0.1309
11029TIP3    H154502   2.918   5.919  13.557 -0.2986 -0.2432 -1.2111
11029TIP3    H254503   2.875   6.046  13.627 -0.4002 -1.4637  1.0439
11030TIP3   OH254504   1.660   1.143  10.434  0.7795  0.4669 -0.2924
11030TIP3    H154505   1.635   1.069  10.490 -0.0917  0.4834 -0.6381
11030TIP3    H254506   1.737   1.180  10.477  2.5409 -1.8817 -1.2336
11031TIP3   OH254507   1.063   4.647  12.655 -0.3250 -0.3445 -0.0489
11031TIP3    H154508   1.007   4.724  12.665  0.8627  0.3853  1.3354
11031TIP3    H254509   1.080   4.617  12.744  3.1121  0.7307 -0.1945
11032TIP3   OH254510   2.627   3.738   2.364 -0.2403  0.5811 -0.4723
11032TIP3    H154511   2.672   3.801   2.307 -1.9610  0.9796 -1.4480
11032TIP3    H254512   2.546   3.718   2.318 -0.2386 -1.5339  0.3612
11033TIP3   OH254513   6.481   1.058   5.601 -0.1198  0.2849 -0.4476
11033TIP3    H154514   6.417   1.117   5.641  0.2882  0.0857  0.5366
11033TIP3    H254515   6.430   1.004   5.541 -1.1311 -0.7300  1.2578
11034TIP3   OH254516   0.186   6.476   4.760 -0.5817 -0.1145 -0.2245
11034TIP3    H154517   0.226   6.441   4.840 -0.5519 -2.0308 -1.0012
11034TIP3    H254518   0.199   6.570   4.765  1.0685 -0.3677  1.1458
11035TIP3   OH254519   5.004   5.717   5.596  0.0990 -0.2145 -0.4090
11035TIP3    H154520   4.931   5.775   5.573  2.1422  2.3155 -0.8385
11035TIP3    H254521   4.971   5.666   5.670 -1.6416  1.8086  0.3117
11036TIP3   OH254522   3.850   1.096   1.086 -0.2316 -0.0450  0.1069
11036TIP3    H154523   3.889   1.082   1.000 -0.5672  0.1507 -0.0795
11036TIP3    H254524   3.862   1.190   1.103  2.1689 -0.4927  1.4231
11037TIP3   OH254525   2.238   1.119   5.335 -0.1481 -0.3930  0.1288
11037TIP3    H154526   2.233   1.205   5.378  1.6233 -0.5410  0.6873
11037TIP3    H254527   2.147   1.091   5.328 -0.9159  2.1162 -1.2708
11038TIP3   OH254528   2.862   0.983   3.368 -0.4172  0.2091  0.0303
11038TIP3    H154529   2.888   1.055   3.426  3.7604 -0.2061 -1.0661
11038TIP3    H254530   2.831   1.027   3.288  1.8108  0.9022 -0.5159
11039TIP3   OH254531   5.088   2.924  12.685  0.1401 -0.3877  0.1968
11039TIP3    H154532   5.043   2.974  12.753  0.5348  0.6773 -0.2940
11039TIP3    H254533   5.150   2.986  12.647  0.6125 -1.2472 -0.4779
11040TIP3   OH254534   2.773   2.374   2.616  0.4727 -0.8404  0.4070
11040TIP3    H154535   2.751   2.361   2.524  0.6451  0.1251  0.2231
11040TIP3    H254536   2.727   2.304   2.662  0.6079 -1.4944 -0.4361
11041TIP3   OH254537   2.671   1.587   2.931  0.0976  0.1238 -0.5344
11041TIP3    H154538   2.668   1.653   2.862 -0.2057  0.4166 -0.2467
11041TIP3    H254539   2.715   1.631   3.004 -0.4921  0.1645 -0.1891
11042TIP3   OH254540   6.200   4.046  16.821  0.2240 -0.0472 -0.1257
11042TIP3    H154541   6.242   4.000  16.749  1.8351 -0.1453  0.8153
11042TIP3    H254542   6.163   3.976  16.876 -1.1917  0.0364 -0.9232
11043TIP3   OH254543   2.863   0.425  13.244 -0.2255 -0.1572  0.0376
11043TIP3    H154544   2.833   0.381  13.165 -1.5878 -0.6540  0.7998
11043TIP3    H254545   2.828   0.514  13.238 -1.1749 -0.4864  0.5269
11044TIP3   OH254546   1.953   4.928   1.797 -0.3513  0.0543  0.4641
11044TIP3    H154547   1.929   4.958   1.709 -0.5767  0.1394  0.5546
11044TIP3    H254548   1.871   4.927   1.846  0.0304  1.9242  1.2397
11045TIP3   OH254549   0.440   4.402   0.545  0.2235  0.2667 -0.0946
11045TIP3    H154550   0.354   4.405   0.502  0.4993  1.8759 -0.6055
11045TIP3    H254551   0.502   4.392   0.472  0.6842  2.8473 -0.1448
11046TIP3   OH254552   1.343   1.690   2.965 -0.3060  0.0060  0.1598
11046TIP3    H154553   1.285   1.690   2.889  0.5349  1.0710 -0.5110
11046TIP3    H254554   1.424   1.732   2.934  0.1792  0.1524  1.5421
11047TIP3   OH254555   1.610   5.319  10.908  0.4083  0.4113 -0.5612
11047TIP3    H154556   1.703   5.337  10.924  0.5748 -0.7204 -0.2009
11047TIP3    H254557   1.569   5.331  10.994  0.3497  0.1204 -0.5493
11048TIP3   OH254558   2.827   2.744  12.433 -0.3207  0.4359  0.5396
11048TIP3    H154559   2.819   2.751  12.338 -0.6234 -0.4657  0.4886
11048TIP3    H254560   2.879   2.665  12.447 -1.5132 -0.2728  1.1430
11049TIP3   OH254561   3.320   5.942   0.335 -0.1275  0.0478  0.6131
11049TIP3    H154562   3.327   5.861   0.285  0.3222  0.3520  0.1777
11049TIP3    H254563   3.238   5.982   0.303  0.3448  0.4230 -0.1678
11050TIP3   OH254564   6.521   6.615  14.297  0.5242  0.3732 -0.2173
11050TIP3    H154565   6.536   6.706  14.271  3.0550  0.1026 -0.0245
11050TIP3    H254566   6.550   6.610  14.388  0.7593 -0.6824 -0.3303
11051TIP3   OH254567   6.690   2.326   3.936  0.5492  0.7173  0.0886
11051TIP3    H154568   6.745   2.326   3.858  0.3980  0.2810 -0.0178
11051TIP3    H254569   6.703   2.413   3.975  1.7755  0.4173  0.3886
11052TIP3   OH254570   4.739   1.284  17.018  0.2440 -0.5880 -0.1638
11052TIP3    H154571   4.760   1.367  16.974 -2.6373 -0.0571 -0.7412
11052TIP3    H254572   4.810   1.225  16.993  1.6988  1.3196 -0.8053
11053TIP3   OH254573   4.668   5.280  15.879 -0.1779 -0.4713  0.5008
11053TIP3    H154574   4.758   5.280  15.912  0.9559 -1.0795 -2.2873
11053TIP3    H254575   4.649   5.373  15.863  0.1220 -0.3731  0.7056
11054TIP3   OH254576   3.723   6.568  15.048  0.6056 -0.4621 -0.2012
11054TIP3    H154577   3.640   6.533  15.017  0.2825 -2.5128  2.5459
11054TIP3    H254578   3.769   6.596  14.969 -2.0451 -0.6517 -1.9321
11055TIP3   OH254579   5.256   1.309  11.917 -0.3381 -0.0249 -0.4023
11055TIP3    H154580   5.171   1.351  11.928  0.6442  1.8698  0.3093
11055TIP3    H254581   5.238   1.232  11.863 -2.4456  0.4958 -0.5080
11056TIP3   OH254582   4.582   4.323  11.764 -0.1556 -0.6090  0.0476
11056TIP3    H154583   4.612   4.408  11.731  0.0290 -0.6247  0.1740
11056TIP3    H254584   4.624   4.314  11.849  0.3035 -1.0917 -0.2205
11057TIP3   OH254585   6.540   0.360  15.382 -0.1903 -0.2127  0.5008
11057TIP3    H154586   6.477   0.309  15.433  0.2845 -1.5699 -0.2115
11057TIP3    H254587   6.612   0.377  15.442 -0.6185  0.1298  0.9170
11058TIP3   OH254588   4.371   5.344  13.722  0.7648 -0.4939  0.2500
11058TIP3    H154589   4.298   5.348  13.661  0.1094 -0.7405  1.0024
11058TIP3    H254590   4.342   5.396  13.797  1.0166 -1.2935  0.9074
11059TIP3   OH254591   6.451   2.603  16.925 -0.7237  0.1450 -0.0802
11059TIP3    H154592   6.389   2.560  16.865  0.4821  0.7466 -1.8643
11059TIP3    H254593   6.400   2.673  16.965 -0.9947  1.3758 -2.4032
11060TIP3   OH254594   1.055   4.421   4.902 -0.5623 -0.2338  0.2785
11060TIP3    H154595   0.975   4.369   4.914 -1.7685  1.5838  0.4481
11060TIP3    H254596   1.054   4.482   4.975  0.9536 -0.1134  0.2131
11061TIP3   OH254597   5.207   6.004  12.310 -0.0536  0.2712  0.1930
11061TIP3    H154598   5.170   6.018  12.398 -0.0014  0.1759  0.2298
11061TIP3    H254599   5.226   5.911  12.306  0.9948  0.4586  0.4984
11062TIP3   OH254600   3.340   2.786  12.593 -0.1686 -0.9548 -0.4678
11062TIP3    H154601   3.330   2.870  12.637  0.2953 -0.9832 -0.3029
11062TIP3    H254602   3.424   2.752  12.624 -0.0441 -1.1813 -1.0343
11063TIP3   OH254603   3.846   6.633  16.189 -0.1073  0.3245 -0.4762
11063TIP3    H154604   3.841   6.722  16.224 -0.4525  0.3589 -0.6190
11063TIP3    H254605   3.865   6.578  16.266 -2.1020  0.2368 -0.0123
11064TIP3   OH254606   0.996   4.745  11.032 -0.4427  0.3068  0.5272
11064TIP3    H154607   1.009   4.840  11.029 -0.4230  0.3783  2.1545
11064TIP3    H254608   0.904   4.734  11.054 -0.9707 -0.1149 -1.6218
11065TIP3   OH254609   5.390   1.469  16.124 -0.3034 -0.0825 -0.2512
11065TIP3    H154610   5.435   1.458  16.207 -0.4846  0.9434 -0.0035
11065TIP3    H254611   5.434   1.408  16.064  1.2337  0.6866  0.0476
11066TIP3   OH254612   4.232   5.620  11.805  0.2478  0.8620  0.6735
11066TIP3    H154613   4.255   5.528  11.789 -0.3928  0.8299 -0.1089
11066TIP3    H254614   4.316   5.663  11.821  0.6194  0.2816  0.3341
11067TIP3   OH254615   4.561   4.141  15.389  0.1872 -0.7222  0.4857
11067TIP3    H154616   4.501   4.084  15.435  3.1377 -3.2305  1.5811
11067TIP3    H254617   4.550   4.118  15.297 -0.8058 -0.8066  0.6146
11068TIP3   OH254618   4.473   2.270   5.774  0.0006  0.0428  0.4554
11068TIP3    H154619   4.392   2.218   5.766  0.3105 -0.1275 -2.6417
11068TIP3    H254620   4.454   2.351   5.726  1.6912 -0.0587 -0.4277
11069TIP3   OH254621   6.359   2.437  11.821 -0.3315  0.6099  0.4121
11069TIP3    H154622   6.291   2.409  11.759 -0.8083 -1.5102  1.8041
11069TIP3    H254623   6.441   2.402  11.785 -0.8381 -2.2149  1.7905
11070TIP3   OH254624   4.423   0.522   4.014  0.3609  0.1247  0.8849
11070TIP3    H154625   4.397   0.541   4.104 -1.5357  1.3570  0.1414
11070TIP3    H254626   4.437   0.608   3.974 -0.1018 -0.3423 -0.3278
11071TIP3   OH254627   3.781   5.683   3.864  0.1025 -0.4431  0.5052
11071TIP3    H154628   3.733   5.608   3.898 -0.7952 -0.1085 -0.0019
11071TIP3    H254629   3.717   5.732   3.813  1.6692 -1.6505 -2.9409
11072TIP3   OH254630   2.319   5.541   1.767  0.3215  0.0676 -0.0638
11072TIP3    H154631   2.395   5.482   1.766  1.9301  1.9983  1.0093
11072TIP3    H254632   2.357   5.628   1.780 -2.1022  1.1199  0.3801
11073TIP3   OH254633   4.903   4.593  12.160 -0.1311 -0.5774  0.3269
11073TIP3    H154634   4.900   4.657  12.230  1.1322  1.8275 -1.6516
11073TIP3    H254635   4.977   4.536  12.183  1.1586  1.0188  0.3466
11074TIP3   OH254636   2.362   5.937  13.360  0.2183  0.1143  0.2582
11074TIP3    H154637   2.361   6.026  13.394  1.4273 -0.2950  1.4856
11074TIP3    H254638   2.399   5.946  13.272  1.3229  0.7474  0.7529
11075TIP3   OH254639   4.383   1.624   4.423 -0.3460 -0.7378 -0.0411
11075TIP3    H154640   4.324   1.592   4.491  0.0003  2.0197  1.7067
11075TIP3    H254641   4.337   1.698   4.384  0.5055 -0.7568 -1.1401
11076TIP3   OH254642   4.235   4.428  16.732  0.9127 -0.7541 -0.3891
11076TIP3    H154643   4.179   4.504  16.749  0.4168 -0.7371 -1.9281
11076TIP3    H254644   4.190   4.380  16.662  1.0785 -2.6216  0.7038
11077TIP3   OH254645   3.220   2.662  11.049  0.1411 -0.4625 -0.5556
11077TIP3    H154646   3.170   2.720  11.106 -0.8791  0.1646 -2.0233
11077TIP3    H254647   3.160   2.591  11.028  0.3189 -0.4234 -1.2327
11078TIP3   OH254648   4.382   4.089  13.863  0.8293 -0.5377  0.0444
11078TIP3    H154649   4.412   4.030  13.795  1.5324 -0.4462  0.2703
11078TIP3    H254650   4.372   4.174  13.819  1.6522 -0.3886  0.1316
11079TIP3   OH254651   3.984   0.753  13.898  0.0549 -0.3882  0.3442
11079TIP3    H154652   3.909   0.706  13.935 -1.7709  1.7823 -0.3776
11079TIP3    H254653   3.988   0.723  13.807  0.1300 -0.5707  0.4065
11080TIP3   OH254654   2.992   2.519  12.381  0.0744  0.1985 -0.0135
11080TIP3    H154655   2.992   2.534  12.287  0.3608 -0.8757 -0.2039
11080TIP3    H254656   3.083   2.532  12.408 -0.5558  4.0459  0.7820
11081TIP3   OH254657   4.810   5.186   5.049 -0.2983 -0.1626  0.0148
11081TIP3    H154658   4.738   5.242   5.078  0.1132  0.6261 -0.4499
11081TIP3    H254659   4.889   5.238   5.065  0.2566 -1.3685  1.3502
11082TIP3   OH254660   0.139   4.074  16.056  0.0247 -0.1991 -0.2512
11082TIP3    H154661   0.122   4.166  16.078  1.1469 -0.0834  0.2050
11082TIP3    H254662   0.134   4.071  15.961  0.3245  0.4196 -0.2973
11083TIP3   OH254663   2.424   4.257  11.723  0.3855  0.3353  0.2357
11083TIP3    H154664   2.388   4.296  11.643  0.2666  1.2035  0.6982
11083TIP3    H254665   2.377   4.173  11.731 -0.4445  0.7591  0.0107
11084TIP3   OH254666   2.604   4.824   5.497  0.5883 -0.5014  0.0112
11084TIP3    H154667   2.609   4.731   5.521  2.7887 -0.5810 -0.5099
11084TIP3    H254668   2.567   4.867   5.574  0.0282 -1.7333  0.4610
11085TIP3   OH254669   0.715   5.143  16.977  0.2078 -0.1513 -0.4982
11085TIP3    H154670   0.787   5.184  16.928  1.6588 -0.9075  0.9258
11085TIP3    H254671   0.752   5.124  17.063 -1.8150 -0.2837  0.3934
11086TIP3   OH254672   4.480   5.701   2.742  0.3098  0.2456  0.0371
11086TIP3    H154673   4.553   5.688   2.803  0.0565  0.0852  0.3115
11086TIP3    H254674   4.403   5.701   2.798  0.2044  2.0720 -0.0379
11087TIP3   OH254675   6.484   0.157   5.479  0.3195 -0.3346 -0.0773
11087TIP3    H154676   6.447   0.116   5.558 -0.8652 -0.0005 -0.4317
11087TIP3    H254677   6.425   0.230   5.461  1.7060  0.8004 -0.1600
11088TIP3   OH254678   2.512   5.867  15.923 -0.0369 -0.0235  0.0334
11088TIP3    H154679   2.433   5.830  15.883  1.1440  0.6173 -3.2520
11088TIP3    H254680   2.577   5.797  15.916  0.0903 -0.0856  1.4756
11089TIP3   OH254681   5.528   4.836   4.395 -0.4686 -0.1093 -0.1010
11089TIP3    H154682   5.516   4.931   4.403  0.3254 -0.1669  3.6414
11089TIP3    H254683   5.572   4.811   4.476  0.6951 -3.5197 -1.6252
11090TIP3   OH254684   0.583   4.247  14.082 -0.0136  0.1719 -0.2238
11090TIP3    H154685   0.552   4.318  14.138 -2.2489  0.7799 -2.0485
11090TIP3    H254686   0.670   4.274  14.055  0.5195  0.5532  1.7329
11091TIP3   OH254687   0.519   0.418   3.619 -0.5363 -0.1844  0.8076
11091TIP3    H154688   0.543   0.331   3.652  1.1289  0.6091  1.7847
11091TIP3    H254689   0.512   0.472   3.697  2.3473  1.4727  0.0646
11092TIP3   OH254690   4.970   2.561   4.869  0.4275 -0.4479 -0.1170
11092TIP3    H154691   4.967   2.494   4.801  1.5432 -0.5472 -0.0938
11092TIP3    H254692   4.921   2.524   4.942  2.7714 -2.2158  0.6943
11093TIP3   OH254693   0.147   5.532  15.494  0.2635 -0.0354  0.1688
11093TIP3    H154694   0.232   5.487  15.486  2.1728  2.5690  3.2645
11093TIP3    H254695   0.152   5.603  15.430  1.0286  0.8301  1.1465
11094TIP3   OH254696   5.336   2.818  12.493 -0.5302  0.3416  0.0784
11094TIP3    H154697   5.378   2.850  12.413 -0.2615 -0.5034 -0.1215
11094TIP3    H254698   5.281   2.892  12.521 -1.8062  0.1609 -1.7107
11095TIP3   OH254699   4.868   1.964  16.290  0.0148 -0.4552 -0.4833
11095TIP3    H154700   4.776   1.974  16.312 -0.0212  0.7726 -1.0420
11095TIP3    H254701   4.906   1.915  16.362 -1.2133 -1.6169 -0.6035
11096TIP3   OH254702   3.827   4.611   5.603  0.2285 -0.4913  0.0726
11096TIP3    H154703   3.829   4.658   5.686 -1.9879  2.2557 -1.2391
11096TIP3    H254704   3.775   4.532   5.621 -0.2534  0.0832  1.3053
11097TIP3   OH254705   0.524   3.739   1.647  0.4620 -0.5437  0.4918
11097TIP3    H154706   0.442   3.745   1.695  0.4152 -0.2524  0.3745
11097TIP3    H254707   0.551   3.648   1.658  0.3865 -0.5085  0.9577
11098TIP3   OH254708   1.122   0.312  14.051 -0.5409 -0.3032  0.2730
11098TIP3    H154709   1.124   0.386  13.990  1.0259  0.1233  0.7751
11098TIP3    H254710   1.076   0.345  14.128  1.2382  0.6489  1.0056
11099TIP3   OH254711   4.923   3.026  16.170  0.5027  0.6871  0.2849
11099TIP3    H154712   4.951   2.940  16.202  0.2938  1.3297  2.3425
11099TIP3    H254713   4.888   3.008  16.082  1.0144 -1.2183  0.4123
11100TIP3   OH254714   4.484   5.124  12.296 -0.6208 -0.3920 -0.2003
11100TIP3    H154715   4.569   5.096  12.331 -0.5039 -2.9151 -2.1451
11100TIP3    H254716   4.504   5.200  12.241 -0.0162  0.3886  1.0620
11101TIP3   OH254717   1.103   4.411   5.887  0.1329  0.3257  0.4631
11101TIP3    H154718   1.181   4.362   5.913 -0.1144 -0.2456  0.1382
11101TIP3    H254719   1.114   4.497   5.928  1.1595  0.4110  0.0425
11102TIP3   OH254720   5.341   5.693  13.154 -0.0960 -0.1543  0.1403
11102TIP3    H154721   5.281   5.754  13.198  0.4068  1.8925 -1.7942
11102TIP3    H254722   5.416   5.687  13.212 -0.9009 -0.3594  1.1942
11103TIP3   OH254723   6.419   1.620  11.741 -0.3115  0.4845  0.0042
11103TIP3    H154724   6.402   1.687  11.806  0.4395 -0.3795  1.1201
11103TIP3    H254725   6.346   1.627  11.679 -1.9656  0.2108  1.8478
11104TIP3   OH254726   3.749   6.410  12.685  0.3523  0.2983  0.0635
11104TIP3    H154727   3.821   6.376  12.632 -0.3336 -3.5212  1.2974
11104TIP3    H254728   3.682   6.434  12.622  0.7561 -1.1267 -0.9617
11105TIP3   OH254729   0.359   3.397  11.974 -0.4964  0.2193  0.3820
11105TIP3    H154730   0.441   3.352  11.993 -0.2925  0.5676  0.3351
11105TIP3    H254731   0.366   3.422  11.882 -0.2357  1.1169  0.6429
11106TIP3   OH254732   5.791   0.939   0.810 -0.5304 -0.3685 -0.8834
11106TIP3    H154733   5.801   0.871   0.743 -0.0985  1.7163 -3.0745
11106TIP3    H254734   5.717   0.992   0.779 -0.0607  0.8935  0.0875
11107TIP3   OH254735   1.710   0.378   1.131 -0.0526  0.2879  0.0998
11107TIP3    H154736   1.618   0.363   1.109 -0.0368  1.5498 -0.9504
11107TIP3    H254737   1.742   0.293   1.161 -1.8466  0.0841  1.6070
11108TIP3   OH254738   2.568   3.258   3.447  0.4655  0.5712 -0.1271
11108TIP3    H154739   2.567   3.339   3.497 -0.0241 -0.4998  1.7023
11108TIP3    H254740   2.488   3.261   3.394 -0.0335  0.8724  0.6320
11109TIP3   OH254741   3.651   4.348   5.618  0.3707  0.1747  0.1320
11109TIP3    H154742   3.707   4.283   5.661 -0.8332 -1.0073 -0.0074
11109TIP3    H254743   3.562   4.326   5.647 -0.1397  1.3524 -0.4561
11110TIP3   OH254744   0.681   4.591  11.818 -0.3698  0.3453 -0.1879
11110TIP3    H154745   0.618   4.557  11.754 -2.0008  1.2245  0.8898
11110TIP3    H254746   0.677   4.686  11.808  1.0675  0.4187 -0.3240
11111TIP3   OH254747   2.340   5.278  13.012 -0.7816 -0.6322  0.0551
11111TIP3    H154748   2.362   5.278  12.919  0.8255  1.2321  0.3913
11111TIP3    H254749   2.286   5.356  13.024  0.7672  0.3198  1.0420
11112TIP3   OH254750   1.078   6.123   0.348  0.6024 -0.3598 -0.5231
11112TIP3    H154751   1.025   6.193   0.385  0.9189 -1.2024  1.6763
11112TIP3    H254752   1.154   6.168   0.309 -0.0824  0.6025 -0.7737
11113TIP3   OH254753   6.618   6.475   4.183 -0.1493  0.0377  0.2272
11113TIP3    H154754   6.580   6.536   4.121 -0.4219  0.4332  0.7772
11113TIP3    H254755   6.625   6.393   4.135 -2.8303 -0.4021  0.4546
11114TIP3   OH254756   1.651   2.671   4.300 -0.2679  0.0552  0.3270
11114TIP3    H154757   1.665   2.766   4.295  0.9044 -0.1769 -1.8376
11114TIP3    H254758   1.617   2.657   4.389 -0.4715  2.4825  0.7087
11115TIP3   OH254759   4.101   3.847   2.256 -0.1784  0.3755 -0.2730
11115TIP3    H154760   4.077   3.788   2.328  0.5630 -1.4390 -1.4143
11115TIP3    H254761   4.187   3.880   2.281 -0.1741  0.2012 -0.0472
11116TIP3   OH254762   4.231   2.889  16.321  0.5052 -0.5035 -0.5974
11116TIP3    H154763   4.161   2.920  16.378 -0.7626 -1.3634 -1.6182
11116TIP3    H254764   4.287   2.965  16.307 -0.7445  0.4662 -0.5060
11117TIP3   OH254765   5.643   4.601   1.572 -0.3651 -0.0332  0.0664
11117TIP3    H154766   5.706   4.566   1.634 -1.2210 -0.8435  0.4945
11117TIP3    H254767   5.584   4.528   1.553  1.2117 -0.6105 -3.5526
11118TIP3   OH254768   6.509   0.452  13.323  0.6824  0.2325  0.0502
11118TIP3    H154769   6.579   0.469  13.387  0.1313  1.4968  0.3440
11118TIP3    H254770   6.535   0.503  13.246  1.0240 -0.7934 -0.5307
11119TIP3   OH254771   0.029   5.151   2.513  0.4110 -0.2505  0.0225
11119TIP3    H154772   0.041   5.066   2.554 -1.7383 -0.1240  1.0208
11119TIP3    H254773   0.025   5.213   2.586 -1.8381  0.1921 -0.4230
11120TIP3   OH254774   3.422   1.743  15.495 -0.7121 -0.0494 -0.5815
11120TIP3    H154775   3.437   1.732  15.589  1.0940  1.8756 -0.5690
11120TIP3    H254776   3.389   1.658  15.466 -1.7428 -0.5699  1.8391
11121TIP3   OH254777   4.815   3.126  13.960 -0.2703  0.3871  0.0968
11121TIP3    H154778   4.726   3.089  13.966 -0.9299  1.9005  0.1564
11121TIP3    H254779   4.843   3.107  13.871 -0.0383 -1.3989  0.5176
11122TIP3   OH254780   5.531   1.466   0.437 -0.2814  0.1370 -0.0986
11122TIP3    H154781   5.463   1.486   0.373 -0.3275 -1.0056 -0.4322
11122TIP3    H254782   5.509   1.378   0.467  0.9267 -0.1580 -0.0492
11123TIP3   OH254783   1.571   1.449   4.564 -0.4188 -0.2982 -0.5877
11123TIP3    H154784   1.607   1.473   4.650  0.1314 -0.6558 -0.7146
11123TIP3    H254785   1.511   1.377   4.583 -0.3780 -0.3061 -0.4878
11124TIP3   OH254786   4.425   1.200   4.908 -0.0999 -0.5328  0.2260
11124TIP3    H154787   4.396   1.270   4.966 -0.1421 -0.3353 -0.0354
11124TIP3    H254788   4.507   1.169   4.948  0.6970  0.6569 -0.4599
11125TIP3   OH254789   2.104   2.141   4.701  0.7866  0.1492  0.5655
11125TIP3    H154790   2.136   2.161   4.789 -1.4840  0.4812  1.3700
11125TIP3    H254791   2.032   2.080   4.714  1.0431 -0.5871 -1.1641
11126TIP3   OH254792   0.824   3.036  14.501 -0.1211  0.3104 -0.8536
11126TIP3    H154793   0.861   3.059  14.586 -0.8295 -2.2405  0.2133
11126TIP3    H254794   0.733   3.064  14.505 -0.3103 -0.3379 -0.5284
11127TIP3   OH254795   3.548   5.169   4.964 -0.1041 -0.5149  0.7196
11127TIP3    H154796   3.627   5.141   5.010  0.5931 -0.0473 -0.1547
11127TIP3    H254797   3.537   5.104   4.895 -0.4253 -0.5204  0.7770
11128TIP3   OH254798   3.697   6.583  16.472 -0.0308 -0.0032  0.1298
11128TIP3    H154799   3.655   6.662  16.504  1.2660  0.8858 -0.2719
11128TIP3    H254800   3.655   6.512  16.520 -1.2079  0.9217  0.5055
11129TIP3   OH254801   3.160   5.015  13.718 -0.2071 -0.4928 -0.2668
11129TIP3    H154802   3.096   5.037  13.786  0.0880  0.8850 -0.3966
11129TIP3    H254803   3.128   4.933  13.681 -0.9285 -0.7453  0.8454
11130TIP3   OH254804   5.157   5.721  12.405  0.2303  0.2383  0.1670
11130TIP3    H154805   5.120   5.651  12.352 -1.0017  1.0165 -0.0440
11130TIP3    H254806   5.160   5.684  12.494 -1.2122  0.1850  0.2198
11131TIP3   OH254807   0.516   6.372  14.428  0.0116  0.0998  0.3138
11131TIP3    H154808   0.539   6.391  14.519 -1.8326 -1.4697  1.1804
11131TIP3    H254809   0.425   6.399  14.420  0.9107  2.9218 -1.9822
11132TIP3   OH254810   1.552   0.347  15.702  0.3362 -0.5593  0.5450
11132TIP3    H154811   1.514   0.287  15.766  0.4051  0.9686  2.1124
11132TIP3    H254812   1.500   0.427  15.711 -1.3776 -1.0533 -3.2349
11133TIP3   OH254813   0.143   2.478   4.572  0.0275 -0.2321  0.1197
11133TIP3    H154814   0.212   2.502   4.510  1.4836 -0.6623  1.5112
11133TIP3    H254815   0.074   2.543   4.556  1.8905  2.0059  0.5784
11134TIP3   OH254816   2.707   3.958   3.879  0.5908  0.0513 -0.2916
11134TIP3    H154817   2.704   4.042   3.926  1.1782 -0.3249  0.4408
11134TIP3    H254818   2.795   3.926   3.894 -0.1684 -1.5745  1.0016
11135TIP3   OH254819   3.009   5.994   0.634 -0.4848  0.1999  0.0390
11135TIP3    H154820   2.998   5.917   0.690  1.6252  1.7081  2.7952
11135TIP3    H254821   2.923   6.036   0.634 -0.7718 -0.3287  1.4826
11136TIP3   OH254822   6.743   1.720   2.697  0.3837  0.7466 -0.3660
11136TIP3    H154823   6.793   1.640   2.714 -1.1916 -0.9121 -2.7453
11136TIP3    H254824   6.796   1.791   2.732  1.4997 -1.3769  2.6016
11137TIP3   OH254825   5.994   2.965  12.124  0.2239 -0.2256 -0.0186
11137TIP3    H154826   6.006   3.060  12.121  0.1003 -0.2222 -0.5528
11137TIP3    H254827   6.055   2.935  12.191  0.9589  0.1305 -0.5118
11138TIP3   OH254828   0.975   3.643   0.949  0.4637 -0.4922 -0.1703
11138TIP3    H154829   0.960   3.600   0.865 -1.5909  0.8826 -0.6012
11138TIP3    H254830   0.905   3.709   0.954  0.9709 -0.0555  2.2938
11139TIP3   OH254831   0.244   3.720   3.644  0.1850 -0.6005 -0.0081
11139TIP3    H154832   0.262   3.808   3.611 -1.4053 -0.6765 -1.1959
11139TIP3    H254833   0.175   3.733   3.709  0.9355 -0.8341  0.8465
11140TIP3   OH254834   3.692   5.395  15.397  0.1997  0.0323  0.3441
11140TIP3    H154835   3.694   5.428  15.487  1.1823  0.9784 -0.0037
11140TIP3    H254836   3.681   5.300  15.407  0.3427  0.1181  1.4647
11141TIP3   OH254837   6.395   4.055   6.522 -0.8280  0.3166  0.2538
11141TIP3    H154838   6.483   4.058   6.558 -0.4553  0.3821 -0.6374
11141TIP3    H254839   6.370   3.963   6.525  0.1315 -0.0351 -1.4766
11142TIP3   OH254840   4.238   0.553  11.636 -0.1651 -0.0962  0.0176
11142TIP3    H154841   4.199   0.469  11.613 -4.1067  1.9006 -1.4913
11142TIP3    H254842   4.242   0.553  11.732 -1.4186 -1.4547  0.0980
11143TIP3   OH254843   1.552   2.801  15.710  0.0162 -0.1469  0.2408
11143TIP3    H154844   1.605   2.880  15.714  0.6741 -0.6163  1.0505
11143TIP3    H254845   1.497   2.813  15.633  0.9673  0.5471 -0.3459
11144TIP3   OH254846   4.310   1.018   2.760 -0.3131  0.1609 -0.1419
11144TIP3    H154847   4.377   0.980   2.817 -0.9041  0.5178  0.8086
11144TIP3    H254848   4.311   1.111   2.781 -1.1818  0.1527 -0.0374
11145TIP3   OH254849   3.883   6.251   5.240  0.1004 -0.3254  0.3168
11145TIP3    H154850   3.813   6.307   5.274 -0.1469  0.0611 -0.7772
11145TIP3    H254851   3.861   6.164   5.271 -0.4586 -0.0891  0.6034
11146TIP3   OH254852   3.398   5.535   4.060 -0.4430 -0.6144  0.1912
11146TIP3    H154853   3.353   5.476   4.120  1.6557 -2.2686  0.2496
11146TIP3    H254854   3.491   5.528   4.085  0.1742  0.6883 -1.5496
11147TIP3   OH254855   1.527   6.275  16.106 -0.2997 -0.3638  0.6826
11147TIP3    H154856   1.526   6.291  16.200 -0.1896 -1.1698  0.8262
11147TIP3    H254857   1.592   6.206  16.094  0.9976  0.9612 -0.2043
11148TIP3   OH254858   3.029   1.218   2.620  0.4077 -0.7562  0.1997
11148TIP3    H154859   3.084   1.182   2.552 -0.6071  0.4696 -1.3413
11148TIP3    H254860   2.949   1.166   2.617  0.2552 -0.5299  0.2476
11149TIP3   OH254861   2.186   1.466  13.804  0.5900 -0.1649  0.8186
11149TIP3    H154862   2.202   1.373  13.792 -1.5768 -0.1751 -5.2241
11149TIP3    H254863   2.270   1.508  13.787  1.0696 -0.9068  1.2968
11150TIP3   OH254864   6.375   3.184   4.428  0.1458 -0.6597  0.3346
11150TIP3    H154865   6.316   3.208   4.500 -0.8509  0.5307 -0.8330
11150TIP3    H254866   6.351   3.095   4.406 -0.6783 -0.4594  0.4015
11151TIP3   OH254867   3.765   6.193  16.962  0.6246 -0.0025  0.2083
11151TIP3    H154868   3.718   6.270  16.930 -0.2446  0.6491  2.7894
11151TIP3    H254869   3.717   6.119  16.926 -0.7803  0.6750  0.5962
11152TIP3   OH254870   3.692   3.907   6.144 -0.5705 -0.7322 -0.0651
11152TIP3    H154871   3.702   3.962   6.222 -1.2540  0.0568 -0.5206
11152TIP3    H254872   3.751   3.833   6.160  0.4553  0.1706  0.5235
11153TIP3   OH254873   1.594   4.083  10.707  0.1182  0.2141 -0.0507
11153TIP3    H154874   1.676   4.131  10.697 -0.6080  1.5902  0.2460
11153TIP3    H254875   1.528   4.141  10.669 -1.1778  0.6931  2.6517
11154TIP3   OH254876   2.410   1.415   3.420  0.0821 -0.4590 -0.1541
11154TIP3    H154877   2.367   1.353   3.360  0.1424  0.1502 -0.8508
11154TIP3    H254878   2.503   1.394   3.414  0.0729 -0.4933 -0.1770
11155TIP3   OH254879   4.456   2.082   3.217 -0.1377  0.2704 -0.4690
11155TIP3    H154880   4.471   2.168   3.178 -2.4455  0.1911 -1.7166
11155TIP3    H254881   4.367   2.087   3.252 -0.8961 -2.0019 -1.8542
11156TIP3   OH254882   3.815   3.520  16.197  0.0045 -0.2051 -0.3454
11156TIP3    H154883   3.869   3.533  16.119  0.2308 -1.3516 -0.3918
11156TIP3    H254884   3.727   3.544  16.168  0.3971  1.2762 -0.3831
11157TIP3   OH254885   5.505   5.651   4.526  0.1879  0.1910 -0.2279
11157TIP3    H154886   5.533   5.738   4.554  0.1070  0.3890 -0.7547
11157TIP3    H254887   5.428   5.632   4.579  2.4200 -1.2517  2.8288
11158TIP3   OH254888   6.161   3.342  16.331 -0.4004 -0.3653  0.2286
11158TIP3    H154889   6.241   3.335  16.279 -0.1313  0.2362  0.5531
11158TIP3    H254890   6.092   3.354  16.267 -0.2018 -0.6340 -0.0389
11159TIP3   OH254891   3.416   2.933   1.272  0.5881 -0.3717 -0.5993
11159TIP3    H154892   3.466   2.928   1.190  0.1598 -0.2298 -0.8777
11159TIP3    H254893   3.331   2.968   1.245 -0.0456 -1.6224 -0.3061
11160TIP3   OH254894   3.670   6.737  13.304 -0.1477 -0.0488  0.2115
11160TIP3    H154895   3.715   6.759  13.385 -0.3162  1.9190 -0.1750
11160TIP3    H254896   3.740   6.732  13.238 -0.0032 -1.7099  0.4673
11161TIP3   OH254897   1.140   3.101   6.102  0.0648  0.4181  0.4538
11161TIP3    H154898   1.143   3.187   6.144  0.8397  0.3859  0.4801
11161TIP3    H254899   1.209   3.050   6.145  1.8093  0.7968 -1.6922
11162TIP3   OH254900   5.577   6.352   5.280  0.4993 -0.6310  0.0901
11162TIP3    H154901   5.652   6.398   5.318 -0.3537  0.9419 -0.0206
11162TIP3    H254902   5.605   6.261   5.274  2.4247 -0.0788 -0.0401
11163TIP3   OH254903   3.420   1.826   2.843  0.6432  0.4428  0.3496
11163TIP3    H154904   3.421   1.873   2.760  1.0981 -0.2809 -0.0715
11163TIP3    H254905   3.470   1.881   2.903  0.7609  0.7214 -0.0038
11164TIP3   OH254906   0.350   2.254   2.901 -0.0469  0.4723 -0.1820
11164TIP3    H154907   0.327   2.279   2.990  1.3097  0.1395  0.2855
11164TIP3    H254908   0.305   2.318   2.846 -3.4013 -1.0889  0.5143
11165TIP3   OH254909   5.558   5.472  16.303  0.5993 -0.5470 -0.9914
11165TIP3    H154910   5.634   5.442  16.352 -0.2777 -1.5040 -0.1597
11165TIP3    H254911   5.508   5.392  16.285 -1.1243  0.2025  0.1072
11166TIP3   OH254912   1.310   2.373  13.379  0.2913 -0.4710 -0.2114
11166TIP3    H154913   1.250   2.448  13.378  1.2014  0.3044  0.6017
11166TIP3    H254914   1.371   2.391  13.307  1.7214  0.6528  1.1989
11167TIP3   OH254915   5.077   4.985  15.697 -0.0439 -0.3779  0.1521
11167TIP3    H154916   5.030   4.935  15.630  0.3722  0.6330 -0.9453
11167TIP3    H254917   5.152   4.929  15.720  0.5654 -0.1914 -1.2547
11168TIP3   OH254918   6.527   6.649   1.362 -0.1071 -0.0226  0.6881
11168TIP3    H154919   6.439   6.687   1.361 -0.0174  0.1745  0.0403
11168TIP3    H254920   6.548   6.641   1.455 -0.5528  0.5298  0.8421
11169TIP3   OH254921   1.631   5.471  13.390  0.0164 -0.4722 -0.0723
11169TIP3    H154922   1.715   5.425  13.394 -0.1922 -1.0881 -1.8047
11169TIP3    H254923   1.619   5.491  13.298 -1.1022  0.8764  0.3281
11170TIP3   OH254924   4.782   6.492  11.350  0.2955 -0.1922  0.5138
11170TIP3    H154925   4.779   6.572  11.298  1.5944 -0.6540 -0.3280
11170TIP3    H254926   4.745   6.424  11.293 -0.6373 -0.2392  1.1573
11171TIP3   OH254927   6.799   5.920   2.880 -0.0941 -0.1963 -0.4442
11171TIP3    H154928   6.891   5.904   2.861 -0.2843 -1.5688 -0.2936
11171TIP3    H254929   6.764   5.954   2.798  0.2289 -1.1066 -0.9727
11172TIP3   OH254930   1.620   1.923  14.684  0.1363 -0.0653  0.0002
11172TIP3    H154931   1.674   1.851  14.719 -0.3029  0.1479  1.1723
11172TIP3    H254932   1.681   1.995  14.674  0.4081 -0.3376 -0.3268
11173TIP3   OH254933   0.433   0.458   2.831  1.2051  0.4949  0.3276
11173TIP3    H154934   0.529   0.459   2.830  1.3355 -0.9359  2.7606
11173TIP3    H254935   0.409   0.389   2.770  1.7809  0.2316  0.3908
11174TIP3   OH254936   1.501   0.179   5.287  0.3030 -0.3276  0.1845
11174TIP3    H154937   1.586   0.161   5.247  0.0187  0.8129 -0.9895
11174TIP3    H254938   1.520   0.243   5.356  0.2661  0.8278 -0.8514
11175TIP3   OH254939   0.916   3.811  12.416  0.7928 -0.5170 -0.5897
11175TIP3    H154940   0.836   3.760  12.423 -1.0094  2.2042  0.2917
11175TIP3    H254941   0.919   3.862  12.497  2.8285  0.2721 -1.1053
11176TIP3   OH254942   4.622   4.950   6.015 -0.3290  0.3303 -0.5786
11176TIP3    H154943   4.538   4.933   5.970  0.1093  0.4671 -1.4749
11176TIP3    H254944   4.675   4.873   5.994 -0.2195  0.2579 -0.0335
11177TIP3   OH254945   4.680   6.418   2.740  0.1447 -0.1503  0.6540
11177TIP3    H154946   4.743   6.468   2.688 -0.2845  0.6545  0.8858
11177TIP3    H254947   4.600   6.472   2.739 -1.2161 -2.0017 -1.2365
11178TIP3   OH254948   2.358   4.650  12.788  0.1112 -0.1355 -0.3146
11178TIP3    H154949   2.440   4.624  12.746  0.1717 -2.3594  1.0278
11178TIP3    H254950   2.292   4.592  12.750 -0.4888  0.3129  0.0241
11179TIP3   OH254951   3.249   6.593   3.406  0.5025  0.0424 -0.0099
11179TIP3    H154952   3.275   6.553   3.323  1.3799 -0.9297  0.7108
11179TIP3    H254953   3.284   6.682   3.401 -1.8240  0.9814 -1.8005
11180TIP3   OH254954   2.374   0.116   4.892  0.8183  0.3771  0.2032
11180TIP3    H154955   2.291   0.150   4.858  0.1639 -1.0402  0.2837
11180TIP3    H254956   2.397   0.174   4.964 -1.2448 -0.4123  1.5802
11181TIP3   OH254957   4.214   0.985   2.013  0.2295 -0.6691  0.0745
11181TIP3    H154958   4.143   0.921   2.016  0.8437 -1.3590  0.1247
11181TIP3    H254959   4.272   0.959   2.084  1.4812 -1.2422 -1.1201
11182TIP3   OH254960   3.284   0.885   4.466 -0.5544  0.0164  0.2561
11182TIP3    H154961   3.225   0.960   4.463  1.4592  1.6702 -0.6817
11182TIP3    H254962   3.367   0.921   4.496  1.1352 -1.3075 -2.4611
11183TIP3   OH254963   6.631   3.613   2.335  0.0147 -0.9255  0.1479
11183TIP3    H154964   6.615   3.541   2.395 -0.5906  0.7992  2.1612
11183TIP3    H254965   6.639   3.690   2.391  0.3820  0.6335 -1.9262
11184TIP3   OH254966   3.219   0.528   0.972 -0.2338  0.1807  0.2168
11184TIP3    H154967   3.173   0.449   1.000 -0.3366 -0.6441 -2.0553
11184TIP3    H254968   3.197   0.537   0.879  1.0511  2.0098  0.0302
11185TIP3   OH254969   4.214   5.797   4.925  0.4426  0.2577 -0.6273
11185TIP3    H154970   4.259   5.714   4.912 -0.8566 -0.6934  0.5805
11185TIP3    H254971   4.259   5.837   4.999  0.0104 -0.1984 -0.1042
11186TIP3   OH254972   1.259   5.617  11.449 -0.4920  0.0403  0.7236
11186TIP3    H154973   1.328   5.610  11.384 -1.0598  3.3364 -0.4506
11186TIP3    H254974   1.291   5.681  11.513 -2.1461  1.2158  0.4608
11187TIP3   OH254975   0.218   0.226  12.228  0.2260 -0.1109 -0.0821
11187TIP3    H154976   0.274   0.271  12.291  0.2395  0.1444 -0.2760
11187TIP3    H254977   0.204   0.139  12.266  0.5635 -0.0951  0.0763
11188TIP3   OH254978   5.861   2.276   6.400  0.1261  0.3481  0.2421
11188TIP3    H154979   5.887   2.351   6.454  1.0942 -1.4801  2.4676
11188TIP3    H254980   5.941   2.253   6.353 -0.2885  0.9384 -0.7792
11189TIP3   OH254981   3.552   2.501  10.793 -0.1680  0.0086 -0.1456
11189TIP3    H154982   3.471   2.500  10.743  0.0386  0.9301 -0.5206
11189TIP3    H254983   3.612   2.445  10.744 -0.7932 -1.2990  0.5395
11190TIP3   OH254984   4.405   5.358   2.374  0.4929 -0.5528 -0.5309
11190TIP3    H154985   4.472   5.320   2.430  0.3223 -2.4963 -1.5581
11190TIP3    H254986   4.439   5.349   2.285 -1.2146 -1.9350 -1.1175
11191TIP3   OH254987   3.485   4.847   2.189  0.4755  0.1593  0.4546
11191TIP3    H154988   3.457   4.800   2.268 -0.9175  0.9627  0.4690
11191TIP3    H254989   3.462   4.938   2.205 -2.1709  0.0358 -1.8029
11192TIP3   OH254990   3.840   6.781   3.608 -0.1776  0.4225 -0.0847
11192TIP3    H154991   3.767   6.832   3.642 -1.2127  0.4869 -2.2141
11192TIP3    H254992   3.800   6.723   3.543  1.5869  0.0352 -0.8821
11193TIP3   OH254993   6.235   0.596  11.421 -0.0704  0.2929 -0.2686
11193TIP3    H154994   6.307   0.554  11.373 -0.2203 -0.0531 -0.1939
11193TIP3    H254995   6.278   0.658  11.480  0.3119 -1.1537  1.0524
11194TIP3   OH254996   2.268   1.301   6.189 -0.0292 -0.3845  0.4856
11194TIP3    H154997   2.282   1.268   6.278 -0.3207 -1.1827  0.2487
11194TIP3    H254998   2.175   1.286   6.172 -0.0539  0.0925  0.1736
11195TIP3   OH254999   4.438   0.559   1.191 -0.0004 -0.7827 -0.2471
11195TIP3    H155000   4.383   0.570   1.269  0.8587 -1.6225  0.5028
11195TIP3    H255001   4.460   0.466   1.190 -0.1644 -0.8214 -1.6245
11196TIP3   OH255002   5.293   0.213   5.483 -0.5894  0.5375 -0.1512
11196TIP3    H155003   5.246   0.192   5.564  1.1110  1.9023  1.2719
11196TIP3    H255004   5.385   0.191   5.502 -0.0816  1.3368 -1.5514
11197TIP3   OH255005   3.183   5.207  11.564 -0.4508 -0.2876 -0.0199
11197TIP3    H155006   3.271   5.185  11.535 -0.4883 -0.5105  0.0389
11197TIP3    H255007   3.181   5.180  11.656  0.1638  1.7623  0.6557
11198TIP3   OH255008   3.198   3.973   0.562  0.0729  0.4920 -0.3334
11198TIP3    H155009   3.108   3.990   0.535  0.1889  0.6231 -0.6343
11198TIP3    H255010   3.206   3.877   0.559 -0.1319  0.4631 -0.0552
11199TIP3   OH255011   1.969   0.328   3.042 -0.1022 -0.0854  0.6106
11199TIP3    H155012   2.053   0.368   3.061 -0.1166  0.3442 -0.1933
11199TIP3    H255013   1.908   0.401   3.037 -0.2537 -0.2570 -0.1988
11200TIP3   OH255014   4.366   4.244   1.725 -0.0981  0.0170  0.4434
11200TIP3    H155015   4.386   4.337   1.738 -2.5653  0.6063  0.5548
11200TIP3    H255016   4.382   4.204   1.810 -0.8245  0.7280  0.9304
11201TIP3   OH255017   4.068   2.673  13.895  0.3010 -0.4382  0.8200
11201TIP3    H155018   4.031   2.752  13.934  0.7372  0.8863 -1.2708
11201TIP3    H255019   4.003   2.605  13.911 -2.7769  1.5607 -1.8388
11202TIP3   OH255020   3.205   5.620   1.967 -0.4756  0.8815 -0.4331
11202TIP3    H155021   3.288   5.586   1.999 -1.6977 -1.4662  0.4565
11202TIP3    H255022   3.140   5.590   2.031 -2.6639 -1.5095 -3.5009
11203TIP3   OH255023   4.325   0.037   0.982 -0.1939  0.5071  0.4351
11203TIP3    H155024   4.239   0.003   1.006 -1.1778  0.8113 -2.2735
11203TIP3    H255025   4.318   0.132   0.995 -0.6620  0.6498 -0.7103
11204TIP3   OH255026   3.140   4.248   4.352 -0.5786 -0.3005  0.1736
11204TIP3    H155027   3.079   4.224   4.282 -2.6522 -0.9912  2.1053
11204TIP3    H255028   3.130   4.343   4.360  0.0686 -0.1355 -0.7740
11205TIP3   OH255029   2.312   2.901  16.918  0.3923 -0.3071 -0.0998
11205TIP3    H155030   2.323   2.806  16.922 -1.7835 -0.5749  1.1396
11205TIP3    H255031   2.218   2.915  16.929  0.7148  2.0102  0.2788
11206TIP3   OH255032   1.280   1.772   1.581  0.1105 -0.2597  0.2799
11206TIP3    H155033   1.353   1.780   1.642  0.8385 -2.4664 -0.2158
11206TIP3    H255034   1.215   1.721   1.628 -0.4875  0.3910  0.1720
11207TIP3   OH255035   5.218   3.645   5.478  0.2073  0.0099  0.4497
11207TIP3    H155036   5.172   3.686   5.405  0.5434  1.2455  0.9092
11207TIP3    H255037   5.272   3.577   5.437 -1.3493 -0.9033 -0.1835
11208TIP3   OH255038   2.334   4.103  16.304 -0.2537  0.3892 -0.1173
11208TIP3    H155039   2.373   4.125  16.219 -0.1987 -1.0118 -0.4847
11208TIP3    H255040   2.249   4.065  16.281 -1.4955  2.5431  0.6202
11209TIP3   OH255041   2.821   0.954  16.397  0.3144  0.0528 -0.4339
11209TIP3    H155042   2.731   0.933  16.373 -0.1651  0.5862  0.7997
11209TIP3    H255043   2.843   1.031  16.344  0.5215 -0.8424 -1.6908
11210TIP3   OH255044   5.717   3.398  12.461 -0.7704 -0.2717  0.5812
11210TIP3    H155045   5.812   3.391  12.454 -0.8783 -1.0936 -0.3766
11210TIP3    H255046   5.702   3.456  12.535  0.4771 -0.1264  0.7364
11211TIP3   OH255047   3.350   3.188  10.969 -0.2549  0.4448 -0.4160
11211TIP3    H155048   3.388   3.208  11.055 -1.1243 -1.0663  0.3543
11211TIP3    H255049   3.269   3.141  10.989  0.4004 -1.5135 -2.0815
11212TIP3   OH255050   1.858   5.837  16.766  0.5134  0.0964  0.4198
11212TIP3    H155051   1.850   5.925  16.803  1.5267  0.4176 -0.1031
11212TIP3    H255052   1.853   5.779  16.842 -2.6920  0.3870  0.5848
11213TIP3   OH255053   5.794   4.548   3.873  0.3838  0.1820 -0.4195
11213TIP3    H155054   5.731   4.529   3.942  0.8950  0.6592  0.1995
11213TIP3    H255055   5.823   4.463   3.842  0.6153 -0.0504  0.4065
11214TIP3   OH255056   1.254   3.689  14.944 -0.5961 -0.2201 -0.3628
11214TIP3    H155057   1.247   3.707  14.851 -0.7657 -0.1736 -0.3422
11214TIP3    H255058   1.232   3.596  14.952  0.1174 -0.3965 -0.4504
11215TIP3   OH255059   2.071   4.872  15.766 -0.5921  0.0348  0.3499
11215TIP3    H155060   2.114   4.931  15.827 -1.4479 -0.1841  1.1795
11215TIP3    H255061   1.998   4.922  15.730 -1.7172 -0.6778  1.5415
11216TIP3   OH255062   1.292   6.333  14.807 -0.1008  0.1250  0.3130
11216TIP3    H155063   1.275   6.311  14.715 -2.6509  0.2204  0.6850
11216TIP3    H255064   1.365   6.276  14.832 -0.6073 -1.3119 -1.2517
11217TIP3   OH255065   6.491   1.188  16.720 -0.0067  0.5686 -0.1319
11217TIP3    H155066   6.568   1.131  16.726  0.4539  1.0430 -1.2842
11217TIP3    H255067   6.499   1.247  16.796  1.5600  1.5398 -0.9908
11218TIP3   OH255068   3.983   1.383  14.170  0.1350 -0.2237 -0.0190
11218TIP3    H155069   3.967   1.474  14.196 -1.8034 -0.1228 -1.3282
11218TIP3    H255070   3.896   1.348  14.150  0.8882 -2.2378  0.0144
11219TIP3   OH255071   3.306   3.148   2.051 -0.1047  0.3980 -0.0125
11219TIP3    H155072   3.399   3.154   2.028 -0.5026  1.6674 -1.5023
11219TIP3    H255073   3.279   3.239   2.065 -1.1274  0.0481  0.3857
11220TIP3   OH255074   5.312   1.508  11.104  0.2188  0.5164 -0.3692
11220TIP3    H155075   5.237   1.551  11.063  0.4654 -0.0548 -1.4874
11220TIP3    H255076   5.349   1.454  11.034  1.1357  0.0934  0.4164
11221TIP3   OH255077   1.319   0.460   3.453 -0.0068  0.3560 -0.0691
11221TIP3    H155078   1.285   0.394   3.512  0.2255  0.6949  0.4514
11221TIP3    H255079   1.271   0.447   3.372 -0.2326 -0.1997  0.1518
11222TIP3   OH255080   5.841   2.280  14.386  0.0812 -0.3947  0.6795
11222TIP3    H155081   5.836   2.251  14.295  1.4380  0.7415  0.2211
11222TIP3    H255082   5.816   2.202  14.436  1.8873 -1.8865 -0.5717
11223TIP3   OH255083   3.522   2.725   3.556 -0.3874 -0.1060 -0.2474
11223TIP3    H155084   3.482   2.726   3.469  0.1362 -1.4822 -0.5186
11223TIP3    H255085   3.497   2.641   3.593  1.1689 -0.4437  0.0796
11224TIP3   OH255086   6.736   4.763   1.730  1.0804  0.2356 -0.4599
11224TIP3    H155087   6.751   4.717   1.813 -1.3173  1.1150  0.5785
11224TIP3    H255088   6.658   4.816   1.747  0.6747  0.6582 -3.2161
11225TIP3   OH255089   2.307   5.972  14.174  0.8323 -0.4524  0.4219
11225TIP3    H155090   2.264   5.887  14.184  0.6631 -0.3327  0.7186
11225TIP3    H255091   2.280   6.001  14.086  1.0574 -0.7959  0.2365
11226TIP3   OH255092   5.926   2.990  14.238  0.1914 -0.8911 -0.4439
11226TIP3    H155093   5.841   2.947  14.224  0.5517 -1.8674  0.2217
11226TIP3    H255094   5.990   2.931  14.198  0.6237 -0.4934 -0.3496
11227TIP3   OH255095   5.058   0.770   4.491 -0.0582 -0.1092 -0.4068
11227TIP3    H155096   5.102   0.713   4.428 -0.6960  0.5842 -1.5315
11227TIP3    H255097   5.124   0.836   4.513 -0.0655  0.1032 -0.9838
11228TIP3   OH255098   5.574   2.351  14.457 -0.7898  0.1222 -0.2632
11228TIP3    H155099   5.560   2.310  14.372  0.6322  1.6829 -1.3114
11228TIP3    H255100   5.668   2.342  14.473 -0.8716  0.7256  0.6627
11229TIP3   OH255101   0.244   2.242   2.275  0.1096 -0.2085  0.1873
11229TIP3    H155102   0.242   2.296   2.354  0.1463 -0.1179  0.1261
11229TIP3    H255103   0.170   2.182   2.285  0.3086 -0.4167  0.4479
11230TIP3   OH255104   3.885   2.292  13.121 -0.2671 -0.6115 -0.3281
11230TIP3    H155105   3.834   2.300  13.202  0.1817 -1.3774  0.0401
11230TIP3    H255106   3.859   2.207  13.085  0.2593 -0.7075 -0.4822
11231TIP3   OH255107   6.124   1.583   5.067  0.8863 -1.0612  0.4430
11231TIP3    H155108   6.213   1.607   5.039  0.3593 -0.3249 -0.6822
11231TIP3    H255109   6.129   1.582   5.162  2.1313 -1.1421  0.3988
11232TIP3   OH255110   3.919   2.057   3.930  0.3488  0.0727 -0.1434
11232TIP3    H155111   3.906   1.966   3.903 -1.7262  0.3229 -0.1766
11232TIP3    H255112   3.950   2.101   3.851  1.3218 -0.5720 -0.1384
11233TIP3   OH255113   2.524   5.516  16.757  0.3902 -0.5244 -0.2531
11233TIP3    H155114   2.538   5.518  16.852  0.0550 -1.3998 -0.1725
11233TIP3    H255115   2.435   5.482  16.747  0.7059 -1.1917 -0.8881
11234TIP3   OH255116   6.282   3.483  11.100 -0.1178  0.1715 -0.3066
11234TIP3    H155117   6.309   3.556  11.156  0.7948 -1.0285  0.8651
11234TIP3    H255118   6.354   3.471  11.039 -1.2597  1.7114 -2.0971
11235TIP3   OH255119   4.038   4.427  12.773  0.3033 -0.4652 -0.2790
11235TIP3    H155120   3.954   4.429  12.819  0.7618  1.9036  0.6306
11235TIP3    H255121   4.015   4.414  12.681 -1.0934  0.4102 -0.0799
11236TIP3   OH255122   3.835   1.655  14.980 -0.0452  0.0097  0.0257
11236TIP3    H155123   3.868   1.700  15.058  0.2719 -0.6003  0.2468
11236TIP3    H255124   3.764   1.711  14.949 -1.6613 -0.8353  2.0110
11237TIP3   OH255125   0.919   5.703   6.610 -0.0985  1.3723  0.0234
11237TIP3    H155126   0.938   5.795   6.625 -0.6757  1.8345 -1.8950
11237TIP3    H255127   1.004   5.660   6.614  0.3556  2.2050 -0.4593
11238TIP3   OH255128   5.882   3.225   5.785 -0.0642 -0.2069 -0.6939
11238TIP3    H155129   5.880   3.297   5.848  0.5747  0.6940 -1.6683
11238TIP3    H255130   5.962   3.176   5.806  1.1287  1.1444 -1.8913
11239TIP3   OH255131   4.272   4.378   3.353 -0.3144 -0.0153 -0.5178
11239TIP3    H155132   4.241   4.463   3.386 -0.5293 -0.2804 -0.0142
11239TIP3    H255133   4.198   4.343   3.304 -0.5478 -0.3060  0.0337
11240TIP3   OH255134   0.890   5.887   5.184 -0.0214 -0.4329 -0.4661
11240TIP3    H155135   0.887   5.805   5.234 -1.0425 -0.6087 -0.7890
11240TIP3    H255136   0.917   5.861   5.096 -1.2358 -0.5758 -0.8181
11241TIP3   OH255137   2.992   6.341  15.224 -0.6084  0.3786  0.6851
11241TIP3    H155138   2.915   6.285  15.229 -0.3738  0.0761  0.9795
11241TIP3    H255139   3.021   6.335  15.133 -0.2046 -0.5039  0.8607
11242TIP3   OH255140   1.917   2.263   1.884  0.3774  0.0594  0.9078
11242TIP3    H155141   1.832   2.277   1.927  0.6984 -1.4113  2.1212
11242TIP3    H255142   1.897   2.261   1.791 -1.3132 -2.1895  1.2240
11243TIP3   OH255143   4.022   3.643  12.863  0.1921 -0.3448 -0.1414
11243TIP3    H155144   3.930   3.627  12.887  0.2393  1.2312  1.2788
11243TIP3    H255145   4.066   3.560  12.883 -0.6452 -0.6114  0.7380
11244TIP3   OH255146   4.970   4.918  14.511  0.3400  0.1811  0.2883
11244TIP3    H155147   4.946   5.004  14.475 -0.3119  0.0530  0.4065
11244TIP3    H255148   5.045   4.936  14.568  1.7461  0.3149 -1.4998
11245TIP3   OH255149   6.032   6.063   4.786 -0.4764 -0.2028  0.6794
11245TIP3    H155150   6.111   6.113   4.807  0.3356 -1.0505 -0.2057
11245TIP3    H255151   6.039   5.983   4.839  0.2696 -1.1480 -0.7429
11246TIP3   OH255152   2.303   3.506  12.422 -0.0581  0.4805  0.2165
11246TIP3    H155153   2.384   3.460  12.444 -0.4113 -1.1602 -1.6945
11246TIP3    H255154   2.318   3.542  12.335 -1.4905 -0.2381 -0.3707
11247TIP3   OH255155   1.738   0.316  15.519  0.0943  0.0068  0.5046
11247TIP3    H155156   1.664   0.313  15.579  0.3215  0.0865  0.7873
11247TIP3    H255157   1.724   0.241  15.461  0.7855 -1.0897  1.7197
11248TIP3   OH255158   5.528   0.733   3.796  0.1891 -0.3311  0.5188
11248TIP3    H155159   5.476   0.758   3.872 -1.3552  0.8130 -0.8567
11248TIP3    H255160   5.612   0.779   3.809 -1.0697  2.2179  0.1632
11249TIP3   OH255161   0.796   3.268   1.797  0.5969 -0.1574  0.0467
11249TIP3    H155162   0.859   3.310   1.856 -0.2354 -0.7717  1.4184
11249TIP3    H255163   0.734   3.337   1.776  1.2333  0.2251 -0.6269
11250TIP3   OH255164   5.144   5.822  12.753  0.2985  0.2390 -0.7129
11250TIP3    H155165   5.200   5.754  12.789 -0.3794 -0.7182 -1.3934
11250TIP3    H255166   5.060   5.810  12.798 -0.1533 -0.1110 -1.6184
11251TIP3   OH255167   4.292   3.748   5.407  0.4466  0.2027 -0.1630
11251TIP3    H155168   4.325   3.765   5.319  3.0930  1.8929  1.0242
11251TIP3    H255169   4.261   3.657   5.405 -1.7712  0.8694 -3.3673
11252TIP3   OH255170   3.767   5.726  13.105 -0.2715 -0.1998 -0.2257
11252TIP3    H155171   3.856   5.758  13.117  0.5815 -2.2271 -0.7121
11252TIP3    H255172   3.728   5.786  13.041  1.0801  0.1287 -0.7657
11253TIP3   OH255173   1.263   2.213   3.731  0.0592 -0.2604 -0.1533
11253TIP3    H155174   1.293   2.175   3.649 -2.4309 -0.9143 -0.8564
11253TIP3    H255175   1.206   2.286   3.705 -1.1127 -0.7328  0.9343
11254TIP3   OH255176   3.159   0.092   0.261 -0.1000 -0.4261  0.1720
11254TIP3    H155177   3.136  -0.001   0.258 -1.4740 -0.1859  1.6683
11254TIP3    H255178   3.231   0.097   0.323 -1.0886 -0.3528  1.3601
11255TIP3   OH255179   2.086   3.208  16.066 -0.5511  0.1293 -0.3662
11255TIP3    H155180   2.008   3.216  16.122 -0.7096 -0.9580 -0.4196
11255TIP3    H255181   2.155   3.250  16.116 -0.8963 -0.0139  0.2428
11256TIP3   OH255182   2.736   3.516   2.841  0.6506 -0.2663  0.2288
11256TIP3    H155183   2.825   3.540   2.869 -0.0530 -0.0064  2.3888
11256TIP3    H255184   2.721   3.571   2.763  1.5868  1.3324  1.1047
11257TIP3   OH255185   5.140   4.945   5.808 -0.1852 -0.8310 -0.3659
11257TIP3    H155186   5.067   4.954   5.747 -0.7515  2.2757  0.5725
11257TIP3    H255187   5.134   5.023   5.864  2.3837 -1.7482  1.3821
11258TIP3   OH255188   6.447   4.062   1.519 -0.4125 -0.1351 -0.2912
11258TIP3    H155189   6.461   3.974   1.484  0.0825  0.1124 -0.7223
11258TIP3    H255190   6.431   4.117   1.442  0.3733  0.3531 -0.1193
11259TIP3   OH255191   1.463   0.483  16.432 -0.0125 -0.1264  0.5187
11259TIP3    H155192   1.434   0.392  16.431  0.1903 -0.1978  0.8731
11259TIP3    H255193   1.555   0.479  16.408  0.2828 -0.1297  1.6006
11260TIP3   OH255194   3.854   2.396   0.694 -0.4430  0.0294 -0.6206
11260TIP3    H155195   3.838   2.309   0.657 -0.8154  0.2563 -1.0141
11260TIP3    H255196   3.850   2.454   0.618  0.5728  0.3074 -0.4798
11261TIP3   OH255197   6.737   1.497   2.473 -0.5160 -0.6305 -0.1567
11261TIP3    H155198   6.709   1.426   2.415 -0.1904  0.9615 -2.4379
11261TIP3    H255199   6.826   1.517   2.444 -1.1108  1.6267 -0.6122
11262TIP3   OH255200   6.400   0.268  14.278 -0.5459 -0.3221  0.0175
11262TIP3    H155201   6.338   0.267  14.350  0.1310 -0.0337  0.6139
11262TIP3    H255202   6.468   0.206  14.304  0.5570  1.0085  0.4091
11263TIP3   OH255203   3.680   4.931  15.634  0.7328  0.5680  0.3278
11263TIP3    H155204   3.626   4.913  15.711  1.5096  0.6591  0.8995
11263TIP3    H255205   3.739   4.856  15.627 -0.7081 -0.5087 -1.4382
11264TIP3   OH255206   4.405   3.032   3.917 -0.3497  0.4674  0.4396
11264TIP3    H155207   4.323   2.992   3.889  0.0865 -0.1165 -0.0409
11264TIP3    H255208   4.471   2.964   3.904  0.4260  1.3439 -0.4788
11265TIP3   OH255209   0.535   3.981  15.103 -0.3557 -0.5276 -0.2493
11265TIP3    H155210   0.450   3.937  15.107 -0.5876  0.0265  2.5363
11265TIP3    H255211   0.520   4.066  15.144  1.5847 -0.5049  0.4893
11266TIP3   OH255212   1.748   3.676  16.687  0.5648 -0.0187  0.5972
11266TIP3    H155213   1.692   3.692  16.763 -1.5902  1.6513 -1.2303
11266TIP3    H255214   1.837   3.685  16.722 -0.3131  0.0686  3.0392
11267TIP3   OH255215   1.760   4.921   5.342 -0.2353 -0.1854  0.2077
11267TIP3    H155216   1.746   4.987   5.274 -0.2946 -0.6137 -0.1981
11267TIP3    H255217   1.818   4.856   5.301  1.2831  0.5071  1.1775
11268TIP3   OH255218   4.177   0.879   5.664  0.1594 -0.4704  0.2509
11268TIP3    H155219   4.090   0.890   5.625  0.7574  1.1384 -0.7166
11268TIP3    H255220   4.223   0.819   5.606  0.4739  0.5854 -0.6340
11269TIP3   OH255221   6.145   1.185   4.678  0.4303  0.0315 -0.0697
11269TIP3    H155222   6.052   1.197   4.657 -0.2691 -3.4772  0.3583
11269TIP3    H255223   6.192   1.225   4.605 -1.4157  1.3286 -0.6204
11270TIP3   OH255224   3.353   1.225   0.922 -0.2946  0.3054  0.2122
11270TIP3    H155225   3.380   1.273   0.844  0.7377  0.0612  0.4032
11270TIP3    H255226   3.422   1.244   0.986 -0.2227 -0.8788  0.5033
11271TIP3   OH255227   5.290   1.456  14.535 -0.7638  0.3144  0.1839
11271TIP3    H155228   5.306   1.363  14.553 -2.0187 -0.0673 -0.5194
11271TIP3    H255229   5.358   1.480  14.472  0.8022  0.4370  1.8608
11272TIP3   OH255230   1.952   4.672   5.984 -0.0226  0.1031  0.1478
11272TIP3    H155231   2.027   4.702   5.933 -0.8779 -0.0025 -1.2535
11272TIP3    H255232   1.879   4.727   5.954 -0.7927 -0.7364  0.4197
11273TIP3   OH255233   2.810   2.798  15.479  0.7221  0.4801  0.5128
11273TIP3    H155234   2.725   2.755  15.492  0.9578 -0.9809 -2.1158
11273TIP3    H255235   2.855   2.788  15.563 -0.9473 -0.4984  1.3490
11274TIP3   OH255236   0.287   6.667   2.170  0.0253  0.1963 -0.2076
11274TIP3    H155237   0.323   6.726   2.236 -0.1151  0.7913 -0.6586
11274TIP3    H255238   0.350   6.595   2.166 -0.1828 -0.0669  0.8778
11275TIP3   OH255239   5.259   6.522  12.934  0.1852 -0.3781 -0.4044
11275TIP3    H155240   5.245   6.429  12.948  1.6078 -0.2695  2.2659
11275TIP3    H255241   5.344   6.528  12.890 -0.1380 -0.3236 -1.0440
11276TIP3   OH255242   2.917   2.856  14.262 -0.3886 -0.3426  0.1411
11276TIP3    H155243   2.946   2.947  14.270  1.2306 -0.8409  0.2999
11276TIP3    H255244   2.982   2.815  14.205 -1.4218 -1.2776 -0.4004
11277TIP3   OH255245   0.258   3.973   3.043 -0.1199  0.5678  0.9032
11277TIP3    H155246   0.191   3.919   3.084  1.6456 -0.3265  2.7584
11277TIP3    H255247   0.341   3.935   3.072  1.3890 -0.2927 -3.6894
11278TIP3   OH255248   0.342   2.863  16.788 -0.1861 -0.0942  0.1137
11278TIP3    H155249   0.250   2.886  16.779 -0.3592  0.3347  2.3593
11278TIP3    H255250   0.388   2.948  16.787  0.0484 -0.2181  0.2192
11279TIP3   OH255251   6.036   1.072  12.898  0.2875 -0.2132 -0.1042
11279TIP3    H155252   6.025   1.029  12.814 -0.1850 -1.0278  0.3537
11279TIP3    H255253   6.042   1.165  12.878 -0.4018 -0.3488 -0.9822
11280TIP3   OH255254   4.107   5.177  14.959  0.5442  0.2572  0.3608
11280TIP3    H155255   4.013   5.194  14.950  0.4429 -1.0793 -1.7098
11280TIP3    H255256   4.112   5.084  14.984  1.3177  0.0014 -0.6916
11281TIP3   OH255257   2.788   2.052  17.023  0.1079 -0.2477  0.2835
11281TIP3    H155258   2.793   2.143  16.994 -1.6068 -0.1261  0.3106
11281TIP3    H255259   2.877   2.032  17.053  0.7815  1.0632 -0.7303
11282TIP3   OH255260   1.525   6.431  16.342 -0.6501  0.5027  0.0969
11282TIP3    H155261   1.507   6.512  16.295  1.3052  0.5100 -0.7411
11282TIP3    H255262   1.597   6.453  16.401  1.2437 -0.9932 -1.5058
11283TIP3   OH255263   1.552   1.762  11.882 -0.1840  0.4556  0.5105
11283TIP3    H155264   1.500   1.810  11.817 -0.9737 -1.2278 -0.1788
11283TIP3    H255265   1.535   1.807  11.964 -1.6904  0.7754  0.0673
11284TIP3   OH255266   4.362   1.940  17.064  0.3253  0.1226 -0.1246
11284TIP3    H155267   4.446   1.905  17.094  0.2415  1.0661  1.3284
11284TIP3    H255268   4.312   1.864  17.035  1.0354 -0.6516  0.6509
11285TIP3   OH255269   1.079   1.358   4.869  0.1358  0.0082  0.0260
11285TIP3    H155270   0.995   1.383   4.829 -0.4253  0.2982  1.3346
11285TIP3    H255271   1.080   1.263   4.865 -0.7388 -0.0509  0.9256
11286TIP3   OH255272   2.236   0.628  11.427 -0.1655  0.0518 -0.7242
11286TIP3    H155273   2.313   0.625  11.370  0.6377 -0.8157  0.3550
11286TIP3    H255274   2.190   0.546  11.408  0.8835 -0.9637  0.8535
11287TIP3   OH255275   0.340   0.260  17.108 -0.1827 -0.3948  0.3393
11287TIP3    H155276   0.347   0.276  17.014 -1.5007 -0.8923  0.1334
11287TIP3    H255277   0.301   0.341  17.143  0.6938 -0.0467  0.5324
11288TIP3   OH255278   4.823   4.952  13.499  0.0283  0.1482  0.0716
11288TIP3    H155279   4.732   4.974  13.477 -0.2382  1.1416  1.9575
11288TIP3    H255280   4.871   5.034  13.487  0.5293 -0.1810 -0.1915
11289TIP3   OH255281   1.950   0.526   4.869 -0.0362  0.5530 -0.1407
11289TIP3    H155282   1.859   0.530   4.842  0.0411 -0.5066 -0.6090
11289TIP3    H255283   1.947   0.512   4.964 -0.3753 -0.3264 -0.2752
11290TIP3   OH255284   2.260   6.625   2.141 -0.1943 -0.1314 -0.2623
11290TIP3    H155285   2.320   6.687   2.181 -2.3341  1.7128  0.3197
11290TIP3    H255286   2.310   6.544   2.132  1.5629  0.5328  2.5500
11291TIP3   OH255287   0.732   2.494  10.604  0.5890 -0.2624 -0.4848
11291TIP3    H155288   0.703   2.582  10.578  0.0654 -0.8151 -1.8370
11291TIP3    H255289   0.657   2.458  10.652  0.9585  0.1578  0.4431
11292TIP3   OH255290   6.083   2.441   3.707 -0.0777  0.3285 -0.2606
11292TIP3    H155291   6.019   2.416   3.641 -1.2387  1.9407  0.1825
11292TIP3    H255292   6.101   2.361   3.755 -2.4737 -0.0139  0.1774
11293TIP3   OH255293   3.198   5.546   0.603  0.1246 -0.1240  0.0805
11293TIP3    H155294   3.225   5.633   0.574 -1.2220  0.9052  1.7879
11293TIP3    H255295   3.205   5.492   0.524  0.5915  1.6091 -1.1232
11294TIP3   OH255296   6.121   2.374   3.259  0.5527 -0.0444  0.0111
11294TIP3    H155297   6.197   2.382   3.317  0.2262  0.8277  0.3244
11294TIP3    H255298   6.150   2.414   3.177  0.8466 -0.8414 -0.2898
11295TIP3   OH255299   6.416   5.641  12.964 -0.2416  0.5507  0.2985
11295TIP3    H155300   6.351   5.577  12.994 -0.0337 -0.7218 -1.8044
11295TIP3    H255301   6.364   5.709  12.921 -0.2806  0.2471 -0.1403
11296TIP3   OH255302   5.269   6.639   2.275 -0.0650  0.0261  0.6233
11296TIP3    H155303   5.197   6.660   2.334 -1.1472  1.2866 -1.0666
11296TIP3    H255304   5.283   6.719   2.224  2.7048 -0.0975  1.0384
11297TIP3   OH255305   0.180   0.705   1.229 -0.1384  0.1654 -0.7162
11297TIP3    H155306   0.094   0.690   1.270  0.4562 -0.1142  0.4683
11297TIP3    H255307   0.166   0.683   1.137 -1.7401  1.6364 -0.8933
11298TIP3   OH255308   6.204   6.524  11.215 -0.0934  0.4213  0.1435
11298TIP3    H155309   6.223   6.615  11.192 -0.8402  1.1408  2.1971
11298TIP3    H255310   6.193   6.481  11.130  1.9338  1.8238 -0.9435
11299TIP3   OH255311   0.352   1.997  11.585  0.1415  0.2710  0.6345
11299TIP3    H155312   0.431   2.014  11.534  0.5970 -1.6116  0.6213
11299TIP3    H255313   0.322   2.083  11.612 -0.5314  1.4756 -3.3638
11300TIP3   OH255314   0.258   4.892  14.915  0.1120  0.8122  0.1557
11300TIP3    H155315   0.286   4.834  14.844  1.0986 -1.3550  2.1872
11300TIP3    H255316   0.331   4.891  14.977 -1.0270  1.9895  1.5903
11301TIP3   OH255317   3.019   4.594   6.070 -0.1114 -0.0503  0.2040
11301TIP3    H155318   2.984   4.613   6.157 -0.1576 -0.0953  0.1955
11301TIP3    H255319   3.112   4.615   6.076 -0.0347 -0.4422  0.3818
11302TIP3   OH255320   3.796   5.839   5.645 -0.0180 -0.5220  0.6199
11302TIP3    H155321   3.829   5.926   5.621 -2.2293 -0.1143 -1.3465
11302TIP3    H255322   3.799   5.837   5.740  2.3601  0.7366  0.6311
11303TIP3   OH255323   4.554   5.457   1.821 -0.0373 -0.9191 -0.5905
11303TIP3    H155324   4.474   5.468   1.872  0.4042 -2.8946  0.6380
11303TIP3    H255325   4.606   5.535   1.841 -0.7609 -0.6530  0.3149
11304TIP3   OH255326   6.256   5.550  15.552  0.3940 -0.3427  0.0741
11304TIP3    H155327   6.271   5.591  15.637  1.3712  1.9818 -1.1086
11304TIP3    H255328   6.165   5.572  15.531  0.2332 -0.6955  0.3910
11305TIP3   OH255329   0.677   1.236  11.008 -0.2315  0.7933  0.3745
11305TIP3    H155330   0.696   1.231  11.101 -1.6123  1.4479  0.7318
11305TIP3    H255331   0.646   1.326  10.995  4.0375  2.2755 -1.5961
11306TIP3   OH255332   6.303   3.671   5.644 -0.7001 -0.2458  0.5790
11306TIP3    H155333   6.299   3.627   5.730  0.1856 -1.1167  0.1951
11306TIP3    H255334   6.365   3.743   5.657 -0.3401 -0.5543  0.6081
11307TIP3   OH255335   2.811   1.079  15.949  0.2715  0.0146  0.2495
11307TIP3    H155336   2.727   1.055  15.908 -0.3716  2.2328  0.1340
11307TIP3    H255337   2.867   1.004  15.933 -1.0792 -0.7043 -1.5350
11308TIP3   OH255338   3.014   3.057  15.247 -0.4168  0.0969 -0.2147
11308TIP3    H155339   3.002   3.109  15.168 -2.4804 -0.8808 -0.6362
11308TIP3    H255340   2.926   3.050  15.284  0.4936  0.5683  2.2368
11309TIP3   OH255341   2.461   3.627  13.450  0.3665  0.1101 -0.5929
11309TIP3    H155342   2.477   3.538  13.421  0.9052  0.3212 -0.9471
11309TIP3    H255343   2.367   3.640  13.438 -0.0434 -0.9849  1.0961
11310TIP3   OH255344   0.311   6.564   4.190  0.1712  0.1170  0.0078
11310TIP3    H155345   0.378   6.536   4.128 -0.1488 -0.9480  0.1383
11310TIP3    H255346   0.323   6.507   4.266 -0.5104  0.3153  0.2712
11311TIP3   OH255347   1.194   4.256   3.701  0.2339 -0.2693 -0.2753
11311TIP3    H155348   1.194   4.161   3.718 -0.6259 -0.9518 -3.5130
11311TIP3    H255349   1.137   4.291   3.770 -0.6592 -2.3120  0.1305
11312TIP3   OH255350   6.410   0.650   2.615 -0.1467  0.2590 -0.1420
11312TIP3    H155351   6.350   0.598   2.670  2.0212 -0.3328  1.8400
11312TIP3    H255352   6.465   0.585   2.572  3.0294  0.6748  2.8600
11313TIP3   OH255353   5.919   2.776   5.299 -0.2846  0.4344 -0.1756
11313TIP3    H155354   5.916   2.682   5.317 -2.3428  0.0311 -2.1044
11313TIP3    H255355   5.854   2.814   5.359 -0.8468  0.3358 -0.7157
11314TIP3   OH255356   0.384   4.880  10.997  0.1196  0.0131  0.3439
11314TIP3    H155357   0.302   4.881  10.949 -0.3104  2.2514  1.0333
11314TIP3    H255358   0.365   4.831  11.077 -0.4289  0.1840  0.3160
11315TIP3   OH255359   4.161   0.687  15.582 -0.4712 -0.0028  0.6477
11315TIP3    H155360   4.231   0.719  15.524 -0.3529  0.2339  0.9211
11315TIP3    H255361   4.086   0.742  15.562 -1.2123 -1.5349 -1.0978
11316TIP3   OH255362   6.541   1.648  16.520 -0.3893  0.1636  0.2308
11316TIP3    H155363   6.503   1.592  16.453  3.3609 -2.3335 -0.0783
11316TIP3    H255364   6.587   1.717  16.471  0.6509 -0.4838  0.2695
11317TIP3   OH255365   6.677   4.515  16.220 -0.1258  0.2508  0.4248
11317TIP3    H155366   6.616   4.510  16.147  0.4706  2.1606 -0.2766
11317TIP3    H255367   6.623   4.541  16.295 -0.5417 -0.5343  0.4103
11318TIP3   OH255368   5.956   0.831   2.395  0.5350  0.1084  0.3396
11318TIP3    H155369   6.050   0.839   2.380  0.2405  2.8540 -0.5599
11318TIP3    H255370   5.926   0.920   2.410 -2.4022 -0.2043 -2.5223
11319TIP3   OH255371   0.228   0.930  14.178 -0.6205 -0.1367  0.3416
11319TIP3    H155372   0.278   0.848  14.185 -0.3715 -0.1822 -1.4791
11319TIP3    H255373   0.214   0.941  14.084 -1.3255  1.5299  0.6147
11320TIP3   OH255374   1.130   1.926  11.812 -0.0514 -0.7270  1.1432
11320TIP3    H155375   1.046   1.970  11.806  0.6234  0.3890 -1.6493
11320TIP3    H255376   1.148   1.895  11.724  2.0885 -1.6834  1.8408
11321TIP3   OH255377   1.267   0.223  13.148  0.2655  0.1623  0.3950
11321TIP3    H155378   1.200   0.251  13.211  1.4232 -0.9104  2.1932
11321TIP3    H255379   1.350   0.232  13.196  1.2716 -0.1353 -1.2019
11322TIP3   OH255380   0.774   5.858   5.666  0.1383 -0.0378  0.1745
11322TIP3    H155381   0.783   5.914   5.589 -2.8354  1.4572  0.7782
11322TIP3    H255382   0.715   5.906   5.724 -0.5573 -2.7174  1.8576
11323TIP3   OH255383   1.914   3.182  15.035  0.2135  0.4922 -0.0486
11323TIP3    H155384   1.965   3.262  15.042 -0.5383  1.3866 -3.1791
11323TIP3    H255385   1.953   3.135  14.961 -0.2150 -1.4213  0.8649
11324TIP3   OH255386   5.947   0.047   3.553  0.8405 -0.2148 -0.2296
11324TIP3    H155387   5.970  -0.031   3.603  1.1189 -1.4088 -2.1627
11324TIP3    H255388   5.934   0.017   3.463  0.4929  1.8858 -0.9529
11325TIP3   OH255389   1.426   3.693   5.345 -0.6045 -0.5631  0.2818
11325TIP3    H155390   1.509   3.675   5.302 -0.0700  0.1254  0.9997
11325TIP3    H255391   1.398   3.609   5.382 -0.7501 -1.0199 -0.8230
11326TIP3   OH255392   4.638   5.651  12.906  0.5556 -0.1614 -0.8572
11326TIP3    H155393   4.557   5.621  12.865  1.4725 -1.5447 -1.7147
11326TIP3    H255394   4.707   5.599  12.865  1.7273 -0.1929  1.0268
11327TIP3   OH255395   0.147   3.342   1.224  0.1454 -0.6036 -0.2267
11327TIP3    H155396   0.103   3.264   1.191 -0.8406 -1.3158  2.5284
11327TIP3    H255397   0.235   3.313   1.246 -0.4421 -1.2069  1.4911
11328TIP3   OH255398   2.559   2.409  15.213  0.2993 -0.0150  0.0394
11328TIP3    H155399   2.534   2.316  15.211 -0.9753  0.2742  1.0558
11328TIP3    H255400   2.557   2.437  15.122 -1.6411 -0.4125 -0.0778
11329TIP3   OH255401   3.038   6.012   3.326  0.2302 -0.1522  0.2552
11329TIP3    H155402   2.975   5.999   3.256 -1.7788 -0.9659  2.1155
11329TIP3    H255403   3.021   5.941   3.387  1.8810  0.5494  1.6141
11330TIP3   OH255404   5.182   3.755   5.213 -0.0186 -0.0226 -0.7933
11330TIP3    H155405   5.152   3.845   5.226 -0.0798  0.0140 -1.1674
11330TIP3    H255406   5.120   3.719   5.149  0.1776 -0.2406 -0.8611
11331TIP3   OH255407   1.525   0.865  16.373  0.2733 -0.0819 -0.0477
11331TIP3    H155408   1.490   0.790  16.323  0.3253 -0.7883  0.9572
11331TIP3    H255409   1.512   0.841  16.464 -2.0564  2.2289  0.3529
11332TIP3   OH255410   0.816   0.133   0.233 -0.4202 -0.6697  0.4283
11332TIP3    H155411   0.756   0.204   0.208  1.7498  0.6859 -1.3299
11332TIP3    H255412   0.802   0.066   0.166  2.5744  1.2912 -2.4537
11333TIP3   OH255413   3.611   2.017   5.902  0.0788  0.3855  0.0845
11333TIP3    H155414   3.599   1.922   5.908 -0.1356  0.2432 -1.9873
11333TIP3    H255415   3.579   2.040   5.815  0.1490  2.3706  0.5385
11334TIP3   OH255416   2.526   6.669  15.234 -0.2497 -0.9582  0.8775
11334TIP3    H155417   2.605   6.687  15.182 -2.0435 -0.1453 -1.7963
11334TIP3    H255418   2.516   6.746  15.290  0.8275 -1.0724  1.2496
11335TIP3   OH255419   2.618   5.084  13.417  0.1003 -0.7992  0.2534
11335TIP3    H155420   2.539   5.116  13.460 -0.6362 -0.1065 -1.5322
11335TIP3    H255421   2.590   5.062  13.329  1.9046 -0.5067 -0.4347
11336TIP3   OH255422   4.923   2.440  14.425  0.5113 -0.6079  0.1641
11336TIP3    H155423   4.996   2.498  14.446  0.5988 -0.5848 -0.2073
11336TIP3    H255424   4.848   2.480  14.469 -0.8116  3.2274 -4.7073
11337TIP3   OH255425   1.909   6.507  11.290 -0.1656 -0.3394  0.2556
11337TIP3    H155426   1.963   6.476  11.217 -0.4404 -2.2060  0.8014
11337TIP3    H255427   1.829   6.539  11.249  0.4602  0.4435 -0.3933
11338TIP3   OH255428   3.384   4.873   1.198 -0.0019  0.1460 -1.0292
11338TIP3    H155429   3.297   4.903   1.227 -0.7686 -3.2242  0.7174
11338TIP3    H255430   3.442   4.947   1.215 -1.5583  0.6452  3.4917
11339TIP3   OH255431   2.389   3.306  12.120 -0.0520  0.0876  0.2122
11339TIP3    H155432   2.301   3.343  12.110 -0.3025  0.7572  3.6050
11339TIP3    H255433   2.434   3.368  12.178  2.9650  0.1071 -1.9432
11340TIP3   OH255434   2.484   4.093   0.169  0.0398  0.8665  0.2094
11340TIP3    H155435   2.420   4.053   0.111 -0.1884  0.0093  1.0258
11340TIP3    H255436   2.568   4.056   0.141 -0.2942 -1.3433  1.7945
11341TIP3   OH255437   6.533   3.242  11.274  0.4163 -0.6111 -0.1809
11341TIP3    H155438   6.603   3.261  11.211 -0.6990  1.9171 -0.7855
11341TIP3    H255439   6.464   3.203  11.221  0.3111 -0.4947 -0.1313
11342TIP3   OH255440   6.329   4.186   5.343 -0.1541  0.0389  0.2387
11342TIP3    H155441   6.375   4.102   5.345  1.2076  0.5966 -2.5863
11342TIP3    H255442   6.273   4.180   5.265  0.7630  2.1000 -0.6361
11343TIP3   OH255443   0.012   5.766  13.910 -0.1845  0.3267 -0.1051
11343TIP3    H155444  -0.056   5.719  13.958 -0.4530  0.8560  0.0414
11343TIP3    H255445   0.017   5.852  13.953  0.2697  0.4472 -0.3914
11344TIP3   OH255446   1.586   5.446  12.516 -0.0755 -0.1191 -0.7105
11344TIP3    H155447   1.493   5.431  12.499 -0.4973  1.1939  0.2141
11344TIP3    H255448   1.591   5.539  12.538  1.6774  0.1651 -2.0778
11345TIP3   OH255449   4.574   4.814  12.591  0.2318  0.1970 -0.0166
11345TIP3    H155450   4.581   4.785  12.500  1.1349  0.3181 -0.0018
11345TIP3    H255451   4.631   4.891  12.595 -2.0724  1.9844 -0.0480
11346TIP3   OH255452   4.698   3.880   2.516 -0.1744  0.1881  0.3035
11346TIP3    H155453   4.659   3.960   2.549 -2.1322 -0.2531 -0.7904
11346TIP3    H255454   4.701   3.891   2.421 -0.1387 -0.8636  0.1616
11347TIP3   OH255455   2.376   4.177  16.969  0.2065 -0.0567 -0.5753
11347TIP3    H155456   2.395   4.239  17.039  2.0840 -0.5855 -0.5706
11347TIP3    H255457   2.415   4.095  16.998 -2.1401 -1.2964 -0.6143
11348TIP3   OH255458   1.534   5.354  15.011 -0.9949  0.1433 -0.0259
11348TIP3    H155459   1.532   5.346  14.916  1.5687  0.2929 -0.1381
11348TIP3    H255460   1.442   5.364  15.035 -1.6994  0.3012 -2.4823
11349TIP3   OH255461   5.653   0.472   2.073  0.1566  0.7095 -0.6486
11349TIP3    H155462   5.668   0.526   2.150  1.2423 -1.5560  0.8670
11349TIP3    H255463   5.568   0.432   2.087  0.5512 -0.0542 -0.3730
11350TIP3   OH255464   4.591   4.048   0.658 -0.1061  0.2346  0.0097
11350TIP3    H155465   4.575   3.954   0.649  1.5973 -0.0627 -0.3854
11350TIP3    H255466   4.661   4.054   0.724  0.3869  1.1446 -0.5675
11351TIP3   OH255467   0.091   0.817  11.402 -0.1551  0.3553 -0.0969
11351TIP3    H155468   0.150   0.887  11.429 -0.6799  1.0999 -0.8321
11351TIP3    H255469   0.062   0.778  11.485 -1.7432  2.6037  0.5090
11352TIP3   OH255470   4.556   0.020  11.771 -0.0717  0.4430  0.1430
11352TIP3    H155471   4.533   0.099  11.723 -2.1090 -0.2174 -0.0636
11352TIP3    H255472   4.601  -0.035  11.708  2.7334  1.9650  0.6758
11353TIP3   OH255473   3.425   4.179   0.101  0.8178  0.4894 -0.1725
11353TIP3    H155474   3.410   4.125   0.179  0.9075  1.3334  0.4545
11353TIP3    H255475   3.503   4.231   0.124  0.0409  1.7237 -0.2706
11354TIP3   OH255476   5.831   4.574  15.304  0.3397 -0.2226 -0.1707
11354TIP3    H155477   5.888   4.644  15.335  0.9581 -0.1945 -1.3068
11354TIP3    H255478   5.890   4.514  15.259 -0.3808 -0.7599 -0.4069
11355TIP3   OH255479   5.453   5.129  16.804 -0.5963  0.0564 -0.1655
11355TIP3    H155480   5.363   5.126  16.837 -1.0356 -0.3435 -1.3591
11355TIP3    H255481   5.460   5.216  16.765 -0.5152  0.0191 -0.2317
11356TIP3   OH255482   5.934   1.762   6.237  0.7311 -0.1259 -0.0468
11356TIP3    H155483   5.875   1.740   6.309  0.9550  0.8612  0.4505
11356TIP3    H255484   5.882   1.820   6.181  1.3494  1.0966  0.6171
11357TIP3   OH255485   2.891   4.735   3.568  0.2768 -0.2160  0.0459
11357TIP3    H155486   2.885   4.751   3.662  0.0927 -0.5832  0.0966
11357TIP3    H255487   2.801   4.737   3.537  0.3367 -0.0956 -0.1261
11358TIP3   OH255488   5.607   3.151  12.377 -0.1020 -0.3045  0.1040
11358TIP3    H155489   5.651   3.157  12.292  0.7335 -0.0459  0.5326
11358TIP3    H255490   5.609   3.241  12.411 -1.1398 -0.2572  0.0570
11359TIP3   OH255491   3.106   0.697   5.940 -0.3060 -0.1766  0.0364
11359TIP3    H155492   3.147   0.783   5.934  0.4644 -0.4659  0.8653
11359TIP3    H255493   3.114   0.673   6.033 -1.3128 -0.7583 -0.0026
11360TIP3   OH255494   3.994   1.955   4.212  0.3490 -0.6518  0.8193
11360TIP3    H155495   3.959   1.866   4.222 -0.0738 -0.6460 -0.4199
11360TIP3    H255496   3.968   1.980   4.123 -0.4528  1.1236  1.5230
11361TIP3   OH255497   2.715   1.266  14.043  0.2904 -0.3843 -0.2552
11361TIP3    H155498   2.649   1.327  14.009  1.4176  0.6002 -0.7599
11361TIP3    H255499   2.725   1.289  14.135 -0.4058 -0.8702 -0.0479
11362TIP3   OH255500   3.040   2.891   1.788  0.4575 -0.4324  0.1113
11362TIP3    H155501   3.127   2.856   1.808  0.6676  1.2076  2.5539
11362TIP3    H255502   3.055   2.984   1.773 -0.6330 -0.5295 -1.7731
11363TIP3   OH255503   1.070   5.942  14.730 -0.2833  0.4547 -0.4109
11363TIP3    H155504   0.980   5.952  14.759  0.1286 -2.3229  2.3307
11363TIP3    H255505   1.064   5.920  14.637 -2.5775 -1.1554  0.0432
11364TIP3   OH255506   1.665   1.456   2.454 -0.2069 -0.1568 -0.2737
11364TIP3    H155507   1.642   1.545   2.426 -0.2356 -0.3216 -0.7802
11364TIP3    H255508   1.724   1.469   2.528  0.3764  0.2953 -0.8087
11365TIP3   OH255509   4.869   1.169   2.046 -0.2780  0.1761 -0.0721
11365TIP3    H155510   4.792   1.116   2.023 -0.5082  0.9082 -1.0536
11365TIP3    H255511   4.937   1.140   1.986  0.2293 -0.4688  0.7973
11366TIP3   OH255512   6.080   6.180   0.386 -0.1691 -0.1490  0.4963
11366TIP3    H155513   6.152   6.121   0.363  0.4939  0.6927  0.3290
11366TIP3    H255514   6.040   6.203   0.303 -1.5952 -1.7562  0.6947
11367TIP3   OH255515   6.681   4.954  16.847 -0.3523 -1.1096 -0.3473
11367TIP3    H155516   6.716   4.874  16.886  2.8125  0.7169  0.8645
11367TIP3    H255517   6.705   4.948  16.754  1.0489 -0.9912 -0.0035
11368TIP3   OH255518   0.824   1.257   2.007  0.0022  0.8174 -0.0786
11368TIP3    H155519   0.846   1.350   2.007 -0.4970  0.9473 -0.6618
11368TIP3    H255520   0.759   1.247   2.076 -0.1489  0.9609 -0.1981
11369TIP3   OH255521   3.159   0.475  16.135 -0.5259  0.1696 -0.0615
11369TIP3    H155522   3.109   0.394  16.124 -0.6072  0.0882  0.8411
11369TIP3    H255523   3.202   0.465  16.219  1.4118  0.0386 -1.0210
11370TIP3   OH255524   2.407   1.694   4.910  0.4301 -0.8772 -0.5592
11370TIP3    H155525   2.386   1.657   4.996 -0.0834 -0.5651 -0.5418
11370TIP3    H255526   2.501   1.712   4.913  0.4364 -0.9759 -0.1019
11371TIP3   OH255527   2.609   0.495   2.336 -0.6855  0.1003  0.3537
11371TIP3    H155528   2.646   0.575   2.298 -0.5802 -0.3113 -0.4318
11371TIP3    H255529   2.515   0.506   2.326 -0.6309 -0.8818 -1.9559
11372TIP3   OH255530   1.291   2.371   1.913 -0.5637 -0.2150  0.3055
11372TIP3    H155531   1.213   2.426   1.913  0.1327  0.8013 -0.1008
11372TIP3    H255532   1.340   2.398   1.836  0.5851 -0.2621  0.9898
11373TIP3   OH255533   4.378   5.150  14.971 -0.5918 -0.2716 -0.3750
11373TIP3    H155534   4.283   5.160  14.974 -0.6552 -0.9936  0.4086
11373TIP3    H255535   4.398   5.134  14.879 -1.2360 -0.1790 -0.5342
11374TIP3   OH255536   3.449   5.295   1.105 -0.0003  0.6735 -0.0330
11374TIP3    H155537   3.538   5.285   1.071  0.1288  0.1558  0.4454
11374TIP3    H255538   3.460   5.348   1.184 -0.0132 -0.0915  0.4859
11375TIP3   OH255539   5.195   0.290  13.577  0.1810  0.0518 -0.2765
11375TIP3    H155540   5.225   0.305  13.666  2.2166  0.6082 -1.0079
11375TIP3    H255541   5.260   0.333  13.522 -0.6727 -0.8360 -2.0710
11376TIP3   OH255542   1.844   5.688   3.909  0.7316 -0.5326  0.3024
11376TIP3    H155543   1.850   5.747   3.984 -0.0946 -0.2199  0.1261
11376TIP3    H255544   1.819   5.604   3.947  1.3024 -0.6304  0.4805
11377TIP3   OH255545   2.422   6.638  13.677  0.3143  0.2640  0.3149
11377TIP3    H155546   2.423   6.732  13.697  0.9428  0.4774 -0.6781
11377TIP3    H255547   2.355   6.629  13.609  1.7619  0.3550 -1.1799
11378TIP3   OH255548   5.634   4.835  14.101 -0.2149  0.6352  0.5568
11378TIP3    H155549   5.706   4.789  14.144  3.3216  2.3351 -2.8912
11378TIP3    H255550   5.627   4.917  14.150 -0.1231  0.2752  1.1856
11379TIP3   OH255551   1.547   3.284  16.143 -0.1531  0.0820  0.0308
11379TIP3    H155552   1.551   3.377  16.168  1.0870 -0.5417  2.4868
11379TIP3    H255553   1.503   3.242  16.217  0.6754 -1.4896 -0.3493
11380TIP3   OH255554   2.829   3.828   3.007  0.0511 -0.5784  0.0021
11380TIP3    H155555   2.744   3.785   3.015  0.0318 -0.6433 -0.4987
11380TIP3    H255556   2.881   3.793   3.079 -0.9581  0.9371  1.5647
11381TIP3   OH255557   1.989   1.164  15.346  0.2247 -0.2266 -0.6711
11381TIP3    H155558   1.976   1.076  15.381 -0.4636 -0.0236 -0.4038
11381TIP3    H255559   1.978   1.154  15.251  1.6436 -0.6919 -0.8101
11382TIP3   OH255560   4.624   6.121   6.715 -0.2200  0.4255 -0.2316
11382TIP3    H155561   4.586   6.106   6.628  1.0380  1.1639 -0.9394
11382TIP3    H255562   4.631   6.034   6.754 -1.8153  0.1880 -0.4044
11383TIP3   OH255563   5.973   6.173  11.793  1.0603 -0.1363 -0.2664
11383TIP3    H155564   5.975   6.259  11.752 -1.1436  0.0584 -0.0951
11383TIP3    H255565   6.035   6.121  11.742 -0.2169  0.5953 -2.7329
11384TIP3   OH255566   1.559   3.290   4.834 -0.2263 -0.0141  0.1373
11384TIP3    H155567   1.572   3.297   4.929 -0.8103 -0.1519  0.2274
11384TIP3    H255568   1.581   3.199   4.813 -1.2318 -0.3074  0.3235
11385TIP3   OH255569   5.299   1.612   2.515 -0.0235  0.1096 -0.7492
11385TIP3    H155570   5.321   1.522   2.540  1.6079  0.9762  1.3078
11385TIP3    H255571   5.365   1.637   2.451  1.9179  0.9671  1.4514
11386TIP3   OH255572   1.294   3.605   1.834 -0.2610  0.0613 -0.1557
11386TIP3    H155573   1.202   3.594   1.812 -0.0144 -0.0740 -1.1765
11386TIP3    H255574   1.302   3.571   1.923 -1.1563 -0.1045 -0.1325
11387TIP3   OH255575   4.585   5.794  16.848 -0.1483  0.1042 -0.1904
11387TIP3    H155576   4.636   5.714  16.843  2.7113  1.6461  1.6790
11387TIP3    H255577   4.614   5.846  16.773  1.2199  1.0033  0.9028
11388TIP3   OH255578   5.362   2.005  15.714  0.1036  0.2573  0.3219
11388TIP3    H155579   5.286   1.992  15.770  0.8282  3.0386  2.1548
11388TIP3    H255580   5.329   2.056  15.640  0.0666  0.9712  0.8249
11389TIP3   OH255581   0.176   5.533  16.983  0.9100 -0.2771 -0.4240
11389TIP3    H155582   0.105   5.470  16.998 -1.5675  2.6467  1.0749
11389TIP3    H255583   0.224   5.496  16.908 -1.4793 -2.9892 -0.8238
11390TIP3   OH255584   1.073   6.396  15.264  0.2635  0.4190 -0.3887
11390TIP3    H155585   1.122   6.396  15.181  2.5107 -1.4146  0.8078
11390TIP3    H255586   1.077   6.306  15.294 -2.8013  0.4730  0.5212
11391TIP3   OH255587   2.220   3.030  14.201 -0.0923 -0.1532 -0.3405
11391TIP3    H155588   2.199   3.085  14.276  0.7640  1.9810 -1.5794
11391TIP3    H255589   2.209   3.087  14.125 -0.0989 -1.9833 -1.7984
11392TIP3   OH255590   0.141   4.152  16.568 -0.3844 -0.3236  0.0459
11392TIP3    H155591   0.201   4.115  16.633  0.5583  1.0645 -0.0109
11392TIP3    H255592   0.194   4.165  16.490  0.0053  3.2714  0.7431
11393TIP3   OH255593   4.625   3.433  12.505 -0.5716 -0.0100  0.1638
11393TIP3    H155594   4.554   3.496  12.494  0.6397  1.4076  0.1672
11393TIP3    H255595   4.621   3.407  12.597 -2.5731 -1.8470 -0.3687
11394TIP3   OH255596   4.867   5.380  13.443 -0.0589  0.2261  0.8874
11394TIP3    H155597   4.812   5.348  13.514  0.1272  0.6501  1.2246
11394TIP3    H255598   4.860   5.313  13.375 -0.3999 -0.0807  1.2237
11395TIP3   OH255599   5.653   1.375  13.332 -0.1695 -0.0446  0.3511
11395TIP3    H155600   5.631   1.344  13.420 -0.2066 -0.8663  0.0571
11395TIP3    H255601   5.689   1.463  13.347 -0.4687 -0.0430  1.1533
11396TIP3   OH255602   3.565   1.917   5.241 -0.1395  0.0668  0.1529
11396TIP3    H155603   3.661   1.921   5.237 -0.1268 -1.0729 -1.3993
11396TIP3    H255604   3.538   2.008   5.255  1.1085  0.7480 -1.5251
11397TIP3   OH255605   0.877   5.632   0.975 -0.1141 -0.0057 -0.3616
11397TIP3    H155606   0.884   5.727   0.986 -0.4773 -0.0365  0.1497
11397TIP3    H255607   0.783   5.616   0.966 -0.1508 -0.4341  0.6936
11398TIP3   OH255608   4.644   0.815  13.610  0.2369 -0.4124 -0.2712
11398TIP3    H155609   4.678   0.881  13.550  1.8016 -2.3967 -1.7055
11398TIP3    H255610   4.683   0.837  13.694  1.1524  0.1960 -0.8427
11399TIP3   OH255611   0.019   1.008  11.716  0.0933 -0.0906 -0.0246
11399TIP3    H155612  -0.009   1.093  11.682 -0.6412 -0.5884 -0.6990
11399TIP3    H255613   0.101   0.990  11.670 -1.4570 -1.2862 -2.5416
11400TIP3   OH255614   2.762   2.850  11.912  0.3801 -0.0188  0.5574
11400TIP3    H155615   2.799   2.867  11.999  0.0880 -2.5619  1.2576
11400TIP3    H255616   2.814   2.777  11.877 -0.4954 -0.0496 -0.7480
11401TIP3   OH255617   3.974   6.055   2.164 -0.3172 -0.6611  0.4855
11401TIP3    H155618   3.994   6.107   2.086 -0.5374 -0.3890  0.6079
11401TIP3    H255619   3.908   6.106   2.210 -1.0176 -1.3569  0.2783
11402TIP3   OH255620   1.141   5.402  13.273 -0.4410 -0.2536  0.1452
11402TIP3    H155621   1.172   5.485  13.237  0.8433 -0.7569  0.0324
11402TIP3    H255622   1.069   5.376  13.216  1.3604 -0.8842 -1.9821
11403TIP3   OH255623   5.412   4.673   3.475 -0.3538  0.1666 -0.0543
11403TIP3    H155624   5.337   4.637   3.523  0.1968  0.1345  0.8084
11403TIP3    H255625   5.456   4.596   3.438  0.4453 -0.0356  1.2330
11404TIP3   OH255626   5.783   1.774  11.586  0.9330  0.2603  0.0560
11404TIP3    H155627   5.782   1.838  11.515  0.1600  0.7213  0.4776
11404TIP3    H255628   5.691   1.761  11.609  1.1726  0.2406  1.0805
11405TIP3   OH255629   6.584   0.730  10.911 -0.8704  0.8283 -0.4187
11405TIP3    H155630   6.550   0.644  10.933 -1.3550  0.5410 -2.1509
11405TIP3    H255631   6.636   0.756  10.987  0.1941 -1.4490 -0.3000
11406TIP3   OH255632   3.583   3.228   5.184 -0.4466  0.1945 -0.0492
11406TIP3    H155633   3.539   3.227   5.269 -0.0569 -2.9243  0.2328
11406TIP3    H255634   3.676   3.233   5.206 -0.3951  1.3983 -0.4373
11407TIP3   OH255635   0.168   1.948  13.878  0.1843  0.2580  0.3621
11407TIP3    H155636   0.169   2.021  13.940  0.4057 -0.5120  1.2829
11407TIP3    H255637   0.212   1.982  13.801  0.3008  1.0954  0.7865
11408TIP3   OH255638   2.300   0.436   2.707 -0.2885  0.4444  0.1522
11408TIP3    H155639   2.368   0.425   2.774 -1.8294 -2.4794  1.4624
11408TIP3    H255640   2.334   0.503   2.649  2.5593  0.9101  2.1247
11409TIP3   OH255641   0.701   6.794   2.480  0.3391 -0.3378  0.1967
11409TIP3    H155642   0.674   6.881   2.509 -0.7900 -0.4491 -0.4558
11409TIP3    H255643   0.748   6.810   2.398  0.8662 -0.2821  0.5045
11410TIP3   OH255644   6.268   6.518  13.558  0.2378 -0.2082  0.4294
11410TIP3    H155645   6.176   6.498  13.579  0.2700 -0.9378 -0.0959
11410TIP3    H255646   6.317   6.488  13.635 -0.0235  1.0002  1.1079
11411TIP3   OH255647   2.789   2.666  16.034 -0.2725  0.1305  0.0931
11411TIP3    H155648   2.836   2.730  16.087  0.3036 -0.0769 -0.1573
11411TIP3    H255649   2.710   2.711  16.006  0.4467  0.9831 -0.6542
11412TIP3   OH255650   6.642   4.051   4.688 -0.1795 -0.0024 -0.1908
11412TIP3    H155651   6.568   4.072   4.746  0.6863  1.0379  0.5982
11412TIP3    H255652   6.628   3.960   4.662 -1.7434  0.1931 -0.0798
11413TIP3   OH255653   1.692   0.358   0.536  0.4132  0.0368 -0.4425
11413TIP3    H155654   1.738   0.427   0.489  2.4792 -0.7668  0.2746
11413TIP3    H255655   1.708   0.377   0.629  0.1769 -0.8286 -0.2114
11414TIP3   OH255656   3.209   6.409   3.598 -0.0809  0.4401  0.1356
11414TIP3    H155657   3.230   6.468   3.526  1.1473 -1.4201 -1.1400
11414TIP3    H255658   3.158   6.339   3.558  1.1711 -0.9664  0.8649
11415TIP3   OH255659   3.222   2.963   6.115 -0.1499 -0.3691  0.1029
11415TIP3    H155660   3.187   2.876   6.135 -0.6584 -0.6776 -1.8461
11415TIP3    H255661   3.254   2.996   6.198 -1.4784 -1.7402  1.2231
11416TIP3   OH255662   4.838   0.636  15.817  0.0760  0.0898  0.5050
11416TIP3    H155663   4.751   0.676  15.821 -0.1052  0.2824 -2.7959
11416TIP3    H255664   4.898   0.709  15.810  0.3014 -0.0903  0.5444
11417TIP3   OH255665   5.721   5.217   5.883 -0.2405  0.5990 -0.2161
11417TIP3    H155666   5.746   5.149   5.946  0.2792  1.6338  0.7190
11417TIP3    H255667   5.782   5.289   5.899 -0.3447  1.0420 -1.6534
11418TIP3   OH255668   4.821   0.178   3.611  0.3468 -0.7036  0.0886
11418TIP3    H155669   4.783   0.252   3.564  2.0274  0.2583  0.1373
11418TIP3    H255670   4.837   0.210   3.699  3.0441 -0.3029 -0.4299
11419TIP3   OH255671   4.721   6.387   3.995  0.6070  0.3144 -0.3002
11419TIP3    H155672   4.777   6.357   3.924  0.9958 -0.1371  0.1877
11419TIP3    H255673   4.724   6.316   4.060  2.1585  1.6951  1.2397
11420TIP3   OH255674   4.405   3.806   1.847  0.1170 -0.4964  0.4343
11420TIP3    H155675   4.327   3.825   1.899  0.7098 -0.7568  1.4520
11420TIP3    H255676   4.374   3.803   1.756 -0.8778  0.3164  0.7307
11421TIP3   OH255677   2.080   6.550   1.840 -0.2841 -0.4037 -0.2393
11421TIP3    H155678   2.049   6.571   1.928  2.7201 -1.7702  1.2916
11421TIP3    H255679   2.111   6.633   1.805 -1.5428  0.1594 -0.0730
11422TIP3   OH255680   2.026   4.933  11.596  0.0392  0.0395  0.1527
11422TIP3    H155681   1.976   5.012  11.613 -0.8772 -0.3224 -0.7686
11422TIP3    H255682   2.047   4.938  11.502  1.0620 -0.2014  0.3531
11423TIP3   OH255683   5.661   4.545   3.330 -0.2424 -0.3158 -0.1214
11423TIP3    H155684   5.690   4.636   3.324  0.7374 -0.6940 -1.8460
11423TIP3    H255685   5.644   4.531   3.423  0.4265  1.3752  0.2888
11424TIP3   OH255686   5.919   6.696  13.495 -0.3420 -0.0898  0.8252
11424TIP3    H155687   5.845   6.645  13.464  0.3384 -0.4518 -0.2337
11424TIP3    H255688   5.880   6.775  13.532 -1.3863 -1.2383  2.2960
11425TIP3   OH255689   2.517   1.802   2.218 -0.5973 -0.3404 -0.1869
11425TIP3    H155690   2.425   1.784   2.198 -0.1740 -0.0858 -2.8089
11425TIP3    H255691   2.515   1.848   2.302 -2.8309 -0.6323 -0.0135
11426TIP3   OH255692   3.936   4.384   4.379 -0.0520 -0.2651  0.3259
11426TIP3    H155693   4.022   4.423   4.364  0.3285 -0.4944  1.8111
11426TIP3    H255694   3.949   4.291   4.364 -0.6688 -0.0519 -1.9570
11427TIP3   OH255695   1.844   3.219  12.067  0.2894 -0.1635 -1.0073
11427TIP3    H155696   1.907   3.230  12.138 -2.2919 -0.2162  1.4181
11427TIP3    H255697   1.778   3.286  12.082 -1.4021 -1.4816 -2.1525
11428TIP3   OH255698   4.796   3.244  15.006  0.0520  0.4665 -0.2225
11428TIP3    H155699   4.878   3.288  14.986 -1.1433  2.1846 -1.5901
11428TIP3    H255700   4.780   3.186  14.931  0.6526 -0.9431  0.6830
11429TIP3   OH255701   5.650   0.344   2.439 -0.4413 -0.2246  0.2787
11429TIP3    H155702   5.663   0.393   2.358 -1.4567 -2.7790 -1.5651
11429TIP3    H255703   5.576   0.387   2.481 -0.7110  0.4153 -0.8012
11430TIP3   OH255704   2.463   4.400  13.005  0.6090  0.4073  0.2486
11430TIP3    H155705   2.437   4.353  13.084  1.5195 -0.1215  0.2507
11430TIP3    H255706   2.382   4.409  12.955  0.1858 -0.0294  0.8372
11431TIP3   OH255707   4.024   0.090   0.308 -0.2387 -0.2523  0.0444
11431TIP3    H155708   4.087   0.122   0.243 -3.7625  2.2050 -2.5802
11431TIP3    H255709   3.986   0.013   0.267 -0.5967 -0.2913  0.4499
11432TIP3   OH255710   1.112   4.662   5.039  0.4593  0.0357 -0.9353
11432TIP3    H155711   1.182   4.727   5.036  0.0779  0.4432 -1.2344
11432TIP3    H255712   1.046   4.701   5.097 -0.1690  0.3251 -1.8348
11433TIP3   OH255713   1.964   2.902   4.814  0.0370 -0.6236  0.2902
11433TIP3    H155714   2.030   2.970   4.796  0.0900 -1.1586 -1.8238
11433TIP3    H255715   1.983   2.833   4.750 -2.2457 -1.0177 -0.0359
11434TIP3   OH255716   1.268   0.795  12.512 -0.3778 -0.3496  0.1208
11434TIP3    H155717   1.252   0.792  12.606  0.4036  0.9776  0.3113
11434TIP3    H255718   1.211   0.727  12.476 -1.2453 -0.3671  1.4675
11435TIP3   OH255719   5.993   0.567  17.059 -0.5445  0.0069 -0.0246
11435TIP3    H155720   5.924   0.531  17.115  0.5452 -2.2220  0.0038
11435TIP3    H255721   6.059   0.498  17.055 -0.3318  0.2031 -3.6597
11436TIP3   OH255722   6.790   1.472   0.661  0.3697  0.9656 -0.2610
11436TIP3    H155723   6.697   1.453   0.652  0.2515  0.9608  0.7861
11436TIP3    H255724   6.799   1.505   0.751  1.6993 -0.9979  0.3973
11437TIP3   OH255725   1.058   4.271   2.166  0.2690 -0.6149 -0.6106
11437TIP3    H155726   1.107   4.343   2.127  1.3570 -0.8671  0.2625
11437TIP3    H255727   0.978   4.311   2.198  0.9410  0.2413  0.0246
11438TIP3   OH255728   0.146   0.951  10.591  0.5595  0.1496 -0.8934
11438TIP3    H155729   0.211   0.989  10.649  0.7948 -0.7149 -0.5695
11438TIP3    H255730   0.085   0.905  10.649  0.7567 -0.6604 -1.3031
11439TIP3   OH255731   4.374   2.276  17.141  0.8520  0.6880 -0.0558
11439TIP3    H155732   4.405   2.273  17.232  2.6834 -0.0254 -0.6607
11439TIP3    H255733   4.281   2.299  17.148  1.4541  2.9818  1.8939
11440TIP3   OH255734   0.785   0.213   4.216  0.0124  0.3469  0.1506
11440TIP3    H155735   0.749   0.295   4.182 -0.4199 -0.1265 -0.5566
11440TIP3    H255736   0.715   0.150   4.206 -0.1665  0.2011  2.0567
11441TIP3   OH255737   4.248   3.929  14.631  0.7042  0.3823 -0.2470
11441TIP3    H155738   4.313   3.932  14.702 -0.7836 -1.9252  1.3541
11441TIP3    H255739   4.263   3.844  14.589 -0.2076  0.5606 -0.9661
11442TIP3   OH255740   4.717   4.395  12.675 -0.2965 -0.0065  0.3055
11442TIP3    H155741   4.680   4.314  12.711 -1.1264 -1.1546 -2.8731
11442TIP3    H255742   4.641   4.450  12.657  0.1405  0.7633  0.7704
11443TIP3   OH255743   1.292   1.857  15.012  0.5101  0.0303  0.3981
11443TIP3    H155744   1.341   1.846  14.930 -0.4889 -0.8689 -0.1010
11443TIP3    H255745   1.212   1.806  14.999  0.1572  0.1967  1.7989
11444TIP3   OH255746   5.386   6.416  16.954  0.7881 -0.0413  0.4567
11444TIP3    H155747   5.309   6.427  16.899  0.8539  2.8560  0.7765
11444TIP3    H255748   5.364   6.344  17.013 -1.1294 -0.1482 -0.3425
11445TIP3   OH255749   2.348   0.740   5.595 -0.1958 -0.3242 -0.2862
11445TIP3    H155750   2.270   0.763   5.647  0.7306 -0.1876  1.0866
11445TIP3    H255751   2.367   0.820   5.545 -1.1345 -0.4817 -0.9443
11446TIP3   OH255752   5.527   3.965   4.325  0.4261 -0.1153  0.4811
11446TIP3    H155753   5.510   4.041   4.380 -2.9026 -1.5424  1.6745
11446TIP3    H255754   5.512   3.890   4.383  0.1328 -1.6828 -1.5226
11447TIP3   OH255755   2.292   3.695  11.572  0.1154 -0.2797  0.1121
11447TIP3    H155756   2.325   3.769  11.624 -0.2482 -0.1654  0.1803
11447TIP3    H255757   2.286   3.729  11.483  0.9945 -0.5544 -0.0638
11448TIP3   OH255758   5.821   4.592   5.222  0.2239  0.0806 -0.4962
11448TIP3    H155759   5.818   4.652   5.148 -0.0763 -0.5631 -1.0141
11448TIP3    H255760   5.740   4.609   5.270  0.2494  0.2421 -0.5073
11449TIP3   OH255761   4.475   0.990   3.663 -0.7129  0.2453  0.0649
11449TIP3    H155762   4.400   0.936   3.638 -0.8458  0.6292 -0.3586
11449TIP3    H255763   4.549   0.951   3.617 -0.7004  0.0496  0.2477
11450TIP3   OH255764   3.987   6.175   4.718 -0.0387 -0.4423  0.2757
11450TIP3    H155765   4.017   6.203   4.805  0.8526 -0.5686  0.0182
11450TIP3    H255766   4.059   6.123   4.684 -0.2997 -0.2206 -0.6310
11451TIP3   OH255767   0.504   1.456   1.322  0.1611  0.1614 -0.0367
11451TIP3    H155768   0.467   1.497   1.243  1.6139  1.4435 -0.0994
11451TIP3    H255769   0.450   1.489   1.394 -0.1939  0.2449 -0.3375
11452TIP3   OH255770   0.157   1.621  11.100 -0.4629  0.9352 -0.6061
11452TIP3    H155771   0.075   1.672  11.100 -0.5733  0.7636 -1.4585
11452TIP3    H255772   0.174   1.603  11.008  0.3708  0.6888 -0.4074
11453TIP3   OH255773   5.723   2.931   3.330 -0.3002 -0.0425 -0.4221
11453TIP3    H155774   5.744   2.892   3.245 -1.1638 -0.2502 -0.5459
11453TIP3    H255775   5.654   2.875   3.366 -0.6881  0.6531 -0.0579
11454TIP3   OH255776   5.003   2.718   2.402 -0.2596 -0.0449  0.2401
11454TIP3    H155777   4.932   2.759   2.451  1.7521  0.9160  2.5554
11454TIP3    H255778   5.042   2.790   2.352 -0.0867 -0.3045 -0.0033
11455TIP3   OH255779   2.942   0.741   0.128  0.0256 -0.1518 -0.0303
11455TIP3    H155780   2.944   0.735   0.033  1.5480  2.4005 -0.2451
11455TIP3    H255781   3.032   0.721   0.155 -0.5119 -1.3802  0.9640
11456TIP3   OH255782   3.278   5.036   4.950 -0.2277 -0.0246  0.5106
11456TIP3    H155783   3.246   4.987   5.027  0.2246 -0.2399  0.5682
11456TIP3    H255784   3.266   5.128   4.974 -1.1657 -0.0978  0.3695
11457TIP3   OH255785   3.800   5.445   5.499  0.4329  0.1724 -0.1250
11457TIP3    H155786   3.835   5.525   5.538 -1.8866  0.4148  1.6545
11457TIP3    H255787   3.861   5.376   5.525  1.8023  1.1517 -0.6630
11458TIP3   OH255788   3.949   2.645  14.609  0.3758 -0.8165  0.1762
11458TIP3    H155789   3.941   2.567  14.665 -1.5339 -0.7842  0.0160
11458TIP3    H255790   3.915   2.717  14.662  1.8450 -0.1223  0.2126
11459TIP3   OH255791   4.373   5.882   0.547 -0.1059  0.7974 -0.0418
11459TIP3    H155792   4.379   5.907   0.455 -2.3912 -0.8149 -0.7021
11459TIP3    H255793   4.305   5.938   0.583 -0.6881 -0.0014  0.1177
11460TIP3   OH255794   1.687   0.406   0.805  0.0855  0.7325 -0.4982
11460TIP3    H155795   1.719   0.495   0.797  1.1304  0.4608  0.4688
11460TIP3    H255796   1.608   0.413   0.858 -0.1186  1.1324 -0.8516
11461TIP3   OH255797   5.353   2.014   5.046 -0.1711 -0.1359 -0.3037
11461TIP3    H155798   5.265   2.050   5.061  0.6037  1.6194  0.2227
11461TIP3    H255799   5.410   2.091   5.043  1.6842 -1.3597  1.5322
11462TIP3   OH255800   0.878   3.789  13.825  0.0835 -0.0169 -0.2110
11462TIP3    H155801   0.937   3.822  13.893  1.5334 -0.9233 -0.9826
11462TIP3    H255802   0.846   3.706  13.858 -0.8118  0.4824  0.2153
11463TIP3   OH255803   2.571   0.045  11.752  0.1598 -0.0676  0.1693
11463TIP3    H155804   2.617  -0.033  11.723 -0.7160 -1.2396  1.8002
11463TIP3    H255805   2.634   0.091  11.808  0.4203  0.0216 -0.1937
11464TIP3   OH255806   3.331   0.679   2.560 -0.6118 -0.0263  0.3389
11464TIP3    H155807   3.270   0.614   2.524  0.2622 -0.2544 -0.8097
11464TIP3    H255808   3.370   0.720   2.483 -0.9837  1.7372  1.0527
11465TIP3   OH255809   0.320   5.257   1.934  0.1277 -0.0530 -0.0969
11465TIP3    H155810   0.325   5.317   1.860 -0.7310 -0.1299 -0.2216
11465TIP3    H255811   0.410   5.251   1.965  0.1871  1.5538  0.1268
11466TIP3   OH255812   3.074   6.339   5.689 -0.5756  0.2752 -0.1327
11466TIP3    H155813   3.128   6.358   5.766 -1.5119 -1.2523  0.9722
11466TIP3    H255814   3.071   6.422   5.640  0.3580  1.1776  1.2619
11467TIP3   OH255815   2.042   2.003   1.626 -0.4152 -0.0958 -0.0229
11467TIP3    H155816   2.117   1.981   1.571 -0.7006  0.6605 -0.7350
11467TIP3    H255817   2.042   2.099   1.629 -1.5333 -0.0718 -0.3060
11468TIP3   OH255818   2.675   2.813   4.343 -0.5861 -0.0924 -0.3919
11468TIP3    H155819   2.636   2.725   4.346  1.0971 -0.8463  1.2176
11468TIP3    H255820   2.765   2.798   4.314  0.3969  0.7846  2.0093
11469TIP3   OH255821   3.895   3.138  13.668 -0.4470  0.1957 -0.0974
11469TIP3    H155822   3.904   3.046  13.691  0.8792  0.4921  0.6543
11469TIP3    H255823   3.877   3.182  13.751 -0.4823  0.6896 -0.3612
11470TIP3   OH255824   1.986   5.378  14.378  0.0192 -0.3758  0.1868
11470TIP3    H155825   2.010   5.434  14.305  0.1288  1.0118  1.2571
11470TIP3    H255826   1.914   5.324  14.344 -0.2244  0.5451 -0.8025
11471TIP3   OH255827   5.664   2.017   5.181 -0.4680  0.2815 -0.1718
11471TIP3    H155828   5.606   2.077   5.134 -1.3826 -0.3094  0.1746
11471TIP3    H255829   5.607   1.945   5.207  0.9053 -1.5496 -1.9591
11472TIP3   OH255830   5.884   4.250   3.892 -0.0832 -0.7243 -0.2859
11472TIP3    H155831   5.873   4.246   3.796 -0.2160  0.9646 -0.3651
11472TIP3    H255832   5.810   4.201   3.926 -0.9053 -0.0506 -1.0451
11473TIP3   OH255833   4.010   1.560   2.565 -0.3143 -0.1662 -0.5182
11473TIP3    H155834   4.023   1.560   2.470 -1.1859 -1.3878 -0.6714
11473TIP3    H255835   3.926   1.604   2.578  1.5424  3.5627  0.0746
11474TIP3   OH255836   0.571   5.912  14.262  0.3779 -0.3715  0.3680
11474TIP3    H155837   0.515   5.963  14.321 -0.3934 -1.3582  0.5171
11474TIP3    H255838   0.533   5.824  14.263  1.1270 -0.7255 -0.6042
11475TIP3   OH255839   5.161   6.482   5.695 -0.6762 -0.1620 -0.1729
11475TIP3    H155840   5.208   6.533   5.629  1.4034 -1.1178  0.4839
11475TIP3    H255841   5.140   6.546   5.763  1.7398 -0.0492  0.5519
11476TIP3   OH255842   5.715   6.284   2.129 -0.0849  0.6025  0.2798
11476TIP3    H155843   5.748   6.351   2.069 -1.3704 -0.2423 -1.5009
11476TIP3    H255844   5.637   6.322   2.168  0.5920  1.0486  1.2052
11477TIP3   OH255845   5.793   4.289  17.157  0.3744 -0.3723 -0.1010
11477TIP3    H155846   5.860   4.332  17.105  0.2320 -1.0195 -0.8473
11477TIP3    H255847   5.723   4.269  17.095 -0.9317  1.0914  0.8207
11478TIP3   OH255848   5.616   4.208  13.304 -0.2712  0.3205  0.2430
11478TIP3    H155849   5.621   4.282  13.243  1.2289 -0.0698 -0.1396
11478TIP3    H255850   5.548   4.152  13.268  1.6749 -0.7361 -2.0909
11479TIP3   OH255851   0.441   2.835  11.598 -0.6939 -0.4846 -0.0657
11479TIP3    H155852   0.367   2.830  11.659 -0.5469  0.4659  0.2166
11479TIP3    H255853   0.487   2.752  11.608 -1.9820 -1.2845 -0.5935
11480TIP3   OH255854   2.371   4.998   4.859  0.4939  0.7867 -0.1351
11480TIP3    H155855   2.283   5.033   4.848 -0.3280 -0.9909  0.4395
11480TIP3    H255856   2.388   4.950   4.778  1.4143  2.0422 -0.7173
11481TIP3   OH255857   2.194   3.222  14.405 -0.2095 -0.0742 -0.2862
11481TIP3    H155858   2.286   3.244  14.419 -0.2907 -0.5682  1.2300
11481TIP3    H255859   2.146   3.293  14.446 -0.4726 -0.9283  0.9545
11482TIP3   OH255860   4.965   1.419  11.724  0.6990  0.3923 -0.0901
11482TIP3    H155861   4.962   1.339  11.672  0.9384 -0.1033  0.6427
11482TIP3    H255862   5.011   1.482  11.668  2.1854 -0.5340  0.0531
11483TIP3   OH255863   5.594   0.937   2.886  0.4416 -0.2526  0.4047
11483TIP3    H155864   5.636   0.855   2.914 -0.6008 -1.0771 -0.3642
11483TIP3    H255865   5.605   0.996   2.960 -0.7488 -1.8203  1.9179
11484TIP3   OH255866   1.351   1.056  16.815 -0.1984 -0.0365  0.7071
11484TIP3    H155867   1.370   1.144  16.848 -1.7656  0.4341  0.4308
11484TIP3    H255868   1.384   0.997  16.883  0.7682  0.7526  0.9424
11485TIP3   OH255869   3.428   6.786  14.787 -0.1991 -0.6163 -0.7239
11485TIP3    H155870   3.464   6.747  14.707 -0.2974  0.0179 -1.0818
11485TIP3    H255871   3.486   6.859  14.807 -0.7969 -0.0936 -0.8443
11486TIP3   OH255872   6.422   5.969  17.071  0.5378 -0.1901  0.3919
11486TIP3    H155873   6.428   5.999  17.162 -0.6611 -0.8529  0.7179
11486TIP3    H255874   6.367   5.891  17.076  2.6915 -1.8757 -0.5439
11487TIP3   OH255875   1.240   0.136   2.654  0.5355  0.4514  0.5102
11487TIP3    H155876   1.291   0.185   2.718  1.3652  1.4478 -0.8683
11487TIP3    H255877   1.304   0.104   2.591 -0.3052 -0.1158 -0.0807
11488TIP3   OH255878   0.070   6.362  12.054  0.5712 -0.5568 -0.8412
11488TIP3    H155879   0.080   6.449  12.015  1.5622  0.0101  0.5833
11488TIP3    H255880  -0.024   6.347  12.056  0.3973  0.3977 -1.2953
11489TIP3   OH255881   1.676   3.356  16.478  0.0342 -0.0221 -0.2789
11489TIP3    H155882   1.625   3.430  16.510  1.7728  0.7886  0.7614
11489TIP3    H255883   1.722   3.323  16.555  2.8126  0.7199 -1.4785
11490TIP3   OH255884   4.770   2.380  14.166  0.5150 -0.0060  0.2559
11490TIP3    H155885   4.848   2.400  14.217  0.6372 -0.5532  0.2965
11490TIP3    H255886   4.706   2.445  14.193  0.8890  0.3129  0.3843
11491TIP3   OH255887   2.443   5.204   1.634  0.0889  0.2936  0.5554
11491TIP3    H155888   2.398   5.235   1.555 -1.2732  0.5915  1.4126
11491TIP3    H255889   2.434   5.108   1.630 -0.0099  0.3109  0.3681
11492TIP3   OH255890   3.351   1.458  10.656  0.4727  0.0355  0.1783
11492TIP3    H155891   3.380   1.529  10.599  0.7196  0.4452  0.8103
11492TIP3    H255892   3.267   1.489  10.692  1.2285  0.6187  1.5164
11493TIP3   OH255893   1.168   6.702  16.921  0.0700  0.2305  0.0519
11493TIP3    H155894   1.258   6.688  16.950 -0.4633 -1.4493  0.9831
11493TIP3    H255895   1.152   6.795  16.939  1.5603  0.5325 -0.0340
11494TIP3   OH255896   3.618   4.337  15.550  0.1479 -0.1631  0.0772
11494TIP3    H155897   3.598   4.313  15.459  1.9084  0.2194 -0.4556
11494TIP3    H255898   3.707   4.371  15.546 -0.3081  1.3725  1.6938
11495TIP3   OH255899   0.805   1.145   1.722 -0.6675  0.1317  0.0544
11495TIP3    H155900   0.879   1.140   1.781 -1.4610  1.9449  1.2788
11495TIP3    H255901   0.755   1.221   1.751 -4.4066 -2.3704  0.9538
11496TIP3   OH255902   3.119   4.028  12.993 -0.3955 -0.6424 -0.2928
11496TIP3    H155903   3.207   4.012  13.026 -0.1876  1.0118  0.0538
11496TIP3    H255904   3.109   4.124  12.995 -2.7321 -0.8206  1.1207
11497TIP3   OH255905   5.477   3.395  16.978 -0.5167 -0.3502 -0.2006
11497TIP3    H155906   5.524   3.477  16.992 -0.1345 -0.4026 -1.0887
11497TIP3    H255907   5.500   3.341  17.054 -0.2963  0.1504  0.0940
11498TIP3   OH255908   3.421   1.208  15.087  0.0992  0.1649 -0.6914
11498TIP3    H155909   3.413   1.133  15.028  0.1787  0.3314 -0.9139
11498TIP3    H255910   3.505   1.195  15.132 -0.0419 -0.0533 -0.4827
11499TIP3   OH255911   1.037   0.436  14.307  0.1224 -0.4273  0.1730
11499TIP3    H155912   1.041   0.454  14.401 -2.6725 -2.7454  0.8866
11499TIP3    H255913   0.946   0.455  14.283  0.7389 -0.0161 -2.0780
11500TIP3   OH255914   2.150   1.059   5.910  0.1673 -0.1855 -0.5853
11500TIP3    H155915   2.128   1.071   5.818 -0.5067  0.0583 -0.4017
11500TIP3    H255916   2.197   0.976   5.913  3.1007  1.2771 -1.6113
11501TIP3   OH255917   2.010   4.130   5.552  0.3862  0.2314 -0.4078
11501TIP3    H155918   1.934   4.188   5.543  0.4563  0.2559 -0.8922
11501TIP3    H255919   2.030   4.104   5.462  1.4523  0.8654 -0.3718
11502TIP3   OH255920   0.678   5.363  12.681 -0.2816  0.8686  0.6887
11502TIP3    H155921   0.588   5.383  12.653 -0.2428  2.5381  1.6432
11502TIP3    H255922   0.699   5.432  12.744  1.1396 -0.3576  1.6236
11503TIP3   OH255923   3.645   6.367  12.392  0.4469 -0.0895  0.2047
11503TIP3    H155924   3.737   6.342  12.386 -0.0302 -1.8289 -0.5048
11503TIP3    H255925   3.602   6.291  12.433 -0.4411  1.3804  2.1830
11504TIP3   OH255926   5.967   2.004  14.041  0.0143 -0.5009 -0.3205
11504TIP3    H155927   6.053   2.003  14.084  0.7412 -1.3883 -1.7058
11504TIP3    H255928   5.982   1.960  13.957 -1.8237 -0.7322 -0.5675
11505TIP3   OH255929   2.360   1.031   3.897 -0.7670 -0.2534  0.3250
11505TIP3    H155930   2.405   1.078   3.827 -1.4409  1.1123  0.7545
11505TIP3    H255931   2.270   1.062   3.892 -0.8915 -0.3440  1.6083
11506TIP3   OH255932   3.106   2.958   4.453  0.2816 -0.3149  0.2503
11506TIP3    H155933   3.199   2.948   4.433  0.1198  0.4697 -1.0148
11506TIP3    H255934   3.103   2.977   4.547  1.3969 -0.2850  0.2896
11507TIP3   OH255935   4.559   4.992   3.626  0.1643 -0.5581  0.1717
11507TIP3    H155936   4.615   4.984   3.549  0.8992  0.5787  0.5669
11507TIP3    H255937   4.616   4.970   3.700  0.3615  1.4142  0.6554
11508TIP3   OH255938   5.380   5.058   3.988 -0.1584 -0.2055 -0.4516
11508TIP3    H155939   5.434   4.989   3.948 -0.3556  0.1641 -1.3760
11508TIP3    H255940   5.443   5.123   4.020 -0.0456  0.2030 -1.4873
11509TIP3   OH255941   5.286   3.657  14.491  0.0422 -0.2539  0.0931
11509TIP3    H155942   5.233   3.728  14.454 -0.2796 -0.3623  0.3356
11509TIP3    H255943   5.274   3.666  14.586 -1.1699 -1.5102  0.0855
11510TIP3   OH255944   6.416   4.813   4.015 -0.0480 -0.7508  0.3461
11510TIP3    H155945   6.405   4.821   3.920  1.9734 -0.0096  0.1243
11510TIP3    H255946   6.510   4.820   4.028 -0.4372  1.6290  2.6214
11511TIP3   OH255947   1.340   4.639  11.644 -0.1474 -0.5487 -0.0874
11511TIP3    H155948   1.271   4.699  11.616  1.3444  1.5649  0.4975
11511TIP3    H255949   1.332   4.564  11.585 -3.8438 -1.1487  0.9132
11512TIP3   OH255950   4.077   3.245  10.320  0.6786  0.4966  0.1756
11512TIP3    H155951   4.111   3.290  10.243  0.1856 -0.5262 -0.6655
11512TIP3    H255952   4.124   3.162  10.323  1.3292  0.8733  1.5097
11513TIP3   OH255953   3.896   4.594   5.939 -0.2925 -0.3800 -0.4143
11513TIP3    H155954   3.890   4.680   5.897  2.1408  0.1497  0.1554
11513TIP3    H255955   3.972   4.553   5.899  0.8643 -0.7047  1.9291
11514TIP3   OH255956   6.799   5.524   5.400  0.7797  0.0443  0.0549
11514TIP3    H155957   6.712   5.484   5.405  0.5027  0.7263  1.2075
11514TIP3    H255958   6.801   5.586   5.473  1.7848  0.9460 -0.6954
11515TIP3   OH255959   1.354   1.831   3.211 -0.1693 -0.0979 -0.0328
11515TIP3    H155960   1.348   1.801   3.121  0.6167  1.0014 -0.4674
11515TIP3    H255961   1.336   1.752   3.264 -1.2338 -0.6191 -1.1249
11516TIP3   OH255962   3.478   0.025  15.585  0.1762  0.3158  0.4205
11516TIP3    H155963   3.572   0.035  15.600  1.1688 -1.7462 -3.2051
11516TIP3    H255964   3.446   0.114  15.572  2.4634  0.8909 -1.9359
11517TIP3   OH255965   6.180   6.351   5.252 -0.4680 -0.1010  0.1805
11517TIP3    H155966   6.173   6.426   5.311 -0.6279  0.2237 -0.2431
11517TIP3    H255967   6.264   6.311   5.273 -0.9470 -0.5483  1.2810
11518TIP3   OH255968   4.461   2.693   6.437 -0.5735 -0.1116  0.5165
11518TIP3    H155969   4.472   2.638   6.514 -1.6054 -0.1634  0.6379
11518TIP3    H255970   4.383   2.746   6.455 -0.1285  0.7515  0.0191
11519TIP3   OH255971   5.615   4.801  10.906  0.0178  0.3505  0.2749
11519TIP3    H155972   5.609   4.748  10.827 -1.2824  0.9447 -0.0596
11519TIP3    H255973   5.535   4.779  10.955 -0.2800  1.6017  0.3755
11520TIP3   OH255974   4.590   5.283   2.547  0.2178  0.6699  0.1922
11520TIP3    H155975   4.639   5.362   2.573 -0.2882  1.0218  0.1020
11520TIP3    H255976   4.559   5.247   2.630 -1.3299  1.7494  0.1326
11521TIP3   OH255977   3.860   2.767  15.715 -0.0208 -1.3262 -0.3081
11521TIP3    H155978   3.872   2.853  15.673  1.1522 -0.7803  1.0746
11521TIP3    H255979   3.824   2.712  15.645 -2.5560  0.7156 -0.7971
11522TIP3   OH255980   5.699   0.064  14.141 -0.0642  0.2952 -0.5533
11522TIP3    H155981   5.678   0.084  14.232  1.1655 -1.5277  0.1908
11522TIP3    H255982   5.794   0.061  14.138 -0.0833 -2.2791 -1.2152
11523TIP3   OH255983   2.354   3.186   2.370  0.3238 -0.1012  0.0831
11523TIP3    H155984   2.412   3.129   2.320  0.9509 -1.9633  2.6878
11523TIP3    H255985   2.268   3.174   2.331  1.2176  1.0021 -2.4535
11524TIP3   OH255986   2.042   2.370  14.716 -0.0751  0.0149 -0.8062
11524TIP3    H155987   2.048   2.274  14.722  0.8655  0.0783 -0.6471
11524TIP3    H255988   2.071   2.401  14.801 -0.6269  0.4442 -0.7675
11525TIP3   OH255989   5.473   5.463  13.482  0.1727 -0.0416 -0.1149
11525TIP3    H155990   5.454   5.386  13.427  0.3906  0.1486 -0.4563
11525TIP3    H255991   5.450   5.538  13.426 -1.0096  0.1336  0.5661
11526TIP3   OH255992   4.253   3.249   4.026  0.2721  0.3947 -0.5530
11526TIP3    H155993   4.278   3.175   3.971  2.3965 -1.2928  2.3685
11526TIP3    H255994   4.319   3.315   4.008 -0.8383  1.1166 -2.1755
11527TIP3   OH255995   6.406   5.107   2.282  0.1628  0.9725 -1.0786
11527TIP3    H155996   6.344   5.147   2.221 -0.3635  1.7893 -0.0286
11527TIP3    H255997   6.376   5.135   2.368  1.2698  0.3517 -0.4787
11528TIP3   OH255998   0.804   4.753   0.340 -0.2215  0.7284  0.5092
11528TIP3    H155999   0.717   4.793   0.350 -0.1140  0.6852  1.7955
11528TIP3    H256000   0.852   4.814   0.283 -0.4740  1.7765  1.3757
11529TIP3   OH256001   5.446   2.640  13.196 -0.2181 -0.7280 -0.2119
11529TIP3    H156002   5.401   2.723  13.179 -0.0316 -0.5992 -0.0844
11529TIP3    H256003   5.502   2.628  13.119  1.6744  0.5596  0.8847
11530TIP3   OH256004   3.575   4.536  13.399  0.2611  0.1349  0.3108
11530TIP3    H156005   3.647   4.586  13.361  0.8593  0.3541  1.6772
11530TIP3    H256006   3.558   4.580  13.482 -2.1200  0.7020 -0.3883
11531TIP3   OH256007   0.060   6.720  15.685 -0.3357  0.6525 -0.1237
11531TIP3    H156008   0.044   6.753  15.597 -1.5156  2.3508  0.6746
11531TIP3    H256009   0.109   6.790  15.728 -0.7872  0.3421  0.9164
11532TIP3   OH256010   6.012   3.804   0.810 -0.5216  0.4772 -0.7144
11532TIP3    H156011   6.054   3.888   0.826  1.0200 -0.2224 -0.9648
11532TIP3    H256012   5.990   3.806   0.716 -1.2661  0.9217 -0.5398
11533TIP3   OH256013   1.355   3.588  13.081  0.3329 -0.4548  0.3068
11533TIP3    H156014   1.346   3.506  13.031 -0.8359 -1.5733  2.2396
11533TIP3    H256015   1.430   3.572  13.138  0.4225  0.0490  0.3309
11534TIP3   OH256016   5.082   2.958  13.082  0.1481 -0.0410 -0.5045
11534TIP3    H156017   5.011   2.997  13.031  0.3456 -0.0462 -0.7875
11534TIP3    H256018   5.146   2.930  13.016 -0.0618 -0.9899 -0.3164
11535TIP3   OH256019   6.657   3.327  13.772 -0.3237  0.2181 -0.1516
11535TIP3    H156020   6.735   3.376  13.798 -0.5452 -0.2090  1.3769
11535TIP3    H256021   6.618   3.380  13.702 -0.0259  1.7253  0.7701
11536TIP3   OH256022   3.645   0.273  15.079 -0.7225 -0.5161 -0.2142
11536TIP3    H156023   3.660   0.368  15.077  0.6179 -0.6243  1.7869
11536TIP3    H256024   3.719   0.236  15.031 -2.1536 -0.5629 -2.5575
11537TIP3   OH256025   0.699   5.951  16.623  0.5797  0.3327 -0.4463
11537TIP3    H156026   0.793   5.951  16.607  0.2693  0.9576 -2.4961
11537TIP3    H256027   0.681   6.036  16.662  0.5955  1.1171 -2.0711
11538TIP3   OH256028   2.463   1.231   5.665  0.3845 -0.5083 -0.1483
11538TIP3    H156029   2.505   1.195   5.744  2.7933  0.6611 -0.7842
11538TIP3    H256030   2.478   1.326   5.672  0.1271 -0.3374 -1.7217
11539TIP3   OH256031   5.847   2.360   2.721 -0.4620 -0.5090 -0.1508
11539TIP3    H156032   5.780   2.400   2.667 -0.6650 -1.5881 -0.7243
11539TIP3    H256033   5.852   2.269   2.691 -1.6998 -1.6300  2.6818
11540TIP3   OH256034   0.919   5.721   0.321 -0.2456 -0.3889 -0.1002
11540TIP3    H156035   0.919   5.812   0.293  0.5567 -0.6026 -0.8450
11540TIP3    H256036   0.827   5.699   0.333 -0.4612  0.4206 -0.2446
11541TIP3   OH256037   3.412   1.052  17.046  0.0137  0.2951 -0.1583
11541TIP3    H156038   3.396   1.059  17.140  1.5849  0.1641  0.1433
11541TIP3    H256039   3.504   1.076  17.035 -0.2224  0.6439 -1.7139
11542TIP3   OH256040   2.509   4.738  13.905 -0.0880 -0.4785 -0.5296
11542TIP3    H156041   2.428   4.785  13.886 -0.3914 -1.1616 -0.9945
11542TIP3    H256042   2.567   4.759  13.832  0.1413 -0.0397 -0.2282
11543TIP3   OH256043   3.916   0.137   3.302 -0.2545  0.0482  0.0198
11543TIP3    H156044   3.839   0.155   3.249  0.2742  0.4055 -0.6358
11543TIP3    H256045   3.961   0.221   3.309 -0.0025 -0.1272  0.5235
11544TIP3   OH256046   2.222   4.185  12.106 -0.4287  0.0358  0.4592
11544TIP3    H156047   2.280   4.246  12.060 -0.6866 -0.7656 -1.0256
11544TIP3    H256048   2.249   4.191  12.198  1.7503  0.0021 -0.1017
11545TIP3   OH256049   2.022   2.829  16.556 -0.3195 -0.4385 -0.1397
11545TIP3    H156050   2.103   2.858  16.599  0.1524 -3.8509  1.6377
11545TIP3    H256051   1.954   2.885  16.593  0.8602  0.6775  0.4497
11546TIP3   OH256052   3.980   3.703   0.561  0.8776 -0.1078 -0.2658
11546TIP3    H156053   3.901   3.742   0.597  0.0201 -1.6954 -0.3445
11546TIP3    H256054   4.021   3.659   0.635  0.5304 -1.1029 -0.6473
11547TIP3   OH256055   2.205   6.649  13.115 -0.4351  0.5994 -0.5423
11547TIP3    H156056   2.121   6.604  13.113 -1.3273  2.1728  0.3971
11547TIP3    H256057   2.234   6.643  13.206 -0.5261  1.8116 -0.4172
11548TIP3   OH256058   3.536   3.467  16.874  0.1199  0.2197  0.4386
11548TIP3    H156059   3.587   3.387  16.890  0.9716  0.5881 -0.3434
11548TIP3    H256060   3.479   3.475  16.951  0.5450 -0.7352  0.8726
11549TIP3   OH256061   1.504   2.570   0.171  0.0247  0.0035 -0.2794
11549TIP3    H156062   1.584   2.615   0.145 -0.4853  1.0069 -0.1652
11549TIP3    H256063   1.506   2.487   0.123  1.7495 -0.5692  0.7106
11550TIP3   OH256064   6.127   4.584  13.204 -0.0416  0.1588  0.4399
11550TIP3    H156065   6.183   4.599  13.280 -0.4016 -1.2610  1.0296
11550TIP3    H256066   6.061   4.522  13.235 -1.2192  0.8718 -0.5737
11551TIP3   OH256067   2.630   1.099   4.351 -0.2539 -0.0353  0.1187
11551TIP3    H156068   2.542   1.105   4.314 -0.9178 -2.4926  1.0849
11551TIP3    H256069   2.688   1.089   4.275 -0.6972  2.0238 -0.5506
11552TIP3   OH256070   5.520   3.491  15.749 -0.1257  0.1039  0.5127
11552TIP3    H156071   5.600   3.446  15.775 -1.3184 -2.9163 -0.5330
11552TIP3    H256072   5.528   3.503  15.654 -1.4572 -1.6987  0.1071
11553TIP3   OH256073   5.595   3.889   6.254  0.1354  0.0764  0.2235
11553TIP3    H156074   5.635   3.868   6.169  0.1996 -0.5372  0.3988
11553TIP3    H256075   5.669   3.915   6.309  0.3700 -1.3882  0.6481
11554TIP3   OH256076   2.343   3.888  12.065  0.3295  0.1591  0.0790
11554TIP3    H156077   2.406   3.955  12.092  0.8906  0.6297 -2.2012
11554TIP3    H256078   2.259   3.923  12.093  0.8521  0.5225  1.2984
11555TIP3   OH256079   5.311   1.770   0.627 -0.2809 -0.7518  0.3105
11555TIP3    H156080   5.376   1.763   0.557 -1.6007 -0.6658 -0.9525
11555TIP3    H256081   5.351   1.831   0.690  1.0914 -1.1395 -0.1436
11556TIP3   OH256082   3.472   0.284   1.717 -0.1269  0.1128 -0.2897
11556TIP3    H156083   3.553   0.300   1.667  0.2694  0.0291  0.3184
11556TIP3    H256084   3.475   0.347   1.788 -0.1783 -0.4561  0.2205
11557TIP3   OH256085   1.302   6.334   6.715  0.1313 -0.1173 -0.0854
11557TIP3    H156086   1.380   6.352   6.767  0.1721  0.0298 -0.1957
11557TIP3    H256087   1.306   6.398   6.644  0.4564 -0.7810 -0.6754
11558TIP3   OH256088   0.913   4.066   4.892 -0.4903  0.2643  0.4590
11558TIP3    H156089   0.995   4.095   4.931  0.7194 -1.3896 -0.7585
11558TIP3    H256090   0.882   3.996   4.950 -1.2570  1.1178  1.1087
11559TIP3   OH256091   0.609   1.951   3.546 -0.0048  1.2403 -0.5395
11559TIP3    H156092   0.641   1.914   3.629 -2.4969 -1.7251 -0.7176
11559TIP3    H256093   0.671   1.921   3.480 -1.4557 -2.2618 -0.5383
11560TIP3   OH256094   1.435   3.376   2.168 -0.2396  0.3687 -0.1909
11560TIP3    H156095   1.493   3.326   2.226 -0.3346  0.7418  0.2290
11560TIP3    H256096   1.489   3.450   2.138  0.2374 -0.4966 -1.6164
11561TIP3   OH256097   2.039   1.666   5.121  0.2607 -0.2938  0.2548
11561TIP3    H156098   2.057   1.574   5.140  0.0842 -0.6630 -1.2628
11561TIP3    H256099   2.082   1.682   5.037 -0.6821  0.6862 -0.0642
11562TIP3   OH256100   0.424   6.485   1.026 -0.1017  0.6261  0.5922
11562TIP3    H156101   0.363   6.522   0.962  0.6813  1.5197  0.3400
11562TIP3    H256102   0.404   6.531   1.107  0.0851  0.7697  0.5583
11563TIP3   OH256103   2.617   0.439  14.638 -0.4005  0.0824  0.2372
11563TIP3    H156104   2.607   0.533  14.654 -0.5197 -0.0704  1.0712
11563TIP3    H256105   2.652   0.404  14.720  1.7552 -0.2788 -0.7528
11564TIP3   OH256106   0.658   4.744  13.389  0.0043 -0.0001  0.3178
11564TIP3    H156107   0.696   4.686  13.323 -1.4247  0.8065 -1.2998
11564TIP3    H256108   0.732   4.792  13.425  0.7715  0.0053 -1.1918
11565TIP3   OH256109   2.380   4.277   0.336 -0.2642  0.0833  0.2422
11565TIP3    H156110   2.418   4.215   0.274  0.1635  1.5259 -0.9948
11565TIP3    H256111   2.332   4.340   0.282 -0.2803  1.1144  1.4024
11566TIP3   OH256112   1.527   5.272  13.088 -0.2592  0.3131 -0.1093
11566TIP3    H156113   1.483   5.275  13.172  0.4659 -0.1901  0.2984
11566TIP3    H256114   1.589   5.200  13.095 -1.5448 -1.0455 -1.7529
11567TIP3   OH256115   6.797   2.677   5.230 -0.8485  0.0297 -0.1252
11567TIP3    H156116   6.784   2.682   5.325 -1.3727 -0.5996 -0.1477
11567TIP3    H256117   6.883   2.636   5.219 -0.6926  0.3030  0.0779
11568TIP3   OH256118   2.118   3.307  13.312 -0.1330 -0.5794 -0.4788
11568TIP3    H156119   2.038   3.359  13.310  1.5066  2.1798 -0.0137
11568TIP3    H256120   2.140   3.292  13.220 -1.6540 -2.2442 -0.6094
11569TIP3   OH256121   5.019   2.267   5.006  0.1303  0.0978 -0.0125
11569TIP3    H156122   4.953   2.329   5.038 -1.5308 -1.2596 -0.6316
11569TIP3    H256123   5.016   2.276   4.911  1.7940  0.9085 -0.0169
11570TIP3   OH256124   1.375   5.221  11.851 -0.0569  0.0764 -0.5032
11570TIP3    H156125   1.373   5.132  11.883 -0.1669  0.6169  1.0544
11570TIP3    H256126   1.461   5.230  11.809  0.9864 -0.0583  1.4953
11571TIP3   OH256127   0.755   4.644   3.389 -0.4050 -0.8265 -0.1557
11571TIP3    H156128   0.739   4.675   3.478  0.4649  0.8124 -0.5290
11571TIP3    H256129   0.761   4.549   3.397  1.4818 -0.6093  1.8697
11572TIP3   OH256130   1.961   3.631  15.289  0.3412  0.1263  0.2322
11572TIP3    H156131   2.034   3.588  15.243 -0.2629 -0.5358 -0.1310
11572TIP3    H256132   1.986   3.628  15.381  1.4278  1.1940 -0.0046
11573TIP3   OH256133   1.543   3.818   1.863  0.4614  0.4561 -0.3931
11573TIP3    H156134   1.459   3.775   1.880  0.9897 -1.5390 -2.3538
11573TIP3    H256135   1.532   3.861   1.779  1.5915 -0.5041 -1.0675
11574TIP3   OH256136   3.164   3.090   1.071 -0.0897  0.1332  0.0787
11574TIP3    H156137   3.202   3.167   1.113  0.8934  0.6934 -1.7152
11574TIP3    H256138   3.073   3.116   1.053 -1.3936 -1.0377  3.9410
11575TIP3   OH256139   2.866   5.402   3.920  0.0186 -0.2628  0.5613
11575TIP3    H156140   2.805   5.476   3.923  0.1971 -0.0622 -0.3524
11575TIP3    H256141   2.922   5.421   3.845 -0.7341 -1.9256 -0.4719
11576TIP3   OH256142   6.623   3.151  14.064  0.3849 -0.7019  0.9644
11576TIP3    H156143   6.559   3.092  14.024 -0.3937  0.0947  1.0059
11576TIP3    H256144   6.659   3.101  14.137 -0.0043 -1.2549  0.7851
11577TIP3   OH256145   4.049   1.768  12.696  0.1400  0.1590  0.0655
11577TIP3    H156146   4.116   1.792  12.633  0.8143 -2.5625 -0.3880
11577TIP3    H256147   4.086   1.791  12.781  1.2187 -0.3126 -0.2596
11578TIP3   OH256148   5.086   6.284  14.080  0.4400 -0.0098 -0.0089
11578TIP3    H156149   5.097   6.278  14.175 -1.0461  0.5066  0.2167
11578TIP3    H256150   5.028   6.211  14.058  0.8400 -0.1769 -0.5526
11579TIP3   OH256151   3.581   6.629  14.552  0.3516 -0.4295 -0.0194
11579TIP3    H156152   3.620   6.711  14.520 -2.0207  1.3458  1.3417
11579TIP3    H256153   3.594   6.567  14.481  0.8459  1.5704 -1.7685
11580TIP3   OH256154   0.411   4.461  15.498  0.1669  0.1142  0.3160
11580TIP3    H156155   0.395   4.401  15.572  1.4534 -0.9068 -0.1802
11580TIP3    H256156   0.418   4.547  15.538 -1.3263 -0.1007  1.1060
11581TIP3   OH256157   4.436   3.241  11.141  0.3465 -0.0600 -0.1183
11581TIP3    H156158   4.471   3.270  11.056 -1.0875  0.2830 -0.6233
11581TIP3    H256159   4.494   3.170  11.168  0.7155 -0.3103 -1.4883
11582TIP3   OH256160   4.259   0.044   3.700 -0.3368  0.4656  0.5291
11582TIP3    H156161   4.282  -0.048   3.690  1.6300  1.0796 -1.5179
11582TIP3    H256162   4.339   0.092   3.676 -2.1469  2.7175 -1.5891
11583TIP3   OH256163   0.792   1.931  16.086 -0.1971  0.3286 -0.7227
11583TIP3    H156164   0.845   2.010  16.078 -0.9634  0.7599 -1.8809
11583TIP3    H256165   0.832   1.870  16.025  0.0198  0.0264 -0.2824
11584TIP3   OH256166   5.902   3.675  12.801 -0.3299 -0.1270 -0.2654
11584TIP3    H156167   5.936   3.609  12.862 -0.2987 -1.8008 -2.0019
11584TIP3    H256168   5.831   3.717  12.849  0.3550 -0.6654  1.2907
11585TIP3   OH256169   0.407   4.586   3.666  0.0417  0.1055 -0.2295
11585TIP3    H156170   0.462   4.508   3.659  2.7198  1.8174  0.1152
11585TIP3    H256171   0.362   4.576   3.750 -0.1669 -1.3208 -0.4829
11586TIP3   OH256172   0.510   6.502  15.008 -0.6322  0.1407 -0.0670
11586TIP3    H156173   0.578   6.451  14.965 -0.2133 -0.1053  0.8645
11586TIP3    H256174   0.476   6.560  14.940  0.4664  0.2298 -0.5451
11587TIP3   OH256175   5.630   6.398  13.654  0.0282  0.5318  0.5326
11587TIP3    H156176   5.581   6.445  13.587  0.5295  0.7910  0.3477
11587TIP3    H256177   5.678   6.466  13.701  2.2281  0.0591 -0.9304
11588TIP3   OH256178   5.720   0.148  13.243 -0.2247 -0.1504 -0.1270
11588TIP3    H156179   5.669   0.216  13.199 -1.7314 -1.8774 -1.1707
11588TIP3    H256180   5.732   0.080  13.176  4.5061  0.5513 -0.3572
11589TIP3   OH256181   5.156   3.636  15.760  0.2447 -0.5192  0.1994
11589TIP3    H156182   5.135   3.557  15.809 -0.3762  0.0566  0.9009
11589TIP3    H256183   5.075   3.658  15.714 -0.3301  0.8905  1.7377
11590TIP3   OH256184   2.091   5.696  14.966 -0.1646  0.0011 -0.2573
11590TIP3    H156185   2.120   5.606  14.950 -1.0817 -0.9312  2.6998
11590TIP3    H256186   2.019   5.708  14.904  1.3661 -0.4312 -2.2383
11591TIP3   OH256187   3.710   1.719  15.516 -0.3020  0.3309 -0.2618
11591TIP3    H156188   3.705   1.811  15.539  1.4549  0.0331  1.6088
11591TIP3    H256189   3.625   1.683  15.539 -0.1966  1.0357  1.3512
11592TIP3   OH256190   6.511   5.283  12.273 -0.0693  0.2355 -0.6295
11592TIP3    H156191   6.538   5.268  12.364  1.3194  1.3710 -0.8110
11592TIP3    H256192   6.592   5.280  12.223 -0.8617 -0.7314 -1.9065
11593TIP3   OH256193   5.742   0.696   6.017  0.1213 -0.3941  0.0163
11593TIP3    H156194   5.772   0.650   6.095 -1.5930 -1.4262  0.1201
11593TIP3    H256195   5.725   0.785   6.047  2.3380  0.0441  0.0922
11594TIP3   OH256196   1.257   1.284   3.926  0.1816  0.3962 -0.1674
11594TIP3    H156197   1.216   1.369   3.908 -2.5187 -1.0418 -1.5052
11594TIP3    H256198   1.238   1.231   3.849 -0.9026 -2.3116  1.7705
11595TIP3   OH256199   5.288   5.595  13.901  0.2628  0.0403  0.0413
11595TIP3    H156200   5.231   5.652  13.851 -0.5385 -1.5369 -0.9067
11595TIP3    H256201   5.321   5.531  13.838 -0.5409 -1.8322  1.3952
11596TIP3   OH256202   0.166   2.025   5.206  0.1088 -1.1010 -0.2341
11596TIP3    H156203   0.226   2.094   5.234 -2.0833  0.1680  1.6530
11596TIP3    H256204   0.206   1.989   5.127  3.0835 -0.0511  0.6829
11597TIP3   OH256205   5.653   0.190   1.940  0.4898 -0.3000 -0.3369
11597TIP3    H156206   5.699   0.273   1.937 -1.4479  0.9947  2.2825
11597TIP3    H256207   5.717   0.127   1.974  1.1862  0.7703  0.3585
11598TIP3   OH256208   3.842   3.681  14.675 -0.1009  0.2154 -0.2887
11598TIP3    H156209   3.802   3.755  14.629  0.1317 -0.7687 -2.1488
11598TIP3    H256210   3.913   3.653  14.618 -0.0909 -1.3535  0.4488
11599TIP3   OH256211   2.488   2.125   4.794 -0.0089  0.0541 -0.3823
11599TIP3    H156212   2.542   2.195   4.831 -1.5386  2.0394 -1.6773
11599TIP3    H256213   2.409   2.125   4.848  0.6883 -2.0158  0.7520
11600TIP3   OH256214   1.096   3.447  15.418  0.5122 -0.2583 -0.6687
11600TIP3    H156215   1.144   3.529  15.423  1.0555 -0.5954 -0.1041
11600TIP3    H256216   1.074   3.427  15.509  1.3978 -1.3111 -0.6558
11601TIP3   OH256217   1.489   4.809   0.061  0.1929 -0.0559  0.0448
11601TIP3    H156218   1.521   4.759  -0.014 -0.3510  1.9595 -1.6283
11601TIP3    H256219   1.527   4.765   0.137 -0.2376 -2.9447 -1.2744
11602TIP3   OH256220   2.011   2.724   2.993  0.2652  0.7593  0.0168
11602TIP3    H156221   2.029   2.743   2.901  1.6884  0.3545  0.1787
11602TIP3    H256222   1.946   2.653   2.990 -0.0296  1.0461 -0.6602
11603TIP3   OH256223   4.138   3.101  12.074 -0.0413  0.2256 -0.0803
11603TIP3    H156224   4.231   3.096  12.096  0.2585 -0.9522 -1.4436
11603TIP3    H256225   4.126   3.187  12.036  0.6894  0.0715 -0.6701
11604TIP3   OH256226   1.809   2.183  14.124 -0.4412  0.0053  0.0205
11604TIP3    H156227   1.737   2.194  14.186 -1.6271  1.3795 -1.5126
11604TIP3    H256228   1.857   2.266  14.127  0.3710 -0.4520  0.1234
11605TIP3   OH256229   2.973   3.017  10.553 -0.1417  0.3357 -0.4558
11605TIP3    H156230   2.942   2.928  10.569  0.4116  0.4252  1.3635
11605TIP3    H256231   2.921   3.047  10.478 -1.7410 -0.8288  0.1158
11606TIP3   OH256232   5.654   5.053   2.286 -0.2976  0.3439 -0.0935
11606TIP3    H156233   5.568   5.044   2.327 -1.0238  0.5198 -1.5033
11606TIP3    H256234   5.674   4.966   2.252  0.7651 -0.0573  1.4229
11607TIP3   OH256235   2.768   4.771   1.383 -0.6231 -0.2949  0.1797
11607TIP3    H156236   2.858   4.783   1.415 -1.0510  1.7190  0.7875
11607TIP3    H256237   2.778   4.735   1.295  0.8745  1.5936 -0.4922
11608TIP3   OH256238   1.848   6.540  16.718  0.2907 -0.0753 -0.3440
11608TIP3    H156239   1.909   6.490  16.771  2.4923 -0.9542 -3.4559
11608TIP3    H256240   1.900   6.612  16.682 -1.0858  0.4771 -1.3445
11609TIP3   OH256241   2.506   2.018  12.001 -0.0935 -0.0754 -0.4329
11609TIP3    H156242   2.412   2.008  11.986 -0.0999  0.8306 -1.1191
11609TIP3    H256243   2.540   1.929  12.001 -0.7205 -0.3327 -1.8067
11610TIP3   OH256244   4.231   5.994  17.071  0.0389  0.4898 -0.0665
11610TIP3    H156245   4.314   6.015  17.115  1.0344 -0.6022 -1.3480
11610TIP3    H256246   4.250   5.917  17.019 -1.4698  0.9310 -1.3554
11611TIP3   OH256247   0.165   4.202   0.776 -0.2944  0.0424  0.4555
11611TIP3    H156248   0.095   4.264   0.756 -1.5704 -1.4120  0.2017
11611TIP3    H256249   0.150   4.178   0.868  3.0371  3.5456  2.1994
11612TIP3   OH256250   3.758   2.064   5.507  0.5010 -0.8283 -0.9578
11612TIP3    H156251   3.770   2.093   5.416  0.3716 -0.2291 -0.7855
11612TIP3    H256252   3.758   2.145   5.558  2.4510 -1.2677 -0.2051
11613TIP3   OH256253   1.080   0.257   4.993 -0.2293 -0.1536 -0.0384
11613TIP3    H156254   1.142   0.330   4.997  0.5285 -0.8200  2.8465
11613TIP3    H256255   0.996   0.298   4.971  0.7059  1.1211 -1.4339
11614TIP3   OH256256   1.936   5.394   4.186 -0.1624 -0.2716  0.9971
11614TIP3    H156257   2.013   5.394   4.128 -0.2997  2.2748  0.7237
11614TIP3    H256258   1.969   5.357   4.268  0.6214 -1.7621  0.0722
11615TIP3   OH256259   4.921   2.058  11.615 -0.0886  0.6298  0.3932
11615TIP3    H156260   4.898   2.146  11.645 -1.5120  0.3799  0.0916
11615TIP3    H256261   4.865   2.044  11.538  1.0591 -0.0426 -0.3504
11616TIP3   OH256262   3.727   4.595   4.120  0.2217 -0.1829 -0.4688
11616TIP3    H156263   3.650   4.647   4.096 -0.4254  0.1737  2.1569
11616TIP3    H256264   3.723   4.588   4.215  2.7984 -1.2082 -0.3690
11617TIP3   OH256265   5.464   1.895   0.003  0.4995  0.7766 -0.4177
11617TIP3    H156266   5.462   1.987   0.029  0.9467  0.6441  0.1068
11617TIP3    H256267   5.374   1.874  -0.021  0.5604  1.6143 -1.4740
11618TIP3   OH256268   3.838   2.739   2.400 -0.0382  0.2552 -0.1211
11618TIP3    H156269   3.857   2.832   2.401 -2.8488  0.9196  0.4584
11618TIP3    H256270   3.744   2.733   2.417 -0.1399 -2.6395 -1.0289
11619TIP3   OH256271   3.122   4.862   5.979 -0.0728 -0.0594 -0.5812
11619TIP3    H156272   3.104   4.940   6.031  0.1740  0.0026 -0.5868
11619TIP3    H256273   3.042   4.808   5.987 -0.5535  0.5426 -1.2149
11620TIP3   OH256274   3.452   4.332  14.847 -0.1342  0.5135  0.3398
11620TIP3    H156275   3.448   4.360  14.756 -1.9115  0.1678  0.2796
11620TIP3    H256276   3.545   4.340  14.870  0.4762 -0.0437 -1.6829
11621TIP3   OH256277   0.236   3.403  15.351  0.0465 -0.2283  0.5842
11621TIP3    H156278   0.253   3.313  15.380 -0.5379 -0.0933  1.4048
11621TIP3    H256279   0.141   3.405  15.337 -0.0027  0.3676  0.9837
11622TIP3   OH256280   0.296   5.230   6.092  0.7043  0.5585 -0.0361
11622TIP3    H156281   0.215   5.195   6.130 -0.1149  0.7399 -1.5461
11622TIP3    H256282   0.274   5.320   6.067  0.8469  0.1197 -1.9011
11623TIP3   OH256283   4.633   4.405   5.164  0.0408  0.1924  0.4202
11623TIP3    H156284   4.638   4.448   5.079  1.3253 -0.5297  0.1048
11623TIP3    H256285   4.632   4.311   5.144 -0.9509  0.0331  1.1594
11624TIP3   OH256286   3.037   5.719   5.105 -0.2124 -0.0464 -0.5060
11624TIP3    H156287   3.095   5.651   5.071 -1.4365 -0.4143 -1.9854
11624TIP3    H256288   3.036   5.786   5.036 -0.6725  0.4610 -0.0112
11625TIP3   OH256289   4.597   5.320  14.091 -1.0394 -0.4694 -0.0531
11625TIP3    H156290   4.579   5.339  14.183  0.5035 -0.9816  0.3691
11625TIP3    H256291   4.599   5.406  14.049 -1.0714 -0.1882  0.5125
11626TIP3   OH256292   2.767   1.567  16.440 -0.7144  0.0579 -0.4528
11626TIP3    H156293   2.812   1.651  16.438 -0.2933 -0.0912  1.3652
11626TIP3    H256294   2.678   1.587  16.411 -0.2314  0.8527 -1.4185
11627TIP3   OH256295   2.127   0.698   1.590  0.1920 -0.3989  0.4323
11627TIP3    H156296   2.081   0.783   1.589 -1.3224 -1.1626  1.2020
11627TIP3    H256297   2.177   0.698   1.509 -0.0709  1.0780  0.2269
11628TIP3   OH256298   0.275   4.807   1.557 -0.0703  0.5599 -0.6599
11628TIP3    H156299   0.258   4.822   1.650 -0.0940 -2.2005 -0.1499
11628TIP3    H256300   0.358   4.758   1.555  0.2528  1.0882 -2.1610
11629TIP3   OH256301   4.215   4.588  15.117  0.0292  0.0898 -0.5325
11629TIP3    H156302   4.129   4.612  15.150 -0.2991 -0.1364 -1.1939
11629TIP3    H256303   4.271   4.663  15.138 -0.2325  0.0750  0.2453
11630TIP3   OH256304   0.734   1.316  11.806  0.5301  0.0618  0.1647
11630TIP3    H156305   0.644   1.331  11.778  0.2467 -0.8119  0.5687
11630TIP3    H256306   0.757   1.230  11.771  0.4716 -0.6534  1.7883
11631TIP3   OH256307   6.680   5.217   3.268 -0.3693  0.3116 -0.0910
11631TIP3    H156308   6.592   5.246   3.292 -1.1633 -1.3235 -0.8815
11631TIP3    H256309   6.666   5.146   3.206  1.5013 -0.6208  0.4728
11632TIP3   OH256310   4.788   1.088   1.477 -0.2959 -0.4672  0.2540
11632TIP3    H156311   4.777   1.055   1.387  0.7349  0.5418 -0.2672
11632TIP3    H256312   4.873   1.056   1.505  0.9924  2.0698 -0.4720
11633TIP3   OH256313   0.672   3.032   3.243  0.2944  0.4027 -0.5765
11633TIP3    H156314   0.746   3.061   3.297 -0.2409  0.8426 -0.0642
11633TIP3    H256315   0.700   2.949   3.206  0.6844  0.1082  0.3615
11634TIP3   OH256316   3.454   6.616  14.279  0.6892 -0.2886 -0.1167
11634TIP3    H156317   3.474   6.698  14.233  2.0492  0.5927  1.8745
11634TIP3    H256318   3.524   6.556  14.253  0.3973 -0.4190 -0.6134
11635TIP3   OH256319   0.226   4.969   0.351 -0.3210  0.3072  0.4707
11635TIP3    H156320   0.201   5.061   0.361 -0.7378  0.0250  2.3370
11635TIP3    H256321   0.173   4.938   0.277  2.3220  2.3599 -2.5318
11636TIP3   OH256322   4.258   1.162   4.495 -0.1655  0.1786  0.4984
11636TIP3    H156323   4.254   1.258   4.505  0.8195  0.5942 -2.2613
11636TIP3    H256324   4.218   1.145   4.410 -0.8849 -1.9788  1.2089
11637TIP3   OH256325   4.029   5.729   2.980  0.2363 -0.0756  0.3682
11637TIP3    H156326   4.055   5.818   2.955 -2.0847  0.9926  1.4239
11637TIP3    H256327   4.101   5.698   3.035  2.5103 -0.1102 -2.4020
11638TIP3   OH256328   0.910   6.268  14.618  0.6554 -0.0622 -1.0833
11638TIP3    H156329   0.862   6.283  14.700  0.1307 -1.3830 -1.1152
11638TIP3    H256330   0.959   6.349  14.604  2.3173 -0.4601  1.5979
11639TIP3   OH256331   3.988   2.442  16.549 -0.5590 -0.2237 -0.5875
11639TIP3    H156332   4.054   2.412  16.612 -3.7900  0.1485  3.4135
11639TIP3    H256333   3.943   2.362  16.521 -1.1129 -0.1810  0.1390
11640TIP3   OH256334   0.515   0.488   5.929 -0.6406  0.5088  0.1397
11640TIP3    H156335   0.481   0.477   5.840  0.5631 -1.0343 -0.1646
11640TIP3    H256336   0.607   0.510   5.917 -0.5972  0.8364  1.0104
11641TIP3   OH256337   1.696   4.664  14.204  0.0847  0.6799 -0.2367
11641TIP3    H156338   1.682   4.721  14.128  1.3159  1.1949 -0.0996
11641TIP3    H256339   1.791   4.650  14.206 -0.1339 -0.9357  0.0627
11642TIP3   OH256340   0.244   3.854   5.581 -0.2813  0.1679 -0.0855
11642TIP3    H156341   0.332   3.882   5.557 -0.2636  0.5100  0.3670
11642TIP3    H256342   0.250   3.758   5.587  0.1677  0.2170  0.3519
11643TIP3   OH256343   1.485   1.347  14.364  0.3882 -0.7816  0.4120
11643TIP3    H156344   1.456   1.366  14.275  0.1285 -0.6268  0.5283
11643TIP3    H256345   1.556   1.284  14.353  0.7800 -0.2859  0.0634
11644TIP3   OH256346   3.224   0.613   6.183 -0.1314 -0.0996 -0.0205
11644TIP3    H156347   3.140   0.615   6.229  0.6577  2.7037  1.5003
11644TIP3    H256348   3.273   0.543   6.227 -1.4199 -1.4246 -0.5947
11645TIP3   OH256349   4.738   0.375   2.937 -0.4825 -0.4821  0.1025
11645TIP3    H156350   4.644   0.358   2.928 -0.4264 -0.4712 -0.5103
11645TIP3    H256351   4.756   0.358   3.029 -1.4295  1.1918  0.6416
11646TIP3   OH256352   4.573   1.447  11.625 -0.3454 -0.1759 -0.3709
11646TIP3    H156353   4.648   1.445  11.566 -0.0275 -1.1055  0.0559
11646TIP3    H256354   4.501   1.479  11.570 -0.1708 -1.4780 -1.4111
11647TIP3   OH256355   6.036   0.237  13.645 -0.0083 -0.3149 -0.3117
11647TIP3    H156356   5.942   0.236  13.626 -0.5728  0.0911  2.0841
11647TIP3    H256357   6.053   0.149  13.681 -0.5830  0.9228  3.4686
11648TIP3   OH256358   1.700   0.546  15.126 -0.2140  0.3414  0.5294
11648TIP3    H156359   1.694   0.641  15.135  1.2968  0.6604 -1.1746
11648TIP3    H256360   1.766   0.520  15.191  0.5137  0.7022 -0.0455
11649TIP3   OH256361   0.998   0.734   5.702  0.8164  0.0728  0.0764
11649TIP3    H156362   0.974   0.826   5.693 -0.8001 -0.3677 -0.3794
11649TIP3    H256363   1.019   0.724   5.795 -1.3303  0.4163  0.6515
11650TIP3   OH256364   3.718   3.886  13.573  0.4192 -0.1146  0.1612
11650TIP3    H156365   3.715   3.900  13.478  1.3913  1.9605  0.3653
11650TIP3    H256366   3.716   3.975  13.609 -1.6156 -0.9159  2.1684
11651TIP3   OH256367   2.203   4.941  13.412  0.2774 -0.2298  0.4042
11651TIP3    H156368   2.136   4.937  13.481 -0.4989  0.3131 -0.2993
11651TIP3    H256369   2.262   4.869  13.432 -1.3770 -1.7203  0.1618
11652TIP3   OH256370   4.617   3.865   4.681  0.1621 -0.2084 -0.6448
11652TIP3    H156371   4.669   3.945   4.692  1.1114 -0.7069 -1.4188
11652TIP3    H256372   4.604   3.857   4.587 -1.8127  0.1871 -0.4513
11653TIP3   OH256373   3.182   5.794  12.092  0.0852  0.5335  0.2672
11653TIP3    H156374   3.193   5.764  12.001 -1.7905 -0.2350  0.2572
11653TIP3    H256375   3.265   5.770  12.135  1.0289  0.9562 -1.2298
11654TIP3   OH256376   3.813   5.846   4.769 -0.2623  0.3328  0.9012
11654TIP3    H156377   3.883   5.794   4.730 -0.1320  0.1133  1.4217
11654TIP3    H256378   3.857   5.903   4.832 -0.4097  1.0390  0.3874
11655TIP3   OH256379   0.191   1.238   4.513 -0.1265 -0.0893 -0.4093
11655TIP3    H156380   0.147   1.193   4.585 -0.2836 -1.0091 -1.0650
11655TIP3    H256381   0.120   1.274   4.460 -0.0404 -0.1278 -0.5525
11656TIP3   OH256382   2.042   1.476   2.316  0.1286  0.1520  0.2201
11656TIP3    H156383   2.040   1.384   2.343  0.6180  0.4460  1.3282
11656TIP3    H256384   2.126   1.508   2.350  0.0052  0.9829 -0.2514
11657TIP3   OH256385   2.346   2.456  13.974  0.3375  0.0178  0.8473
11657TIP3    H156386   2.375   2.493  13.890  2.5069  0.3233  1.6691
11657TIP3    H256387   2.282   2.519  14.007  1.0304  0.9908  0.3904
11658TIP3   OH256388   3.695   5.948  14.911  0.3193  0.3716 -0.1429
11658TIP3    H156389   3.653   6.022  14.866  1.3163  0.6705 -0.6134
11658TIP3    H256390   3.695   5.877  14.847  0.4175  0.3351 -0.1031
11659TIP3   OH256391   5.307   6.470   0.641 -0.6369  0.2067 -0.5313
11659TIP3    H156392   5.278   6.548   0.688  1.0106 -0.0998  1.0875
11659TIP3    H256393   5.357   6.505   0.567  2.0203  0.8030  1.4085
11660TIP3   OH256394   4.307   4.503   0.371  0.4053  0.7147 -0.3939
11660TIP3    H156395   4.213   4.504   0.356  0.0600  0.1167  1.4581
11660TIP3    H256396   4.344   4.465   0.291 -0.8211  1.7907 -1.5069
11661TIP3   OH256397   0.801   3.632   0.477 -0.3207  0.3575 -0.4885
11661TIP3    H156398   0.795   3.698   0.546  0.3576  0.2945 -0.3547
11661TIP3    H256399   0.808   3.682   0.396  1.5007  0.5211 -0.2877
11662TIP3   OH256400   6.490   5.318   1.537  0.5565  0.1526  0.0883
11662TIP3    H156401   6.510   5.411   1.531  0.7811  0.3078  2.3315
11662TIP3    H256402   6.573   5.275   1.514  0.9478  0.5754  0.6573
11663TIP3   OH256403   3.784   3.158   5.648  0.0936 -0.6513 -0.6591
11663TIP3    H156404   3.877   3.153   5.626  0.5877 -0.0002  1.1669
11663TIP3    H256405   3.774   3.100   5.723 -1.0880 -1.0234 -1.0798
11664TIP3   OH256406   5.495   3.964   0.430 -0.1585 -0.8358  0.0565
11664TIP3    H156407   5.574   4.006   0.395 -1.2799 -1.2234 -3.3016
11664TIP3    H256408   5.442   4.037   0.461  1.1758 -0.5155  1.6929
11665TIP3   OH256409   0.662   3.112  12.099 -0.1242  0.2644  0.1460
11665TIP3    H156410   0.627   3.080  12.016  0.9115 -1.0563  0.1715
11665TIP3    H256411   0.755   3.090  12.096  0.0540  0.7398  1.4069
11666TIP3   OH256412   4.215   3.712  15.982 -0.3122 -0.3948  0.5822
11666TIP3    H156413   4.227   3.745  16.071  3.2888  1.1526 -0.3428
11666TIP3    H256414   4.256   3.777  15.925 -1.9249 -1.6332 -2.2422
11667TIP3   OH256415   5.854   0.065   5.098  0.7544 -0.3521 -0.4705
11667TIP3    H156416   5.842   0.160   5.098  1.8319 -0.1437 -2.7410
11667TIP3    H256417   5.938   0.052   5.143  1.6433  0.0079 -1.9572
11668TIP3   OH256418   5.853   5.055  15.385 -0.2593  0.7619  0.3546
11668TIP3    H156419   5.858   5.133  15.439  0.3541  0.6209  0.5073
11668TIP3    H256420   5.896   5.079  15.303  0.5462  0.3740  0.6597
11669TIP3   OH256421   5.979   3.145   4.992 -0.0325 -0.3500 -0.2140
11669TIP3    H156422   6.069   3.173   4.977 -0.4845  1.2296 -0.2015
11669TIP3    H256423   5.951   3.108   4.909  1.1689 -2.5750  0.3018
11670TIP3   OH256424   6.078   1.006  14.188 -0.0882  0.0259 -0.2169
11670TIP3    H156425   6.055   0.980  14.099  0.6587 -0.3860 -0.2934
11670TIP3    H256426   5.994   1.010  14.234 -0.5173  0.6660 -1.0436
11671TIP3   OH256427   3.446   3.590  16.103  0.5986 -0.2204  0.2741
11671TIP3    H156428   3.432   3.545  16.186  0.3390  0.8903  0.8536
11671TIP3    H256429   3.380   3.660  16.103  1.4758  0.6232 -0.2499
11672TIP3   OH256430   4.990   2.439   1.738  0.4133 -0.1753 -0.7645
11672TIP3    H156431   5.011   2.449   1.831  0.2488 -0.7060 -0.6629
11672TIP3    H256432   4.914   2.494   1.724  0.8104  0.3881 -0.7275
11673TIP3   OH256433   2.817   5.461  14.065 -0.1234 -0.4211 -0.6111
11673TIP3    H156434   2.739   5.406  14.057 -0.8234  0.5889 -0.8355
11673TIP3    H256435   2.801   5.535  14.007  0.6086  0.2609  0.0352
11674TIP3   OH256436   6.656   4.720   4.244 -0.4281  0.1962 -0.3006
11674TIP3    H156437   6.602   4.794   4.270 -0.2259  0.4201 -0.5177
11674TIP3    H256438   6.708   4.752   4.171 -0.5872 -0.2623 -0.6199
11675TIP3   OH256439   5.199   3.296  12.353  0.3171 -0.5712  0.5433
11675TIP3    H156440   5.169   3.219  12.305  0.3195  0.4474 -1.1934
11675TIP3    H256441   5.277   3.325  12.306 -0.2298  1.0232  0.5439
11676TIP3   OH256442   1.493   3.235  14.313  0.0923  0.2520  0.2629
11676TIP3    H156443   1.552   3.163  14.292 -0.0174  0.5054 -0.9694
11676TIP3    H256444   1.551   3.307  14.338  0.2910  0.3147 -0.3620
11677TIP3   OH256445   4.762   2.206   4.321  0.0240  0.5148 -0.0378
11677TIP3    H156446   4.753   2.120   4.280 -1.1880  0.8450 -0.5064
11677TIP3    H256447   4.770   2.187   4.415  0.1721 -0.1222 -0.1736
11678TIP3   OH256448   0.638   2.066  15.477  0.0464  0.5843 -0.2721
11678TIP3    H156449   0.613   2.111  15.558 -0.4024  0.5087 -0.3621
11678TIP3    H256450   0.660   1.977  15.504  0.4286  0.7092 -0.1636
11679TIP3   OH256451   6.259   0.715  14.726  0.0209  0.4619  0.7283
11679TIP3    H156452   6.227   0.805  14.723  0.6981  0.6918 -0.4845
11679TIP3    H256453   6.299   0.701  14.640  1.2712 -0.5069  1.4251
11680TIP3   OH256454   1.302   3.557   0.852  0.3728  0.1604  0.2445
11680TIP3    H156455   1.279   3.498   0.924 -1.4368 -0.9420 -1.1357
11680TIP3    H256456   1.229   3.549   0.790  1.5041  1.6093 -1.3852
11681TIP3   OH256457   5.016   6.235  14.427 -0.7069 -0.2002 -0.3125
11681TIP3    H156458   5.098   6.283  14.435 -1.0257  0.7708 -2.2540
11681TIP3    H256459   4.958   6.275  14.492  0.2296 -0.6960  0.8641
11682TIP3   OH256460   5.593   1.362  14.463  0.0362 -0.1370 -0.0325
11682TIP3    H156461   5.578   1.340  14.555 -0.1323  0.4212  0.0739
11682TIP3    H256462   5.567   1.283  14.415 -0.8420 -0.0686  0.3256
11683TIP3   OH256463   0.378   0.396  12.363 -0.5163  0.3711 -0.4979
11683TIP3    H156464   0.449   0.429  12.309  1.8306  0.3888  2.3332
11683TIP3    H256465   0.351   0.471  12.416 -4.2553  0.9556 -2.8409
11684TIP3   OH256466   5.363   1.791  14.082 -0.0339 -0.0719 -0.1646
11684TIP3    H156467   5.379   1.753  14.168 -0.3086 -0.4459 -0.2783
11684TIP3    H256468   5.440   1.846  14.066  0.3629 -0.5729  0.0046
11685TIP3   OH256469   5.011   2.005  16.867 -0.7148  0.8318  0.7397
11685TIP3    H156470   5.056   2.002  16.783  1.1537  1.5396  1.6584
11685TIP3    H256471   4.979   2.095  16.874  0.0712  1.0759  1.2401
11686TIP3   OH256472   0.756   0.171  11.202  0.3495  0.1816  0.5320
11686TIP3    H156473   0.736   0.197  11.112  1.1382  0.2869  0.3753
11686TIP3    H256474   0.817   0.238  11.234  2.6894 -1.5400  0.0037
11687TIP3   OH256475   0.740   1.482  11.251 -0.7214 -0.4606  0.1040
11687TIP3    H156476   0.647   1.464  11.268 -0.7928 -0.0259  0.1901
11687TIP3    H256477   0.739   1.563  11.199 -0.3664 -0.1195  0.6191
11688TIP3   OH256478   1.503   4.740   3.833  0.1405  0.1520  0.1205
11688TIP3    H156479   1.448   4.795   3.777 -0.1570 -0.1037  0.1609
11688TIP3    H256480   1.593   4.770   3.815 -0.0108  0.5718  0.0590
11689TIP3   OH256481   2.717   4.596   5.284 -0.2622  0.2688 -0.2408
11689TIP3    H156482   2.720   4.582   5.378 -2.0950 -0.2676 -0.2113
11689TIP3    H256483   2.633   4.639   5.269  0.0341  0.4209 -1.6187
11690TIP3   OH256484   2.580   4.793  15.286 -0.7028  0.4060  0.4754
11690TIP3    H156485   2.663   4.799  15.334 -0.3122 -0.1474 -0.1104
11690TIP3    H256486   2.561   4.699  15.284 -1.0974  0.4912  0.1857
11691TIP3   OH256487   1.350   4.073  16.025 -0.2302  0.2491  0.4401
11691TIP3    H156488   1.297   4.120  16.090 -1.5428  0.3416 -0.6368
11691TIP3    H256489   1.437   4.069  16.063 -0.9833  0.1521  2.2853
11692TIP3   OH256490   0.942   0.782   3.630  0.2840  0.0112 -0.6295
11692TIP3    H156491   1.032   0.806   3.653  0.2479  1.5385 -1.8984
11692TIP3    H256492   0.892   0.798   3.710  1.0224 -0.1985 -0.1102
11693TIP3   OH256493   5.188   0.037  13.282 -0.0786  0.3612 -0.3062
11693TIP3    H156494   5.279   0.023  13.257 -0.0292 -0.3193  0.1969
11693TIP3    H256495   5.138  -0.025  13.229 -0.0045 -0.8647  0.9882
11694TIP3   OH256496   3.986   1.818   2.939  0.4587 -0.1412  0.1370
11694TIP3    H156497   4.020   1.892   2.990  0.8730 -0.2769  0.0567
11694TIP3    H256498   3.991   1.848   2.848 -1.0834  0.4418  0.1994
11695TIP3   OH256499   5.635   0.215   3.089 -0.5492 -0.2815 -0.4982
11695TIP3    H156500   5.579   0.238   3.164 -0.4337 -1.1145 -0.1461
11695TIP3    H256501   5.719   0.194   3.128 -0.1751  0.3108 -0.9735
11696TIP3   OH256502   3.567   3.470   5.653 -0.3687 -0.0860  0.2098
11696TIP3    H156503   3.549   3.529   5.726 -0.5982  0.8949 -0.6143
11696TIP3    H256504   3.658   3.489   5.630 -0.4361 -0.0648 -0.0385
11697TIP3   OH256505   2.939   5.424   1.299  0.7469 -0.0219 -0.4932
11697TIP3    H156506   2.898   5.354   1.247  0.8298 -0.9045  0.5826
11697TIP3    H256507   2.888   5.502   1.280  1.3690 -0.0900 -2.6450
11698TIP3   OH256508   0.462   0.268  12.784 -0.4810 -0.7026 -0.2070
11698TIP3    H156509   0.459   0.232  12.695 -0.2470 -1.2577  0.0052
11698TIP3    H256510   0.555   0.274  12.804 -0.5387 -1.6526  0.4198
11699TIP3   OH256511   6.721   5.231  16.903  0.2892 -0.4585  0.0094
11699TIP3    H156512   6.671   5.274  16.835 -0.1881 -0.6963  0.2033
11699TIP3    H256513   6.692   5.139  16.900  0.2229 -0.4624  0.5580
11700TIP3   OH256514   3.502   6.258   5.611  0.2807 -0.0168  0.4322
11700TIP3    H156515   3.505   6.296   5.698 -0.3676  0.8832  0.0776
11700TIP3    H256516   3.418   6.213   5.608  0.5849 -0.6004  0.4844
11701TIP3   OH256517   1.802   2.046  12.099  0.8493 -0.2353 -0.2950
11701TIP3    H156518   1.835   2.135  12.113  1.3380 -0.6416  1.5316
11701TIP3    H256519   1.806   2.033  12.005  0.3729  1.8137 -0.6476
11702TIP3   OH256520   1.493   4.287  10.536  0.1349 -0.0953 -0.3178
11702TIP3    H156521   1.531   4.353  10.594  0.0457 -1.2332  1.0617
11702TIP3    H256522   1.526   4.311  10.449  1.1356  1.0117  0.3343
11703TIP3   OH256523   2.201   6.151   0.985 -0.1461 -0.0851 -0.4504
11703TIP3    H156524   2.128   6.213   0.994  0.6895  0.9554 -0.5380
11703TIP3    H256525   2.194   6.094   1.062 -2.0240 -1.1054 -1.3192
11704TIP3   OH256526   5.814   0.417   0.301 -0.1872 -0.8130  0.2633
11704TIP3    H156527   5.819   0.400   0.207  2.2231  1.6408 -0.1701
11704TIP3    H256528   5.875   0.354   0.340 -0.4865 -1.2115  0.0938
11705TIP3   OH256529   4.186   5.276  12.366 -0.0289  0.4311  0.1057
11705TIP3    H156530   4.209   5.363  12.334  2.0451 -0.3109 -0.6111
11705TIP3    H256531   4.182   5.222  12.287 -1.2451 -0.1437  0.5426
11706TIP3   OH256532   2.328   5.645  10.512 -0.1231  0.3135 -0.2268
11706TIP3    H156533   2.317   5.670  10.421  1.7167 -0.1648 -0.6370
11706TIP3    H256534   2.241   5.653  10.551 -1.4489 -1.5268 -2.5347
11707TIP3   OH256535   4.390   3.835   4.255 -0.2406 -0.3956 -0.1638
11707TIP3    H156536   4.461   3.827   4.320 -1.1225 -2.1482  0.6428
11707TIP3    H256537   4.435   3.841   4.171  0.9562  2.3591  0.5640
11708TIP3   OH256538   1.525   6.210   1.463 -0.0324 -0.0650  0.2488
11708TIP3    H156539   1.475   6.130   1.449  0.2989 -0.2802  0.2848
11708TIP3    H256540   1.499   6.268   1.392  0.6232 -0.6485 -0.4836
11709TIP3   OH256541   5.610   6.086   0.857  0.3145 -0.4426  0.3574
11709TIP3    H156542   5.571   6.142   0.923 -0.3746  2.0159 -1.9592
11709TIP3    H256543   5.700   6.119   0.847  0.4867 -0.9383  0.2165
11710TIP3   OH256544   5.725   0.938  16.242  0.6321  0.1507 -0.5420
11710TIP3    H156545   5.739   0.902  16.330 -0.7516 -2.1865 -1.1930
11710TIP3    H256546   5.633   0.920  16.224  0.7526  1.1139 -2.2753
11711TIP3   OH256547   2.904   1.563   0.750 -0.2788 -0.1225  0.1524
11711TIP3    H156548   2.809   1.570   0.743 -0.3047 -0.4041  0.2074
11711TIP3    H256549   2.920   1.560   0.845 -0.2411 -0.4087  0.1375
11712TIP3   OH256550   6.614   0.860   5.082 -0.3433 -0.0422  0.2350
11712TIP3    H156551   6.616   0.803   5.005  0.2291  0.9513 -0.5007
11712TIP3    H256552   6.584   0.945   5.049  0.2125  0.4838  1.0326
11713TIP3   OH256553   6.491   3.355  16.892  0.1918  0.0423 -0.1919
11713TIP3    H156554   6.484   3.430  16.833 -0.4173  0.0755 -0.0831
11713TIP3    H256555   6.484   3.393  16.980 -2.7859 -0.3640 -0.1536
11714TIP3   OH256556   6.166   5.155  15.933  0.0532  0.3958  0.1036
11714TIP3    H156557   6.164   5.176  16.026  1.1800 -0.4699  0.3390
11714TIP3    H256558   6.110   5.079  15.923 -1.5582  1.5774 -0.2559
11715TIP3   OH256559   4.934   3.963   0.390 -0.5049 -0.2430  0.1394
11715TIP3    H156560   4.944   4.050   0.427 -1.9257  0.0736 -0.1640
11715TIP3    H256561   5.005   3.956   0.325 -1.3218  1.3152 -0.9802
11716TIP3   OH256562   4.174   2.151  13.033 -0.1900  0.5326  0.0517
11716TIP3    H156563   4.205   2.095  13.104  1.1449  1.0943 -0.0606
11716TIP3    H256564   4.091   2.186  13.064 -0.6277 -0.8234  0.4725
11717TIP3   OH256565   0.688   1.585  15.202 -0.3375 -0.4456 -0.0771
11717TIP3    H156566   0.721   1.513  15.148 -0.8221 -0.2097 -0.7036
11717TIP3    H256567   0.602   1.556  15.231 -0.4705 -0.1816 -0.2051
11718TIP3   OH256568   6.577   0.297  16.315 -0.2635 -0.0908 -0.1523
11718TIP3    H156569   6.545   0.288  16.405  1.1313 -0.8486  0.3136
11718TIP3    H256570   6.581   0.391  16.300  1.0323  0.1158  1.2096
11719TIP3   OH256571   4.709   1.064   4.792 -0.0798 -0.6093 -0.0114
11719TIP3    H156572   4.638   1.114   4.751  1.3619  0.2885 -1.5425
11719TIP3    H256573   4.784   1.079   4.735  1.1418 -2.2113  1.1087
11720TIP3   OH256574   1.454   0.809  13.423 -0.8354  0.3111  0.7948
11720TIP3    H156575   1.395   0.734  13.422 -0.2468 -0.2013 -1.4974
11720TIP3    H256576   1.528   0.781  13.478  1.2488 -2.5039 -2.9518
11721TIP3   OH256577   3.710   3.187   2.299  0.5461  0.1948  0.3004
11721TIP3    H156578   3.775   3.234   2.246  1.1886  1.9430  2.4877
11721TIP3    H256579   3.763   3.132   2.357 -0.0156  0.3204  0.9328
11722TIP3   OH256580   3.529   5.830   0.679  0.1905 -0.2043  0.4075
11722TIP3    H156581   3.453   5.773   0.692 -0.1227 -0.0572 -0.7260
11722TIP3    H256582   3.531   5.847   0.585  1.0950  0.5373  0.5471
11723TIP3   OH256583   1.738   3.255  17.118 -0.0741  0.5858  0.1376
11723TIP3    H156584   1.814   3.261  17.176 -0.3162 -1.9175  0.8375
11723TIP3    H256585   1.744   3.333  17.063  1.6691  1.6757  1.7291
11724TIP3   OH256586   5.974   0.962  17.143  0.3097  0.0967 -0.0433
11724TIP3    H156587   6.067   0.984  17.150  0.1225  0.9383 -0.1416
11724TIP3    H256588   5.939   0.981  17.230  0.2319 -0.2634  0.0077
11725TIP3   OH256589   2.276   4.745  13.033  0.4843 -0.4352  0.0269
11725TIP3    H156590   2.344   4.694  12.989  0.2280 -0.5754 -0.2071
11725TIP3    H256591   2.258   4.818  12.974  0.6565 -0.2201  0.2362
11726TIP3   OH256592   0.406   0.832   4.477  0.4744  0.6985  0.3346
11726TIP3    H156593   0.334   0.779   4.510  0.0210  0.7568 -0.5210
11726TIP3    H256594   0.412   0.809   4.384  1.4137  0.8633  0.3394
11727TIP3   OH256595   5.380   0.971   5.825  0.2846  0.3998 -0.3167
11727TIP3    H156596   5.286   0.988   5.831  0.1899  0.2042 -1.0534
11727TIP3    H256597   5.417   1.014   5.901 -0.5008 -0.2991  0.4845
11728TIP3   OH256598   5.684   6.247  12.569 -0.7314  0.3358  0.4555
11728TIP3    H156599   5.722   6.326  12.530 -0.9226  0.6769  0.9543
11728TIP3    H256600   5.742   6.176  12.540 -0.2681  0.7211  0.4196
11729TIP3   OH256601   3.999   3.971   0.899 -0.6582  0.7150 -0.1755
11729TIP3    H156602   4.047   3.950   0.818  0.7689  0.1939  0.7719
11729TIP3    H256603   3.935   4.038   0.872 -0.2453  0.5292 -1.7350
11730TIP3   OH256604   4.717   5.027  15.644 -0.8303 -0.0338 -0.2772
11730TIP3    H156605   4.725   5.051  15.737  1.2755 -0.9703 -0.1385
11730TIP3    H256606   4.681   5.104  15.602  0.4336  1.3092  0.9713
11731TIP3   OH256607   4.896   5.982  11.303 -0.3256  0.0519 -0.3167
11731TIP3    H156608   4.831   5.913  11.294 -0.1315 -0.1162 -0.4172
11731TIP3    H256609   4.963   5.961  11.238  0.8028 -0.8546  1.0756
11732TIP3   OH256610   5.916   0.259   1.629 -0.2149  0.5247  0.0370
11732TIP3    H156611   5.946   0.234   1.717  0.1698  0.3085 -0.1541
11732TIP3    H256612   5.826   0.289   1.642 -1.7199 -3.3833 -0.1122
11733TIP3   OH256613   4.605   2.163  13.918 -0.2058  0.7910  0.0323
11733TIP3    H156614   4.660   2.197  13.988 -0.4313  0.3340  0.4306
11733TIP3    H256615   4.552   2.239  13.891  0.4005  1.1565 -0.1581
11734TIP3   OH256616   1.701   1.189   0.458  0.1284 -0.3462 -0.5211
11734TIP3    H156617   1.669   1.129   0.525 -0.7134 -0.0936 -0.6886
11734TIP3    H256618   1.793   1.165   0.446 -0.2640 -1.7943 -0.8022
11735TIP3   OH256619   3.791   3.231  11.422 -1.0058  0.0591 -0.0425
11735TIP3    H156620   3.768   3.188  11.340  0.2262  0.2053 -0.4868
11735TIP3    H256621   3.860   3.293  11.398  0.9106 -1.3995  1.4205
11736TIP3   OH256622   4.538   4.680  16.232  0.4114 -0.2636  0.0491
11736TIP3    H156623   4.573   4.709  16.148  0.4386 -2.0506 -0.6002
11736TIP3    H256624   4.509   4.590  16.216  0.9251 -0.8367  2.0832
11737TIP3   OH256625   3.120   0.406  13.031  0.4324 -0.0690 -1.0142
11737TIP3    H156626   3.192   0.455  13.069  0.6504 -0.7397 -0.5668
11737TIP3    H256627   3.084   0.466  12.964  0.0792  1.0859  0.1701
11738TIP3   OH256628   6.052   1.096  13.735 -0.2768  0.0482  0.4072
11738TIP3    H156629   6.014   1.050  13.660  0.2206 -2.1550  1.3968
11738TIP3    H256630   6.035   1.038  13.810 -1.5915  2.5966  2.2298
11739TIP3   OH256631   2.008   4.156   1.813 -0.1847  0.1133 -0.6106
11739TIP3    H156632   2.084   4.207   1.841  0.3837 -0.7805 -0.4959
11739TIP3    H256633   2.015   4.073   1.860 -1.1264 -0.0605 -0.7475
11740TIP3   OH256634   0.241   2.820   6.569  0.1226 -0.7887  0.4852
11740TIP3    H156635   0.210   2.823   6.478 -0.9847 -0.6611  0.8449
11740TIP3    H256636   0.267   2.729   6.583 -1.1830 -1.1831  0.4863
11741TIP3   OH256637   5.862   3.659   3.402  0.1894 -0.3165 -0.3449
11741TIP3    H156638   5.890   3.672   3.492 -0.5695 -0.6577 -0.0495
11741TIP3    H256639   5.774   3.622   3.409  0.0908 -0.2794 -1.2256
11742TIP3   OH256640   0.953   1.002  12.269 -0.1597  0.1051  0.3885
11742TIP3    H156641   0.986   0.984  12.357  1.3858 -2.3951 -0.6024
11742TIP3    H256642   0.965   0.920  12.222 -1.6176  1.1593 -1.9851
11743TIP3   OH256643   5.476   6.487  14.342  0.2031  0.0587  0.1963
11743TIP3    H156644   5.533   6.499  14.418 -0.5207  2.9924  0.3853
11743TIP3    H256645   5.531   6.510  14.267 -0.3124  1.6407  0.2721
11744TIP3   OH256646   6.233   5.190   3.244  0.0945  0.1508 -0.1214
11744TIP3    H156647   6.300   5.245   3.285 -1.7651  1.0737  1.8859
11744TIP3    H256648   6.272   5.102   3.242  2.8951  1.3022 -2.8765
11745TIP3   OH256649   4.562   1.251   5.435 -0.0765 -0.1784  0.1565
11745TIP3    H156650   4.506   1.201   5.494 -1.2213 -0.1353 -0.8316
11745TIP3    H256651   4.622   1.187   5.397 -1.4262 -0.8358 -0.9783
11746TIP3   OH256652   0.820   5.371  15.750 -0.0444 -0.2241 -0.4225
11746TIP3    H156653   0.895   5.311  15.751  1.9067  2.0625 -0.2120
11746TIP3    H256654   0.859   5.458  15.736 -2.7424  1.0063 -0.9313
11747TIP3   OH256655   5.749   1.059   3.518  0.0355 -0.3480 -0.6266
11747TIP3    H156656   5.718   0.971   3.499  0.7843 -0.5314 -1.0139
11747TIP3    H256657   5.827   1.046   3.572  0.1339  0.0763 -0.6621
11748TIP3   OH256658   3.672   0.261   1.561 -0.4761  0.2009  0.0559
11748TIP3    H156659   3.684   0.178   1.515 -1.1125 -0.7741  1.5837
11748TIP3    H256660   3.757   0.304   1.555 -1.1569  1.4220 -4.3195
11749TIP3   OH256661   0.522   1.755  13.314 -0.1718 -0.0502 -0.4337
11749TIP3    H156662   0.603   1.714  13.283  1.1485  1.4072  0.8452
11749TIP3    H256663   0.506   1.825  13.252 -1.6504 -1.5666 -1.8375
11750TIP3   OH256664   4.032   4.529   2.352  0.3177 -0.3408  0.5736
11750TIP3    H156665   3.979   4.608   2.356 -1.0503 -1.0392 -1.9665
11750TIP3    H256666   4.012   4.490   2.267  2.3008 -2.4956  0.9828
11751TIP3   OH256667   1.522   1.948   3.873 -0.7005 -0.5604 -0.3049
11751TIP3    H156668   1.553   1.921   3.960  0.9016  0.5141 -0.4990
11751TIP3    H256669   1.529   2.043   3.873  0.3024 -0.5930 -1.9356
11752TIP3   OH256670   4.478   3.699   2.161 -0.2702  0.5794 -0.3220
11752TIP3    H156671   4.449   3.687   2.071  1.8153 -0.1022 -0.9665
11752TIP3    H256672   4.571   3.676   2.159 -0.2210  0.3432  2.0507
11753TIP3   OH256673   2.926   3.390  14.152  0.0718  0.6648  0.1210
11753TIP3    H156674   2.959   3.303  14.173 -1.3358 -0.5714 -2.4139
11753TIP3    H256675   3.004   3.440  14.125  0.7332 -0.1459  0.5009
11754TIP3   OH256676   4.642   2.601   1.466  0.5846  0.5149 -0.7908
11754TIP3    H156677   4.683   2.608   1.552 -0.5860  0.5967 -0.2158
11754TIP3    H256678   4.548   2.594   1.485  0.4154 -0.9544 -1.9948
11755TIP3   OH256679   0.233   4.717   6.412 -0.2117 -0.4766  0.3795
11755TIP3    H156680   0.252   4.642   6.467 -0.3394 -0.8172 -0.0313
11755TIP3    H256681   0.317   4.763   6.404  0.3458 -1.6171 -0.8993
11756TIP3   OH256682   6.117   3.353  14.399 -0.5177  0.0527  0.1374
11756TIP3    H156683   6.174   3.285  14.362  1.2443  0.0348  2.6057
11756TIP3    H256684   6.039   3.352  14.344  0.8117 -1.7062 -1.8737
11757TIP3   OH256685   5.154   2.080   1.028 -0.3202 -0.0942 -0.4358
11757TIP3    H156686   5.121   2.113   0.944  0.8584  0.4517 -0.7045
11757TIP3    H256687   5.080   2.088   1.087 -0.7995  0.6934 -1.1202
11758TIP3   OH256688   2.724   4.384   5.118  0.8455 -0.5653 -0.5101
11758TIP3    H156689   2.735   4.460   5.176 -0.4391 -0.6740 -0.0819
11758TIP3    H256690   2.811   4.369   5.081  0.8360  2.0732 -1.8058
11759TIP3   OH256691   1.102   3.983  11.965 -0.1469 -0.1357  0.2524
11759TIP3    H156692   1.038   4.054  11.968  0.4346  0.4381 -0.6644
11759TIP3    H256693   1.109   3.953  12.055 -1.3205  0.1376  0.4480
11760TIP3   OH256694   6.551   3.264   4.189 -0.6564 -0.2136  0.7465
11760TIP3    H156695   6.591   3.182   4.216  0.6781  0.2669  0.2761
11760TIP3    H256696   6.459   3.255   4.214 -0.4219 -1.6366  1.1641
11761TIP3   OH256697   1.584   2.732  12.693  0.3559  0.4041  0.6906
11761TIP3    H156698   1.643   2.806  12.707  0.3652  0.5942 -0.2796
11761TIP3    H256699   1.607   2.669  12.763  1.7145  0.4640  0.3345
11762TIP3   OH256700   3.776   3.172   3.249 -0.3234  0.5773  0.0628
11762TIP3    H156701   3.778   3.204   3.159  0.0798  1.3087  0.3202
11762TIP3    H256702   3.753   3.079   3.242 -3.1305  1.2410 -0.6047
11763TIP3   OH256703   6.413   1.235  14.980 -0.3066  0.2964  0.3905
11763TIP3    H156704   6.344   1.288  15.018 -0.4286  0.5859 -0.2235
11763TIP3    H256705   6.381   1.145  14.988 -0.9602  0.4628 -0.3009
11764TIP3   OH256706   5.886   0.814  12.474 -0.7142  0.6663  0.2032
11764TIP3    H156707   5.846   0.885  12.424  1.7463  0.4493 -2.2729
11764TIP3    H256708   5.818   0.789  12.538 -3.1800  2.4856 -1.5045
11765TIP3   OH256709   0.620   6.496  16.597 -0.2605 -0.0965  0.1728
11765TIP3    H156710   0.597   6.440  16.671  0.8255 -0.2226  0.4379
11765TIP3    H256711   0.713   6.478  16.582 -0.7474 -1.0148 -2.0310
11766TIP3   OH256712   6.277   4.689   1.470  0.6311  0.5328 -0.3516
11766TIP3    H156713   6.290   4.667   1.377  1.0336 -0.2859 -0.1089
11766TIP3    H256714   6.182   4.684   1.482  0.5466  0.9355 -0.7821
11767TIP3   OH256715   4.640   3.691  13.904 -0.3589 -0.0377  0.0412
11767TIP3    H156716   4.546   3.706  13.894 -0.9975 -3.2323  0.2927
11767TIP3    H256717   4.646   3.611  13.956  2.4644 -0.8918 -1.4245
11768TIP3   OH256718   6.458   0.225   3.474  0.1029  0.0712 -0.1362
11768TIP3    H156719   6.371   0.202   3.507 -0.1852  0.4841 -0.5932
11768TIP3    H256720   6.468   0.318   3.497  0.7610 -0.1832  0.6353
11769TIP3   OH256721   6.437   6.015  11.738  0.3827 -0.0123 -0.4435
11769TIP3    H156722   6.364   6.065  11.701  1.2660  1.4290 -0.3321
11769TIP3    H256723   6.406   5.984  11.822 -0.5857 -0.6667 -1.0232
11770TIP3   OH256724   5.419   4.536   5.313  0.9271  0.3637 -0.4265
11770TIP3    H156725   5.329   4.545   5.346  1.3876  2.5262  0.3998
11770TIP3    H256726   5.438   4.442   5.322 -1.2518 -0.1672 -0.6964
11771TIP3   OH256727   5.032   4.388  10.893 -0.1187 -0.0195 -0.1644
11771TIP3    H156728   5.066   4.412  10.979 -0.0786  1.3007 -0.5336
11771TIP3    H256729   4.966   4.321  10.911 -0.9283  1.0651  0.9975
11772TIP3   OH256730   5.696   4.768   2.930 -0.3003  0.5691 -0.1203
11772TIP3    H156731   5.715   4.851   2.888 -1.1296  1.4071  1.1079
11772TIP3    H256732   5.608   4.745   2.899 -0.3416  0.4811  0.0601
11773TIP3   OH256733   0.558   6.454   5.148 -0.2359 -0.1541  0.1679
11773TIP3    H156734   0.502   6.445   5.072 -0.3966 -0.0933  0.2797
11773TIP3    H256735   0.499   6.448   5.223  0.2085 -3.1382  0.4055
11774TIP3   OH256736   2.812   2.147  13.592 -0.4658  0.1619 -0.2242
11774TIP3    H156737   2.751   2.073  13.593  0.0161 -0.3800 -3.0529
11774TIP3    H256738   2.874   2.126  13.523  1.5842  1.8017  0.9893
11775TIP3   OH256739   1.384   3.537  16.361  0.6412 -0.3095  0.2632
11775TIP3    H156740   1.302   3.489  16.369 -0.0560  0.7303 -0.5374
11775TIP3    H256741   1.429   3.521  16.445 -2.1853  2.4505  2.5612
11776TIP3   OH256742   2.302   5.517  14.575 -0.1735 -0.3651  0.1950
11776TIP3    H156743   2.242   5.528  14.648 -0.3995  0.9156 -0.1583
11776TIP3    H256744   2.315   5.422  14.569  0.7646 -0.4449  2.5853
11777TIP3   OH256745   6.186   5.421   1.211  0.1544 -0.5149  0.2601
11777TIP3    H156746   6.177   5.360   1.138  1.1998 -0.1002 -0.2316
11777TIP3    H256747   6.119   5.488   1.195  0.7145 -0.1451 -0.6144
11778TIP3   OH256748   1.999   5.158   3.934 -0.4526  0.3118  0.0770
11778TIP3    H156749   2.045   5.239   3.914 -0.5016  0.3063 -0.0570
11778TIP3    H256750   1.929   5.184   3.993  1.2670 -0.0200  2.4578
11779TIP3   OH256751   0.257   0.193   1.645  0.2304 -0.2835 -0.2053
11779TIP3    H156752   0.304   0.116   1.678 -1.0011 -0.3130  1.6559
11779TIP3    H256753   0.322   0.263   1.644  0.6226 -0.6092  1.1292
11780TIP3   OH256754   3.761   2.019   4.316  0.4279  0.5114  0.1298
11780TIP3    H156755   3.741   2.093   4.258  1.4793 -0.1520 -1.1149
11780TIP3    H256756   3.857   2.016   4.320  0.4119  0.7513  2.2307
11781TIP3   OH256757   2.253   4.613  13.958  0.1196 -0.2181  0.1831
11781TIP3    H156758   2.242   4.565  14.039  1.7563  2.2530  2.0230
11781TIP3    H256759   2.348   4.627  13.951 -0.2179  2.2103 -0.5079
11782TIP3   OH256760   6.092   2.303  16.168  0.6610 -0.1466  0.3893
11782TIP3    H156761   6.049   2.248  16.235  2.5993  0.0748  1.8938
11782TIP3    H256762   6.124   2.379  16.217  2.4662 -0.1582 -0.6968
11783TIP3   OH256763   6.278   1.241  13.614  0.1341 -0.1437 -0.2448
11783TIP3    H156764   6.220   1.235  13.538 -1.8015  3.8297  0.6590
11783TIP3    H256765   6.231   1.194  13.683 -0.1819 -0.1241 -0.4440
11784TIP3   OH256766   0.175   2.807  12.027 -0.3620 -0.0276  0.2408
11784TIP3    H156767   0.252   2.845  12.070 -1.1050  0.6424  1.0401
11784TIP3    H256768   0.205   2.783  11.940  1.0788 -0.9662  0.9575
11785TIP3   OH256769   0.969   3.146   5.644  0.9100 -0.2896 -0.2408
11785TIP3    H156770   1.043   3.106   5.598  1.9298  0.1950  0.9151
11785TIP3    H256771   0.971   3.238   5.617  1.3481 -0.0625  0.5537
11786TIP3   OH256772   2.852   3.956  16.532  0.0068 -0.3817  0.1263
11786TIP3    H156773   2.770   3.922  16.494 -0.9544  0.7328  1.1341
11786TIP3    H256774   2.837   4.050  16.543  0.4975 -0.5139  2.5247
11787TIP3   OH256775   2.939   5.205   4.939  0.5500  0.6153  0.3733
11787TIP3    H156776   2.847   5.230   4.928  0.3332 -0.1875  0.3128
11787TIP3    H256777   2.967   5.177   4.852  1.1582  1.8235  0.1661
11788TIP3   OH256778   4.435   4.548  16.997  0.6559  0.0488  0.3176
11788TIP3    H156779   4.474   4.512  17.077 -0.3098 -0.2759  0.6601
11788TIP3    H256780   4.468   4.638  16.993  0.7812  0.0433  1.0360
11789TIP3   OH256781   4.964   5.788   4.264 -0.1743  0.7536  0.2566
11789TIP3    H156782   4.919   5.748   4.339 -0.7220  1.8953  0.5644
11789TIP3    H256783   4.962   5.721   4.196 -1.0215  0.2381  0.7744
11790TIP3   OH256784   6.101   2.742   3.751 -0.3266  0.2820  0.5109
11790TIP3    H156785   6.020   2.732   3.702 -0.5487  1.0095  0.7160
11790TIP3    H256786   6.120   2.654   3.785 -1.3608  0.2215  0.9822
11791TIP3   OH256787   5.210   4.559  10.755 -0.1122 -0.0657 -0.3489
11791TIP3    H156788   5.149   4.499  10.798 -1.4022  1.5322  0.1584
11791TIP3    H256789   5.254   4.604  10.827  0.1894  0.2331 -0.7142
11792TIP3   OH256790   0.145   4.529  11.605  0.3669 -0.4274  0.1166
11792TIP3    H156791   0.183   4.505  11.521 -1.3927  0.9315 -1.1510
11792TIP3    H256792   0.062   4.572  11.582  0.4264  1.1153  2.4812
11793TIP3   OH256793   0.768   1.641  14.293 -0.3019 -0.7294  0.3633
11793TIP3    H156794   0.761   1.663  14.200  1.9562 -0.2779  0.2265
11793TIP3    H256795   0.681   1.656  14.329 -0.6196  1.5928 -1.1872
11794TIP3   OH256796   2.477   4.145   3.497  0.6247  0.4719  0.2373
11794TIP3    H156797   2.424   4.117   3.571 -0.3789  3.1453  0.6554
11794TIP3    H256798   2.566   4.119   3.520  0.5363  2.1631  2.9931
11795TIP3   OH256799   2.607   2.113  14.875 -0.0999  0.0490 -0.3072
11795TIP3    H156800   2.575   2.028  14.904 -0.0260 -0.5003 -1.7448
11795TIP3    H256801   2.603   2.169  14.953  1.7048 -1.7732  1.1809
11796TIP3   OH256802   0.106   0.291  15.994 -0.0636 -0.0877  0.0037
11796TIP3    H156803   0.041   0.225  16.019 -0.3822  0.0477 -0.4492
11796TIP3    H256804   0.061   0.375  16.006  0.8758  0.1761  2.2114
11797TIP3   OH256805   2.661   3.733   0.168  0.5335  0.2563 -0.3352
11797TIP3    H156806   2.628   3.770   0.086  0.0320  0.0550 -0.2265
11797TIP3    H256807   2.705   3.653   0.141 -1.7364 -1.1339 -0.1892
11798TIP3   OH256808   6.083   1.099  16.426 -0.5607  0.1864  0.4310
11798TIP3    H156809   6.047   1.038  16.491 -0.0600 -0.0924  0.4500
11798TIP3    H256810   6.147   1.150  16.475  1.9662 -1.9580 -0.4322
11799TIP3   OH256811   5.284   2.739  11.750 -0.6297  0.4531 -0.1766
11799TIP3    H156812   5.244   2.776  11.671 -0.3369  0.4443 -0.3285
11799TIP3    H256813   5.213   2.738  11.814 -0.7291  0.9793 -0.2711
11800TIP3   OH256814   5.824   0.844  16.717 -0.6069  0.0185  0.1061
11800TIP3    H156815   5.841   0.815  16.807 -1.0522  0.1833  0.2509
11800TIP3    H256816   5.889   0.912  16.700  1.0077 -1.5982 -0.5300
11801TIP3   OH256817   2.606   3.324  12.804  0.3009 -0.6005 -0.2844
11801TIP3    H156818   2.573   3.391  12.863 -1.0144 -1.2095 -0.2733
11801TIP3    H256819   2.637   3.254  12.862  1.3575 -0.1540 -0.2996
11802TIP3   OH256820   2.136   3.362   5.403  0.1268  0.4077 -0.4819
11802TIP3    H156821   2.231   3.366   5.414 -0.0055  1.1132  0.6058
11802TIP3    H256822   2.114   3.271   5.423  0.3563  0.7520  1.6078
11803TIP3   OH256823   5.777   1.712  10.298  0.3181  0.3615  0.4179
11803TIP3    H156824   5.870   1.722  10.321  0.8395  0.5039 -1.6167
11803TIP3    H256825   5.737   1.795  10.325  0.8624  0.4872  0.8584
11804TIP3   OH256826   5.127   2.440   0.109  0.1823 -0.0153  0.2626
11804TIP3    H156827   5.117   2.419   0.202 -0.6213 -0.1267  0.1592
11804TIP3    H256828   5.121   2.355   0.065  0.1149  0.0864  0.0776
11805TIP3   OH256829   2.278   0.331   5.381  0.4962 -0.3982 -0.5867
11805TIP3    H156830   2.310   0.413   5.420  1.2054 -0.0550 -1.8174
11805TIP3    H256831   2.357   0.284   5.355  0.0728 -0.2734 -2.2357
11806TIP3   OH256832   1.219   0.287   3.657 -0.1162 -0.2448 -0.4413
11806TIP3    H156833   1.154   0.338   3.705  0.2879 -0.7386  0.6527
11806TIP3    H256834   1.256   0.227   3.721 -0.0459 -1.4126 -1.5259
11807TIP3   OH256835   4.163   3.365   0.182 -0.3227 -0.1849  0.0885
11807TIP3    H156836   4.117   3.393   0.261 -1.1550 -0.2863 -0.3518
11807TIP3    H256837   4.113   3.403   0.110 -1.4190 -2.6512 -0.5380
11808TIP3   OH256838   5.712   6.076   3.325  0.4784 -0.0902 -0.5574
11808TIP3    H156839   5.643   6.049   3.385  0.5894  0.0779 -0.3518
11808TIP3    H256840   5.725   6.169   3.345 -2.8655  1.3957 -4.1036
11809TIP3   OH256841   6.612   0.810   3.279  0.1266 -0.3170 -0.3412
11809TIP3    H156842   6.649   0.738   3.228 -0.1322 -1.8305  1.4980
11809TIP3    H256843   6.628   0.887   3.226  1.1966 -1.6047 -2.0050
11810TIP3   OH256844   2.075   2.262   1.437 -0.3000  0.5797  0.4614
11810TIP3    H156845   2.092   2.333   1.374 -0.3834 -0.9413 -1.3632
11810TIP3    H256846   1.995   2.220   1.404 -0.8388  0.2385  2.0949
11811TIP3   OH256847   6.570   5.491  11.126 -0.4060 -0.0551  0.0992
11811TIP3    H156848   6.523   5.572  11.145 -1.0064 -0.2100 -0.6456
11811TIP3    H256849   6.587   5.495  11.032  2.2380  0.5970  0.5203
11812TIP3   OH256850   5.953   3.016  15.747  0.2569  0.4292 -0.0628
11812TIP3    H156851   5.911   3.048  15.667  1.7971  1.8317 -0.3662
11812TIP3    H256852   5.943   3.087  15.810 -0.8008 -0.5995  0.9928
11813TIP3   OH256853   4.846   2.586  11.702  0.3195 -0.7012  0.1418
11813TIP3    H156854   4.923   2.533  11.680  0.5481  0.2526 -1.4454
11813TIP3    H256855   4.779   2.522  11.725  0.8185 -1.6689 -1.0044
11814TIP3   OH256856   6.155   6.721   0.331  0.0335  0.2730 -0.2244
11814TIP3    H156857   6.239   6.729   0.376 -0.4259  0.3798  0.6373
11814TIP3    H256858   6.173   6.748   0.241  1.0042 -0.0867 -0.1495
11815TIP3   OH256859   3.065   4.393   3.966 -0.3370 -0.5697  0.4918
11815TIP3    H156860   3.148   4.435   3.988 -0.5457  0.8725 -1.2727
11815TIP3    H256861   3.085   4.337   3.891 -0.5044 -2.0402  1.5153
11816TIP3   OH256862   3.009   4.231  17.143  0.4001 -0.4018  0.4689
11816TIP3    H156863   3.093   4.220  17.097 -1.0702  0.7547 -2.7650
11816TIP3    H256864   2.955   4.158  17.113 -1.1084  1.2331 -1.0152
11817TIP3   OH256865   2.893   1.620  11.597 -0.2604 -0.0205  0.2588
11817TIP3    H156866   2.820   1.673  11.627  0.2597  0.3215  0.9351
11817TIP3    H256867   2.968   1.649  11.649  0.7912  0.9445 -1.6776
11818TIP3   OH256868   3.463   1.511  16.520  0.3533  0.1751  0.5021
11818TIP3    H156869   3.500   1.593  16.486 -0.6375  0.0395 -1.0151
11818TIP3    H256870   3.384   1.498  16.468  0.1919 -1.4581  1.1225
11819TIP3   OH256871   0.541   4.098   3.717  0.7518 -0.0278 -0.4139
11819TIP3    H156872   0.635   4.081   3.721  0.2509 -3.3418  0.7934
11819TIP3    H256873   0.517   4.123   3.806  0.3119 -0.4701 -0.4029
11820TIP3   OH256874   0.945   6.604  16.107 -0.5234 -0.3060 -0.1613
11820TIP3    H156875   0.887   6.678  16.089  0.4773  0.9731  1.5780
11820TIP3    H256876   0.992   6.590  16.025  0.1005  1.7796 -0.2160
11821TIP3   OH256877   5.472   5.742  12.372  0.4160 -0.4024  0.6936
11821TIP3    H156878   5.380   5.725  12.391  0.5048 -1.7525  0.0602
11821TIP3    H256879   5.511   5.761  12.457 -0.2099 -1.0793  1.1411
11822TIP3   OH256880   4.761   3.484  16.270  0.0129  0.5751  0.1816
11822TIP3    H156881   4.850   3.482  16.306  0.2156  2.2853 -0.1367
11822TIP3    H256882   4.706   3.449  16.340  0.9039 -0.3172  0.4572
11823TIP3   OH256883   0.270   5.483   1.010 -0.3023 -0.4787  0.8402
11823TIP3    H156884   0.280   5.411   1.072  3.0376  0.2933  1.4329
11823TIP3    H256885   0.222   5.550   1.058 -1.4064 -1.4292  1.0910
11824TIP3   OH256886   4.032   5.251  17.145 -0.0629 -0.1892  0.0955
11824TIP3    H156887   3.940   5.237  17.166 -0.1764  0.5015  0.0949
11824TIP3    H256888   4.057   5.327  17.197  0.3183  0.0435 -0.4129
11825TIP3   OH256889   1.444   2.300  12.412  0.2414 -0.1829  0.5186
11825TIP3    H156890   1.424   2.311  12.505 -0.8947  1.7477  0.1101
11825TIP3    H256891   1.403   2.376  12.370  0.5270 -1.1288 -1.5950
11826TIP3   OH256892   3.685   2.545   1.608  0.2652 -0.0630 -0.6824
11826TIP3    H156893   3.665   2.578   1.695  2.6804  0.6538 -0.3160
11826TIP3    H256894   3.606   2.561   1.557 -0.6287  1.0029  0.9530
11827TIP3   OH256895   4.874   3.533  12.008 -0.3308 -0.2735  0.0143
11827TIP3    H156896   4.808   3.548  12.076 -1.9253 -1.4621 -1.1864
11827TIP3    H256897   4.876   3.614  11.958  0.2874  0.3299  0.9808
11828TIP3   OH256898   1.525   4.588  15.979 -0.3752 -0.0441  0.0909
11828TIP3    H156899   1.471   4.665  15.963 -0.1686 -0.0389 -0.6386
11828TIP3    H256900   1.589   4.589  15.908  0.1083 -0.4680  0.5140
11829TIP3   OH256901   5.846   5.044  15.981 -0.0811 -0.1545  0.2911
11829TIP3    H156902   5.847   5.043  15.885  1.6891 -0.0380  0.2758
11829TIP3    H256903   5.889   4.963  16.007 -0.2693 -0.0402  0.9851
11830TIP3   OH256904   5.406   0.564   5.122  0.5960 -0.6253 -0.0632
11830TIP3    H156905   5.334   0.509   5.092 -0.8038  1.1087  0.0029
11830TIP3    H256906   5.415   0.544   5.215  0.4189 -1.0650 -0.1383
11831TIP3   OH256907   5.355   2.231  11.425 -0.0960 -0.2479 -0.8900
11831TIP3    H156908   5.372   2.293  11.497  1.7910  0.2277 -1.6950
11831TIP3    H256909   5.329   2.150  11.469  1.7093 -0.1847  0.4043
11832TIP3   OH256910   5.830   4.400  15.728 -0.1849  0.0810  0.1652
11832TIP3    H156911   5.814   4.318  15.682  1.6951  0.5285 -1.3968
11832TIP3    H256912   5.922   4.395  15.755 -0.7120  0.6478  2.2843
11833TIP3   OH256913   5.145   5.551   0.651 -0.1793 -0.2757  0.1543
11833TIP3    H156914   5.221   5.606   0.630  0.9704 -2.2811 -1.3119
11833TIP3    H256915   5.125   5.573   0.742  0.6044  2.0424 -0.1402
11834TIP3   OH256916   1.344   4.265  15.048 -0.0275 -0.1293 -0.5840
11834TIP3    H156917   1.267   4.208  15.045 -0.5979  0.3371  2.1995
11834TIP3    H256918   1.308   4.354  15.039  0.7910 -0.0398 -4.2879
11835TIP3   OH256919   5.614   6.403  11.398 -0.1117  0.0176  0.0469
11835TIP3    H156920   5.524   6.371  11.409 -0.1356 -0.7093 -1.9966
11835TIP3    H256921   5.668   6.325  11.390  0.1882  0.3941 -2.3026
11836TIP3   OH256922   1.863   5.406   3.797  0.2232  0.0150  0.8483
11836TIP3    H156923   1.953   5.431   3.820 -0.0887  0.8359  1.2249
11836TIP3    H256924   1.829   5.482   3.750 -0.3887 -0.1500  1.0245
11837TIP3   OH256925   5.193   5.651  14.397 -0.2712 -0.7336  0.0941
11837TIP3    H156926   5.263   5.601  14.438  1.1455  0.9806 -0.0756
11837TIP3    H256927   5.126   5.660  14.464  1.8279  1.7093  2.1062
11838TIP3   OH256928   4.074   2.428   0.471 -0.1985  0.2549 -1.0228
11838TIP3    H156929   4.069   2.360   0.538  2.4974  1.7332  0.8684
11838TIP3    H256930   3.990   2.474   0.477 -0.0875  0.2647  1.3219
11839TIP3   OH256931   1.000   5.421  14.283 -0.0395  0.0483 -0.0753
11839TIP3    H156932   1.048   5.378  14.354 -1.1158 -0.9015  0.0984
11839TIP3    H256933   1.012   5.363  14.208  1.0085  0.9988 -0.6812
11840TIP3   OH256934   1.187   2.179  14.698  0.2313 -0.4105 -0.0602
11840TIP3    H156935   1.272   2.158  14.736 -0.4474 -0.9748  1.1977
11840TIP3    H256936   1.157   2.098  14.658 -0.0333 -0.4122  0.1370
11841TIP3   OH256937   1.047   2.031   4.412 -0.2864 -0.4167  0.5229
11841TIP3    H156938   0.992   2.097   4.453  0.3892  0.4507  0.0921
11841TIP3    H256939   0.993   1.953   4.406 -0.9982  0.0104  1.3399
11842TIP3   OH256940   6.749   6.579  14.934  0.3833 -0.3735  0.5855
11842TIP3    H156941   6.804   6.520  14.883 -0.2106 -0.9953  0.6447
11842TIP3    H256942   6.775   6.564  15.025 -0.8698 -1.7604  0.7520
11843TIP3   OH256943   5.826   5.597   0.692  0.0683 -0.2745 -0.1367
11843TIP3    H156944   5.759   5.591   0.624  0.1709 -0.3314 -0.2320
11843TIP3    H256945   5.908   5.580   0.647  0.2834  0.9954 -0.2701
11844TIP3   OH256946   3.550   5.686  16.001  0.4289  0.4530  0.9651
11844TIP3    H156947   3.576   5.766  15.956 -1.5248 -0.2554 -1.6619
11844TIP3    H256948   3.623   5.626  15.988  0.3219  0.6028 -0.3878
11845TIP3   OH256949   4.855   0.453   2.064  0.1449  0.1757  0.2514
11845TIP3    H156950   4.797   0.438   1.989  0.6973  1.4140 -0.4703
11845TIP3    H256951   4.799   0.446   2.141 -0.7329  0.2879 -0.3676
11846TIP3   OH256952   2.597   6.310   4.946 -0.1760  0.1391 -0.5500
11846TIP3    H156953   2.677   6.267   4.976  0.6464  1.3568 -0.9505
11846TIP3    H256954   2.603   6.308   4.850  1.5757  3.9833 -0.7240
11847TIP3   OH256955   2.805   4.410   1.860  0.1018  0.5957  0.3942
11847TIP3    H156956   2.732   4.461   1.895 -0.0739  1.0207 -0.5742
11847TIP3    H256957   2.767   4.362   1.786  0.7183  0.5099  0.1310
11848TIP3   OH256958   0.752   5.762  14.106 -0.4840 -0.3078  0.2580
11848TIP3    H156959   0.761   5.688  14.167 -0.4580  0.5620  1.3321
11848TIP3    H256960   0.691   5.821  14.149  0.4491  0.8764 -0.0097
11849TIP3   OH256961   0.438   3.225  12.823 -0.8785  0.0382 -0.5646
11849TIP3    H156962   0.431   3.220  12.727 -1.4932 -1.0964 -0.4786
11849TIP3    H256963   0.351   3.252  12.852 -0.6299  0.6032 -0.3267
11850TIP3   OH256964   3.599   4.706   3.197  0.2482  0.0469  0.2230
11850TIP3    H156965   3.559   4.766   3.260 -0.6609 -1.0790  0.7614
11850TIP3    H256966   3.569   4.736   3.112  1.7507  1.7944  0.2269
11851TIP3   OH256967   4.924   5.815  14.345  0.3092  0.0971  0.1093
11851TIP3    H156968   4.954   5.779  14.428 -1.5522 -0.3393  0.6571
11851TIP3    H256969   4.985   5.782  14.280  0.7434 -1.0801  1.0844
11852TIP3   OH256970   3.605   5.226   5.882  0.0487  0.1857  0.2052
11852TIP3    H156971   3.610   5.148   5.828  1.6880  1.1480 -1.1378
11852TIP3    H256972   3.567   5.197   5.964  1.0241 -2.1127 -0.0970
11853TIP3   OH256973   0.477   6.511   5.709  0.0626  0.1995 -0.1468
11853TIP3    H156974   0.516   6.592   5.677 -2.0885  0.7514 -1.5663
11853TIP3    H256975   0.409   6.489   5.645  0.9331 -3.0778 -0.1261
11854TIP3   OH256976   0.514   4.166   1.372  0.3655  0.3418 -0.0283
11854TIP3    H156977   0.597   4.119   1.375  0.4095  0.4066 -0.2177
11854TIP3    H256978   0.540   4.258   1.369  0.2955  0.3532 -0.3912
11855TIP3   OH256979   3.918   1.752  15.219  0.1391  0.0059  0.4900
11855TIP3    H156980   3.884   1.711  15.299  2.0932  0.4494  1.6286
11855TIP3    H256981   3.928   1.844  15.242  2.0277 -0.1000  0.2590
11856TIP3   OH256982   6.544   6.359   3.234  0.4540 -0.4375 -0.1748
11856TIP3    H156983   6.451   6.361   3.211  0.3094 -1.8322  0.2081
11856TIP3    H256984   6.589   6.342   3.151  0.2720 -0.9587 -0.1698
11857TIP3   OH256985   3.104   5.477  16.436  0.3891  0.3359  0.1906
11857TIP3    H156986   3.055   5.431  16.504 -0.6294 -1.0744 -1.3957
11857TIP3    H256987   3.177   5.419  16.415  1.1821  1.1521  0.6409
11858TIP3   OH256988   0.083   3.261   4.526 -0.2194 -0.3581  0.4681
11858TIP3    H156989   0.088   3.325   4.454  1.7889 -1.4591 -0.4549
11858TIP3    H256990   0.012   3.202   4.500 -0.8803  0.4293  0.4372
11859TIP3   OH256991   0.640   6.191  16.750 -0.0473  0.0244  0.6963
11859TIP3    H156992   0.576   6.255  16.781  0.6089  0.7868  0.5078
11859TIP3    H256993   0.720   6.211  16.798  0.4631  0.0457 -0.1436
11860TIP3   OH256994   2.752   6.542  12.648 -0.1124  0.0359 -0.1330
11860TIP3    H156995   2.658   6.528  12.658 -0.2858  0.6765 -0.7446
11860TIP3    H256996   2.792   6.457  12.670 -0.8846 -0.4642 -0.6194
11861TIP3   OH256997   6.784   2.056   2.500  0.2896  0.1307  0.2619
11861TIP3    H156998   6.830   2.064   2.416  0.8404 -1.2622  0.4173
11861TIP3    H256999   6.731   1.977   2.491 -1.4269  1.2136  0.4230
11862TIP3   OH257000   1.600   2.291  11.143 -0.2639  0.1353 -0.0583
11862TIP3    H157001   1.602   2.205  11.102  1.3573 -0.0863  0.4480
11862TIP3    H257002   1.601   2.352  11.069  0.7922 -0.2686 -0.3911
11863TIP3   OH257003   3.272   5.110   0.011  0.2768 -0.5543  0.0983
11863TIP3    H157004   3.231   5.072   0.090  1.8726 -1.9691  0.2976
11863TIP3    H257005   3.257   5.204   0.020 -0.6029 -0.7825  1.4861
11864TIP3   OH257006   1.142   2.941   5.543 -0.3878 -0.2276 -0.0402
11864TIP3    H157007   1.085   2.892   5.483 -0.4323 -1.5850  1.0616
11864TIP3    H257008   1.212   2.974   5.487 -0.4549 -1.4193 -0.8746
11865TIP3   OH257009   3.758   5.003   3.617  0.0214 -0.3663 -0.4035
11865TIP3    H157010   3.814   4.928   3.598  0.2368 -0.4237  0.4334
11865TIP3    H257011   3.696   4.971   3.683 -2.0496 -0.7867 -2.3975
11866TIP3   OH257012   5.657   2.972  13.135  0.4331 -0.3104 -0.2918
11866TIP3    H157013   5.747   2.998  13.153  0.1325 -0.2451  1.3212
11866TIP3    H257014   5.665   2.887  13.091  1.3026  0.5290 -1.8097
11867TIP3   OH257015   2.687   5.806   0.248  0.6965  0.0747  0.3537
11867TIP3    H157016   2.633   5.740   0.204 -2.0454  2.2136  0.3052
11867TIP3    H257017   2.720   5.761   0.326 -2.1743 -1.0510  1.0335
11868TIP3   OH257018   0.642   2.866  12.710 -0.0546  0.2714  0.4446
11868TIP3    H157019   0.578   2.893  12.775  0.5165  0.6589  0.8627
11868TIP3    H257020   0.616   2.777  12.685 -1.3586  0.8041 -0.1796
11869TIP3   OH257021   6.192   0.120  11.765 -0.6207 -0.0703 -0.1176
11869TIP3    H157022   6.122   0.167  11.810 -0.4633  0.2679 -0.2263
11869TIP3    H257023   6.228   0.184  11.703  0.5157  0.1089  0.7030
11870TIP3   OH257024   4.907   0.199   1.846 -0.3322 -0.0040 -0.2128
11870TIP3    H157025   5.002   0.186   1.837 -0.3703 -1.7033  1.3047
11870TIP3    H257026   4.899   0.281   1.894  0.3055  0.7285 -1.2997
11871TIP3   OH257027   4.014   6.212  14.738  0.2291 -0.6742  0.1684
11871TIP3    H157028   3.998   6.264  14.816 -0.0270 -1.9120  0.9772
11871TIP3    H257029   4.095   6.248  14.701 -0.5601  1.0274  0.0130
11872TIP3   OH257030   3.228   6.096  16.470 -0.2650 -0.5310 -0.2159
11872TIP3    H157031   3.275   6.167  16.512 -0.8356 -0.1570 -0.1979
11872TIP3    H257032   3.135   6.117  16.483 -0.4538 -1.9235  0.8957
11873TIP3   OH257033   2.508   0.814   3.845 -0.1837 -0.2677 -0.4654
11873TIP3    H157034   2.577   0.870   3.809  1.0341 -0.0419  2.0064
11873TIP3    H257035   2.444   0.876   3.879  0.6379 -0.3280  1.2904
11874TIP3   OH257036   4.032   4.800   4.802  0.3054 -0.0484 -0.0509
11874TIP3    H157037   3.952   4.773   4.848 -0.5421 -1.2274 -2.0794
11874TIP3    H257038   4.027   4.755   4.718  0.9595  3.2239 -2.0119
11875TIP3   OH257039   4.850   0.396   6.177  0.3699  0.1066  0.7156
11875TIP3    H157040   4.811   0.483   6.180 -0.2788 -0.1560 -0.0398
11875TIP3    H257041   4.834   0.360   6.264  0.3254  0.5977  0.9154
11876TIP3   OH257042   2.800   4.667  16.423 -0.9635  0.0488 -0.1606
11876TIP3    H157043   2.738   4.619  16.477  1.7156 -0.8787  2.3831
11876TIP3    H257044   2.879   4.613  16.423  0.7000  2.3139 -1.0437
11877TIP3   OH257045   3.730   5.231   0.056 -0.0382 -0.2269 -0.2378
11877TIP3    H157046   3.693   5.162   0.002 -2.8936  1.1152 -0.1592
11877TIP3    H257047   3.788   5.185   0.117  1.2105 -2.0583 -2.6190
11878TIP3   OH257048   1.996   4.955   5.834 -0.2555 -0.4538 -0.1979
11878TIP3    H157049   2.048   5.035   5.830  0.1215 -0.7443 -1.8131
11878TIP3    H257050   2.059   4.886   5.854 -0.6310 -0.3336  1.5290
11879TIP3   OH257051   5.949   1.920  13.563  0.5362  0.3623  0.4432
11879TIP3    H157052   6.025   1.899  13.618  1.3912  0.2548 -0.7443
11879TIP3    H257053   5.908   1.835  13.544 -0.2823  0.4687  1.5908
11880TIP3   OH257054   5.555   2.762   5.948 -0.6591  0.1562  0.2795
11880TIP3    H157055   5.561   2.770   6.043 -1.0184  0.5339  0.2734
11880TIP3    H257056   5.501   2.683   5.935 -1.2768  0.5542  0.4005
11881TIP3   OH257057   4.292   4.940  15.511  0.3126  0.5533  0.4870
11881TIP3    H157058   4.259   4.963  15.424 -0.9397 -1.1435  0.4698
11881TIP3    H257059   4.251   5.004  15.569  2.2135  2.5638 -0.2607
11882TIP3   OH257060   0.388   4.574   2.900 -0.0080  0.5660 -0.0088
11882TIP3    H157061   0.395   4.645   2.965  1.5185  2.0120 -1.6332
11882TIP3    H257062   0.300   4.539   2.912 -0.2048  1.6167  1.9887
11883TIP3   OH257063   5.748   2.456   3.172  0.8109 -0.6295 -0.5429
11883TIP3    H157064   5.654   2.476   3.174  1.0254  0.5158 -0.9107
11883TIP3    H257065   5.760   2.391   3.240 -0.3882 -1.4414 -1.0704
11884TIP3   OH257066   4.263   6.288   0.341 -0.1119 -0.2002  0.3808
11884TIP3    H157067   4.341   6.324   0.299 -0.7678  1.5622  0.5854
11884TIP3    H257068   4.285   6.286   0.435 -0.2817  0.2178  0.4299
11885TIP3   OH257069   5.238   1.444   4.414  0.3386  0.2953  0.1406
11885TIP3    H157070   5.229   1.418   4.322  0.8342 -0.9071  0.4095
11885TIP3    H257071   5.302   1.382   4.450  1.6930  2.0098  0.8090
11886TIP3   OH257072   5.308   0.472   4.593 -0.1295  0.4261 -0.0079
11886TIP3    H157073   5.266   0.452   4.676  0.6908  1.1837  0.6112
11886TIP3    H257074   5.400   0.448   4.606 -0.0195  0.4325 -0.7360
11887TIP3   OH257075   4.027   0.434   0.575  0.2442  0.7967 -0.3004
11887TIP3    H157076   4.024   0.339   0.579 -0.2273  0.8166  3.2376
11887TIP3    H257077   4.120   0.456   0.579  0.3489  0.5041 -1.0476
11888TIP3   OH257078   4.195   3.556   6.898  0.0334  0.3739 -0.0439
11888TIP3    H157079   4.213   3.618   6.827 -0.5428 -1.2145 -1.6517
11888TIP3    H257080   4.240   3.476   6.872 -1.8649 -0.8724  0.3207
11889TIP3   OH257081   6.624   1.411  14.708  0.3545  0.3644 -0.0191
11889TIP3    H157082   6.582   1.325  14.703  2.8018 -0.9024 -0.2882
11889TIP3    H257083   6.621   1.444  14.618  1.4776 -0.5475 -0.4185
11890TIP3   OH257084   1.938   0.331   5.720 -0.3395  0.1971  0.4206
11890TIP3    H157085   1.937   0.411   5.774  0.8446 -0.1851  1.0694
11890TIP3    H257086   2.031   0.307   5.717 -0.4715 -0.2007 -1.2215
11891TIP3   OH257087   0.750   3.320   1.471 -0.2905  0.0343  1.0079
11891TIP3    H157088   0.737   3.227   1.451  1.8143  0.2214 -1.8213
11891TIP3    H257089   0.841   3.326   1.499 -0.0878  1.3419  0.1796
11892TIP3   OH257090   2.880   3.364  11.714 -0.0608  0.0295 -0.2462
11892TIP3    H157091   2.807   3.349  11.774 -0.3524  0.7533 -0.4148
11892TIP3    H257092   2.947   3.405  11.767 -0.4356  0.9569 -0.4688
11893TIP3   OH257093   3.880   2.967  13.338 -0.3238 -0.5449  0.1717
11893TIP3    H157094   3.961   2.948  13.384 -0.2738 -1.3585 -0.2401
11893TIP3    H257095   3.898   3.046  13.287 -0.6163  0.8626  2.1171
11894TIP3   OH257096   2.631   0.114   4.759  0.0609  0.3108 -0.5974
11894TIP3    H157097   2.546   0.118   4.804  0.3411  1.2722 -0.1362
11894TIP3    H257098   2.608   0.119   4.666 -0.3835  0.8450 -0.4680
11895TIP3   OH257099   3.335   6.786  15.313 -0.0290  0.2411  0.1929
11895TIP3    H157100   3.410   6.828  15.355 -0.6352  1.6208 -0.0492
11895TIP3    H257101   3.332   6.698  15.353  1.0279  0.5458  1.0179
11896TIP3   OH257102   3.828   0.029   4.172  0.6182  0.5766  0.0214
11896TIP3    H157103   3.904   0.085   4.158  0.6506  1.7510  3.7088
11896TIP3    H257104   3.857  -0.032   4.241 -1.9138  1.6604  2.2134
11897TIP3   OH257105   5.478   5.379   0.499  0.3128  0.2540 -0.0761
11897TIP3    H157106   5.556   5.324   0.490 -0.1556 -0.6689  1.2175
11897TIP3    H257107   5.496   5.435   0.575 -1.4950 -2.2700  2.4450
11898TIP3   OH257108   0.090   1.635  14.325  0.1957  0.1449  0.0381
11898TIP3    H157109   0.160   1.646  14.260  1.2429 -3.1869  0.4112
11898TIP3    H257110   0.129   1.664  14.408  0.3983  0.2670 -0.0992
11899TIP3   OH257111   6.124   4.225  14.392  0.8963  0.4355  0.1340
11899TIP3    H157112   6.215   4.243  14.369  1.1858 -2.5215 -1.5342
11899TIP3    H257113   6.073   4.282  14.335  1.7071  0.8747 -0.1700
11900TIP3   OH257114   4.647   2.384  10.491 -0.4746  0.2200  0.0127
11900TIP3    H157115   4.700   2.306  10.472 -0.4787  0.2865 -0.2870
11900TIP3    H257116   4.711   2.449  10.519 -0.2245  0.6773 -1.5095
11901TIP3   OH257117   0.034   2.991  11.475  0.4536  0.2232  0.2864
11901TIP3    H157118   0.121   2.951  11.469 -0.3089 -1.7567  1.4188
11901TIP3    H257119  -0.002   2.983  11.387  0.6169 -0.9528  0.3070
11902TIP3   OH257120   3.856   5.611  16.660 -0.0918 -0.2115  0.2752
11902TIP3    H157121   3.940   5.641  16.625 -0.0159 -0.4841  0.2224
11902TIP3    H257122   3.791   5.668  16.621 -0.0063 -0.4954 -0.2914
11903TIP3   OH257123   6.706   3.441   3.447  0.0586  0.3884  0.6550
11903TIP3    H157124   6.747   3.366   3.403 -1.0581 -0.0228  0.2708
11903TIP3    H257125   6.612   3.429   3.431 -0.1121  2.1016  0.2415
11904TIP3   OH257126   4.439   1.725  12.640  0.1563 -0.1866 -0.6138
11904TIP3    H157127   4.523   1.746  12.599  0.1207  1.6182  0.1140
11904TIP3    H257128   4.375   1.736  12.570  0.0378  3.3288 -0.1435
11905TIP3   OH257129   4.289   4.527  10.671  0.6661  0.2731 -0.2573
11905TIP3    H157130   4.371   4.482  10.695  1.5779  0.6928 -2.3954
11905TIP3    H257131   4.242   4.464  10.617 -0.9600 -0.3425  1.7710
11906TIP3   OH257132   1.359   1.695  16.004  0.2598 -0.2043  0.6258
11906TIP3    H157133   1.430   1.634  16.023  0.5640  0.1713  0.6965
11906TIP3    H257134   1.383   1.775  16.050 -0.8287 -0.4667  1.7158
11907TIP3   OH257135   3.954   5.161  15.379 -0.3109  0.3807  0.5251
11907TIP3    H157136   3.905   5.106  15.318  0.6780 -0.8778  0.8270
11907TIP3    H257137   3.943   5.119  15.464 -1.1502  1.7619  1.1319
11908TIP3   OH257138   0.287   5.431   5.048 -0.2862 -0.2743 -0.4453
11908TIP3    H157139   0.238   5.503   5.088 -1.2813 -1.4524  0.5518
11908TIP3    H257140   0.370   5.430   5.095 -0.3521  0.1038 -0.3145
11909TIP3   OH257141   3.454   0.980   6.737  0.2868 -0.0464 -0.5453
11909TIP3    H157142   3.489   1.063   6.769 -1.1095  0.3188  0.0952
11909TIP3    H257143   3.399   1.004   6.662 -0.9550 -0.2399  0.2694
11910TIP3   OH257144   3.557   1.988  12.378  0.7529 -0.3201  0.4217
11910TIP3    H157145   3.625   1.923  12.361  2.3795  1.2022  0.6819
11910TIP3    H257146   3.563   2.003  12.473 -0.0910 -0.3091  0.4755
11911TIP3   OH257147   1.330   3.870  15.149  0.3099 -0.3768  0.0291
11911TIP3    H157148   1.313   3.814  15.074  0.4856  0.9970 -1.0835
11911TIP3    H257149   1.384   3.817  15.208  1.6010 -0.9150 -1.5861
11912TIP3   OH257150   6.659   1.003   0.034 -0.5563  0.6277 -0.3246
11912TIP3    H157151   6.659   0.917  -0.007 -1.9948  0.5414 -0.1828
11912TIP3    H257152   6.737   1.046  -0.002  1.2479 -1.3380  0.9794
11913TIP3   OH257153   5.462   4.825  11.951  0.0893  0.0358 -0.2719
11913TIP3    H157154   5.490   4.734  11.958  0.9513  0.3299  0.1342
11913TIP3    H257155   5.383   4.829  12.005 -0.9105 -0.8482 -1.6082
11914TIP3   OH257156   0.151   3.893   0.824  0.1629 -0.1130  0.2827
11914TIP3    H157157   0.214   3.822   0.837 -0.2659 -0.0199  3.6863
11914TIP3    H257158   0.082   3.876   0.888 -1.9076  1.3297 -1.4240
11915TIP3   OH257159   4.729   2.518   0.755 -0.0737 -0.0779 -0.0934
11915TIP3    H157160   4.665   2.562   0.811 -0.1953 -2.0551  1.4260
11915TIP3    H257161   4.781   2.589   0.719 -3.3275  1.7101 -1.8018
11916TIP3   OH257162   4.888   4.382  12.438  0.4847  0.2860 -0.3549
11916TIP3    H157163   4.846   4.411  12.519  1.0542  0.6602 -0.1896
11916TIP3    H257164   4.976   4.420  12.442  0.6610 -0.0576 -0.9417
11917TIP3   OH257165   0.100   6.466  15.544 -0.1779  0.2742  0.2597
11917TIP3    H157166   0.073   6.487  15.454 -1.9752 -0.9482  0.4512
11917TIP3    H257167   0.074   6.543  15.594  1.3994  1.2276 -0.3211
11918TIP3   OH257168   3.450   4.571   4.727  0.0671  0.0893  0.1805
11918TIP3    H157169   3.371   4.517   4.716 -0.4152  0.4658  1.6400
11918TIP3    H257170   3.426   4.657   4.693 -0.5913  0.5530  1.7457
11919TIP3   OH257171   6.446   0.270  17.105 -0.3739 -0.4924 -0.0668
11919TIP3    H157172   6.515   0.321  17.148 -0.9821 -0.3564  0.7687
11919TIP3    H257173   6.437   0.192  17.160 -0.6876 -0.6406 -0.3306
11920TIP3   OH257174   2.098   5.982   0.348  0.2550  0.4383 -0.7236
11920TIP3    H157175   2.046   5.967   0.427  0.1539 -0.9664 -1.0250
11920TIP3    H257176   2.154   5.905   0.342 -0.2643  0.1515 -2.4191
11921TIP3   OH257177   3.074   4.129  16.821 -0.1290  0.0666 -0.3145
11921TIP3    H157178   2.998   4.177  16.853  0.3668 -0.0756  1.1471
11921TIP3    H257179   3.113   4.090  16.899  0.2977 -1.5409 -1.2732
11922TIP3   OH257180   4.825   1.166  10.898 -0.2209 -0.3204  0.2283
11922TIP3    H157181   4.802   1.140  10.988  2.7387 -1.4003  0.7941
11922TIP3    H257182   4.874   1.247  10.908  0.4574 -0.6487 -0.3631
11923TIP3   OH257183   6.154   1.020  12.268 -0.6176 -0.4626  0.6491
11923TIP3    H157184   6.096   0.944  12.267  0.0090 -0.9962 -1.5184
11923TIP3    H257185   6.232   0.990  12.315 -0.9633 -0.6641  1.1054
11924TIP3   OH257186   4.430   4.244   3.147 -0.4069  0.1966  0.3165
11924TIP3    H157187   4.411   4.317   3.207  0.2792  3.2543 -2.8123
11924TIP3    H257188   4.512   4.269   3.105 -0.4459 -2.1494 -1.3289
11925TIP3   OH257189   4.892   2.296   3.624  0.7689  0.3226  0.3203
11925TIP3    H157190   4.835   2.372   3.636  0.7140  0.1147  1.5140
11925TIP3    H257191   4.898   2.285   3.530 -1.1565  0.3528  0.1685
11926TIP3   OH257192   2.142   5.093   1.214 -0.0638 -0.5929 -0.3986
11926TIP3    H157193   2.085   5.056   1.146  0.6801 -0.8879 -0.8791
11926TIP3    H257194   2.118   5.185   1.218 -0.2812 -0.6210 -0.9114
11927TIP3   OH257195   3.260   4.489   1.783  0.0628  0.0826 -0.3852
11927TIP3    H157196   3.307   4.557   1.830 -0.2836  0.7192 -0.9362
11927TIP3    H257197   3.179   4.532   1.753 -0.4339 -0.7285 -0.2386
11928TIP3   OH257198   1.583   4.271   5.368 -0.0722 -0.2950 -0.4258
11928TIP3    H157199   1.564   4.252   5.276  1.3528  0.2419 -0.8503
11928TIP3    H257200   1.676   4.294   5.369  0.2547 -1.4956  1.3372
11929TIP3   OH257201   2.995   6.019  11.619 -0.2622 -0.1907 -0.2056
11929TIP3    H157202   2.965   6.058  11.537 -1.4253  0.7444  0.6236
11929TIP3    H257203   2.931   5.950  11.637  0.6954 -1.2353 -0.6868
11930TIP3   OH257204   6.217   2.665   1.616  0.4611  0.1454 -0.6592
11930TIP3    H157205   6.301   2.628   1.641  0.6984  0.0375 -1.5711
11930TIP3    H257206   6.172   2.682   1.699  1.2573 -0.0728 -0.1740
11931TIP3   OH257207   2.592   3.434   0.885  0.0559 -0.3835 -0.4312
11931TIP3    H157208   2.520   3.376   0.909  0.3190 -0.1398  1.0703
11931TIP3    H257209   2.589   3.439   0.790 -1.3324 -1.1005 -0.4424
11932TIP3   OH257210   1.093   3.496   3.311  0.4479  0.8430  0.3415
11932TIP3    H157211   1.102   3.552   3.388 -1.0077 -0.7450  1.7561
11932TIP3    H257212   1.142   3.417   3.334 -1.7000 -0.4804  0.5595
11933TIP3   OH257213   5.554   1.133   2.052  0.3207  0.2999  0.0418
11933TIP3    H157214   5.625   1.125   1.989 -0.1109  0.0501 -0.4223
11933TIP3    H257215   5.583   1.081   2.127  0.3765 -0.2907 -0.3765
11934TIP3   OH257216   2.253   1.734   2.218  0.1319 -0.3470 -0.3280
11934TIP3    H157217   2.202   1.712   2.296 -2.6868 -1.8476 -2.4166
11934TIP3    H257218   2.212   1.813   2.183  1.8737  0.7772  0.0694
11935TIP3   OH257219   4.475   4.857   4.310 -0.1770 -0.0438 -0.0097
11935TIP3    H157220   4.393   4.864   4.358  0.5092 -1.9072  1.5569
11935TIP3    H257221   4.477   4.767   4.278  0.7819  0.2906 -0.9545
11936TIP3   OH257222   5.463   3.218  15.558  0.5978 -0.0733 -0.0911
11936TIP3    H157223   5.489   3.144  15.613  0.7433 -1.2860 -1.7221
11936TIP3    H257224   5.521   3.213  15.482 -0.1548  1.0419 -0.7649
11937TIP3   OH257225   6.489   4.138   4.900 -0.2917  1.1553 -0.1028
11937TIP3    H157226   6.493   4.063   4.960  2.3847 -1.5146 -3.2718
11937TIP3    H257227   6.397   4.165   4.903 -0.9095 -0.7305  2.8564
11938TIP3   OH257228   2.371   1.320  14.009 -0.0464  0.3680 -0.4451
11938TIP3    H157229   2.367   1.279  14.095 -0.3773  0.2307 -0.5265
11938TIP3    H257230   2.334   1.407  14.022  0.2501  0.4820 -0.3675
11939TIP3   OH257231   4.660   1.463  12.753  0.2389  0.5030 -0.4941
11939TIP3    H157232   4.617   1.377  12.752 -0.5845  0.8728  0.7650
11939TIP3    H257233   4.648   1.496  12.664 -1.4747  0.2782 -0.3787
11940TIP3   OH257234   4.563   0.410   6.429 -0.2153  0.1835  0.0205
11940TIP3    H157235   4.509   0.331   6.435 -0.7767  0.6486  1.3856
11940TIP3    H257236   4.650   0.382   6.459 -0.3993  0.0733  0.4497
11941TIP3   OH257237   6.767   1.003  12.487 -0.5751  0.0857  0.1539
11941TIP3    H157238   6.822   0.925  12.475  1.6249  1.3097  1.6048
11941TIP3    H257239   6.793   1.062  12.416 -1.0051  0.1739  0.0654
11942TIP3   OH257240   4.175   2.105   0.403 -0.2096 -0.3516  0.8096
11942TIP3    H157241   4.233   2.051   0.349  0.2733 -1.2355  2.1599
11942TIP3    H257242   4.232   2.176   0.434 -0.0631 -0.7383  1.4371
11943TIP3   OH257243   2.691   3.764  13.046  0.3952  0.6218  0.7252
11943TIP3    H157244   2.765   3.813  13.082  0.1876  1.1159  0.4921
11943TIP3    H257245   2.614   3.802  13.087  0.1147  1.5560 -0.6097
11944TIP3   OH257246   4.246   0.127  16.097 -0.6808 -0.5457 -0.3626
11944TIP3    H157247   4.158   0.137  16.061  0.1773 -1.1091 -2.7751
11944TIP3    H257248   4.271   0.037  16.078  0.8990 -0.0333 -0.9692
11945TIP3   OH257249   2.909   3.283   3.046  0.0078 -0.2520 -0.2478
11945TIP3    H157250   2.941   3.356   2.993 -1.0457 -0.7992 -1.7074
11945TIP3    H257251   2.864   3.325   3.119  0.4950  0.5370 -0.3834
11946TIP3   OH257252   0.353   0.872  13.000  0.4721  0.1448  0.0515
11946TIP3    H157253   0.391   0.785  12.990 -1.2176 -0.4912 -1.2015
11946TIP3    H257254   0.343   0.884  13.094  0.3266 -1.1825  0.2121
11947TIP3   OH257255   5.765   6.505   6.641  0.4377 -0.0014  0.9687
11947TIP3    H157256   5.707   6.432   6.659  0.0598  0.3681  1.2699
11947TIP3    H257257   5.827   6.471   6.577 -0.1811 -0.3715  0.5528
11948TIP3   OH257258   3.973   6.678   5.241  0.4954 -0.0137 -0.2617
11948TIP3    H157259   4.040   6.620   5.277  2.1533  1.0134 -1.5681
11948TIP3    H257260   4.018   6.760   5.222 -0.3255 -0.2174 -3.9831
11949TIP3   OH257261   6.568   5.867   2.098  0.0253  0.7732 -0.0579
11949TIP3    H157262   6.591   5.927   2.169 -0.4811  1.1057 -0.1708
11949TIP3    H257263   6.535   5.923   2.029 -0.4922  0.3615 -0.1523
11950TIP3   OH257264   6.083   3.459  13.621  0.5717  0.4807 -0.0086
11950TIP3    H157265   6.131   3.415  13.692 -0.6823  0.1593  0.6617
11950TIP3    H257266   6.075   3.550  13.650 -0.1313  0.3011  0.3714
11951TIP3   OH257267   6.732   1.222   3.695 -0.3899  0.4380  0.1833
11951TIP3    H157268   6.716   1.132   3.724  2.0728  0.4373  1.9270
11951TIP3    H257269   6.802   1.214   3.630 -1.3887  0.9961 -0.9998
11952TIP3   OH257270   3.791   4.885   4.296 -0.5443 -0.4378 -0.0854
11952TIP3    H157271   3.863   4.832   4.263 -0.0085 -0.1559  0.6020
11952TIP3    H257272   3.789   4.961   4.239 -0.0912 -0.2982  0.0797
11953TIP3   OH257273   1.303   0.411  16.917  0.2261 -0.5093 -0.0517
11953TIP3    H157274   1.301   0.355  16.995  0.7559 -0.6000 -0.1048
11953TIP3    H257275   1.326   0.498  16.950 -2.8264  0.2609  0.3781
11954TIP3   OH257276   6.196   1.478  11.148  0.5175 -0.0656  0.1563
11954TIP3    H157277   6.137   1.445  11.216 -0.0828  1.3928  0.3562
11954TIP3    H257278   6.184   1.418  11.075 -0.0432 -0.6919  0.7464
11955TIP3   OH257279   5.577   6.070   3.973 -0.3054  0.0263 -0.7328
11955TIP3    H157280   5.483   6.072   3.954 -0.4071  1.0490 -0.2507
11955TIP3    H257281   5.585   6.009   4.047 -0.7542  0.7139 -0.0921
11956TIP3   OH257282   2.237   6.778  17.118 -0.2640  0.0447  0.6652
11956TIP3    H157283   2.274   6.703  17.072  0.2201 -0.0446  1.1864
11956TIP3    H257284   2.151   6.749  17.148 -0.1433 -0.2503  0.7243
11957TIP3   OH257285   5.723   1.931  16.442  0.3333  0.4137  0.2037
11957TIP3    H157286   5.639   1.920  16.398  0.2431  0.9031  0.2550
11957TIP3    H257287   5.758   1.842  16.449  0.5590  0.3603 -1.2602
11958TIP3   OH257288   5.976   2.141   3.158  0.0261 -0.3278  0.3386
11958TIP3    H157289   6.024   2.196   3.220 -0.2068  0.7753 -0.4180
11958TIP3    H257290   5.982   2.189   3.075 -0.4195 -1.3278 -0.2886
11959TIP3   OH257291   4.878   6.351   0.397  0.0338 -0.0555  0.2171
11959TIP3    H157292   4.799   6.300   0.412  1.1004 -2.3522 -1.3834
11959TIP3    H257293   4.946   6.307   0.448  0.6030  1.0467  0.4608
11960TIP3   OH257294   3.881   1.452  16.060  0.4356  0.2635  0.0425
11960TIP3    H157295   3.946   1.481  15.996 -0.0014  1.7819  0.2510
11960TIP3    H257296   3.891   1.513  16.133  0.3578 -0.9243  1.0815
11961TIP3   OH257297   4.423   2.375  11.912  0.5757  0.2191 -0.1422
11961TIP3    H157298   4.418   2.470  11.906 -0.5932  0.1449 -0.4657
11961TIP3    H257299   4.334   2.345  11.898  1.1350 -0.9938 -1.2767
11962TIP3   OH257300   5.367   1.641   1.387  0.1236  0.0427 -0.0263
11962TIP3    H157301   5.286   1.675   1.424  0.8364  1.3463  0.4052
11962TIP3    H257302   5.427   1.715   1.389  1.5349 -1.0598  0.2879
11963TIP3   OH257303   5.961   4.197   5.305  0.2585 -0.6632  0.2399
11963TIP3    H157304   5.987   4.150   5.384  0.9583 -0.8024 -0.0603
11963TIP3    H257305   6.044   4.221   5.264 -0.0743  1.0174  0.4914
11964TIP3   OH257306   6.645   3.120  16.802  0.4776 -0.0800 -0.2501
11964TIP3    H157307   6.586   3.195  16.817 -0.0214 -0.5592  0.2280
11964TIP3    H257308   6.620   3.087  16.716  0.4088  0.0375 -0.2756
11965TIP3   OH257309   1.519   2.638  14.021 -0.4454 -0.2671  0.0857
11965TIP3    H157310   1.456   2.669  13.956  1.1480  0.6375 -1.1145
11965TIP3    H257311   1.595   2.611  13.969 -0.3053 -2.6609  1.3676
11966TIP3   OH257312   4.794   4.696  16.902  0.0189  0.2088  0.4691
11966TIP3    H157313   4.865   4.759  16.915  1.6764 -1.3317 -0.5889
11966TIP3    H257314   4.784   4.654  16.987 -1.5085  2.1791  1.3561
11967TIP3   OH257315   3.502   6.354   4.557  0.3309  0.0063 -0.3369
11967TIP3    H157316   3.488   6.275   4.505 -2.0556  1.0834 -1.5125
11967TIP3    H257317   3.590   6.344   4.593 -0.1447 -3.5228  0.2191
11968TIP3   OH257318   2.467   3.145   0.872  0.2336 -0.3008  0.6777
11968TIP3    H157319   2.391   3.089   0.887 -0.1909  0.0032 -0.2663
11968TIP3    H257320   2.436   3.211   0.811  1.4619 -0.6083 -0.3097
11969TIP3   OH257321   1.211   1.203   6.284  0.6315 -0.3563  0.2762
11969TIP3    H157322   1.239   1.284   6.242 -2.6326  0.1214 -1.3349
11969TIP3    H257323   1.278   1.185   6.350  3.2473  1.7727 -1.5917
11970TIP3   OH257324   2.916   2.886   3.180 -0.2389  0.0014  0.1063
11970TIP3    H157325   3.011   2.880   3.187  0.3982  1.2722 -4.2063
11970TIP3    H257326   2.893   2.965   3.229  1.6530  2.0619 -2.1207
11971TIP3   OH257327   2.778   2.296   4.060  0.1938  0.4754 -1.1088
11971TIP3    H157328   2.872   2.289   4.072 -0.0341 -1.2170  0.0293
11971TIP3    H257329   2.764   2.386   4.029  1.9771  1.5414  0.9086
11972TIP3   OH257330   3.759   0.557  16.209  0.2020 -0.7975 -0.1506
11972TIP3    H157331   3.819   0.627  16.182  1.7361 -1.8431  0.4204
11972TIP3    H257332   3.683   0.567  16.151  0.2200  1.5160  0.1226
11973TIP3   OH257333   5.708   2.005  10.730 -0.1960  0.4020  0.7689
11973TIP3    H157334   5.646   1.938  10.700  0.8335  0.5173 -1.9376
11973TIP3    H257335   5.663   2.088  10.713 -0.8600  0.4720  2.6738
11974TIP3   OH257336   0.493   2.876   5.359  0.3552  0.0971  0.3805
11974TIP3    H157337   0.440   2.934   5.414 -0.6098 -0.6072  0.2299
11974TIP3    H257338   0.476   2.907   5.270 -0.7289 -0.8413  0.2451
11975TIP3   OH257339   6.582   0.411   0.269 -0.0621  0.2131  0.1654
11975TIP3    H157340   6.551   0.322   0.253 -0.8032  0.6005 -0.6159
11975TIP3    H257341   6.636   0.432   0.193  1.1473 -0.0125  0.9417
11976TIP3   OH257342   3.243   2.469   6.767  0.2450 -0.1676  0.9181
11976TIP3    H157343   3.338   2.469   6.777  0.2790 -2.5079  1.1884
11976TIP3    H257344   3.218   2.377   6.777 -1.9825  0.2914  0.1662
11977TIP3   OH257345   4.445   2.814   3.378  0.0272 -0.8268  0.4737
11977TIP3    H157346   4.536   2.804   3.408  0.2945 -0.9491 -0.3381
11977TIP3    H257347   4.431   2.908   3.374  0.8278 -0.7392 -1.3750
11978TIP3   OH257348   6.271   0.912  11.825 -0.5515 -0.1832  0.0260
11978TIP3    H157349   6.309   0.901  11.738 -1.2415  0.7981 -0.4119
11978TIP3    H257350   6.185   0.869  11.819  0.4334 -2.4464  1.0233
11979TIP3   OH257351   2.658   4.513  15.979  0.1056  0.8407 -0.5131
11979TIP3    H157352   2.642   4.607  15.976 -0.6177  0.7213 -0.5381
11979TIP3    H257353   2.709   4.495  15.900  1.2203  1.3739  0.0481
11980TIP3   OH257354   1.662   4.135   1.402 -0.7262 -0.2291  0.3525
11980TIP3    H157355   1.623   4.054   1.436  0.1146 -1.1827 -0.8631
11980TIP3    H257356   1.743   4.144   1.452 -0.0406 -1.0233 -0.5819
11981TIP3   OH257357   6.193   1.183   3.289  0.4533  0.2849  0.1570
11981TIP3    H157358   6.240   1.126   3.229  1.3097  0.8271  0.2987
11981TIP3    H257359   6.249   1.188   3.367  0.9588  2.1768 -0.2743
11982TIP3   OH257360   6.300   0.441  16.415 -0.2492  0.1730  0.2410
11982TIP3    H157361   6.376   0.485  16.377 -0.6228  0.4859 -0.1531
11982TIP3    H257362   6.291   0.480  16.502  0.8383 -0.8150  0.8196
11983TIP3   OH257363   4.744   3.732   2.752 -0.3790  0.5588  0.1708
11983TIP3    H157364   4.778   3.775   2.831  0.1863 -1.3068  1.0075
11983TIP3    H257365   4.744   3.800   2.685  2.9836  1.2511  0.6943
11984TIP3   OH257366   2.669   1.234   3.972 -0.3552 -0.0714  0.8073
11984TIP3    H157367   2.593   1.275   4.013  0.9404  2.6070  0.7295
11984TIP3    H257368   2.731   1.220   4.044 -0.3710 -0.9617  0.6598
11985TIP3   OH257369   3.212   3.857  13.790  0.5378  0.3615 -0.2262
11985TIP3    H157370   3.132   3.813  13.819  0.5541  0.6056  0.2004
11985TIP3    H257371   3.218   3.837  13.697 -0.9079  1.7116 -0.6417
11986TIP3   OH257372   3.343   6.765  15.964 -0.6888 -0.2728  0.4503
11986TIP3    H157373   3.386   6.696  16.014  0.0302  0.0207  0.2566
11986TIP3    H257374   3.393   6.844  15.985 -1.4538  0.1814  0.6124
11987TIP3   OH257375   3.349   5.454  12.859 -0.5637 -0.3128 -0.1420
11987TIP3    H157376   3.415   5.438  12.927  1.1470  0.6314 -1.4860
11987TIP3    H257377   3.343   5.371  12.811  0.4609 -0.1221 -0.6375
11988TIP3   OH257378   0.119   3.330  14.671  0.6272  0.0893  0.9576
11988TIP3    H157379   0.054   3.361  14.609 -0.4886 -0.2570  1.9212
11988TIP3    H257380   0.105   3.236  14.675  2.1389 -0.2139  0.1442
11989TIP3   OH257381   2.630   6.789  12.120 -0.2605 -0.0288 -0.2355
11989TIP3    H157382   2.538   6.800  12.094 -0.7979 -1.1334  1.0627
11989TIP3    H257383   2.629   6.804  12.215  0.9670  0.2096 -0.2503
11990TIP3   OH257384   5.342   1.203  12.336 -0.1079  0.6035  0.1360
11990TIP3    H157385   5.404   1.166  12.399 -1.0336 -0.1987  0.6003
11990TIP3    H257386   5.284   1.257  12.389  0.3504  1.5842 -0.3381
11991TIP3   OH257387   1.417   2.764   3.438  0.3541  0.0035  0.3045
11991TIP3    H157388   1.435   2.696   3.503  0.6182 -0.9719 -0.7655
11991TIP3    H257389   1.502   2.785   3.401  0.4085  1.5899  1.2314
11992TIP3   OH257390   3.510   2.057   4.181 -0.0419 -0.1017 -0.1861
11992TIP3    H157391   3.548   2.029   4.264 -0.3154  0.0948  0.0101
11992TIP3    H257392   3.538   2.148   4.171  0.9505 -0.4748 -0.8850
11993TIP3   OH257393   0.280   0.653   2.931  0.0497 -0.6632  0.2656
11993TIP3    H157394   0.348   0.587   2.916  2.0144  1.2318  0.2871
11993TIP3    H257395   0.292   0.680   3.022  2.4218  2.8322 -0.8646
11994TIP3   OH257396   0.706   4.090  16.132  0.5555  0.5124  0.1913
11994TIP3    H157397   0.689   4.095  16.226  1.8975 -1.7016  0.6380
11994TIP3    H257398   0.622   4.110  16.091 -0.4702 -0.0619  1.9155
11995TIP3   OH257399   1.812   4.918   4.888  0.3688  0.6252 -0.4578
11995TIP3    H157400   1.794   4.927   4.795 -1.1714  0.3594 -0.2298
11995TIP3    H257401   1.895   4.870   4.893  0.4851  0.6799 -1.6836
11996TIP3   OH257402   1.382   0.405   0.318  0.6946 -0.2386  0.5058
11996TIP3    H157403   1.350   0.366   0.399  0.1005 -3.3871 -1.0896
11996TIP3    H257404   1.474   0.377   0.313  1.1470  1.1428  0.7361
11997TIP3   OH257405   6.364   2.512  13.413  0.2347 -0.3576  0.0367
11997TIP3    H157406   6.382   2.467  13.496  0.6459 -1.2471 -0.5151
11997TIP3    H257407   6.415   2.593  13.418 -2.7257  1.5556  2.2616
11998TIP3   OH257408   1.302   3.014   1.656 -0.2052 -0.0805 -0.1122
11998TIP3    H157409   1.263   2.974   1.734  0.3573 -1.1942 -0.3817
11998TIP3    H257410   1.386   3.048   1.687  0.3424 -1.1562 -0.3603
11999TIP3   OH257411   2.299   2.035   1.116 -0.6904 -0.6874  0.2733
11999TIP3    H157412   2.348   2.100   1.066 -1.0639 -0.8082 -0.2707
11999TIP3    H257413   2.276   2.078   1.198 -2.2198  0.4129 -0.6749
12000TIP3   OH257414   1.898   1.506  16.803 -0.2897 -0.3586 -0.3242
12000TIP3    H157415   1.928   1.448  16.872  0.2136  1.0583  0.6993
12000TIP3    H257416   1.928   1.465  16.722 -0.6812 -1.9265  0.2963
12001TIP3   OH257417   2.644   5.359  14.777  0.0851  0.0552  0.3272
12001TIP3    H157418   2.643   5.427  14.710  1.8196 -1.2421 -1.1094
12001TIP3    H257419   2.637   5.277  14.729 -1.7874 -0.8558  2.0058
12002TIP3   OH257420   1.833   1.724  13.704  0.2239  0.2316 -0.1359
12002TIP3    H157421   1.885   1.742  13.625 -0.6016 -1.7665 -1.1896
12002TIP3    H257422   1.886   1.662  13.754 -0.1317 -0.0286 -0.0826
12003TIP3   OH257423   5.348   1.074  12.084 -0.1796  0.0227 -0.1467
12003TIP3    H157424   5.359   1.134  12.158  3.1400 -1.0361  0.3619
12003TIP3    H257425   5.372   1.126  12.007  2.4844 -0.4511  0.2712
12004TIP3   OH257426   6.449   5.540   2.036 -0.0389 -0.4150 -0.4187
12004TIP3    H157427   6.504   5.598   2.088 -1.5240 -0.3017  1.1373
12004TIP3    H257428   6.421   5.473   2.098 -0.6546 -1.1676 -1.4757
12005TIP3   OH257429   4.699   6.323  17.066 -0.0922  0.1132 -0.4683
12005TIP3    H157430   4.648   6.388  17.116 -0.9843 -1.4884  0.7973
12005TIP3    H257431   4.790   6.350  17.078 -0.5060  2.1067 -1.4289
12006TIP3   OH257432   5.162   5.265  10.698  0.3844 -0.8468 -0.6264
12006TIP3    H157433   5.130   5.301  10.615  2.0987  0.4329 -0.7943
12006TIP3    H257434   5.127   5.176  10.701 -1.8680 -0.0464 -1.4514
12007TIP3   OH257435   2.602   2.529  12.084 -0.1480  0.5384 -0.0820
12007TIP3    H157436   2.565   2.550  11.998  0.7914 -2.9020 -1.4939
12007TIP3    H257437   2.540   2.467  12.123  1.0188 -0.4686  0.2381
12008TIP3   OH257438   0.642   2.482  17.054 -0.3978  0.2592 -0.6464
12008TIP3    H157439   0.728   2.445  17.072 -1.3703 -2.0976 -0.4181
12008TIP3    H257440   0.586   2.405  17.041 -2.4387  1.7225 -0.9079
12009TIP3   OH257441   6.046   5.135  11.477 -0.0143 -0.3328  0.2608
12009TIP3    H157442   5.983   5.203  11.500  0.1136  0.0553 -0.5181
12009TIP3    H257443   6.020   5.107  11.389  0.0647 -1.1433  0.4852
12010TIP3   OH257444   6.510   6.361  15.855 -0.0683  0.5396 -0.3847
12010TIP3    H157445   6.565   6.424  15.808 -0.4641 -0.1220 -1.7768
12010TIP3    H257446   6.488   6.405  15.937  3.6027  0.3703  0.8987
12011TIP3   OH257447   3.009   6.752   3.868 -0.0069 -0.5083 -0.5969
12011TIP3    H157448   3.060   6.677   3.900  0.5247 -0.1953 -0.6922
12011TIP3    H257449   2.961   6.783   3.945 -0.1827 -0.9123 -0.5447
12012TIP3   OH257450   2.136   5.598  11.463  0.2579 -0.0871  1.4219
12012TIP3    H157451   2.100   5.515  11.494 -0.3149 -0.1290  0.6658
12012TIP3    H257452   2.216   5.573  11.417 -0.7677 -0.4271 -0.2570
12013TIP3   OH257453   2.268   5.850  14.835  0.4378 -0.3500 -0.2714
12013TIP3    H157454   2.196   5.824  14.892  1.8572 -1.3620  1.1231
12013TIP3    H257455   2.304   5.930  14.875  1.2187 -0.8687  0.0874
12014TIP3   OH257456   6.356   6.012   3.047 -0.1880 -0.3233 -0.4070
12014TIP3    H157457   6.437   5.964   3.060  1.5285  1.8792 -2.1659
12014TIP3    H257458   6.369   6.095   3.092 -0.9130  0.5663 -1.7366
12015TIP3   OH257459   6.561   6.149  15.203 -0.0223  0.0319  0.0372
12015TIP3    H157460   6.611   6.216  15.250  1.1584 -0.6959 -0.1249
12015TIP3    H257461   6.614   6.130  15.126 -1.3552  0.3654 -0.9953
12016TIP3   OH257462   0.253   2.036  15.518 -0.5822  0.0148 -0.3257
12016TIP3    H157463   0.219   2.119  15.553  0.1429  1.1201 -2.1069
12016TIP3    H257464   0.306   2.000  15.589 -2.9714 -0.2832  1.4423
12017TIP3   OH257465   4.995   6.597   5.099  0.4575 -0.4951  0.5794
12017TIP3    H157466   5.054   6.533   5.140  3.1966  0.5191 -1.4254
12017TIP3    H257467   4.991   6.570   5.007 -0.6514  0.6052  0.2794
12018TIP3   OH257468   6.497   1.122  11.404 -0.1325  0.4821 -0.1272
12018TIP3    H157469   6.587   1.097  11.385 -0.4177 -0.7699  0.0737
12018TIP3    H257470   6.455   1.041  11.431 -1.5857  0.8292 -1.2178
12019TIP3   OH257471   0.003   5.174  13.746 -0.1123  0.2563 -0.0818
12019TIP3    H157472  -0.089   5.162  13.723  0.1294 -0.9732 -0.4937
12019TIP3    H257473   0.018   5.110  13.816  0.3787  0.5922  0.1216
12020TIP3   OH257474   2.506   1.636  16.340  0.7177  0.0671 -0.5674
12020TIP3    H157475   2.461   1.652  16.423 -1.0621 -2.7382 -0.8528
12020TIP3    H257476   2.474   1.705  16.282 -0.4926  0.2058  0.2216
12021TIP3   OH257477   2.513   1.208  12.125  0.3600 -0.3615  0.0430
12021TIP3    H157478   2.541   1.155  12.199 -0.4351 -0.8173  0.0217
12021TIP3    H257479   2.422   1.230  12.144  0.2589 -0.1784 -0.6213
12022TIP3   OH257480   4.814   0.260   1.096  0.2344  0.5973 -0.6237
12022TIP3    H157481   4.837   0.323   1.164 -0.2002  1.1751 -1.0056
12022TIP3    H257482   4.718   0.254   1.101  0.3525 -2.1677  1.3169
12023TIP3   OH257483   1.384   4.564   5.443  0.3685  0.3192 -0.0638
12023TIP3    H157484   1.443   4.521   5.506  2.7687  1.0615 -1.6715
12023TIP3    H257485   1.400   4.520   5.360 -0.6193  1.2244 -0.7700
12024TIP3   OH257486   0.783   4.098   2.187  0.0163 -0.5940  0.3625
12024TIP3    H157487   0.765   4.192   2.182  0.3140 -0.5752 -0.3692
12024TIP3    H257488   0.747   4.072   2.272  0.4495  0.2945  0.8378
12025TIP3   OH257489   5.505   1.513   3.274 -0.4266  0.2556  0.1195
12025TIP3    H157490   5.542   1.430   3.306 -2.2611 -0.1703  1.2490
12025TIP3    H257491   5.571   1.578   3.297 -0.3462 -0.4600  2.1650
12026TIP3   OH257492   0.875   1.255  13.144  0.0743  0.3867 -0.0386
12026TIP3    H157493   0.829   1.330  13.106 -1.0457  0.3437  1.1648
12026TIP3    H257494   0.862   1.265  13.239  1.9251 -0.0498  0.2883
12027TIP3   OH257495   2.497   4.292  16.080  0.8302 -0.5839  0.3107
12027TIP3    H157496   2.537   4.363  16.028  0.7558 -1.3790 -0.8756
12027TIP3    H257497   2.559   4.278  16.152  1.6939 -0.4418 -0.3863
12028TIP3   OH257498   3.948   6.378  12.436 -0.3206 -0.2024  0.0234
12028TIP3    H157499   4.012   6.370  12.507 -1.4664  1.1878  1.2798
12028TIP3    H257500   3.994   6.428  12.369  0.5869 -1.0280  0.0007
12029TIP3   OH257501   1.253   0.576   0.769 -0.3610 -0.0008 -0.1380
12029TIP3    H157502   1.327   0.519   0.791 -0.3540  0.1175  0.1507
12029TIP3    H257503   1.293   0.654   0.731 -0.4389 -0.9495 -2.3513
12030TIP3   OH257504   1.254   1.590  14.134  0.1084  0.4327 -0.5294
12030TIP3    H157505   1.206   1.647  14.194  0.4621  0.3101 -0.1248
12030TIP3    H257506   1.214   1.606  14.048 -0.2870  0.7354 -0.2907
12031TIP3   OH257507   0.331   2.738  14.950  0.4178  0.5269  0.5594
12031TIP3    H157508   0.307   2.727  14.858 -2.1072 -1.0648  1.3108
12031TIP3    H257509   0.275   2.808  14.981 -2.3939 -2.1329  1.9496
12032TIP3   OH257510   2.420   5.278  15.249  0.5243 -0.1388 -0.1490
12032TIP3    H157511   2.514   5.289  15.265  0.9593 -2.5338 -0.6956
12032TIP3    H257512   2.409   5.297  15.156  0.5957 -0.4619 -0.2257
12033TIP3   OH257513   1.353   0.774   1.031 -0.2090  0.0272 -0.2374
12033TIP3    H157514   1.426   0.775   0.969  0.8635 -2.1622  0.8571
12033TIP3    H257515   1.358   0.859   1.075  0.8751  0.4165 -1.0528
12034TIP3   OH257516   2.941   2.264  12.578  0.0976  0.3784 -0.1006
12034TIP3    H157517   2.888   2.326  12.627  0.0691 -0.6175  1.1637
12034TIP3    H257518   3.031   2.294  12.590  0.0772  0.2227  0.4340
12035TIP3   OH257519   0.302   1.782  16.641 -0.3355  0.2576 -0.3891
12035TIP3    H157520   0.306   1.784  16.546 -0.3371  1.1233 -0.3763
12035TIP3    H257521   0.329   1.869  16.669 -0.5549  0.0892  0.3966
12036TIP3   OH257522   1.477   3.784   2.433  0.2652 -0.4060  0.3620
12036TIP3    H157523   1.480   3.696   2.397  0.4852  0.3962 -1.6716
12036TIP3    H257524   1.384   3.805   2.438  0.1913 -0.9006  1.2915
12037TIP3   OH257525   6.063   0.337   4.890  1.2699  0.5152 -0.4073
12037TIP3    H157526   6.131   0.322   4.955  0.8761  0.2204 -0.0600
12037TIP3    H257527   6.007   0.404   4.929  0.4810 -0.3577 -0.0159
12038TIP3   OH257528   3.346   0.294  14.025  0.2687 -0.0465 -0.6393
12038TIP3    H157529   3.410   0.299  13.954  1.2155 -1.3651  0.0767
12038TIP3    H257530   3.280   0.231  13.994  0.2929 -0.0736 -0.6355
12039TIP3   OH257531   0.352   1.055  15.075  0.0497  0.0282 -0.3433
12039TIP3    H157532   0.407   1.002  15.018  0.7071  0.0841  0.2191
12039TIP3    H257533   0.281   0.997  15.102  0.7613 -0.5786  0.2621
12040TIP3   OH257534   4.143   1.188   5.419  0.3769 -0.3389  0.0635
12040TIP3    H157535   4.134   1.105   5.373  0.4261  0.2935 -1.1058
12040TIP3    H257536   4.058   1.199   5.463 -0.7474  0.3461 -2.1173
12041TIP3   OH257537   0.647   2.333  16.263  0.1063  0.0985  0.4414
12041TIP3    H157538   0.617   2.257  16.313  0.5482 -0.2274  0.2199
12041TIP3    H257539   0.578   2.398  16.274 -0.4710 -0.4842  0.2878
12042TIP3   OH257540   2.035   6.095  16.603 -0.2907  0.3905  0.2359
12042TIP3    H157541   2.046   6.040  16.681  2.6670  2.9144  1.8254
12042TIP3    H257542   2.119   6.088  16.557 -0.1966  2.6760 -0.0344
12043TIP3   OH257543   0.883   2.425   1.484  0.3438  0.1542  0.0199
12043TIP3    H157544   0.979   2.423   1.491  0.2688 -0.8381  1.1116
12043TIP3    H257545   0.863   2.367   1.410  0.5236 -1.4664  1.1722
12044TIP3   OH257546   2.022   1.832   3.809 -0.0041 -0.2716 -0.4067
12044TIP3    H157547   2.103   1.831   3.858  0.6193  1.3069 -1.3321
12044TIP3    H257548   1.982   1.746   3.826  2.1547 -1.3441 -0.4648
12045TIP3   OH257549   5.055   3.591   1.098  0.4065 -0.2908 -0.1339
12045TIP3    H157550   5.072   3.676   1.058  1.3779 -0.8704 -1.0067
12045TIP3    H257551   4.964   3.596   1.127  0.7145  1.3328  0.6163
12046TIP3   OH257552   4.697   0.447  11.039 -0.5355 -1.3717 -0.9352
12046TIP3    H157553   4.776   0.499  11.055 -0.0862 -2.2084 -0.3243
12046TIP3    H257554   4.695   0.385  11.112 -1.7276 -1.4109 -0.9804
12047TIP3   OH257555   6.317   4.284  13.347 -0.4613  0.5224  0.0228
12047TIP3    H157556   6.242   4.254  13.296 -2.4336  1.3410  2.2353
12047TIP3    H257557   6.334   4.212  13.409 -0.7916  1.1800  0.8912
12048TIP3   OH257558   4.136   0.184   5.734  0.1954  0.6780 -0.1363
12048TIP3    H157559   4.205   0.216   5.793  0.3147  1.3405 -0.6181
12048TIP3    H257560   4.183   0.159   5.654  0.0764 -0.5429  0.1645
12049TIP3   OH257561   5.679   2.586  15.706  0.6524 -0.0657  0.4718
12049TIP3    H157562   5.716   2.549  15.786  0.1141 -0.2321  0.6441
12049TIP3    H257563   5.587   2.603  15.727  0.5426  0.0219 -0.0640
12050TIP3   OH257564   0.029   3.142   0.004  0.3552 -0.3456  0.3511
12050TIP3    H157565   0.035   3.237  -0.010  2.8290 -0.4032  0.6386
12050TIP3    H257566   0.051   3.130   0.096  0.3757 -1.2400  0.2357
12051TIP3   OH257567   3.317   6.102   3.082 -0.3758 -0.1312 -0.4512
12051TIP3    H157568   3.359   6.050   3.014 -0.3852 -0.8615  0.0994
12051TIP3    H257569   3.225   6.107   3.055 -0.2981 -0.0453 -0.7114
12052TIP3   OH257570   3.611   6.481   3.206 -0.2076  0.2148  0.2549
12052TIP3    H157571   3.516   6.469   3.201 -0.3928  1.8479 -0.9276
12052TIP3    H257572   3.638   6.428   3.281 -1.9386 -0.8686  0.1701
12053TIP3   OH257573   0.898   5.133   5.596 -0.1152  0.0499  0.3322
12053TIP3    H157574   0.962   5.069   5.628  0.2051 -0.9867 -2.0806
12053TIP3    H257575   0.947   5.215   5.588  0.3464 -0.2079  0.4894
12054TIP3   OH257576   3.237   0.320  13.398  0.2569  0.1665  0.0858
12054TIP3    H157577   3.170   0.288  13.338  0.9021 -1.1584  0.0464
12054TIP3    H257578   3.306   0.254  13.395  2.2551  2.1467 -0.9739
12055TIP3   OH257579   2.636   0.899   1.167  0.2427 -0.3492  0.2016
12055TIP3    H157580   2.641   0.920   1.261  1.3207 -1.8544  0.5073
12055TIP3    H257581   2.686   0.819   1.158 -0.1026 -0.3845 -1.6419
12056TIP3   OH257582   2.886   0.384  13.515  0.5302 -0.2191 -0.0954
12056TIP3    H157583   2.847   0.466  13.545  1.6825  0.7745 -1.2152
12056TIP3    H257584   2.877   0.386  13.420  1.4921 -0.8913 -0.2190
12057TIP3   OH257585   2.480   5.225   5.093 -0.0968 -0.1032 -0.3416
12057TIP3    H157586   2.393   5.265   5.089 -0.2723 -0.5336 -3.4700
12057TIP3    H257587   2.464   5.131   5.101  0.0991 -0.1544 -0.5477
12058TIP3   OH257588   3.364   0.510   4.566  0.9444 -0.0060 -0.0104
12058TIP3    H157589   3.333   0.524   4.477  0.9190  0.1989  0.0293
12058TIP3    H257590   3.402   0.422   4.565  2.7198  0.7030 -0.7513
12059TIP3   OH257591   3.571   4.423   3.706 -0.0547  0.8848 -0.0945
12059TIP3    H157592   3.654   4.410   3.661  0.9257  1.1738  1.5484
12059TIP3    H257593   3.535   4.335   3.714  0.8653  0.5538  0.5625
12060TIP3   OH257594   6.158   3.044   0.243 -0.0657  0.4317  0.1005
12060TIP3    H157595   6.214   2.968   0.253  0.3581  0.5468 -1.2203
12060TIP3    H257596   6.105   3.046   0.322  0.4834 -0.7649  0.5084
12061TIP3   OH257597   2.313   5.178   3.434  0.6441 -0.3110  0.5092
12061TIP3    H157598   2.320   5.271   3.411  0.2332 -0.4463 -0.1836
12061TIP3    H257599   2.259   5.177   3.512  1.0349  0.0681  0.7903
12062TIP3   OH257600   6.649   3.005  10.818  0.2388 -0.1383 -0.4547
12062TIP3    H157601   6.562   2.979  10.790  0.2534 -0.9210  0.1829
12062TIP3    H257602   6.678   2.935  10.876  0.7372  0.7770  0.4409
12063TIP3   OH257603   4.107   3.940   3.037 -0.1115 -0.1013  0.4153
12063TIP3    H157604   4.094   3.860   2.986 -1.4537 -0.3272  1.0517
12063TIP3    H257605   4.030   3.993   3.018  0.9515  1.2337 -0.2939
12064TIP3   OH257606   6.373   2.859   1.197 -0.5590  0.2118 -0.0698
12064TIP3    H157607   6.403   2.921   1.131 -2.4791 -0.1996 -1.3967
12064TIP3    H257608   6.380   2.774   1.155 -1.6736 -0.0776  0.3035
12065TIP3   OH257609   4.041   3.757   6.406  0.1140  0.2998 -0.1594
12065TIP3    H157610   3.960   3.730   6.363 -0.4876 -0.7690  1.5310
12065TIP3    H257611   4.019   3.839   6.450 -1.2570 -1.6373  3.1939
12066TIP3   OH257612   2.553   6.691   0.919 -0.5391  0.0250 -0.3523
12066TIP3    H157613   2.561   6.721   1.010 -2.2878 -2.1369  0.6277
12066TIP3    H257614   2.591   6.603   0.920  0.7579  0.5288 -2.1104
12067TIP3   OH257615   6.795   2.228   2.981  0.5203 -0.0927 -0.0940
12067TIP3    H157616   6.818   2.156   3.040 -0.0037  0.0102  0.2423
12067TIP3    H257617   6.800   2.306   3.036 -1.1242 -0.1206  0.1277
12068TIP3   OH257618   2.723   5.702  10.831 -0.1590 -0.1561 -0.2047
12068TIP3    H157619   2.661   5.694  10.759  0.3600  0.6845 -0.7599
12068TIP3    H257620   2.797   5.647  10.805 -0.0234  0.0523 -0.2620
12069TIP3   OH257621   0.535   4.816   5.208  0.1481 -0.1018 -0.2044
12069TIP3    H157622   0.484   4.818   5.289  0.5617  1.8971  0.0616
12069TIP3    H257623   0.482   4.866   5.146  1.4014  1.3722 -0.1307
12070TIP3   OH257624   1.196   3.106  16.391 -0.9868  0.3602  0.5737
12070TIP3    H157625   1.155   3.190  16.411 -1.1567  0.2419  0.7264
12070TIP3    H257626   1.144   3.042  16.440 -1.3327  0.0712 -0.1657
12071TIP3   OH257627   6.286   2.111  15.667  0.1525  0.6848  0.2327
12071TIP3    H157628   6.239   2.030  15.684  0.8723  0.3452  0.6703
12071TIP3    H257629   6.251   2.173  15.730  0.3416  0.4080  0.6155
12072TIP3   OH257630   2.785   5.774  11.258 -0.5119  0.7747 -0.3789
12072TIP3    H157631   2.849   5.710  11.228  1.0596  1.8060  0.6277
12072TIP3    H257632   2.765   5.750  11.348 -0.9837  0.8853 -0.4499
12073TIP3   OH257633   5.645   1.044  10.996  0.3805 -0.2357 -0.2851
12073TIP3    H157634   5.559   1.082  11.013  0.6317 -0.8128  2.6918
12073TIP3    H257635   5.626   0.958  10.959 -0.3237 -0.2149  0.0073
12074TIP3   OH257636   6.716   2.529  13.654 -0.0693 -0.2785  0.5189
12074TIP3    H157637   6.810   2.544  13.644 -0.3486  0.5962 -1.1793
12074TIP3    H257638   6.680   2.614  13.679 -0.6289 -0.0617 -0.8967
12075TIP3   OH257639   5.695   6.385  14.649  0.1154  0.2565  0.6732
12075TIP3    H157640   5.617   6.374  14.703  0.7461  0.8927  1.7410
12075TIP3    H257641   5.683   6.470  14.606 -0.1007  0.0285  0.2730
12076TIP3   OH257642   2.432   1.629  16.767  0.2370  0.5888  0.0004
12076TIP3    H157643   2.396   1.695  16.826 -2.2482  0.5979 -1.4075
12076TIP3    H257644   2.459   1.677  16.689  0.9740  0.2336  0.0168
12077TIP3   OH257645   4.878   2.392  11.396 -0.2784 -0.3950 -0.2906
12077TIP3    H157646   4.908   2.359  11.481  3.4619  2.6878 -0.0945
12077TIP3    H257647   4.798   2.440  11.415  0.0875 -0.3979  1.4246
12078TIP3   OH257648   4.855   4.231   1.096 -0.0706 -0.1253 -0.0798
12078TIP3    H157649   4.920   4.266   1.035 -0.6670 -0.3764 -0.8851
12078TIP3    H257650   4.901   4.225   1.180  1.4428 -1.7435 -0.9561
12079TIP3   OH257651   5.116   5.962   2.772  0.4049 -0.4603  0.1257
12079TIP3    H157652   5.151   6.043   2.810  3.4526 -1.1308 -1.0136
12079TIP3    H257653   5.095   5.907   2.848 -3.9268  1.9872  1.0790
12080TIP3   OH257654   4.122   2.169   2.126 -0.0469 -0.0283 -0.0594
12080TIP3    H157655   4.204   2.202   2.090  0.1337 -0.1590  0.2290
12080TIP3    H257656   4.103   2.226   2.201 -0.4504  0.2792 -0.3883
12081TIP3   OH257657   2.855   5.008   3.340 -0.4346  0.1797 -0.3928
12081TIP3    H157658   2.765   5.035   3.321 -1.3075 -2.3866 -0.3143
12081TIP3    H257659   2.860   4.917   3.310  1.1212 -0.8360  2.5697
12082TIP3   OH257660   2.035   4.314   1.273 -0.4760  0.1925  0.0484
12082TIP3    H157661   1.951   4.347   1.243 -1.1149 -0.7749  0.6940
12082TIP3    H257662   2.014   4.262   1.351  0.4070 -1.9579 -1.0642
12083TIP3   OH257663   2.055   6.782   3.339 -0.3630 -0.5581  0.4122
12083TIP3    H157664   2.020   6.728   3.268  0.2243 -2.8329  1.7687
12083TIP3    H257665   1.984   6.844   3.358 -1.4150 -1.3758 -0.6516
12084TIP3   OH257666   2.368   0.779   0.267 -0.1923 -0.3366 -0.3784
12084TIP3    H157667   2.432   0.762   0.198 -1.5232  0.3392 -1.8359
12084TIP3    H257668   2.355   0.874   0.264 -1.7836 -0.5403 -0.6129
12085TIP3   OH257669   1.619   2.554   1.598 -0.3045 -0.6386  0.4498
12085TIP3    H157670   1.694   2.590   1.645  0.1201  2.1834 -2.0617
12085TIP3    H257671   1.656   2.524   1.515 -1.7973  0.1301 -0.5306
12086TIP3   OH257672   0.392   5.235   4.600 -0.7143 -0.1242 -0.4493
12086TIP3    H157673   0.365   5.248   4.691  1.4118  0.5369  0.1401
12086TIP3    H257674   0.368   5.317   4.556 -0.6022  0.0513 -0.1853
12087TIP3   OH257675   4.743   1.250  15.136  0.0214 -0.0455  0.0978
12087TIP3    H157676   4.773   1.270  15.225 -0.3100  1.1577 -0.0383
12087TIP3    H257677   4.754   1.333  15.088 -1.8270 -0.0462 -0.4004
12088TIP3   OH257678   6.087   1.489   4.681 -0.0791  0.1385  0.8499
12088TIP3    H157679   6.005   1.523   4.645  1.0770  1.6929 -0.4894
12088TIP3    H257680   6.127   1.443   4.608  2.3215  3.3429 -0.0794
12089TIP3   OH257681   6.694   0.109   2.047 -0.4090 -0.1543 -0.3348
12089TIP3    H157682   6.758   0.180   2.045 -1.7189  1.1289  0.4684
12089TIP3    H257683   6.718   0.057   2.123 -0.2332  0.2614 -0.0990
12090TIP3   OH257684   3.286   2.916   5.856  0.7036  0.1085  0.1975
12090TIP3    H157685   3.204   2.878   5.826  0.7930  0.8000 -1.0014
12090TIP3    H257686   3.270   2.938   5.948  0.0102 -0.9861  0.3518
12091TIP3   OH257687   4.478   6.191   4.360  0.2009  0.1079 -0.3175
12091TIP3    H157688   4.449   6.191   4.268  2.4648 -0.4038 -1.0975
12091TIP3    H257689   4.407   6.234   4.407 -0.1233  2.3524 -2.6227
12092TIP3   OH257690   2.737   0.698  15.444 -0.1953 -0.6351  0.4001
12092TIP3    H157691   2.763   0.723  15.532  0.4825  1.4554 -0.3435
12092TIP3    H257692   2.655   0.747  15.428  0.1892 -0.2375 -0.4429
12093TIP3   OH257693   3.840   2.382  11.482  0.1471  0.6256  0.1902
12093TIP3    H157694   3.752   2.407  11.508  0.2791  1.5545 -0.2149
12093TIP3    H257695   3.834   2.372  11.387 -0.1146 -1.8111  0.4014
12094TIP3   OH257696   0.753   5.269   5.059  0.1741  0.5839 -0.5410
12094TIP3    H157697   0.841   5.257   5.095  1.3762  2.2800 -2.6767
12094TIP3    H257698   0.750   5.211   4.983 -0.0554  1.4437 -1.2035
12095TIP3   OH257699   2.913   5.727   4.797 -0.1180  0.3772 -0.4602
12095TIP3    H157700   2.938   5.786   4.869 -0.0498  0.0771 -0.2362
12095TIP3    H257701   2.993   5.716   4.747  0.0275 -0.0319 -0.1382
12096TIP3   OH257702   2.167   1.848  14.424  0.1017  0.3957  0.1707
12096TIP3    H157703   2.208   1.891  14.349  0.1506 -0.4023 -0.2677
12096TIP3    H257704   2.172   1.913  14.494  0.3237  1.0387 -0.4299
12097TIP3   OH257705   1.337   1.368   5.764  0.1903 -0.0785 -0.2773
12097TIP3    H157706   1.413   1.411   5.723  1.0357 -1.9846 -0.7940
12097TIP3    H257707   1.374   1.290   5.806 -1.3207 -0.3957  0.5144
12098TIP3   OH257708   2.350   4.143  13.103  0.5416  0.3866 -0.1840
12098TIP3    H157709   2.310   4.205  13.164  1.1907  0.4775  0.1598
12098TIP3    H257710   2.355   4.061  13.151 -0.2673  0.0736 -0.6216
12099TIP3   OH257711   5.859   3.406   2.499  0.1965  0.1350 -0.0940
12099TIP3    H157712   5.857   3.316   2.532  1.6894  0.4984  1.0887
12099TIP3    H257713   5.826   3.459   2.572 -0.5519  0.5714 -0.7381
12100TIP3   OH257714   3.104   6.144  12.774  0.1722 -0.4334 -0.1139
12100TIP3    H157715   3.128   6.127  12.683 -1.0170 -2.7152 -0.0870
12100TIP3    H257716   3.153   6.078  12.824  2.1264  1.8464  1.1640
12101TIP3   OH257717   3.239   1.975   0.063 -0.1423  0.4330 -0.2184
12101TIP3    H157718   3.262   1.883   0.054 -1.2188  0.2429 -1.3733
12101TIP3    H257719   3.182   1.979   0.139 -1.3440 -0.1448 -1.0522
12102TIP3   OH257720   6.692   4.907  14.401 -0.1862 -0.0609  0.9069
12102TIP3    H157721   6.745   4.916  14.481  0.3475  1.4335  0.4272
12102TIP3    H257722   6.605   4.937  14.427 -0.1912 -0.2389  1.1012
12103TIP3   OH257723   6.524   3.733   0.471  0.1271  0.3403  0.3991
12103TIP3    H157724   6.473   3.725   0.552 -0.5408 -1.6621 -0.1683
12103TIP3    H257725   6.534   3.827   0.459 -3.1506  0.8473  0.7429
12104TIP3   OH257726   6.572   0.626  13.085 -0.1669 -0.2048 -0.2035
12104TIP3    H157727   6.516   0.698  13.058 -0.7223 -0.8425 -0.8084
12104TIP3    H257728   6.659   0.664  13.091 -0.5558  0.6603  0.1340
12105TIP3   OH257729   0.677   0.264  10.423 -0.1399  0.4380  0.2046
12105TIP3    H157730   0.650   0.353  10.403 -0.6678  0.3968  0.6980
12105TIP3    H257731   0.606   0.209  10.389  0.5781  0.1382 -0.8576
12106TIP3   OH257732   4.200   2.419  16.747 -0.8304  0.1639  0.3508
12106TIP3    H157733   4.181   2.482  16.816  0.6279  2.1334 -0.9383
12106TIP3    H257734   4.244   2.347  16.792 -1.9999  0.2955  1.7803
12107TIP3   OH257735   3.182   0.981   4.923  0.1778 -0.0636 -0.6512
12107TIP3    H157736   3.189   1.074   4.901 -0.1594 -0.2364 -1.5677
12107TIP3    H257737   3.156   0.939   4.841 -0.1254 -0.9074 -0.1438
12108TIP3   OH257738   4.332   0.070   5.575 -0.4277 -0.0719 -0.2436
12108TIP3    H157739   4.388   0.127   5.627 -0.4120  0.6276 -1.0107
12108TIP3    H257740   4.383   0.049   5.497 -1.2442  0.6252 -0.9805
12109TIP3   OH257741   0.420   6.222   2.597 -0.1007 -0.0107 -0.1377
12109TIP3    H157742   0.340   6.169   2.596 -0.7173  0.7610  2.2454
12109TIP3    H257743   0.389   6.312   2.601  0.7597  0.2548  3.0101
12110TIP3   OH257744   5.325   0.939   1.680 -0.8637  0.3964 -0.1844
12110TIP3    H157745   5.373   0.878   1.622 -1.8046  0.2559 -0.8379
12110TIP3    H257746   5.352   0.913   1.768 -0.0552  0.0510 -0.5137
12111TIP3   OH257747   6.385   2.873  16.192 -0.2106 -0.3491  0.0795
12111TIP3    H157748   6.344   2.955  16.220 -0.7157  0.0890 -1.8376
12111TIP3    H257749   6.478   2.894  16.185 -0.4608  0.3625 -1.3434
12112TIP3   OH257750   0.273   5.180   2.749  0.0086  0.6905 -0.9895
12112TIP3    H157751   0.215   5.104   2.741  0.4546  0.3166 -0.7419
12112TIP3    H257752   0.217   5.255   2.733 -0.7108  0.3886  0.0496
12113TIP3   OH257753   5.342   4.179   1.883 -0.3669 -0.0317 -0.1230
12113TIP3    H157754   5.323   4.233   1.806 -1.6079  0.0507  0.2252
12113TIP3    H257755   5.394   4.236   1.939 -1.2452  0.6403  0.0197
12114TIP3   OH257756   6.227   1.477   1.456 -0.4299 -0.1632  0.0367
12114TIP3    H157757   6.175   1.493   1.377 -0.5965  0.1585  0.2085
12114TIP3    H257758   6.311   1.519   1.438  0.5935 -2.4599 -1.1081
12115TIP3   OH257759   4.850   4.630  11.291  0.1600  0.6968 -0.0699
12115TIP3    H157760   4.833   4.610  11.199 -2.8312  2.4284 -0.0055
12115TIP3    H257761   4.788   4.576  11.340  1.6569 -0.1408  0.9792
12116TIP3   OH257762   2.329   2.910   3.468 -1.0152 -0.1883 -0.3122
12116TIP3    H157763   2.256   2.932   3.525 -1.5436  0.7135 -1.2969
12116TIP3    H257764   2.371   2.835   3.510  0.1822  1.9329  2.6042
12117TIP3   OH257765   3.728   3.322   0.128  0.1798 -0.6630  0.0920
12117TIP3    H157766   3.651   3.274   0.161  0.2784  0.9990  3.0885
12117TIP3    H257767   3.767   3.361   0.206  1.4384  2.3785 -1.8736
12118TIP3   OH257768   1.523   4.972   3.036  0.3190 -0.0940 -0.0600
12118TIP3    H157769   1.509   5.050   2.982  1.0560  0.2435  0.2170
12118TIP3    H257770   1.610   4.941   3.011 -0.0831 -0.9985 -0.3659
12119TIP3   OH257771   5.273   2.691  16.243  0.0627  0.3275  0.3249
12119TIP3    H157772   5.215   2.641  16.185 -1.5184  0.2263  1.8847
12119TIP3    H257773   5.339   2.627  16.271  0.5783  0.2657 -0.9606
12120TIP3   OH257774   6.262   2.431  17.081 -0.1816  0.6843 -0.2833
12120TIP3    H157775   6.328   2.372  17.118  0.5787  0.0011 -2.5386
12120TIP3    H257776   6.260   2.506  17.141  1.8351  0.2164  0.4502
12121TIP3   OH257777   2.447   2.228   0.960 -0.3604 -0.1364  0.0675
12121TIP3    H157778   2.525   2.194   0.917 -0.8259 -0.1993 -0.7478
12121TIP3    H257779   2.414   2.296   0.901 -1.2494 -0.5186  0.1075
12122TIP3   OH257780   2.024   0.440   1.576  0.0849 -0.1287 -0.2922
12122TIP3    H157781   2.066   0.525   1.580 -0.7264  0.2953 -0.5837
12122TIP3    H257782   1.954   0.450   1.512 -0.8634 -0.6294  0.6250
12123TIP3   OH257783   3.753   3.185  12.341 -0.1359 -0.0581  0.5344
12123TIP3    H157784   3.663   3.216  12.348  0.5639  1.6564  3.9332
12123TIP3    H257785   3.774   3.193  12.248 -2.9464  0.9709 -0.1170
12124TIP3   OH257786   4.079   0.902   0.003  0.0987 -0.4867 -0.8306
12124TIP3    H157787   4.139   0.929   0.072  0.1300 -0.2703 -0.9428
12124TIP3    H257788   4.098   0.808  -0.009  0.8471 -0.2927 -1.2838
12125TIP3   OH257789   6.641   0.522  11.621 -0.6068  0.2146  0.0767
12125TIP3    H157790   6.643   0.590  11.689 -1.6710  0.4420 -0.0949
12125TIP3    H257791   6.725   0.530  11.577 -0.3480  0.8148  0.6507
12126TIP3   OH257792   2.810   3.170   3.630 -0.1960 -0.0753 -0.1654
12126TIP3    H157793   2.721   3.206   3.624 -0.6508 -1.3465 -3.4946
12126TIP3    H257794   2.864   3.236   3.586 -0.0060 -0.5933 -0.7189
12127TIP3   OH257795   2.646   5.622   4.020 -0.0238  0.0267 -0.2127
12127TIP3    H157796   2.670   5.694   3.961 -1.5841 -0.9390 -2.1513
12127TIP3    H257797   2.573   5.657   4.071  0.7868  0.5863  0.5954
12128TIP3   OH257798   5.392   3.454  11.038  0.4109 -0.6588  0.2668
12128TIP3    H157799   5.361   3.510  10.967  1.6167 -0.5075 -0.1574
12128TIP3    H257800   5.421   3.514  11.106  3.3558 -0.6356 -0.8806
12129TIP3   OH257801   4.829   4.542  15.160 -0.0724  0.8000 -0.5824
12129TIP3    H157802   4.836   4.549  15.255 -0.0733  1.0287 -0.5999
12129TIP3    H257803   4.910   4.581  15.127  0.3022  0.0014 -0.6499
12130TIP3   OH257804   6.166   5.618   4.221  0.0135 -0.1806  0.7222
12130TIP3    H157805   6.071   5.610   4.227 -0.2400 -0.2028 -1.9586
12130TIP3    H257806   6.186   5.598   4.129  2.7842 -1.7140  1.5370
12131TIP3   OH257807   4.603   4.063   0.117  0.3312  0.5286  0.0991
12131TIP3    H157808   4.617   4.021   0.032  2.1537  3.2992 -1.1210
12131TIP3    H257809   4.646   4.005   0.180 -2.2020 -2.2578 -0.5305
12132TIP3   OH257810   2.984   4.485   0.399 -0.0284  0.3119  0.1208
12132TIP3    H157811   3.031   4.428   0.460 -1.3130  0.0999  0.9478
12132TIP3    H257812   2.959   4.428   0.326  1.9350  0.6700 -0.8910
12133TIP3   OH257813   0.191   1.658   1.100 -0.4647 -0.3221 -0.0790
12133TIP3    H157814   0.133   1.728   1.069  0.6756 -0.0540 -1.7665
12133TIP3    H257815   0.183   1.590   1.033 -0.0556 -0.9699  0.5149
12134TIP3   OH257816   6.146   5.924   4.505  0.6101 -0.0165 -0.2729
12134TIP3    H157817   6.174   5.871   4.579  3.1942 -0.7396 -1.6647
12134TIP3    H257818   6.060   5.887   4.481 -0.4214  0.4043  2.4039
12135TIP3   OH257819   0.067   5.658   6.161  0.1567  0.2544 -0.7945
12135TIP3    H157820   0.145   5.622   6.205  0.6048 -0.8865 -2.4367
12135TIP3    H257821   0.034   5.586   6.108 -1.6551  0.9389 -0.6522
12136TIP3   OH257822   2.444   3.249   1.175  0.3642 -0.0487  0.5242
12136TIP3    H157823   2.453   3.206   1.091  1.3436 -1.6399  1.3870
12136TIP3    H257824   2.394   3.329   1.157  1.3576  0.1286 -1.6938
12137TIP3   OH257825   1.039   0.107  15.922  0.0828 -0.1359  0.2030
12137TIP3    H157826   0.970   0.172  15.909 -0.0264 -0.5581 -1.6683
12137TIP3    H257827   0.993   0.025  15.940  0.2303  0.4474  4.0380
12138TIP3   OH257828   5.190   3.003   1.011 -0.6206  0.1697 -0.3239
12138TIP3    H157829   5.210   3.071   0.947 -1.8209  0.3618 -0.5291
12138TIP3    H257830   5.236   3.030   1.090  0.7606  0.0087 -1.0491
12139TIP3   OH257831   1.580   4.868   5.036 -0.2904  0.4222 -0.0729
12139TIP3    H157832   1.572   4.961   5.056  1.3204  0.3201  1.1939
12139TIP3    H257833   1.664   4.860   4.991  0.2683 -0.5753  1.0857
12140TIP3   OH257834   0.683   4.440   3.779  0.6154 -0.4190 -0.8499
12140TIP3    H157835   0.701   4.346   3.778 -1.3251 -0.8157 -0.6229
12140TIP3    H257836   0.631   4.455   3.857  0.5353  0.7949 -1.1042
12141TIP3   OH257837   5.352   5.870  14.689 -0.2209 -0.2587  0.8198
12141TIP3    H157838   5.439   5.837  14.672 -0.6948 -1.5662  0.8322
12141TIP3    H257839   5.309   5.801  14.740 -2.0852 -0.8275 -1.3216
12142TIP3   OH257840   2.662   4.311  11.853 -0.5613 -0.7625 -0.0390
12142TIP3    H157841   2.709   4.391  11.830 -0.4436 -0.9665 -0.5133
12142TIP3    H257842   2.578   4.318  11.808 -1.4510  0.1062  1.6656
12143TIP3   OH257843   4.643   1.165  12.452 -0.1448 -0.2504  0.0097
12143TIP3    H157844   4.617   1.201  12.368  0.6825  0.0318 -0.1376
12143TIP3    H257845   4.717   1.219  12.480 -0.5502 -0.1954  1.0275
12144TIP3   OH257846   4.785   4.461   3.700  0.5456  0.1136 -0.9099
12144TIP3    H157847   4.775   4.366   3.691 -2.6193  0.1137  1.0352
12144TIP3    H257848   4.775   4.478   3.794  0.0167  2.4377 -1.3113
12145TIP3   OH257849   3.608   5.575   2.812  0.4697 -0.5829 -0.1453
12145TIP3    H157850   3.643   5.643   2.754  0.5847  1.2399  1.9531
12145TIP3    H257851   3.669   5.572   2.885 -0.4426 -1.7858  0.5929
12146TIP3   OH257852   0.061   5.850  12.319  0.3168 -0.4323  0.2788
12146TIP3    H157853  -0.025   5.859  12.277  0.4823 -1.9595 -0.4695
12146TIP3    H257854   0.085   5.939  12.343 -1.1712  0.1148 -0.1188
12147TIP3   OH257855   6.052   5.250  12.238  0.8303 -0.4306  0.5095
12147TIP3    H157856   6.059   5.154  12.239 -0.5782 -0.6147 -1.3679
12147TIP3    H257857   6.082   5.277  12.324  1.2334 -2.5719  1.1035
12148TIP3   OH257858   3.942   6.503   1.350  0.1942 -0.3464 -0.0190
12148TIP3    H157859   3.941   6.532   1.258 -0.3699  1.5214  0.5497
12148TIP3    H257860   3.867   6.444   1.357 -0.5452  0.5267 -0.4496
12149TIP3   OH257861   0.186   5.966   1.705  0.0461 -0.4447 -0.3887
12149TIP3    H157862   0.093   5.960   1.726 -0.4400  2.8437 -1.0540
12149TIP3    H257863   0.191   5.951   1.611 -0.0772  1.0351 -0.6460
12150TIP3   OH257864   4.392   3.075   3.372 -0.2366 -0.5666  0.0445
12150TIP3    H157865   4.427   3.138   3.435 -0.3979 -0.1324 -0.2964
12150TIP3    H257866   4.300   3.064   3.397 -0.1893 -0.7181  0.1488
12151TIP3   OH257867   3.662   1.591  17.155  0.5360 -0.6221  0.1456
12151TIP3    H157868   3.697   1.551  17.075  1.1298  1.7541 -0.8541
12151TIP3    H257869   3.732   1.579  17.220  0.7518 -1.0638 -0.1611
12152TIP3   OH257870   3.462   1.058  15.563  0.2703 -0.5653 -1.0406
12152TIP3    H157871   3.540   1.094  15.521 -0.0221 -0.1062 -1.1860
12152TIP3    H257872   3.415   1.014  15.492 -1.1602  1.7560 -1.6288
12153TIP3   OH257873   6.274   5.821   1.939  0.5230 -0.0805  0.0395
12153TIP3    H157874   6.288   5.733   1.907  1.5862 -0.2646  0.9321
12153TIP3    H257875   6.345   5.835   2.003  2.0477  2.3731 -1.9710
12154TIP3   OH257876   0.497   4.703   1.355 -0.1905 -0.0703  0.3484
12154TIP3    H157877   0.452   4.630   1.398  0.3408 -0.4658  0.2509
12154TIP3    H257878   0.473   4.695   1.263  2.1454 -1.9031 -0.1848
12155TIP3   OH257879   0.073   0.468  12.546  0.2235 -0.2813 -0.3269
12155TIP3    H157880   0.007   0.537  12.543 -1.2118 -1.6381 -1.2870
12155TIP3    H257881   0.101   0.457  12.455  1.6819  0.1573  0.0434
12156TIP3   OH257882   6.214   3.068  13.675  0.0087  0.2173  0.4303
12156TIP3    H157883   6.121   3.093  13.674 -0.2972 -0.8627  0.9197
12156TIP3    H257884   6.248   3.106  13.755 -0.0543  0.4509  0.3476
12157TIP3   OH257885   5.787   4.744  12.453 -0.2604  0.1763  1.2929
12157TIP3    H157886   5.772   4.831  12.489  1.3090  1.2459 -0.4586
12157TIP3    H257887   5.882   4.735  12.449 -0.2657  0.0972 -2.1986
12158TIP3   OH257888   6.384   5.808  12.023 -0.0418  0.5607 -0.2375
12158TIP3    H157889   6.374   5.899  12.049 -3.3702  0.1299  0.5412
12158TIP3    H257890   6.350   5.758  12.098  0.1749 -1.2248 -1.2605
12159TIP3   OH257891   6.758   6.272   5.591  0.3751  0.9007  0.3834
12159TIP3    H157892   6.679   6.327   5.598  0.8941  1.6077  0.7473
12159TIP3    H257893   6.753   6.215   5.668 -0.4157  0.0788 -0.2488
12160TIP3   OH257894   0.297   0.745  16.047 -0.3834 -0.4622  0.3010
12160TIP3    H157895   0.385   0.727  16.079  0.5109  1.5939 -0.8456
12160TIP3    H257896   0.245   0.761  16.127  0.8133  0.4703  0.9239
12161TIP3   OH257897   5.721   0.883   1.548 -0.5273  0.1242  0.7323
12161TIP3    H157898   5.788   0.930   1.597 -0.4752  2.0392 -1.0637
12161TIP3    H257899   5.657   0.949   1.523 -2.7309 -1.5110  1.6778
12162TIP3   OH257900   1.426   0.806  12.295 -0.0418 -0.1339 -0.2398
12162TIP3    H157901   1.381   0.774  12.373  0.9333 -1.2436 -0.1091
12162TIP3    H257902   1.508   0.842  12.328  1.1106 -2.0711 -0.8784
12163TIP3   OH257903   0.940   3.327  14.456 -0.1243  0.3439 -0.2983
12163TIP3    H157904   0.937   3.231  14.464 -2.6032  0.4058  0.0859
12163TIP3    H257905   1.021   3.352  14.501  1.0937 -1.6179 -1.2675
12164TIP3   OH257906   6.667   5.124   4.652 -0.0212  0.7172 -0.1860
12164TIP3    H157907   6.619   5.095   4.729  1.4847  0.8386  0.8367
12164TIP3    H257908   6.723   5.051   4.628  0.4361  1.1273 -0.3989
12165TIP3   OH257909   1.045   2.293  10.594  0.0149 -0.6647 -0.2185
12165TIP3    H157910   1.017   2.362  10.534  0.2915 -0.9266 -0.6593
12165TIP3    H257911   0.968   2.237  10.604  0.4469 -1.6093 -1.7452
12166TIP3   OH257912   1.089   2.138   0.107 -0.1991  0.4361  0.2095
12166TIP3    H157913   1.023   2.195   0.146  0.7920  0.7031  1.5622
12166TIP3    H257914   1.173   2.177   0.133  0.7093  2.2615 -4.4569
12167TIP3   OH257915   5.471   3.026  11.323 -0.3405  0.2040  0.0263
12167TIP3    H157916   5.554   3.014  11.367 -1.4534 -0.1888  2.1331
12167TIP3    H257917   5.432   2.938  11.321 -1.1812  0.5690  0.0859
12168TIP3   OH257918   0.364   0.324   5.164  0.6004  0.6151  0.2579
12168TIP3    H157919   0.322   0.405   5.134  0.9705  0.2957 -1.1983
12168TIP3    H257920   0.444   0.319   5.113 -0.0110 -1.3135 -0.5792
12169TIP3   OH257921   5.289   3.787  15.162 -0.2958 -0.3720 -0.5035
12169TIP3    H157922   5.223   3.851  15.137  0.1545  0.4929  0.4413
12169TIP3    H257923   5.306   3.737  15.082  0.7072  1.8879 -1.7835
12170TIP3   OH257924   5.526   6.243  12.925 -0.5536  0.1073 -0.2344
12170TIP3    H157925   5.609   6.197  12.940 -1.4792 -1.8056 -0.7204
12170TIP3    H257926   5.552   6.334  12.911  1.4593 -0.4198 -0.2973
12171TIP3   OH257927   2.474   2.842  16.571 -0.2783 -0.1252 -0.0219
12171TIP3    H157928   2.399   2.901  16.564 -0.6331 -0.5422  0.1283
12171TIP3    H257929   2.446   2.776  16.635 -0.1845 -0.8696 -0.7272
12172TIP3   OH257930   0.543   0.587  13.490 -0.8052 -0.9996  0.4386
12172TIP3    H157931   0.460   0.600  13.444 -1.4113 -1.8690  1.2672
12172TIP3    H257932   0.583   0.675  13.493 -0.8510 -0.8705 -1.5139
12173TIP3   OH257933   0.339   0.970  15.469 -0.0167 -0.4222  0.0562
12173TIP3    H157934   0.360   0.877  15.458 -0.7121 -0.9422  2.4134
12173TIP3    H257935   0.415   1.007  15.515  0.9893  0.6246 -2.3140
12174TIP3   OH257936   4.175   3.492   5.314 -0.3486  0.1699  0.3584
12174TIP3    H157937   4.259   3.451   5.337  0.1368  1.4984  1.0413
12174TIP3    H257938   4.186   3.518   5.222 -0.9994 -1.9680 -0.3929
12175TIP3   OH257939   0.862   2.969   6.200 -0.2527  0.5030 -0.2903
12175TIP3    H157940   0.850   3.049   6.253  1.0862  0.6042 -0.1139
12175TIP3    H257941   0.799   2.907   6.238  0.2079  0.7873  1.0035
12176TIP3   OH257942   4.248   0.389  14.420  0.2108 -0.1607  0.8527
12176TIP3    H157943   4.208   0.306  14.397 -0.1824 -0.0322  1.0668
12176TIP3    H257944   4.325   0.364  14.472 -0.6300 -0.3664  2.0372
12177TIP3   OH257945   3.680   0.853   1.738  0.3559  0.4241  0.2755
12177TIP3    H157946   3.645   0.769   1.710  1.2934 -0.8970  2.7519
12177TIP3    H257947   3.734   0.882   1.665 -2.5590  0.6229 -2.0202
12178TIP3   OH257948   1.515   4.864   5.475 -0.1387 -0.3245  0.1172
12178TIP3    H157949   1.468   4.809   5.413 -1.3903 -0.9344  1.5482
12178TIP3    H257950   1.604   4.868   5.441 -0.7352 -0.8162 -1.5732
12179TIP3   OH257951   6.586   6.031   3.620  0.0075 -0.2622 -0.5250
12179TIP3    H157952   6.655   6.042   3.685  2.0170 -1.1909 -2.3818
12179TIP3    H257953   6.531   6.110   3.630  2.6945  1.7534 -0.5381
12180TIP3   OH257954   5.058   3.764  17.031  0.1163 -0.0939  0.2511
12180TIP3    H157955   4.995   3.692  17.035 -0.7310  0.6274 -0.0807
12180TIP3    H257956   5.113   3.752  17.109 -0.5849 -0.5778  0.6775
12181TIP3   OH257957   4.735   3.320  11.173  0.1213 -0.0314 -0.1719
12181TIP3    H157958   4.728   3.256  11.244 -0.0484 -1.4811 -1.4477
12181TIP3    H257959   4.774   3.398  11.214 -0.0352 -0.8041  1.5017
12182TIP3   OH257960   5.963   5.019  11.969 -0.0321 -0.1847  0.2363
12182TIP3    H157961   5.974   4.931  11.933  3.4314  0.3890 -0.4967
12182TIP3    H257962   5.989   5.011  12.061 -0.9133 -0.1354  0.4963
12183TIP3   OH257963   3.775   4.223   1.045 -0.2095  0.0264 -0.3345
12183TIP3    H157964   3.762   4.165   0.970  0.7206 -0.6798  0.0193
12183TIP3    H257965   3.691   4.224   1.090 -0.0958 -1.5432 -0.0237
12184TIP3   OH257966   1.937   4.059  11.883 -0.2061 -0.1217  0.4981
12184TIP3    H157967   1.962   4.145  11.919 -0.9172 -0.4874  1.9124
12184TIP3    H257968   1.978   3.996  11.942  0.4692 -0.7783 -0.6484
12185TIP3   OH257969   1.303   2.362  17.006 -0.5295  0.2539 -0.2799
12185TIP3    H157970   1.270   2.450  16.988  2.2577  1.1689 -1.5809
12185TIP3    H257971   1.337   2.331  16.922 -0.2868 -1.5393  0.4252
12186TIP3   OH257972   2.184   2.224   1.868 -0.2074  0.3581  0.2018
12186TIP3    H157973   2.207   2.265   1.784 -0.9500  1.1535  0.3671
12186TIP3    H257974   2.097   2.259   1.888  0.2016  0.6385  1.5930
12187TIP3   OH257975   5.475   1.416  11.839  0.4695  0.4467 -0.4145
12187TIP3    H157976   5.406   1.365  11.881 -0.4598  1.3174 -0.8234
12187TIP3    H257977   5.532   1.443  11.910 -0.2116  0.6042  0.0866
12188TIP3   OH257978   1.706   2.667  12.005  0.0426  0.0255  0.7684
12188TIP3    H157979   1.760   2.746  12.011  0.9546 -0.4243 -0.9157
12188TIP3    H257980   1.768   2.595  12.018  0.0702 -0.5378 -1.9699
12189TIP3   OH257981   3.567   2.222  11.050 -0.1703 -0.3630  0.3840
12189TIP3    H157982   3.507   2.289  11.019  0.1729 -0.0375  0.4240
12189TIP3    H257983   3.652   2.246  11.013 -0.5057 -2.2348 -1.8514
12190TIP3   OH257984   0.836   2.429   0.767 -0.7824  0.1469  0.0338
12190TIP3    H157985   0.919   2.381   0.769  0.0450  1.4745  2.9491
12190TIP3    H257986   0.853   2.503   0.709 -0.2502 -0.1284 -0.1693
12191TIP3   OH257987   2.153   4.373  16.945  0.5081  0.1511  0.4612
12191TIP3    H157988   2.230   4.316  16.943  0.3415 -0.2337  2.4427
12191TIP3    H257989   2.131   4.387  16.853  2.0896 -0.8781 -0.1243
12192TIP3   OH257990   5.673   4.658   4.149 -0.5452 -0.3887 -0.0881
12192TIP3    H157991   5.648   4.728   4.210 -2.8091 -1.5740  0.4567
12192TIP3    H257992   5.764   4.679   4.126 -0.3615  1.4205  1.8498
12193TIP3   OH257993   3.478   4.788  15.033  0.2772  0.0704  0.3521
12193TIP3    H157994   3.483   4.818  15.124  1.0891 -0.2927  0.4396
12193TIP3    H257995   3.389   4.754  15.024  0.1302  0.2822  0.9568
12194TIP3   OH257996   0.534   5.875   4.654 -0.1430 -0.0473 -0.3719
12194TIP3    H157997   0.599   5.809   4.681 -1.1385 -0.5464  0.9176
12194TIP3    H257998   0.453   5.825   4.643 -0.9345  0.9356  0.6955
12195TIP3   OH257999   1.646   4.138   3.832 -0.0592 -0.3102 -0.2550
12195TIP3    H158000   1.684   4.088   3.760 -1.2013  0.5830 -1.5337
12195TIP3    H258001   1.721   4.162   3.887  0.9231 -0.5239 -1.4666
12196TIP3   OH258002   1.181   2.333  15.419 -0.2006  0.1049 -0.5236
12196TIP3    H158003   1.133   2.376  15.490  1.0568  0.4294  0.1419
12196TIP3    H258004   1.225   2.259  15.460  0.1667  0.0179 -1.0612
12197TIP3   OH258005   2.142   5.082  13.182 -0.8167  0.4932 -0.4168
12197TIP3    H158006   2.156   5.024  13.257 -2.3336 -1.1529 -1.3251
12197TIP3    H258007   2.230   5.115  13.161  0.1148 -1.4363  0.1857
12198TIP3   OH258008   1.609   1.497  14.758  0.2417 -0.2284  0.8871
12198TIP3    H158009   1.623   1.414  14.803  0.9735  0.0740  1.2537
12198TIP3    H258010   1.515   1.514  14.767 -0.1538 -1.6373 -0.3489
12199TIP3   OH258011   0.603   4.680  16.716  0.1055  0.7513 -0.0192
12199TIP3    H158012   0.577   4.770  16.696  0.3924  0.7398 -0.4530
12199TIP3    H258013   0.696   4.676  16.694  0.5627  0.8488  1.7141
12200TIP3   OH258014   5.065   5.131   4.939 -0.1575  0.3961  0.2028
12200TIP3    H158015   4.997   5.065   4.953  0.0644  0.2577  0.6548
12200TIP3    H258016   5.139   5.101   4.993  0.7103 -0.1017 -1.2087
12201TIP3   OH258017   1.300   2.824   4.161 -0.6294  0.1143 -0.5330
12201TIP3    H158018   1.218   2.775   4.163  0.1832 -1.3433 -1.1494
12201TIP3    H258019   1.318   2.838   4.068  1.2807 -2.2813 -0.6361
12202TIP3   OH258020   1.750   2.499  12.261 -0.2609 -0.1152 -0.8544
12202TIP3    H158021   1.727   2.569  12.322 -0.7885 -3.1531  2.8120
12202TIP3    H258022   1.844   2.485  12.275  0.0871  0.5676 -2.4103
12203TIP3   OH258023   5.887   6.426   5.104  0.2484 -0.9900  0.1483
12203TIP3    H158024   5.949   6.353   5.101 -0.2511 -1.4378  0.3891
12203TIP3    H258025   5.917   6.480   5.177 -0.7910 -2.2870  1.6158
12204TIP3   OH258026   0.897   5.784  11.889 -0.0268  0.0265  0.7433
12204TIP3    H158027   0.939   5.864  11.922 -0.1738  0.4944 -0.1505
12204TIP3    H258028   0.822   5.771  11.946 -0.5829  1.1146  0.2991
12205TIP3   OH258029   4.687   4.204  14.304  0.0346 -0.1924  0.4727
12205TIP3    H158030   4.685   4.162  14.218  1.5315  0.5696  0.0255
12205TIP3    H258031   4.773   4.247  14.307 -1.3272  2.7425  0.9029
12206TIP3   OH258032   3.371   6.132  15.798 -0.1126  0.4924  0.1562
12206TIP3    H158033   3.370   6.183  15.717 -0.4109 -0.1389 -0.2433
12206TIP3    H258034   3.279   6.125  15.824 -0.6168 -3.0150 -1.8564
12207TIP3   OH258035   5.956   5.583  17.083 -0.0549 -0.7253 -0.4270
12207TIP3    H158036   5.891   5.573  17.153 -0.2684 -0.3749 -0.5729
12207TIP3    H258037   6.007   5.502  17.086 -0.0752 -0.7227  0.1194
12208TIP3   OH258038   0.116   0.910   3.547 -0.3257 -0.3033  0.1453
12208TIP3    H158039   0.068   0.969   3.488 -2.1303  1.9623  3.5579
12208TIP3    H258040   0.187   0.963   3.581 -1.0183 -0.5560  2.0903
12209TIP3   OH258041   1.709   4.551   1.363  0.3699 -0.4880  0.4812
12209TIP3    H158042   1.716   4.501   1.282 -1.8389  0.5006 -0.4033
12209TIP3    H258043   1.647   4.502   1.417 -0.4166  0.3295  0.3469
12210TIP3   OH258044   0.072   6.382  14.801  0.0581 -0.1183 -0.4248
12210TIP3    H158045  -0.009   6.373  14.751  0.8145 -2.2584 -1.3808
12210TIP3    H258046   0.129   6.433  14.743 -0.1657  0.2704 -0.3062
12211TIP3   OH258047   4.865   6.489   1.965  0.6552  0.0018  0.4157
12211TIP3    H158048   4.924   6.440   1.908  2.3598  0.4856  1.6961
12211TIP3    H258049   4.796   6.519   1.907 -0.8254 -4.2625 -0.3995
12212TIP3   OH258050   4.539   3.370  14.267 -0.1473  0.3325 -0.2864
12212TIP3    H158051   4.599   3.385  14.195 -1.3875  2.7973 -0.9051
12212TIP3    H258052   4.454   3.398  14.234 -1.0773 -0.1284  1.5697
12213TIP3   OH258053   2.169   4.679   5.039 -0.1124  0.3650 -0.0326
12213TIP3    H158054   2.149   4.727   4.959 -1.0929  2.8166  1.5838
12213TIP3    H258055   2.188   4.590   5.009 -1.3139  0.9609 -2.8817
12214TIP3   OH258056   4.102   5.286   5.680  0.0796 -0.1881 -0.6064
12214TIP3    H158057   4.103   5.361   5.741 -0.9921 -1.7648  1.4788
12214TIP3    H258058   4.159   5.222   5.722  0.2322 -0.9128 -1.8933
12215TIP3   OH258059   0.051   6.701   0.451  0.1058  0.2581  0.0297
12215TIP3    H158060   0.105   6.679   0.375 -0.1580 -0.8330  0.1299
12215TIP3    H258061   0.012   6.785   0.429 -1.6373 -0.9655 -2.0358
12216TIP3   OH258062   1.081   6.767   3.676  0.3337  0.5995 -0.0611
12216TIP3    H158063   1.039   6.818   3.746  1.0858  2.7083 -1.0522
12216TIP3    H258064   1.174   6.769   3.698  0.3357 -0.8434  0.1418
12217TIP3   OH258065   1.301   1.274   0.025  0.0854  0.2123 -0.9286
12217TIP3    H158066   1.317   1.341  -0.043  0.5278  0.5109 -0.5310
12217TIP3    H258067   1.388   1.247   0.053 -0.0127  1.9542  1.3464
12218TIP3   OH258068   1.552   5.828   1.913 -0.2830 -0.5163 -0.0540
12218TIP3    H158069   1.519   5.913   1.941  0.0008  0.0154 -1.2615
12218TIP3    H258070   1.542   5.829   1.818 -1.0596 -2.1773 -0.0073
12219TIP3   OH258071   1.206   0.402   6.436  0.0655  0.1271 -0.3746
12219TIP3    H158072   1.168   0.488   6.415  0.4381  0.1094 -1.1520
12219TIP3    H258073   1.169   0.343   6.371  0.5302 -0.1174 -0.4221
12220TIP3   OH258074   5.729   2.267  16.149 -0.3704  0.1355 -0.5043
12220TIP3    H158075   5.812   2.225  16.173 -0.3827  1.1688  1.5883
12220TIP3    H258076   5.690   2.207  16.085  1.8374 -0.5121 -1.3611
12221TIP3   OH258077   6.093   1.874  16.935  1.1405 -0.7311  0.0074
12221TIP3    H158078   6.120   1.963  16.916 -3.0629  0.8395  0.1967
12221TIP3    H258079   6.143   1.848  17.012  2.5852  1.3951 -0.1580
12222TIP3   OH258080   2.385   5.614  16.253  0.1862  0.1920 -0.5258
12222TIP3    H158081   2.418   5.584  16.168 -0.8005 -1.7441 -0.2745
12222TIP3    H258082   2.443   5.686  16.277  0.5760  0.6884 -2.7683
12223TIP3   OH258083   1.297   5.231  13.946 -0.4541  0.2457  0.0900
12223TIP3    H158084   1.225   5.218  14.007 -0.7879 -2.1831 -0.7247
12223TIP3    H258085   1.256   5.228  13.860  0.2856  1.5478 -0.3290
12224TIP3   OH258086   1.703   6.779   3.785  0.7073  0.1483  0.2543
12224TIP3    H158087   1.640   6.754   3.718  2.7862 -1.4816 -1.2201
12224TIP3    H258088   1.784   6.733   3.761  2.7892  2.8629  1.4830
12225TIP3   OH258089   2.055   3.177  14.027 -0.0147 -0.1340 -0.7270
12225TIP3    H158090   2.049   3.235  13.951 -0.1625 -1.6292 -1.9050
12225TIP3    H258091   2.080   3.092  13.990  1.9748 -0.4379  1.1241
12226TIP3   OH258092   6.030   5.891   1.614  0.1222  0.0665 -0.2886
12226TIP3    H158093   5.939   5.894   1.642  0.6110  0.2315  1.3710
12226TIP3    H258094   6.047   5.798   1.599 -0.3741  0.0586 -0.8201
12227TIP3   OH258095   6.354   1.264  16.290 -0.0594  0.0730  0.6092
12227TIP3    H158096   6.390   1.178  16.316 -0.6764 -0.3071  0.2320
12227TIP3    H258097   6.276   1.275  16.344  1.0050  1.2494  1.9796
12228TIP3   OH258098   6.065   1.791  11.617  0.0525 -0.2330  0.0055
12228TIP3    H158099   6.017   1.842  11.553 -0.2939  0.5397  0.8591
12228TIP3    H258100   6.000   1.765  11.682  0.1779 -1.9465 -0.4923
12229TIP3   OH258101   5.243   4.249   4.160 -0.4406 -0.2719 -0.4233
12229TIP3    H158102   5.166   4.197   4.180 -0.0951 -1.2827 -1.5873
12229TIP3    H258103   5.220   4.295   4.079  1.5027 -3.7502 -3.2425
12230TIP3   OH258104   6.469   1.601   1.413 -0.5869 -0.1798  0.1112
12230TIP3    H158105   6.564   1.593   1.419 -0.6330 -0.1597  0.9236
12230TIP3    H258106   6.454   1.647   1.330  0.1555  0.5248  0.3488
12231TIP3   OH258107   4.771   3.383  17.066 -0.2344  0.0712 -0.3487
12231TIP3    H158108   4.696   3.358  17.012 -0.6766 -0.5137  0.5049
12231TIP3    H258109   4.758   3.477  17.083 -0.1151  0.2491 -1.2003
12232TIP3   OH258110   4.238   6.256  16.161  0.0455 -0.0395 -0.2092
12232TIP3    H158111   4.184   6.284  16.235 -0.4813 -0.5694 -0.3866
12232TIP3    H258112   4.327   6.250  16.197 -0.3508 -1.1868  0.6158
12233TIP3   OH258113   4.218   4.392   3.849  0.6227 -0.2534  0.2741
12233TIP3    H158114   4.266   4.389   3.766 -0.3708  0.1293 -0.3280
12233TIP3    H258115   4.164   4.313   3.849 -0.1029  0.2290  0.0931
12234TIP3   OH258116   4.874   0.348   0.247 -0.3083 -0.5121  0.2637
12234TIP3    H158117   4.784   0.380   0.249  0.1717  0.8580  1.2787
12234TIP3    H258118   4.879   0.286   0.320 -0.6485 -1.2734 -0.3445
12235TIP3   OH258119   3.990   5.831   1.995  0.7623 -0.4883  0.6442
12235TIP3    H158120   3.987   5.899   2.062  1.2329 -0.5237  0.6994
12235TIP3    H258121   3.898   5.818   1.971  0.7311  0.7877  0.0005
12236TIP3   OH258122   3.116   3.085  16.752 -0.3211  0.7613 -0.1559
12236TIP3    H158123   3.049   3.028  16.714  1.0710 -0.4989 -0.8126
12236TIP3    H258124   3.182   3.095  16.683  1.0976  0.4075  1.0789
12237TIP3   OH258125   5.243   4.153  13.555 -1.1135 -0.0777  0.1575
12237TIP3    H158126   5.307   4.215  13.588 -0.2872 -0.5118 -0.5926
12237TIP3    H258127   5.162   4.204  13.548 -1.1628  0.1770  2.1883
12238TIP3   OH258128   0.595   4.874   5.507 -0.5809 -0.2489  0.3210
12238TIP3    H158129   0.555   4.944   5.455  1.0244 -0.8201 -1.8198
12238TIP3    H258130   0.523   4.813   5.522 -1.5175  0.8333  0.3877
12239TIP3   OH258131   5.595   1.146  13.988 -0.0855  0.0198 -0.0680
12239TIP3    H158132   5.586   1.121  13.896  0.0938 -1.3959  0.2655
12239TIP3    H258133   5.507   1.132  14.024  0.1080 -0.5254  0.2070
12240TIP3   OH258134   2.939   1.491  13.179 -0.4604 -0.0528 -0.2493
12240TIP3    H158135   3.022   1.477  13.133  0.7926  2.0114  1.1902
12240TIP3    H258136   2.914   1.580  13.154 -0.3635  0.6699  2.0250
12241TIP3   OH258137   6.284   1.245   1.606  0.3334 -0.0996  0.3238
12241TIP3    H158138   6.239   1.297   1.540 -0.5653  0.6665  1.4949
12241TIP3    H258139   6.331   1.309   1.660 -1.6107 -0.3018  2.4088
12242TIP3   OH258140   3.769   0.580  13.962 -0.1847 -0.4503  0.1102
12242TIP3    H158141   3.744   0.488  13.974 -0.7540 -0.2588  0.4197
12242TIP3    H258142   3.687   0.628  13.968  0.1538  0.1104  0.2797
12243TIP3   OH258143   1.152   1.692  13.902  0.1612  0.1622 -0.1347
12243TIP3    H158144   1.134   1.627  13.834  1.1188 -0.2616 -0.0006
12243TIP3    H258145   1.191   1.766  13.855  2.2772 -0.7419  0.0923
12244TIP3   OH258146   2.910   0.077  11.078  0.3709 -0.4666 -0.5691
12244TIP3    H158147   2.874  -0.012  11.077  0.7755 -0.6333 -0.3419
12244TIP3    H258148   2.991   0.071  11.027  0.7817 -0.3969  0.0621
12245TIP3   OH258149   3.962   2.719   5.478  0.6712 -0.0428 -0.1497
12245TIP3    H158150   3.954   2.624   5.484  0.7020  0.0161  0.9067
12245TIP3    H258151   3.995   2.746   5.563  0.4609  0.9433 -0.3694
12246TIP3   OH258152   1.115   2.761   1.212 -0.1415 -0.1071 -0.2766
12246TIP3    H158153   1.105   2.678   1.165  0.8988 -0.0567 -0.6115
12246TIP3    H258154   1.031   2.806   1.198 -0.4115 -0.7444 -0.7969
12247TIP3   OH258155   5.899   1.732  11.050  0.4771 -0.0250  0.5987
12247TIP3    H158156   5.805   1.715  11.044  0.6520 -0.7472 -0.3523
12247TIP3    H258157   5.907   1.828  11.052 -0.1860  0.0939 -1.3303
12248TIP3   OH258158   4.172   4.065  13.252  0.1245  0.0296  0.3227
12248TIP3    H158159   4.151   4.147  13.298  0.0808  0.2956 -0.1649
12248TIP3    H258160   4.132   4.075  13.166  0.9110 -0.1108 -0.0729
12249TIP3   OH258161   6.319   6.399   2.776 -0.1477  0.5313 -0.3255
12249TIP3    H158162   6.404   6.379   2.737  0.3889  2.7072 -0.3591
12249TIP3    H258163   6.336   6.469   2.838 -2.0241  1.5121 -0.8417
12250TIP3   OH258164   2.788   5.350  15.784  0.3288  0.7047  0.0586
12250TIP3    H158165   2.760   5.270  15.830 -0.5505  0.5011 -0.8087
12250TIP3    H258166   2.801   5.322  15.694 -0.6895  1.6963 -0.4145
12251TIP3   OH258167   3.853   1.478   0.138 -0.0553  0.5662 -0.0108
12251TIP3    H158168   3.898   1.397   0.113  0.9336  0.7911  0.9976
12251TIP3    H258169   3.914   1.523   0.195 -1.6932  0.7187  1.7170
12252TIP3   OH258170   2.717   5.596   3.356  0.3479 -0.1558  0.1077
12252TIP3    H158171   2.678   5.592   3.269 -1.3759 -0.0537  0.8138
12252TIP3    H258172   2.651   5.643   3.409  1.7966  0.6861  1.2358
12253TIP3   OH258173   5.877   3.649  13.202  0.4421 -0.3124 -0.2161
12253TIP3    H158174   5.880   3.624  13.294 -0.3317  2.9478  0.8303
12253TIP3    H258175   5.968   3.662  13.177  0.5618  2.1455  1.2293
12254TIP3   OH258176   3.304   3.004  15.963  0.0238  0.4350  0.0933
12254TIP3    H158177   3.289   2.913  15.937  1.6201  0.5270 -1.3226
12254TIP3    H258178   3.317   3.051  15.881 -0.1123  1.8224  0.8354
12255TIP3   OH258179   3.691   0.854   5.740 -0.2131 -0.0949 -0.3564
12255TIP3    H158180   3.670   0.772   5.784 -0.7484  0.4593  0.4356
12255TIP3    H258181   3.640   0.851   5.658  0.8718 -1.1710 -1.0161
12256TIP3   OH258182   5.323   5.587   3.140  0.8049 -0.1464  0.0743
12256TIP3    H158183   5.336   5.525   3.068 -0.9826  0.7477 -1.1089
12256TIP3    H258184   5.238   5.563   3.176  0.0193  1.6135 -0.4822
12257TIP3   OH258185   2.727   4.618   4.877 -0.0354 -0.4448  0.5922
12257TIP3    H158186   2.643   4.583   4.908 -0.9936  0.1901 -1.1297
12257TIP3    H258187   2.720   4.712   4.892  0.7277 -0.4851  1.2135
12258TIP3   OH258188   4.799   5.792  15.529 -0.0655  0.3828 -0.1933
12258TIP3    H158189   4.821   5.808  15.621  0.9768 -2.0729  0.0641
12258TIP3    H258190   4.705   5.779  15.529 -0.0801  0.4255  0.5364
12259TIP3   OH258191   2.066   5.082   4.993 -0.2336  0.5950  0.5921
12259TIP3    H158192   1.971   5.097   4.993 -0.3385  0.1895  2.4531
12259TIP3    H258193   2.103   5.165   5.023  0.1181  1.1042 -1.1331
12260TIP3   OH258194   2.583   2.457  16.895 -0.3012  0.2334 -0.4237
12260TIP3    H158195   2.661   2.405  16.914 -1.1860 -1.4210 -1.1722
12260TIP3    H258196   2.523   2.438  16.966 -0.5223  0.4687 -0.5473
12261TIP3   OH258197   0.100   4.153   5.286  0.2068 -0.5305 -0.2756
12261TIP3    H158198   0.024   4.191   5.242 -0.7772 -2.2167 -0.1196
12261TIP3    H258199   0.175   4.187   5.238 -0.5543  1.8714  0.0960
12262TIP3   OH258200   0.137   3.438  14.061  0.1781  0.4479 -0.4081
12262TIP3    H158201   0.165   3.475  13.977  2.7541  0.0360  0.2127
12262TIP3    H258202   0.218   3.424  14.110 -1.0569 -1.6652  1.1944
12263TIP3   OH258203   3.302   2.076  12.264  0.1632  0.0503 -0.1216
12263TIP3    H158204   3.249   1.997  12.251  1.4340 -0.7630 -0.5259
12263TIP3    H258205   3.384   2.044  12.302  1.0830  1.0629 -1.1911
12264TIP3   OH258206   0.057   3.285  15.592 -0.4768  0.1672 -0.8082
12264TIP3    H158207   0.032   3.253  15.679 -0.4271 -2.9415 -1.8170
12264TIP3    H258208   0.145   3.321  15.605 -0.3342 -0.5482  0.3903
12265TIP3   OH258209   1.080   3.274   3.796 -0.4138  0.5750  0.2568
12265TIP3    H158210   1.119   3.212   3.735 -2.0048  0.5269 -0.7686
12265TIP3    H258211   1.141   3.348   3.798 -0.2117  0.4655 -1.2122
12266TIP3   OH258212   0.963   3.003  15.300 -0.6402 -0.1784 -0.6421
12266TIP3    H158213   0.890   2.947  15.330  0.1750 -0.3850  1.0845
12266TIP3    H258214   0.989   2.965  15.216 -1.1743 -1.3958 -0.2885
12267TIP3   OH258215   4.664   2.855   3.925  0.4418 -0.3450 -0.5367
12267TIP3    H158216   4.689   2.912   3.853  1.5158  0.1953  0.2351
12267TIP3    H258217   4.745   2.837   3.972 -0.0357 -1.7105 -0.1696
12268TIP3   OH258218   1.911   0.983   0.455 -0.4018 -0.3789  0.3624
12268TIP3    H158219   1.946   0.905   0.412 -1.7392 -0.0764 -1.3875
12268TIP3    H258220   1.895   0.956   0.545  1.2925 -1.4334  0.3888
12269TIP3   OH258221   4.248   2.793   2.214 -0.9444  0.1419 -0.0076
12269TIP3    H158222   4.218   2.831   2.131 -3.0168 -0.5435  0.3961
12269TIP3    H258223   4.283   2.868   2.262  1.6370  0.3506 -1.9847
12270TIP3   OH258224   0.270   4.672  10.299  0.5134 -0.3074  0.5723
12270TIP3    H158225   0.284   4.692  10.392 -0.2012  1.0184  0.4287
12270TIP3    H258226   0.209   4.739  10.270  0.1998 -1.1235 -0.7048
12271TIP3   OH258227   1.096   6.510  15.905 -0.5208 -0.4512  0.4027
12271TIP3    H158228   1.146   6.582  15.943 -1.3287  0.0929  0.4622
12271TIP3    H258229   1.043   6.551  15.836 -0.7158 -1.0488  0.1900
12272TIP3   OH258230   5.844   2.567   0.954  0.3211 -0.1210 -0.1123
12272TIP3    H158231   5.914   2.623   0.920 -0.0818  1.2106  1.1347
12272TIP3    H258232   5.766   2.596   0.908  0.2502 -0.2610 -0.0809
12273TIP3   OH258233   2.761   5.770   6.240 -0.3484 -0.1949  0.4597
12273TIP3    H158234   2.758   5.786   6.146 -1.9574  1.0018  0.6606
12273TIP3    H258235   2.673   5.738   6.261 -0.4489  0.8331  1.7413
12274TIP3   OH258236   6.261   5.808   1.339  0.4565  0.0021  0.0750
12274TIP3    H158237   6.178   5.803   1.388  1.2353  0.5745  1.5242
12274TIP3    H258238   6.243   5.869   1.267 -0.3899  0.1202  0.3728
12275TIP3   OH258239   5.642   2.213   1.001 -0.8124  0.1573 -0.3347
12275TIP3    H158240   5.677   2.141   0.948 -0.0197  0.4808 -0.2657
12275TIP3    H258241   5.550   2.220   0.975 -0.6453 -0.2393 -1.0501
12276TIP3   OH258242   4.961   5.301   0.253 -0.0758 -0.6253  0.1045
12276TIP3    H158243   4.975   5.395   0.241 -0.9676 -0.3473  1.1012
12276TIP3    H258244   5.036   5.273   0.306  0.3630 -0.5462 -0.4680
12277TIP3   OH258245   6.636   5.368  13.953  0.0942 -0.2750 -0.3174
12277TIP3    H158246   6.544   5.353  13.929 -0.2264  0.8301  0.1653
12277TIP3    H258247   6.686   5.334  13.879 -0.8252  2.4340 -2.3524
12278TIP3   OH258248   0.586   3.629   2.382 -0.1354 -0.7255 -0.1328
12278TIP3    H158249   0.593   3.537   2.408  0.6765 -0.6594 -0.0792
12278TIP3    H258250   0.663   3.644   2.327  0.6096  0.3259  1.1278
12279TIP3   OH258251   1.050   4.724  13.705  0.1540 -0.0352 -0.0212
12279TIP3    H158252   1.105   4.725  13.627 -0.9664 -0.1102 -0.8300
12279TIP3    H258253   1.014   4.813  13.710  2.0236  0.7104  1.7682
12280TIP3   OH258254   0.204   2.135   1.213  0.6272  0.1127  0.7363
12280TIP3    H158255   0.279   2.081   1.189  0.0753 -0.7363  0.8711
12280TIP3    H258256   0.158   2.083   1.279 -0.5759  0.2231 -0.0061
12281TIP3   OH258257   4.441   2.367  13.808 -0.1332 -0.1740 -0.3875
12281TIP3    H158258   4.388   2.333  13.736 -1.0363 -0.3306  0.3339
12281TIP3    H258259   4.494   2.437  13.768 -1.8662  0.9183 -0.8796
12282TIP3   OH258260   4.964   2.492   2.974 -0.0706 -0.0388  0.3391
12282TIP3    H158261   4.987   2.477   2.882 -0.3414  0.3817  0.2004
12282TIP3    H258262   4.953   2.587   2.980  2.9436  0.3589  1.4985
12283TIP3   OH258263   4.875   6.331   2.945 -0.0497 -0.3552 -0.1197
12283TIP3    H158264   4.964   6.351   2.917 -0.2272  0.9422  0.1600
12283TIP3    H258265   4.821   6.359   2.871 -0.3010  0.0719  0.2201
12284TIP3   OH258266   1.197   5.608  14.154  0.6225  0.5742 -0.7282
12284TIP3    H158267   1.206   5.675  14.222 -1.8739  1.4649 -1.1621
12284TIP3    H258268   1.127   5.551  14.186  1.2568 -0.5892 -1.3522
12285TIP3   OH258269   5.595   5.746   2.049 -0.0890  0.4808  0.0825
12285TIP3    H158270   5.651   5.672   2.075  2.4992  2.0392 -0.6790
12285TIP3    H258271   5.625   5.768   1.961 -2.1046  1.3068 -0.4406
12286TIP3   OH258272   4.546   6.189   3.778  0.3301  0.6401 -0.3005
12286TIP3    H158273   4.524   6.101   3.748  1.6375  0.2949 -0.3371
12286TIP3    H258274   4.512   6.194   3.867  1.2726 -0.3445  0.1336
12287TIP3   OH258275   4.995   3.305  12.761  0.2164  0.1053  0.1097
12287TIP3    H158276   4.930   3.289  12.693  0.8073  0.2336 -0.4908
12287TIP3    H258277   5.062   3.358  12.719 -0.3730  1.9037  1.3452
12288TIP3   OH258278   2.659   1.341  15.725 -0.5051  0.4613 -0.2899
12288TIP3    H158279   2.702   1.366  15.806 -0.2733  0.9794 -0.5668
12288TIP3    H258280   2.566   1.353  15.742 -0.4263  1.0461 -0.2553
12289TIP3   OH258281   6.360   0.459   6.216  0.3466  0.5352 -0.5369
12289TIP3    H158282   6.455   0.472   6.215  0.4228  0.0109 -1.0541
12289TIP3    H258283   6.349   0.367   6.191 -0.2501  0.2774  0.6262
12290TIP3   OH258284   6.787   6.373   5.007 -0.3895  0.2941 -0.9187
12290TIP3    H158285   6.767   6.280   5.020  0.5280  0.1452 -0.5417
12290TIP3    H258286   6.713   6.405   4.955 -0.1015 -0.9374 -2.1589
12291TIP3   OH258287   2.171   3.638  13.165  0.4343  0.7678  0.4985
12291TIP3    H158288   2.177   3.637  13.261  0.8869 -1.1514  0.4871
12291TIP3    H258289   2.214   3.719  13.139 -0.3774  1.7127  1.9384
12292TIP3   OH258290   1.823   2.287   4.078  0.2097 -0.0743 -0.0853
12292TIP3    H158291   1.871   2.204   4.082 -0.9657 -0.8147 -0.7701
12292TIP3    H258292   1.739   2.268   4.122  0.5609  1.2260  1.2076
12293TIP3   OH258293   2.458   3.495   5.837  0.2614  0.0057  0.3447
12293TIP3    H158294   2.374   3.532   5.866  0.6005 -0.5397  2.2182
12293TIP3    H258295   2.518   3.569   5.836  0.0007  0.2169  0.0061
12294TIP3   OH258296   3.682   3.745   2.881 -0.4254  0.1283 -0.2828
12294TIP3    H158297   3.648   3.728   2.969  0.8402 -3.2534 -0.2927
12294TIP3    H258298   3.775   3.764   2.894  0.3086 -2.6484 -0.9330
12295TIP3   OH258299   6.233   0.329  12.462 -0.0407 -0.2352 -0.0673
12295TIP3    H158300   6.215   0.256  12.402  0.3561  1.4369 -2.3706
12295TIP3    H258301   6.312   0.302  12.509  1.5761 -0.3819 -2.6503
12296TIP3   OH258302   6.087   3.636  16.558  0.2744 -0.4347  0.3656
12296TIP3    H158303   6.170   3.605  16.522  0.5309  1.2165 -0.5491
12296TIP3    H258304   6.106   3.656  16.650  0.6246 -0.9632  0.4148
12297TIP3   OH258305   5.598   0.674   0.199 -0.1471  0.1007  0.4073
12297TIP3    H158306   5.567   0.605   0.259  1.5063  0.9476  2.3474
12297TIP3    H258307   5.551   0.753   0.228 -0.2482  0.2853 -0.2425
12298TIP3   OH258308   1.284   0.032  11.908  0.1175 -0.3257 -0.0888
12298TIP3    H158309   1.333   0.034  11.990  0.2832 -1.3356 -0.1556
12298TIP3    H258310   1.291  -0.059  11.878 -2.1525 -0.6315  0.1320
12299TIP3   OH258311   5.101   4.400   3.957  0.2138  0.2818 -0.1657
12299TIP3    H158312   5.062   4.350   3.885 -0.5948  0.3939  0.1887
12299TIP3    H258313   5.180   4.438   3.919 -0.3271  0.5414 -1.0669
12300TIP3   OH258314   3.743   0.159   5.585 -0.2634  0.0680  0.0021
12300TIP3    H158315   3.687   0.172   5.662  0.6931 -1.0321  0.9090
12300TIP3    H258316   3.789   0.077   5.602  2.0330  1.1929 -0.4546
12301TIP3   OH258317   1.197   5.076  11.149 -0.0409  0.0506  0.0522
12301TIP3    H158318   1.132   5.043  11.086 -1.0308  0.6112  0.7527
12301TIP3    H258319   1.146   5.096  11.227  1.1398 -0.4414  0.9792
12302TIP3   OH258320   3.614   1.600   5.443 -0.6848 -0.2108  0.0285
12302TIP3    H158321   3.673   1.666   5.481 -0.8662 -0.3353  0.5275
12302TIP3    H258322   3.641   1.595   5.351  0.0667 -0.2475  0.2438
12303TIP3   OH258323   1.627   3.888   0.171 -0.9972 -0.6642  0.1471
12303TIP3    H158324   1.587   3.864   0.254 -2.0691  0.4663 -0.0046
12303TIP3    H258325   1.586   3.971   0.148 -1.2053 -1.2574 -1.8285
12304TIP3   OH258326   3.737   2.517  12.270  0.3701 -0.2014 -0.1055
12304TIP3    H158327   3.781   2.471  12.199  2.5311  0.3422  0.7863
12304TIP3    H258328   3.747   2.610  12.248  0.9932 -0.0293  0.8060
12305TIP3   OH258329   0.897   6.560  14.523  0.0583 -0.6171  0.5107
12305TIP3    H158330   0.956   6.610  14.579  0.3816 -2.1794  1.6393
12305TIP3    H258331   0.954   6.518  14.458 -0.1755  0.2028 -0.2410
12306TIP3   OH258332   4.546   1.803  10.294  0.1072  0.0061  0.6814
12306TIP3    H158333   4.633   1.844  10.301 -0.6335  1.7237  0.4981
12306TIP3    H258334   4.534   1.757  10.376  0.5123  1.2150  1.4503
12307TIP3   OH258335   1.781   1.865  11.572 -0.0087  0.4558 -0.1797
12307TIP3    H158336   1.805   1.951  11.537  0.3955  0.1095 -0.7634
12307TIP3    H258337   1.814   1.803  11.507 -1.2038 -0.0996 -0.2614
12308TIP3   OH258338   3.713   3.232  13.456  0.3395  0.2040  0.3447
12308TIP3    H158339   3.758   3.156  13.492  2.1649 -0.6738 -3.4041
12308TIP3    H258340   3.741   3.305  13.511  1.6700 -1.2244  1.6348
12309TIP3   OH258341   4.329   1.471  15.716  0.1826  0.1522  0.2080
12309TIP3    H158342   4.294   1.448  15.802  1.4337 -0.6449  0.5266
12309TIP3    H258343   4.358   1.388  15.678  0.5583  0.6168 -0.5589
12310TIP3   OH258344   0.622   1.249  11.414 -0.4205  0.0396 -1.2209
12310TIP3    H158345   0.669   1.173  11.449 -1.8491 -0.3577 -0.0244
12310TIP3    H258346   0.556   1.212  11.356 -0.0396  0.4950 -1.9516
12311TIP3   OH258347   4.298   5.122   3.239  0.0549 -0.0934  0.7100
12311TIP3    H158348   4.209   5.093   3.258 -0.3125  1.0143  0.7390
12311TIP3    H258349   4.343   5.121   3.323  0.8152 -2.9553  0.3759
12312TIP3   OH258350   1.764   0.965   0.966 -0.4297  0.7316  0.6981
12312TIP3    H158351   1.800   1.051   0.990  0.7475  0.3881  0.2261
12312TIP3    H258352   1.775   0.912   1.045  0.5915  0.4954  0.4235
12313TIP3   OH258353   5.810   2.269   0.264 -0.0654  0.2745 -0.1974
12313TIP3    H158354   5.884   2.326   0.283 -0.4605  0.9295 -0.5912
12313TIP3    H258355   5.793   2.223   0.346  0.8315  0.0493 -0.1300
12314TIP3   OH258356   0.045   3.493   1.683  0.0759 -0.2342 -0.2454
12314TIP3    H158357   0.088   3.430   1.625  1.6452  0.2370  0.3415
12314TIP3    H258358   0.068   3.578   1.648 -1.0194  0.0461 -0.3254
12315TIP3   OH258359   5.291   0.895  13.591 -0.0480 -0.0778  0.0290
12315TIP3    H158360   5.252   0.867  13.507 -0.0092  0.7723 -0.2791
12315TIP3    H258361   5.371   0.940  13.566 -0.7637  1.4801  0.4029
12316TIP3   OH258362   6.399   5.177  13.226  0.7635 -0.0941  0.6574
12316TIP3    H158363   6.384   5.169  13.132 -0.1012  0.1724  0.7588
12316TIP3    H258364   6.333   5.120  13.265 -0.3151  1.4304  1.1476
12317TIP3   OH258365   5.262   4.897   1.552 -0.0850  0.0552 -0.0522
12317TIP3    H158366   5.233   4.971   1.606 -0.9025  0.4712 -1.0138
12317TIP3    H258367   5.348   4.922   1.520  0.2245 -0.0129  0.7146
12318TIP3   OH258368   4.962   4.847  12.585  0.1323 -0.3269 -0.1022
12318TIP3    H158369   4.902   4.894  12.527  0.8568 -1.9287 -2.3283
12318TIP3    H258370   4.918   4.764  12.604  1.4188 -1.4365 -1.6070
12319TIP3   OH258371   1.727   2.935   4.249  0.2923 -0.7971 -0.0103
12319TIP3    H158372   1.818   2.964   4.257 -0.5299  2.2872 -0.5155
12319TIP3    H258373   1.676   3.006   4.288 -2.0145 -1.2097 -2.0364
12320TIP3   OH258374   1.676   4.732  17.073  0.0106 -0.5197 -0.7654
12320TIP3    H158375   1.636   4.772  16.996  1.7637 -1.3003 -2.1596
12320TIP3    H258376   1.717   4.651  17.040  0.1753 -1.2682  1.1293
12321TIP3   OH258377   2.977   1.424   4.894  0.2982 -0.1706  0.0414
12321TIP3    H158378   2.885   1.435   4.915 -0.2559  1.9422 -2.8106
12321TIP3    H258379   3.021   1.495   4.940  0.2278 -0.1394  0.0606
12322TIP3   OH258380   5.406   3.316   4.670 -0.2041 -0.4022 -0.5083
12322TIP3    H158381   5.439   3.378   4.735  0.3216 -1.0334 -0.1689
12322TIP3    H258382   5.379   3.372   4.596  0.4186  0.2208 -0.2793
12323TIP3   OH258383   4.494   5.546   0.622  0.2462 -0.2572  0.2542
12323TIP3    H158384   4.509   5.621   0.680 -0.2112 -0.4150  0.5797
12323TIP3    H258385   4.399   5.532   0.625 -0.0737  0.9252 -2.0026
12324TIP3   OH258386   2.932   6.800  15.743  0.0483 -0.2428 -0.3379
12324TIP3    H158387   2.924   6.740  15.817 -2.3370 -1.0341 -1.1682
12324TIP3    H258388   3.026   6.815  15.735  0.4335 -0.6964  2.3729
12325TIP3   OH258389   5.630   4.729   5.988  0.0071  0.0695  0.0280
12325TIP3    H158390   5.594   4.746   6.075  1.1966  0.2122  0.5122
12325TIP3    H258391   5.556   4.697   5.937 -0.7422  0.1382  1.0500
12326TIP3   OH258392   5.684   6.481   0.292  0.1154 -0.1977  0.3307
12326TIP3    H158393   5.754   6.540   0.321 -0.6940  0.8488  0.2424
12326TIP3    H258394   5.714   6.394   0.316  1.8414  0.1325 -0.5214
12327TIP3   OH258395   1.002   6.751   2.325  0.6292 -0.3201 -0.1391
12327TIP3    H158396   0.975   6.671   2.370 -2.8059  1.8802  2.2285
12327TIP3    H258397   0.962   6.744   2.238 -0.0784 -1.0239  0.2277
12328TIP3   OH258398   0.194   6.758   3.696 -0.0451  0.1246  0.1964
12328TIP3    H158399   0.164   6.676   3.736  1.0718 -1.3649 -1.8263
12328TIP3    H258400   0.115   6.812   3.690 -0.8906 -0.9411  1.2110
12329TIP3   OH258401   6.635   6.338  16.332  0.6800 -0.0057  0.8834
12329TIP3    H158402   6.565   6.393  16.366  1.8596  0.6480  2.3908
12329TIP3    H258403   6.598   6.250  16.329 -0.6977  0.5643  0.0512
12330TIP3   OH258404   2.571   4.331  13.562 -0.4243  0.4900 -0.4178
12330TIP3    H158405   2.653   4.307  13.604  0.2324  1.6450 -0.9725
12330TIP3    H258406   2.570   4.427  13.566 -0.9421  0.5691 -1.8616
12331TIP3   OH258407   0.038   1.173   0.599 -0.5300 -0.3975  0.6340
12331TIP3    H158408   0.056   1.249   0.655  1.6052 -0.8743  0.6966
12331TIP3    H258409  -0.015   1.115   0.654  0.3815 -0.2521  1.7168
12332TIP3   OH258410   4.328   3.590   4.693  0.0997 -0.2367  0.1233
12332TIP3    H158411   4.341   3.610   4.601  0.1490  1.4314  0.4539
12332TIP3    H258412   4.341   3.674   4.738  0.3233 -1.0568  1.6687
12333TIP3   OH258413   2.279   4.892   1.315  0.1441 -0.1872 -0.5872
12333TIP3    H158414   2.215   4.951   1.276  0.6614 -0.4445 -1.8907
12333TIP3    H258415   2.261   4.807   1.275  0.8495 -0.4042 -0.4581
12334TIP3   OH258416   0.781   3.935   2.443 -0.3549  0.1359 -0.2939
12334TIP3    H158417   0.773   3.870   2.512 -0.7659 -1.9696 -2.2143
12334TIP3    H258418   0.875   3.948   2.433 -0.2969  0.9120  0.9948
12335TIP3   OH258419   5.362   3.002  17.107 -0.6439 -0.4513  0.7498
12335TIP3    H158420   5.455   2.980  17.110 -0.2282  1.2692  1.4982
12335TIP3    H258421   5.318   2.919  17.086  0.9966 -1.4121  0.9807
12336TIP3   OH258422   3.645   4.281  16.014 -0.2437 -0.3285  0.4131
12336TIP3    H158423   3.628   4.212  15.950 -0.3551 -0.6908  0.8319
12336TIP3    H258424   3.559   4.316  16.036 -0.0812  1.1826 -1.1340
12337TIP3   OH258425   4.670   1.753  12.235  0.2492 -0.5459 -0.0913
12337TIP3    H158426   4.635   1.842  12.224  1.4498  0.1449  1.2515
12337TIP3    H258427   4.764   1.763  12.221  0.4141 -1.5731  0.2336
12338TIP3   OH258428   3.725   3.685   4.486  0.3174 -0.2183 -0.3740
12338TIP3    H158429   3.780   3.608   4.474 -1.9075 -1.7363 -1.6407
12338TIP3    H258430   3.747   3.743   4.414 -1.1332 -1.7794 -2.1856
12339TIP3   OH258431   1.666   3.302   5.367 -0.8854 -0.0049  0.3912
12339TIP3    H158432   1.578   3.271   5.387 -0.7807 -1.3217 -1.0488
12339TIP3    H258433   1.724   3.235   5.405 -0.5252  0.2742  0.3446
12340TIP3   OH258434   2.331   3.092   1.909  0.0126 -0.7434 -0.4213
12340TIP3    H158435   2.278   3.106   1.987 -0.8826 -0.1295 -1.1073
12340TIP3    H258436   2.393   3.023   1.933 -1.5839 -2.0203  0.1852
12341TIP3   OH258437   0.813   4.194   3.759 -0.3883 -0.3968 -0.2556
12341TIP3    H158438   0.886   4.147   3.720 -1.2125 -2.4574  0.5475
12341TIP3    H258439   0.833   4.196   3.853 -0.7578  0.1513 -0.1848
12342TIP3   OH258440   1.882   3.054  15.872  0.3223 -0.1587 -0.3976
12342TIP3    H158441   1.791   3.065  15.901  0.1043  1.4723 -1.6053
12342TIP3    H258442   1.934   3.101  15.938  0.3011 -0.9773  0.2193
12343TIP3   OH258443   4.755   2.100   3.316 -0.2137 -0.2893 -0.3641
12343TIP3    H158444   4.683   2.067   3.263  0.8395 -1.9005 -0.8671
12343TIP3    H258445   4.817   2.027   3.321  0.8980  0.6833  0.9449
12344TIP3   OH258446   0.202   5.068  10.437 -0.7452  0.0929 -0.0546
12344TIP3    H158447   0.245   5.072  10.352 -1.1957  0.5319 -0.2695
12344TIP3    H258448   0.240   4.992  10.480 -0.1981  0.1212 -0.4761
12345TIP3   OH258449   1.957   6.493  12.794 -0.0076 -0.1186  0.1766
12345TIP3    H158450   1.945   6.512  12.888 -0.2509  1.3823 -0.1323
12345TIP3    H258451   1.870   6.508  12.756  0.2795  0.0485 -0.4165
12346TIP3   OH258452   6.305   4.900   3.754  0.2059  0.9542 -0.6274
12346TIP3    H158453   6.325   4.807   3.752  0.3823  0.9987 -0.9362
12346TIP3    H258454   6.390   4.943   3.740  0.0147  1.1524 -1.2000
12347TIP3   OH258455   1.284   4.402  14.120 -0.2953 -0.3364  0.6433
12347TIP3    H158456   1.210   4.346  14.143  0.7795 -2.7236 -1.2634
12347TIP3    H258457   1.288   4.466  14.190 -2.4377 -1.8216  2.2657
12348TIP3   OH258458   0.476   3.008   3.840  0.2851 -0.1616  0.0325
12348TIP3    H158459   0.467   2.928   3.789  0.2120  0.8992 -1.6658
12348TIP3    H258460   0.569   3.030   3.833 -0.1555  1.3340 -1.8115
12349TIP3   OH258461   6.438   0.962   4.590 -0.2147 -0.3514  0.0319
12349TIP3    H158462   6.383   0.951   4.667  1.3224  0.3120  1.2878
12349TIP3    H258463   6.518   1.003   4.624  0.7695 -0.6490 -1.8136
12350TIP3   OH258464   6.574   5.033  12.030 -0.0474  0.1367  0.4723
12350TIP3    H158465   6.630   5.015  12.105  0.5680 -0.3368 -0.0936
12350TIP3    H258466   6.626   5.093  11.976 -0.3676  0.2392  0.2783
12351TIP3   OH258467   1.316   5.883  16.966  0.2455 -0.2879  0.5385
12351TIP3    H158468   1.383   5.947  16.941 -0.3428 -0.0486 -0.4704
12351TIP3    H258469   1.320   5.816  16.898  0.4274 -1.0130  1.2526
12352TIP3   OH258470   1.189   6.737  15.635 -0.1356 -0.6013  1.0227
12352TIP3    H158471   1.187   6.643  15.618  0.6439 -0.4183 -0.2031
12352TIP3    H258472   1.113   6.752  15.691 -1.5649 -1.6640 -0.4953
12353TIP3   OH258473   5.013   0.667   6.412 -0.0793 -0.1772  0.5809
12353TIP3    H158474   4.923   0.698   6.399  0.5721  1.6441  0.2151
12353TIP3    H258475   5.003   0.576   6.439 -1.9407 -0.9192 -2.2366
12354TIP3   OH258476   1.019   6.136   0.664  0.1228 -0.5081  0.5232
12354TIP3    H158477   0.980   6.049   0.670 -0.0980 -0.6715 -2.1455
12354TIP3    H258478   0.945   6.196   0.654  0.3685 -0.3750 -0.6318
12355TIP3   OH258479   2.074   4.394   2.666  0.0860  0.1025 -0.4734
12355TIP3    H158480   1.994   4.342   2.670 -0.3341  0.8317  1.5842
12355TIP3    H258481   2.113   4.371   2.581 -1.6341 -1.2114 -0.9659
12356TIP3   OH258482   1.515   0.893   1.503 -0.1763 -0.2887  0.0210
12356TIP3    H158483   1.571   0.939   1.441 -0.5821  0.2012  0.0150
12356TIP3    H258484   1.563   0.813   1.523  0.8508  0.4358  0.5496
12357TIP3   OH258485   5.015   1.551  12.558 -0.4763  0.5428  0.2465
12357TIP3    H158486   4.985   1.555  12.648 -0.6485  0.1714  0.2075
12357TIP3    H258487   5.060   1.634  12.544  0.5811  0.1232  1.0422
12358TIP3   OH258488   4.174   1.070  16.867  0.0616 -0.2066  0.0409
12358TIP3    H158489   4.140   1.033  16.786 -1.4838  0.9785  0.1121
12358TIP3    H258490   4.250   1.016  16.888  0.8960 -0.1211 -2.5258
12359TIP3   OH258491   6.145   5.014  16.657  0.2590 -0.2729  0.5425
12359TIP3    H158492   6.141   4.952  16.584 -0.4471  2.3572 -1.8205
12359TIP3    H258493   6.232   5.002  16.693  0.9358 -1.1659 -1.2320
12360TIP3   OH258494   4.548   0.244   1.076  0.4928  0.5580  0.4427
12360TIP3    H158495   4.494   0.280   1.146  2.5611  2.3398  1.2658
12360TIP3    H258496   4.508   0.160   1.055 -2.0861  1.4214  1.4833
12361TIP3   OH258497   1.088   5.079  10.367  0.1811  0.0539  0.7142
12361TIP3    H158498   1.102   5.012  10.300 -1.6058 -0.9749  1.3110
12361TIP3    H258499   1.007   5.124  10.341 -0.5120 -0.3230  2.1093
12362TIP3   OH258500   0.644   0.252   2.580 -0.6324 -0.3008 -0.3349
12362TIP3    H158501   0.554   0.264   2.548 -1.0150  0.6397  0.9996
12362TIP3    H258502   0.635   0.246   2.675  0.8013  0.8010 -0.1018
12363TIP3   OH258503   5.615   5.561  12.830 -0.6044 -0.4579 -0.0038
12363TIP3    H158504   5.606   5.485  12.773 -0.4140 -2.2232  2.2082
12363TIP3    H258505   5.658   5.627  12.774 -2.0740 -1.3942 -2.4199
12364TIP3   OH258506   4.890   5.290   2.470 -0.6507 -0.1936  0.0511
12364TIP3    H158507   4.867   5.215   2.416 -0.6547  0.2945 -0.6391
12364TIP3    H258508   4.857   5.366   2.421 -0.6889  0.2565  0.7556
12365TIP3   OH258509   0.511   0.140   0.094 -0.0880 -0.0024  0.0712
12365TIP3    H158510   0.498   0.130  -0.000 -2.3014 -0.0650  0.3466
12365TIP3    H258511   0.537   0.232   0.104 -0.2541  0.1183 -0.5543
12366TIP3   OH258512   0.090   4.683   2.794 -0.2129  0.2858 -0.1056
12366TIP3    H158513  -0.005   4.676   2.804 -0.5639  0.9290 -2.4806
12366TIP3    H258514   0.124   4.600   2.827 -1.7114 -0.4863 -0.4340
12367TIP3   OH258515   0.809   3.690  16.962 -0.5776 -0.4814  0.3357
12367TIP3    H158516   0.811   3.773  16.914 -1.3726 -0.4799  0.2890
12367TIP3    H258517   0.890   3.690  17.012  0.0122 -0.2377 -0.5959
12368TIP3   OH258518   1.691   3.100   1.160 -0.0436 -0.4034  0.7125
12368TIP3    H158519   1.646   3.102   1.245  0.5528  0.9310  1.0322
12368TIP3    H258520   1.768   3.157   1.173 -0.8079  1.1701 -1.1729
12369TIP3   OH258521   2.636   4.863   2.594  0.5527 -0.4129  0.0920
12369TIP3    H158522   2.545   4.852   2.568  0.5745 -1.7243  0.5080
12369TIP3    H258523   2.646   4.957   2.606 -0.6207 -0.2064 -0.3940
12370TIP3   OH258524   2.137   6.012   2.589 -0.1975 -0.1141  0.4515
12370TIP3    H158525   2.117   6.074   2.660  0.6912  1.9681 -1.0070
12370TIP3    H258526   2.232   6.011   2.584 -0.2411  0.2892 -1.0672
12371TIP3   OH258527   4.272   0.036  11.489  0.4788 -0.3034  0.3012
12371TIP3    H158528   4.357   0.054  11.449  0.4067  2.6436  1.2549
12371TIP3    H258529   4.217   0.010  11.416  1.6629 -0.1486 -0.6896
12372TIP3   OH258530   1.536   5.317   4.984 -0.0840 -0.4892  0.3211
12372TIP3    H158531   1.624   5.338   4.954 -0.9053 -1.5587 -3.2151
12372TIP3    H258532   1.478   5.347   4.914 -2.3235 -2.0842  1.3586
12373TIP3   OH258533   3.579   3.836   3.375 -0.3957 -0.1444 -0.4574
12373TIP3    H158534   3.543   3.920   3.404  0.1586  0.1753 -0.6960
12373TIP3    H258535   3.669   3.836   3.406 -1.1959 -1.9407  2.1930
12374TIP3   OH258536   4.684   0.672   1.475 -0.2328  0.0127 -0.2045
12374TIP3    H158537   4.759   0.701   1.423 -0.0325 -1.5188 -0.8287
12374TIP3    H258538   4.672   0.740   1.541 -0.0494  1.6661 -1.8103
12375TIP3   OH258539   0.034   2.973   6.015  0.3700  0.3230  0.5520
12375TIP3    H158540   0.102   2.913   6.044  1.2082  1.0240  0.0912
12375TIP3    H258541  -0.037   2.917   5.984  1.4049 -0.4395 -0.5224
12376TIP3   OH258542   0.958   3.263   0.203  0.2632 -0.0135  0.0615
12376TIP3    H158543   0.905   3.186   0.183  0.6926 -0.7446  1.5980
12376TIP3    H258544   0.932   3.327   0.136  1.2671 -2.0460 -2.4577
12377TIP3   OH258545   4.659   4.215  13.775  0.3880 -0.0965 -0.7844
12377TIP3    H158546   4.619   4.132  13.748 -1.6183  0.7620 -0.6249
12377TIP3    H258547   4.682   4.258  13.693  0.0643 -0.1855 -0.9253
12378TIP3   OH258548   1.704   6.651  14.468  0.2627  0.3176  0.2498
12378TIP3    H158549   1.689   6.694  14.384  1.8750  0.9733  0.2597
12378TIP3    H258550   1.617   6.622  14.496 -0.2815 -0.2418 -1.7993
12379TIP3   OH258551   2.898   5.799   0.833  0.7267 -0.4210 -0.0132
12379TIP3    H158552   2.923   5.710   0.808  0.5157 -0.4613 -0.0803
12379TIP3    H258553   2.899   5.798   0.929  0.1713 -0.6553 -0.0076
12380TIP3   OH258554   6.610   0.317   1.582  0.2071  0.1694  0.0534
12380TIP3    H158555   6.561   0.274   1.511  1.0991  0.2939 -0.6400
12380TIP3    H258556   6.689   0.264   1.591  0.6630  0.8671  0.1377
12381TIP3   OH258557   1.787   5.508  13.807 -0.1793  0.5423  0.6082
12381TIP3    H158558   1.823   5.597  13.815  1.5659  0.0609 -1.2591
12381TIP3    H258559   1.695   5.522  13.785  0.1979  1.9229 -0.2172
12382TIP3   OH258560   6.137   4.155   4.444  0.6218 -0.2644  0.3999
12382TIP3    H158561   6.168   4.230   4.393 -2.1429  0.0500 -0.9984
12382TIP3    H258562   6.196   4.084   4.422  1.5111  0.7548 -0.5885
12383TIP3   OH258563   2.975   6.088   5.758  0.4433 -0.7716  0.6712
12383TIP3    H158564   3.017   6.165   5.721 -0.1519 -0.3820  0.7888
12383TIP3    H258565   3.048   6.031   5.782  0.9054 -0.1462  0.8023
12384TIP3   OH258566   1.818   4.551  12.170  0.9036  0.5337 -0.1286
12384TIP3    H158567   1.878   4.479  12.151  0.0167  0.2559 -2.1038
12384TIP3    H258568   1.761   4.556  12.094 -1.5771  0.8202  1.6182
12385TIP3   OH258569   6.403   4.172   0.656  0.0930  0.2376 -0.1947
12385TIP3    H158570   6.403   4.267   0.640 -0.5018  0.2256 -0.2753
12385TIP3    H258571   6.316   4.154   0.692 -0.7318 -0.6617 -2.4840
12386TIP3   OH258572   4.237   3.455   3.253 -0.6915 -0.2372  0.2551
12386TIP3    H158573   4.215   3.540   3.216 -0.3780  0.7346  2.1853
12386TIP3    H258574   4.179   3.446   3.329  0.3715 -1.0361  0.9968
12387TIP3   OH258575   6.755   5.790   4.423 -0.1965 -0.1781  0.0522
12387TIP3    H158576   6.749   5.872   4.471  2.2749  0.1959 -0.1611
12387TIP3    H258577   6.815   5.808   4.351  0.5416 -2.2118  0.0917
12388TIP3   OH258578   5.584   3.364   6.264  0.1070  0.2394 -0.1232
12388TIP3    H158579   5.661   3.311   6.243  1.2127  2.4730 -2.2157
12388TIP3    H258580   5.531   3.362   6.185 -0.6177  0.9526  0.3289
12389TIP3   OH258581   1.227   2.297  16.368 -0.1689 -0.0390  1.0948
12389TIP3    H158582   1.306   2.304  16.314 -0.1772  0.0169  1.0907
12389TIP3    H258583   1.245   2.354  16.443 -1.2434  2.0099 -0.1368
12390TIP3   OH258584   0.862   0.846   0.872  0.7993 -0.6238  0.2127
12390TIP3    H158585   0.800   0.852   0.945  0.6304 -3.8089  0.4757
12390TIP3    H258586   0.939   0.894   0.903  0.0925 -0.4087  1.7508
12391TIP3   OH258587   1.094   1.914  14.651  0.1618  0.0957 -0.1451
12391TIP3    H158588   1.126   1.825  14.635  0.7413  0.1023  0.9001
12391TIP3    H258589   1.000   1.904  14.667  0.1973 -0.3053 -0.1849
12392TIP3   OH258590   5.836   0.789  16.978  0.0602  0.3386  0.5088
12392TIP3    H158591   5.879   0.862  17.023  1.8083 -0.5203  0.3057
12392TIP3    H258592   5.877   0.710  17.014 -1.0977 -0.5178  0.0232
12393TIP3   OH258593   4.436   1.886  10.663  0.1272  0.0992  0.5337
12393TIP3    H158594   4.414   1.835  10.741  0.7612 -2.3321 -0.7735
12393TIP3    H258595   4.523   1.856  10.638 -0.7344 -0.4896 -2.0491
12394TIP3   OH258596   3.005   2.043   3.426  0.0048 -0.7368 -0.0599
12394TIP3    H158597   2.956   2.118   3.392  2.9858  0.7123 -1.4916
12394TIP3    H258598   3.047   2.075   3.505 -0.5243 -1.6468  0.6089
12395TIP3   OH258599   4.677   0.492   3.954 -0.4399  0.0277  0.0955
12395TIP3    H158600   4.723   0.571   3.984  0.7535 -0.4667 -0.3801
12395TIP3    H258601   4.585   0.512   3.968 -0.3469  2.3005 -1.7817
12396TIP3   OH258602   3.128   0.005  11.667  0.1071 -0.5036 -0.2155
12396TIP3    H158603   3.083   0.006  11.583  1.3889  0.2325 -0.9224
12396TIP3    H258604   3.065   0.040  11.729 -0.6542 -0.5006 -0.9787
12397TIP3   OH258605   6.239   4.351   4.205 -0.9029  0.2515  0.0275
12397TIP3    H158606   6.174   4.387   4.265 -1.2881  0.8053 -0.7086
12397TIP3    H258607   6.323   4.380   4.240 -1.0645 -0.1860  0.7983
12398TIP3   OH258608   6.300   5.188   4.701  0.0668  0.8653  0.4415
12398TIP3    H158609   6.298   5.206   4.795  2.0104  0.0993  0.6812
12398TIP3    H258610   6.372   5.240   4.668 -0.1507  0.5795 -0.5079
12399TIP3   OH258611   4.478   1.697  15.857  0.5896  0.0514 -0.4621
12399TIP3    H158612   4.468   1.792  15.845  1.8779  0.0088 -2.3142
12399TIP3    H258613   4.430   1.659  15.784 -1.2787 -0.8407  1.1567
12400TIP3   OH258614   2.096   3.853   2.533 -0.2795 -0.0550 -0.4739
12400TIP3    H158615   2.179   3.831   2.574  1.3131  1.6615 -2.5634
12400TIP3    H258616   2.076   3.777   2.477 -0.5685 -0.8133  0.6294
12401TIP3   OH258617   2.991   5.349  16.654 -0.6514 -0.1803 -0.1313
12401TIP3    H158618   2.957   5.364  16.742  1.9677  0.8605  0.8317
12401TIP3    H258619   3.085   5.366  16.663 -0.3329  0.1048 -3.1720
12402TIP3   OH258620   3.241   3.272   3.323 -0.4974 -0.1657 -0.0662
12402TIP3    H158621   3.264   3.254   3.232 -0.4720  0.0863 -0.1090
12402TIP3    H258622   3.291   3.350   3.346  0.1206 -0.7006  0.4159
12403TIP3   OH258623   1.413   1.922   1.400  0.4410 -0.3625  0.1799
12403TIP3    H158624   1.464   1.846   1.371 -0.4448 -1.4694  1.3882
12403TIP3    H258625   1.340   1.884   1.450 -1.4414  1.1514 -1.2586
12404TIP3   OH258626   4.073   0.674   6.562  0.0783  0.5538  0.6996
12404TIP3    H158627   4.080   0.677   6.657  1.8563 -0.2464  0.6369
12404TIP3    H258628   4.149   0.621   6.534 -1.6060 -1.1223 -1.0181
12405TIP3   OH258629   3.156   0.256  11.516 -0.1765 -0.2360  0.3039
12405TIP3    H158630   3.227   0.192  11.516  1.5056  1.5402  0.5679
12405TIP3    H258631   3.141   0.275  11.609 -0.2983  0.1450  0.2092
12406TIP3   OH258632   2.449   3.186  15.873 -0.1532  0.6267  0.1615
12406TIP3    H158633   2.399   3.111  15.906 -0.0060  0.9005  1.0268
12406TIP3    H258634   2.383   3.241  15.829 -0.2482 -0.0362 -0.5455
12407TIP3   OH258635   0.022   2.843  11.711  0.0877 -0.5636  0.4728
12407TIP3    H158636  -0.024   2.911  11.662 -1.2738 -0.6965  1.5228
12407TIP3    H258637   0.111   2.878  11.722 -0.0787  0.2248 -0.5518
12408TIP3   OH258638   0.994   2.234   5.502  0.1132  0.0388 -0.0271
12408TIP3    H158639   0.941   2.246   5.423  0.5693  2.2579 -0.0647
12408TIP3    H258640   0.949   2.287   5.568  0.7569 -0.3151  0.7017
12409TIP3   OH258641   6.451   3.323  14.404 -0.1873  0.0953  0.2769
12409TIP3    H158642   6.526   3.358  14.356 -0.4610  0.8623  0.4011
12409TIP3    H258643   6.403   3.272  14.338  0.2197 -0.0620  0.0971
12410TIP3   OH258644   2.589   3.817   1.713 -0.4908  0.0988 -0.0264
12410TIP3    H158645   2.624   3.903   1.689  0.0112 -0.6003 -1.9518
12410TIP3    H258646   2.615   3.805   1.804  1.1214  1.1730 -0.3106
12411TIP3   OH258647   4.218   3.983   1.962  0.2800 -0.2413  0.2131
12411TIP3    H158648   4.186   3.998   2.050  1.0339  0.6649  0.3478
12411TIP3    H258649   4.307   4.018   1.962 -0.1835  1.0520 -1.2749
12412TIP3   OH258650   0.753   6.752  11.861 -0.0408  0.3939 -0.1893
12412TIP3    H158651   0.706   6.719  11.785 -2.3232  1.5858  0.6174
12412TIP3    H258652   0.704   6.717  11.936  0.8520  1.0350  0.7075
12413TIP3   OH258653   4.889   0.625  11.106 -0.3371 -0.0623  0.9564
12413TIP3    H158654   4.902   0.719  11.118  2.5107 -0.2129 -0.0875
12413TIP3    H258655   4.954   0.584  11.163  1.2426 -1.1964 -1.4645
12414TIP3   OH258656   6.138   1.891   3.675  0.5885 -0.1209  0.2332
12414TIP3    H158657   6.133   1.799   3.646  0.1424 -0.1572  0.4241
12414TIP3    H258658   6.159   1.939   3.595 -3.1280  0.1035 -0.8279
12415TIP3   OH258659   3.704   1.264  11.661  0.5572  0.9049  0.4736
12415TIP3    H158660   3.681   1.223  11.578  2.6525  0.2092  0.1586
12415TIP3    H258661   3.666   1.207  11.728  0.0943  0.6617  0.0047
12416TIP3   OH258662   3.162   4.423  14.438  0.6342  0.2256  0.4897
12416TIP3    H158663   3.186   4.460  14.523 -0.0227 -0.0036  0.7839
12416TIP3    H258664   3.134   4.334  14.458  0.0538  0.3116  0.1016
12417TIP3   OH258665   3.692   4.207  12.001  0.9614  0.2911  0.2816
12417TIP3    H158666   3.743   4.272  11.953 -0.4067  0.4136 -1.0952
12417TIP3    H258667   3.637   4.258  12.060 -0.6660  0.5003 -1.3417
12418TIP3   OH258668   1.863   1.705   2.292  0.1235  0.0066 -0.5882
12418TIP3    H158669   1.799   1.761   2.337  1.1340 -0.1993  1.2385
12418TIP3    H258670   1.948   1.743   2.316  0.8275 -2.0384  0.3923
12419TIP3   OH258671   4.081   5.376   1.263  0.3043  0.0638 -0.3802
12419TIP3    H158672   4.035   5.449   1.305 -0.6860 -0.8884  0.2426
12419TIP3    H258673   4.139   5.341   1.331 -0.1306 -0.4912 -0.2890
12420TIP3   OH258674   3.848   0.772  15.387 -0.2705 -0.1896 -0.0373
12420TIP3    H158675   3.825   0.681  15.371  0.0094 -0.1550 -0.6739
12420TIP3    H258676   3.906   0.795  15.315  1.2006 -0.0597  1.1291
12421TIP3   OH258677   6.742   4.591   4.461  0.2981  0.2814  0.7836
12421TIP3    H158678   6.725   4.660   4.524  2.6606  3.2283 -1.4659
12421TIP3    H258679   6.718   4.629   4.376  1.9119 -1.5325 -0.5942
12422TIP3   OH258680   4.565   5.623  11.412  0.1383 -0.4644 -0.6042
12422TIP3    H158681   4.584   5.531  11.397 -1.2965 -0.7793 -0.6448
12422TIP3    H258682   4.650   5.662  11.432  0.7479 -1.8110 -0.4445
12423TIP3   OH258683   1.065   6.503   2.655 -1.1206  0.4909  0.1968
12423TIP3    H158684   1.106   6.588   2.643 -0.2915  0.1646  0.6265
12423TIP3    H258685   0.977   6.513   2.620 -0.3011  0.8806 -1.8677
12424TIP3   OH258686   3.328   2.018   3.792  0.1699  0.1723  0.3331
12424TIP3    H158687   3.393   2.026   3.722  1.4479  0.9468  1.5478
12424TIP3    H258688   3.376   1.978   3.865 -0.2919  2.0653  1.7423
12425TIP3   OH258689   5.851   0.096   0.752  0.0487  0.0176 -0.3028
12425TIP3    H158690   5.777   0.111   0.812 -0.1949  1.8310 -0.9889
12425TIP3    H258691   5.813   0.102   0.665  0.8106 -0.2711 -0.6666
12426TIP3   OH258692   4.643   3.744  12.184 -0.3031 -0.1826 -0.6778
12426TIP3    H158693   4.582   3.770  12.253  0.7991 -0.0580  0.2827
12426TIP3    H258694   4.707   3.688  12.228 -1.1474 -2.4472 -2.1888
12427TIP3   OH258695   2.937   4.367   3.201 -0.4887  0.0499 -0.5882
12427TIP3    H158696   2.911   4.312   3.274 -0.9954 -0.3058 -1.0239
12427TIP3    H258697   2.867   4.355   3.136 -0.4664  0.9899 -0.8003
12428TIP3   OH258698   0.010   2.130   5.563  0.5253  0.5139 -0.1108
12428TIP3    H158699  -0.011   2.077   5.640  0.3484 -0.5515 -0.8674
12428TIP3    H258700   0.105   2.141   5.567  0.5336  0.3521  0.1876
12429TIP3   OH258701   6.750   0.441  13.503  0.3550 -0.4104 -0.0025
12429TIP3    H158702   6.796   0.357  13.508  0.4580 -0.3561 -0.0501
12429TIP3    H258703   6.819   0.507  13.511  0.2795 -0.3298 -0.0181
12430TIP3   OH258704   6.033   4.866   5.590 -0.4161  0.4363 -0.1034
12430TIP3    H158705   6.048   4.776   5.561  2.8212  0.1552  1.9943
12430TIP3    H258706   5.963   4.859   5.655 -0.9134 -0.3708 -0.7001
12431TIP3   OH258707   6.780   2.679   5.490 -0.3035 -0.4961  0.3070
12431TIP3    H158708   6.813   2.719   5.571 -0.8193  0.2553  0.1607
12431TIP3    H258709   6.786   2.585   5.506  1.1986 -0.3820  0.5593
12432TIP3   OH258710   3.173   3.585   6.437  0.1921  0.0239 -0.1681
12432TIP3    H158711   3.248   3.645   6.448  0.1651 -0.1998  1.3326
12432TIP3    H258712   3.186   3.548   6.349  1.0615  1.0520 -0.5041
12433TIP3   OH258713   1.630   6.134  15.405  0.7156 -0.3514 -0.7097
12433TIP3    H158714   1.563   6.203  15.407 -0.0077 -1.0379 -0.8496
12433TIP3    H258715   1.584   6.057  15.372  0.9839 -1.4687  1.3383
12434TIP3   OH258716   6.776   2.762  12.373  0.0091 -0.3669  0.1165
12434TIP3    H158717   6.797   2.693  12.310  0.3683  0.2311 -0.4267
12434TIP3    H258718   6.749   2.837  12.320  0.1606  0.0981  0.6769
12435TIP3   OH258719   5.960   5.649   6.232 -0.1668 -0.1938 -0.4980
12435TIP3    H158720   5.998   5.592   6.299  0.7876 -1.1398 -1.7813
12435TIP3    H258721   5.948   5.733   6.276 -1.2210 -1.2284  1.3391
12436TIP3   OH258722   6.585   3.802   2.991 -0.1327 -0.0118 -0.4486
12436TIP3    H158723   6.654   3.756   2.942 -0.0958  0.5286 -0.9108
12436TIP3    H258724   6.505   3.754   2.972 -0.1071  0.1632 -0.9955
12437TIP3   OH258725   3.029   5.226  13.541  0.5199  0.3283 -0.3276
12437TIP3    H158726   3.084   5.162  13.586 -0.2113 -0.9442 -1.1766
12437TIP3    H258727   3.009   5.185  13.456 -0.5729  1.3549 -0.5949
12438TIP3   OH258728   6.747   1.564   3.763 -0.0110 -0.3155  0.5316
12438TIP3    H158729   6.835   1.527   3.760  0.0291 -0.1930  0.1449
12438TIP3    H258730   6.698   1.505   3.821 -0.1265 -1.3766 -0.5995
12439TIP3   OH258731   2.191   0.730   1.026  0.7135 -0.1777 -0.2453
12439TIP3    H158732   2.275   0.770   1.004 -0.2906  1.1562 -1.8846
12439TIP3    H258733   2.165   0.773   1.108  0.8373  0.6631 -0.6414
12440TIP3   OH258734   0.946   5.883  13.915  0.3202 -0.8466 -0.2930
12440TIP3    H158735   0.889   5.960  13.914  0.3769 -0.7423  1.6563
12440TIP3    H258736   0.890   5.811  13.942  1.0018 -0.7906  1.4026
12441TIP3   OH258737   6.062   3.605   1.037 -0.2470 -0.2263  0.3256
12441TIP3    H158738   6.086   3.653   1.117  0.3275 -1.0610  0.6680
12441TIP3    H258739   5.995   3.660   0.995 -0.5567  0.2186  1.3734
12442TIP3   OH258740   0.850   3.008   0.294  0.1021  0.1208  0.5979
12442TIP3    H158741   0.787   3.045   0.357 -1.4027 -0.2237 -0.6454
12442TIP3    H258742   0.848   2.914   0.312  0.3699  0.1247  0.6452
12443TIP3   OH258743   5.824   3.553   6.087 -0.3564 -0.1061 -0.5343
12443TIP3    H158744   5.777   3.622   6.040 -0.8582  0.1297  0.2844
12443TIP3    H258745   5.838   3.590   6.174  0.0101 -0.7654 -0.3133
12444TIP3   OH258746   5.498   3.629   1.761 -0.0061 -0.3862 -0.0100
12444TIP3    H158747   5.588   3.659   1.746  0.3761  0.5870  3.3281
12444TIP3    H258748   5.444   3.707   1.751 -0.1586 -0.4510  0.2841
12445TIP3   OH258749   1.205   4.947   5.495 -0.2805  0.3881 -0.7563
12445TIP3    H158750   1.200   4.863   5.450  2.4458 -0.2634 -0.0472
12445TIP3    H258751   1.162   4.932   5.580  0.3576 -0.3675 -0.5587
12446TIP3   OH258752   0.767   4.727   1.624  0.2744 -0.1903 -0.3696
12446TIP3    H158753   0.845   4.696   1.670 -0.2227 -2.9093 -1.1960
12446TIP3    H258754   0.788   4.714   1.531 -0.8527 -0.2110 -0.6366
12447TIP3   OH258755   6.459   3.103  17.048 -0.1861  0.4988  0.4044
12447TIP3    H158756   6.462   3.181  16.994 -0.3931  1.2848  1.5029
12447TIP3    H258757   6.487   3.132  17.135  0.7847 -0.8662  0.5901
12448TIP3   OH258758   2.897   1.628   2.456  0.0983 -0.1757 -0.6025
12448TIP3    H158759   2.803   1.619   2.471  0.4002 -0.4233  1.3852
12448TIP3    H258760   2.917   1.718   2.480  0.5008 -0.3667 -0.2113
12449TIP3   OH258761   0.282   3.933  16.690 -0.2438  0.1190 -0.1986
12449TIP3    H158762   0.222   3.932  16.765  2.1617 -1.5374  1.9086
12449TIP3    H258763   0.267   3.848  16.647 -0.3548  0.2940 -0.5056
12450TIP3   OH258764   2.699   4.361   3.435  0.2017  0.4282 -0.1413
12450TIP3    H158765   2.639   4.383   3.507  1.0050  0.9034  0.3963
12450TIP3    H258766   2.774   4.319   3.478  0.2640 -0.1706 -0.8073
12451TIP3   OH258767   1.969   1.418   1.349 -0.1863 -0.3931  0.0830
12451TIP3    H158768   2.031   1.471   1.399  1.9558 -1.8485 -0.8606
12451TIP3    H258769   1.927   1.362   1.414  0.4247 -0.2486  0.6081
12452TIP3   OH258770   5.971   4.790   1.795 -0.4570 -0.0921  0.6217
12452TIP3    H158771   5.981   4.884   1.785  0.8218  0.0564  2.6471
12452TIP3    H258772   5.983   4.754   1.707  0.5351  1.5327  0.0580
12453TIP3   OH258773   0.863   3.488   4.986  0.4506 -0.1258 -0.3410
12453TIP3    H158774   0.917   3.409   4.988  0.1585 -0.3270 -0.4476
12453TIP3    H258775   0.830   3.492   4.896 -0.6778 -0.6492  0.0409
12454TIP3   OH258776   5.290   1.670  15.959 -0.2493 -0.1163  0.0626
12454TIP3    H158777   5.312   1.615  16.034  2.3338 -1.3441 -1.4569
12454TIP3    H258778   5.350   1.744  15.965 -1.7928  1.1655  0.5397
12455TIP3   OH258779   3.534   4.412  10.728  0.4010  0.4811 -0.2411
12455TIP3    H158780   3.519   4.354  10.653 -2.1698 -2.0309  2.0249
12455TIP3    H258781   3.616   4.381  10.766  0.5254  0.2799 -0.6596
12456TIP3   OH258782   0.930   2.967  16.913  0.3888  0.4731  0.3577
12456TIP3    H158783   0.842   2.935  16.892  0.0300  0.4664  1.7542
12456TIP3    H258784   0.949   3.031  16.844  0.3340 -1.2655 -1.3671
12457TIP3   OH258785   0.416   0.471   4.705 -0.4403 -0.4245 -0.0961
12457TIP3    H158786   0.340   0.529   4.695  0.7761  1.3204  0.4458
12457TIP3    H258787   0.421   0.425   4.621 -1.0370  0.7495 -0.8057
12458TIP3   OH258788   4.582   1.302   0.045 -0.4538  0.8492  0.3696
12458TIP3    H158789   4.616   1.266   0.127 -0.2202  1.6861  0.6468
12458TIP3    H258790   4.651   1.285  -0.019 -1.0893 -0.7950  0.0718
12459TIP3   OH258791   3.924   2.747   4.596  0.3378  0.1085  0.3366
12459TIP3    H158792   4.002   2.700   4.625  0.5447 -1.2737 -2.1527
12459TIP3    H258793   3.854   2.682   4.600  0.1731  0.1595 -1.1391
12460TIP3   OH258794   5.373   5.037   4.608  0.4836 -0.3655  1.0146
12460TIP3    H158795   5.302   5.087   4.567  0.5287  0.8139  2.3074
12460TIP3    H258796   5.329   4.970   4.660  0.3913 -0.7792  0.4246
12461TIP3   OH258797   5.663   4.173  15.896  0.5654  0.4925 -0.2270
12461TIP3    H158798   5.731   4.238  15.914  1.7083 -0.7408 -0.0115
12461TIP3    H258799   5.701   4.115  15.830  0.1084 -0.7968  0.6041
12462TIP3   OH258800   6.426   3.058   2.352  0.7181  0.0089 -0.1861
12462TIP3    H158801   6.486   3.069   2.426 -0.4113  0.8589  0.6381
12462TIP3    H258802   6.365   2.990   2.381  1.7963 -1.5378 -1.3926
12463TIP3   OH258803   3.886   0.263  15.388 -0.0013  0.9101  0.8606
12463TIP3    H158804   3.866   0.352  15.360  0.7867  0.9797  0.4689
12463TIP3    H258805   3.915   0.218  15.308  0.3397  0.5273  1.1882
12464TIP3   OH258806   0.901   1.409   3.713 -0.1445 -0.4373  0.2101
12464TIP3    H158807   0.987   1.437   3.746  0.8692 -1.9716 -0.9826
12464TIP3    H258808   0.906   1.425   3.618 -1.7447  0.7722  0.2819
12465TIP3   OH258809   5.027   6.472  15.858 -0.1024  0.2230  0.0666
12465TIP3    H158810   5.123   6.480  15.857 -0.0911  0.1757  0.5317
12465TIP3    H258811   4.996   6.547  15.807  0.2115 -0.2743 -0.8810
12466TIP3   OH258812   5.188   2.688   2.656  0.2077  0.3901 -0.2120
12466TIP3    H158813   5.234   2.611   2.687 -0.6704  1.0631  3.2084
12466TIP3    H258814   5.114   2.653   2.606  0.2510 -0.9997  0.6293
12467TIP3   OH258815   2.755   3.504   2.265 -0.3976 -0.0754  1.1033
12467TIP3    H158816   2.727   3.415   2.287 -0.4967 -0.3637 -0.0910
12467TIP3    H258817   2.692   3.561   2.309 -1.3272 -0.6510  0.5443
12468TIP3   OH258818   1.540   0.459   1.486  0.0492 -0.4932 -0.0479
12468TIP3    H158819   1.599   0.400   1.439 -0.8740 -0.4566 -1.3101
12468TIP3    H258820   1.528   0.533   1.426 -1.2785 -0.5073  0.1817
12469TIP3   OH258821   5.335   3.033   2.143 -0.0897  0.2940  0.0940
12469TIP3    H158822   5.302   3.116   2.176 -0.5256  0.4408 -0.6958
12469TIP3    H258823   5.408   3.011   2.201  1.0166  1.9683 -0.6092
12470TIP3   OH258824   1.905   5.409   6.212 -0.2938 -0.0635  1.1726
12470TIP3    H158825   1.860   5.480   6.257  0.1026  0.4158  0.8339
12470TIP3    H258826   1.837   5.345   6.194 -0.4595 -0.2645  2.4341
12471TIP3   OH258827   0.614   2.810  14.255  0.4807  0.0578  0.3300
12471TIP3    H158828   0.584   2.892  14.216  0.2217  1.2940  2.9255
12471TIP3    H258829   0.541   2.783  14.311  1.3112 -0.9087  0.9680
12472TIP3   OH258830   0.744   3.738   5.520 -0.1455  0.0500 -0.2797
12472TIP3    H158831   0.672   3.780   5.474 -0.3849 -0.6372 -0.5401
12472TIP3    H258832   0.811   3.806   5.527  0.1809  0.0112 -2.2644
12473TIP3   OH258833   1.199   5.617  10.370  0.4220 -0.3996  0.1358
12473TIP3    H158834   1.136   5.548  10.348  1.5227 -0.6798 -2.5961
12473TIP3    H258835   1.150   5.698  10.363  0.2788 -0.6107 -2.0289
12474TIP3   OH258836   2.202   3.868   0.531 -0.6641  0.1645 -0.1983
12474TIP3    H158837   2.231   3.860   0.440 -1.1354  0.2070 -0.3565
12474TIP3    H258838   2.189   3.962   0.544  2.3729  0.5291  0.8660
12475TIP3   OH258839   1.939   2.998   3.385 -0.0875  0.4567  0.6026
12475TIP3    H158840   1.865   3.023   3.440  1.7082  0.7903  3.0336
12475TIP3    H258841   1.996   2.948   3.444  1.4788 -0.0534 -1.2644
12476TIP3   OH258842   1.379   6.781  12.733  0.0593 -0.3493  0.2486
12476TIP3    H158843   1.380   6.737  12.649  0.7629 -0.9929  0.5874
12476TIP3    H258844   1.368   6.711  12.797  1.6872 -0.1246  0.8279
12477TIP3   OH258845   2.914   1.465  16.239 -0.3442 -0.6430  0.0886
12477TIP3    H158846   2.916   1.534  16.306 -2.7523  1.2022 -1.5604
12477TIP3    H258847   2.857   1.398  16.277  2.2826 -2.0321  1.8455
12478TIP3   OH258848   0.585   3.339   0.188 -0.1772 -0.0642  0.0961
12478TIP3    H158849   0.628   3.257   0.164  1.5094  0.4819  1.0755
12478TIP3    H258850   0.528   3.358   0.114  2.1627 -0.2357 -1.9098
12479TIP3   OH258851   4.443   6.778   4.748  0.2266  0.2152  0.4623
12479TIP3    H158852   4.370   6.749   4.694  1.5546  0.2895 -1.4763
12479TIP3    H258853   4.431   6.734   4.832 -1.7177 -0.1861  0.0011
12480TIP3   OH258854   0.292   3.564  14.948 -0.3172  0.0295 -0.0442
12480TIP3    H158855   0.213   3.599  14.908  0.4125  1.5659 -0.2002
12480TIP3    H258856   0.264   3.483  14.991 -2.1838  1.0375  0.7303
12481TIP3   OH258857   6.295   3.842  13.655  0.9010  0.3152 -0.2882
12481TIP3    H158858   6.248   3.819  13.735  3.0346 -0.8586  0.6934
12481TIP3    H258859   6.246   3.916  13.619 -0.2651  0.6974  1.9409
12482TIP3   OH258860   2.897   0.175  16.826  0.0341  0.4613  0.6452
12482TIP3    H158861   2.926   0.094  16.869 -1.4089  0.1017  1.0027
12482TIP3    H258862   2.812   0.152  16.788 -0.4841  1.8761  0.9162
12483TIP3   OH258863   2.248   3.053  13.723 -0.5358  0.0219 -0.7023
12483TIP3    H158864   2.256   3.144  13.753 -1.8024 -0.3114  0.7356
12483TIP3    H258865   2.304   3.003  13.783 -0.3150 -0.2309 -1.1144
12484TIP3   OH258866   2.550   4.530   1.923  0.2431  0.2362 -0.5313
12484TIP3    H158867   2.526   4.599   1.984 -1.2775 -0.7117  0.0007
12484TIP3    H258868   2.505   4.452   1.956  0.9030 -0.7267 -1.8086
12485TIP3   OH258869   2.846   0.679  13.441  0.1165  0.4928  0.5554
12485TIP3    H158870   2.800   0.742  13.386  0.6646 -0.1004 -0.6143
12485TIP3    H258871   2.915   0.643  13.384  0.1701 -0.7438  1.3715
12486TIP3   OH258872   5.836   5.876  10.975  0.1680  0.4610 -0.2370
12486TIP3    H158873   5.888   5.871  11.056  0.1955  0.6457 -0.2436
12486TIP3    H258874   5.789   5.959  10.982  1.1924  1.1263 -1.0283
12487TIP3   OH258875   6.743   2.039  16.130  0.1033 -0.1226 -0.4735
12487TIP3    H158876   6.777   2.003  16.048  1.3576 -2.4213  0.9556
12487TIP3    H258877   6.810   2.100  16.160  0.3617 -0.4336 -0.4159
12488TIP3   OH258878   3.932   1.968   3.502 -0.1841  0.1470 -0.0744
12488TIP3    H158879   3.879   1.889   3.508 -0.2239  0.1233 -0.7009
12488TIP3    H258880   4.012   1.946   3.550  0.5143 -0.8820 -1.6223
12489TIP3   OH258881   4.106   5.346  12.628  0.0981 -0.1316  0.5188
12489TIP3    H158882   4.191   5.344  12.584 -0.5431 -0.7965 -0.7673
12489TIP3    H258883   4.122   5.309  12.714  0.8016 -1.8492 -0.3054
12490TIP3   OH258884   1.062   4.537  12.902  0.1841  0.0333 -0.0624
12490TIP3    H158885   1.036   4.621  12.939 -2.1463 -0.9134  0.6699
12490TIP3    H258886   1.118   4.498  12.969  0.8297  0.7470 -0.1703
12491TIP3   OH258887   5.203   5.059  14.643  0.2278  0.2536  0.0096
12491TIP3    H158888   5.154   5.082  14.722 -1.3458 -1.1222 -0.5248
12491TIP3    H258889   5.265   4.993  14.672 -0.3973 -0.3047  0.0986
12492TIP3   OH258890   5.298   2.541   5.416 -0.3614 -0.2078  0.0091
12492TIP3    H158891   5.208   2.529   5.448 -0.5623  0.0318 -0.4585
12492TIP3    H258892   5.299   2.497   5.331 -0.6737  1.6730 -1.0224
12493TIP3   OH258893   0.355   6.623  15.992  0.1853  0.5175 -0.5772
12493TIP3    H158894   0.286   6.593  16.051 -1.1246  2.5087 -0.9639
12493TIP3    H258895   0.432   6.634  16.048 -0.1453 -0.6057  0.1134
12494TIP3   OH258896   2.403   0.923   1.009  0.5701  0.4749 -0.5320
12494TIP3    H158897   2.465   0.907   1.080  0.9388  0.4362 -0.8632
12494TIP3    H258898   2.440   0.998   0.962 -0.0501  0.9723 -0.2529
12495TIP3   OH258899   5.206   5.926  14.214  0.6489 -0.2577  0.6303
12495TIP3    H158900   5.119   5.964  14.217  0.5383 -0.4474  0.0045
12495TIP3    H258901   5.245   5.961  14.134  1.9755  1.5560  1.9912
12496TIP3   OH258902   3.292   6.754   3.063 -0.8256  0.1402 -0.2945
12496TIP3    H158903   3.311   6.664   3.090  0.4014  0.4082 -0.2029
12496TIP3    H258904   3.240   6.744   2.983 -2.0776 -0.6420  0.5739
12497TIP3   OH258905   6.047   2.706   0.193 -0.0196 -0.4494  0.5868
12497TIP3    H158906   6.069   2.792   0.157 -1.2026 -0.7125 -0.8779
12497TIP3    H258907   6.128   2.675   0.233  0.6518  0.9880  0.4250
12498TIP3   OH258908   3.945   6.275   2.496  0.3035  0.0424  0.4420
12498TIP3    H158909   3.926   6.344   2.559 -0.3919 -0.6700  1.0292
12498TIP3    H258910   3.863   6.263   2.449  0.3592 -0.5409  0.4950
12499TIP3   OH258911   2.278   0.806   4.539 -0.2834 -0.1074  0.3392
12499TIP3    H158912   2.297   0.900   4.535  0.2824 -0.2277  0.0522
12499TIP3    H258913   2.260   0.788   4.631  0.1088  0.1913  0.4758
12500TIP3   OH258914   1.723   5.577   2.140  0.0974 -0.1469 -0.4702
12500TIP3    H158915   1.641   5.527   2.131 -1.6078  2.1444  1.2661
12500TIP3    H258916   1.789   5.510   2.157 -1.7062 -1.9793 -0.1864
12501TIP3   OH258917   5.449   6.226   1.566  0.4692  0.3223  0.0791
12501TIP3    H158918   5.428   6.171   1.490  1.6779  0.9849 -0.7799
12501TIP3    H258919   5.413   6.178   1.641  1.2669 -1.5429 -0.6509
12502TIP3   OH258920   0.186   0.724  12.026 -0.6414  0.3201 -0.0796
12502TIP3    H158921   0.282   0.727  12.017 -0.6099  1.6711  0.4633
12502TIP3    H258922   0.166   0.631  12.037  0.6328  0.0316 -0.0317
12503TIP3   OH258923   0.654   6.288   1.817  0.3050 -0.6220  0.5237
12503TIP3    H158924   0.651   6.262   1.909  4.4095 -1.6528  0.5640
12503TIP3    H258925   0.673   6.206   1.770  1.7805  0.3915 -0.7453
12504TIP3   OH258926   5.440   3.963  16.004  0.5447  0.1811 -0.6120
12504TIP3    H158927   5.396   3.893  15.956 -0.6324  1.6410 -1.7712
12504TIP3    H258928   5.495   4.006  15.938 -0.7663  1.9418 -0.6362
12505TIP3   OH258929   4.223   1.787   4.006 -0.0678 -0.0712  0.1411
12505TIP3    H158930   4.158   1.720   3.982  1.2719 -1.6107  0.6153
12505TIP3    H258931   4.190   1.867   3.966 -2.5531 -0.6546  0.8163
12506TIP3   OH258932   6.149   0.533  11.809 -0.4694 -0.3940  0.4599
12506TIP3    H158933   6.219   0.555  11.748 -0.1917  0.9573  1.2060
12506TIP3    H258934   6.180   0.455  11.855  0.2361 -0.2141  0.2923
12507TIP3   OH258935   3.291   6.416  14.382  0.3772  0.3096  0.1231
12507TIP3    H158936   3.324   6.500  14.349  0.8830  0.2551  0.4781
12507TIP3    H258937   3.211   6.401  14.332  2.5139 -1.1578 -3.2040
12508TIP3   OH258938   5.165   3.329   1.040 -0.4484 -0.5432 -0.6350
12508TIP3    H158939   5.123   3.397   1.092 -3.3135 -2.1570 -0.6612
12508TIP3    H258940   5.183   3.372   0.956  0.8139  1.0336  0.3879
12509TIP3   OH258941   0.637   6.383   1.525  0.3106 -0.0080  0.7526
12509TIP3    H158942   0.640   6.478   1.518  1.9068 -0.1305 -1.1270
12509TIP3    H258943   0.648   6.365   1.618 -1.1074  1.6343  1.2878
12510TIP3   OH258944   3.042   1.281  16.921  0.5860  0.4662  0.3689
12510TIP3    H158945   2.977   1.300  16.854 -0.4996 -0.8470  1.0095
12510TIP3    H258946   3.095   1.210  16.884  0.4724  0.2643  0.5907
12511TIP3   OH258947   0.942   1.475   4.549 -1.1312  0.1792  0.4634
12511TIP3    H158948   0.886   1.421   4.604  0.5040  0.2948  2.3578
12511TIP3    H258949   0.971   1.546   4.606 -1.0338  1.5343 -1.1830
12512TIP3   OH258950   4.243   3.313   4.285 -0.8968  0.2659  0.0554
12512TIP3    H158951   4.244   3.402   4.320  1.2049  0.4983 -0.4836
12512TIP3    H258952   4.244   3.325   4.190  0.4130 -0.2926 -0.0239
12513TIP3   OH258953   6.402   6.044  15.404 -0.6871 -0.2772 -0.7217
12513TIP3    H158954   6.405   5.948  15.410 -1.0490 -0.3797 -1.8621
12513TIP3    H258955   6.458   6.065  15.329 -1.4377  0.3259 -1.1244
12514TIP3   OH258956   0.968   5.900   0.120  0.2746 -0.2021 -0.0626
12514TIP3    H158957   1.016   5.977   0.151 -1.2404  1.2861 -1.2442
12514TIP3    H258958   0.899   5.935   0.064 -0.9880 -2.3887 -0.0035
12515TIP3   OH258959   6.444   6.260   1.032 -0.1683  0.1589  0.4189
12515TIP3    H158960   6.482   6.320   1.096 -0.7672 -0.0757  1.0086
12515TIP3    H258961   6.466   6.173   1.064 -1.3853  0.0109  0.9115
12516TIP3   OH258962   0.423   5.981   4.381  0.2876  0.6760  0.3641
12516TIP3    H158963   0.439   5.892   4.349 -1.2732 -0.0987  1.5957
12516TIP3    H258964   0.476   5.988   4.460  1.1101  1.2031 -0.2092
12517TIP3   OH258965   5.066   3.073  13.551 -0.1675  0.1102  0.6358
12517TIP3    H158966   5.159   3.050  13.549 -0.5399 -1.4993 -0.5749
12517TIP3    H258967   5.035   3.052  13.463 -1.3356  2.2479  0.4835
12518TIP3   OH258968   2.077   3.692   4.396 -0.5714 -0.0952 -0.2206
12518TIP3    H158969   2.006   3.712   4.456  0.3555  1.2232  0.4898
12518TIP3    H258970   2.156   3.694   4.450  0.0929 -0.8874 -1.1108
12519TIP3   OH258971   6.404   1.139  11.144  0.4192  0.1205 -0.2685
12519TIP3    H158972   6.333   1.079  11.165 -1.1598  1.8271 -0.5296
12519TIP3    H258973   6.440   1.165  11.229  0.8508 -0.8273 -0.1420
12520TIP3   OH258974   1.638   0.006   4.862  0.3917 -0.3790 -0.2927
12520TIP3    H158975   1.619   0.085   4.912  0.6301  0.0454 -0.8501
12520TIP3    H258976   1.660   0.039   4.774  2.5949 -0.8830  0.0183
12521TIP3   OH258977   3.214   1.975  11.668 -0.2653  0.0989  0.4776
12521TIP3    H158978   3.192   2.063  11.637 -1.0695 -0.0560  0.5800
12521TIP3    H258979   3.297   1.985  11.714  1.6229  0.1832 -2.6049
12522TIP3   OH258980   3.619   6.305   2.918  0.6631  0.0802 -0.1919
12522TIP3    H158981   3.680   6.373   2.945 -0.5588  0.4844  1.8224
12522TIP3    H258982   3.608   6.251   2.997 -0.2539 -0.9825 -1.0212
12523TIP3   OH258983   3.634   1.849  13.995 -0.2327 -0.6845 -0.3829
12523TIP3    H158984   3.684   1.769  13.979 -0.0483 -0.8466  0.9194
12523TIP3    H258985   3.591   1.834  14.079 -0.4779  0.4476 -0.2943
12524TIP3   OH258986   3.830   2.233  16.519  0.0238 -0.1956 -0.3640
12524TIP3    H158987   3.813   2.214  16.612  2.1589 -1.0014 -0.0950
12524TIP3    H258988   3.885   2.161  16.489  0.6612  0.8600 -1.8443
12525TIP3   OH258989   4.659   2.988   0.221  0.1449 -0.2356 -0.1431
12525TIP3    H158990   4.690   2.974   0.311  0.4939 -0.5716 -0.3100
12525TIP3    H258991   4.679   3.080   0.203 -0.7094  0.0735  0.4166
12526TIP3   OH258992   0.393   1.171   2.477 -0.3714  0.0275  0.0545
12526TIP3    H158993   0.353   1.113   2.543  1.4361 -0.5839  0.6725
12526TIP3    H258994   0.418   1.112   2.406  1.7004 -0.0340  0.7898
12527TIP3   OH258995   5.800   3.034  10.437 -0.0573  0.2393 -0.2963
12527TIP3    H158996   5.828   3.078  10.357  0.0116  0.1034 -0.3480
12527TIP3    H258997   5.784   2.944  10.410  2.4528 -0.4766  0.3162
12528TIP3   OH258998   0.034   3.672   2.170  0.3757 -0.0125  0.2322
12528TIP3    H158999  -0.043   3.640   2.217  2.0284 -3.2636  1.0466
12528TIP3    H259000   0.031   3.626   2.085  0.4951  1.2715 -0.4938
12529TIP3   OH259001   1.565   3.064   1.387  0.1576  0.0562 -0.3843
12529TIP3    H159002   1.596   3.078   1.477  0.4872 -0.1602 -0.4602
12529TIP3    H259003   1.497   3.130   1.374 -0.5678 -0.5234  0.3517
12530TIP3   OH259004   3.112   2.186  13.033 -0.0174  0.0021 -0.2607
12530TIP3    H159005   3.063   2.175  12.951  0.9484 -1.2365 -0.7028
12530TIP3    H259006   3.186   2.126  13.025  0.9477  0.9912  0.8787
12531TIP3   OH259007   1.364   2.625   5.418  0.2716  0.5238 -0.2166
12531TIP3    H159008   1.289   2.601   5.473 -0.0139  2.6128  0.3918
12531TIP3    H259009   1.430   2.656   5.479  1.9970 -1.9830 -0.6856
12532TIP3   OH259010   1.601   4.075  15.733 -0.1750 -0.5863 -0.5201
12532TIP3    H159011   1.645   4.005  15.782 -0.8098 -0.5735  0.0791
12532TIP3    H259012   1.593   4.147  15.795  1.5689  0.5117 -1.4735
12533TIP3   OH259013   3.446   5.469  15.301  0.0521  0.3337  0.3628
12533TIP3    H159014   3.529   5.421  15.301  0.2775  0.6837 -1.1915
12533TIP3    H259015   3.385   5.412  15.349  0.2635 -1.6235 -1.5349
12534TIP3   OH259016   6.405   3.010  11.591  0.8670 -1.1170 -0.0481
12534TIP3    H159017   6.487   3.047  11.621  0.1866  0.0557  0.4275
12534TIP3    H259018   6.400   2.924  11.633  0.2663  0.1922  2.7423
12535TIP3   OH259019   5.418   3.288  12.195 -0.4336  0.0565 -0.4835
12535TIP3    H159020   5.502   3.261  12.158  0.6444  2.1343  0.2482
12535TIP3    H259021   5.356   3.280  12.122  0.4487 -1.2158 -1.1317
12536TIP3   OH259022   2.335   2.793   4.976 -0.4050  0.1725 -0.0815
12536TIP3    H159023   2.251   2.751   4.958  0.1142 -1.0252  0.1306
12536TIP3    H259024   2.388   2.775   4.898 -0.9380  2.6671 -1.1090
12537TIP3   OH259025   2.657   1.457  16.681  0.1699 -0.1460  0.2346
12537TIP3    H159026   2.574   1.495  16.710  0.8371  1.4856  0.1025
12537TIP3    H259027   2.695   1.524  16.625  2.3601 -0.1180  1.6511
12538TIP3   OH259028   2.395   1.488   1.839  0.0841  0.1931  0.1136
12538TIP3    H159029   2.377   1.499   1.932 -1.1502 -0.0072 -0.0836
12538TIP3    H259030   2.481   1.528   1.826  0.7748 -0.7398  1.5310
12539TIP3   OH259031   4.786   3.786   5.061 -0.5082  0.2880 -0.0245
12539TIP3    H159032   4.804   3.873   5.026 -0.9345  0.2593 -0.3219
12539TIP3    H259033   4.696   3.790   5.091  0.3486  0.8299  2.6829
12540TIP3   OH259034   4.200   2.791   6.426 -0.5025  0.9438  0.0314
12540TIP3    H159035   4.109   2.820   6.433 -1.0292 -0.4201 -0.7665
12540TIP3    H259036   4.195   2.695   6.431  0.8982  0.8578  0.0876
12541TIP3   OH259037   0.469   2.035  14.458 -0.2611 -0.3302 -0.1805
12541TIP3    H159038   0.561   2.017  14.479  0.1549  0.8645 -0.8492
12541TIP3    H259039   0.462   2.130  14.464 -1.6538 -0.4641  0.5628
12542TIP3   OH259040   2.775   1.211  11.231  0.7735 -0.1718 -0.3032
12542TIP3    H159041   2.846   1.150  11.250  0.2982 -1.0929 -1.4237
12542TIP3    H259042   2.732   1.176  11.153  0.2080  1.3502 -0.7202
12543TIP3   OH259043   5.665   2.838   1.487  0.2600  0.4992  0.0820
12543TIP3    H159044   5.750   2.795   1.480  0.7178  1.3411  0.3462
12543TIP3    H259045   5.637   2.853   1.397  0.5688  0.5642 -0.0030
12544TIP3   OH259046   0.395   3.020  12.533  0.6242  0.4540 -0.3699
12544TIP3    H159047   0.477   3.034  12.485  1.2345  0.6906  0.7112
12544TIP3    H259048   0.350   3.105  12.527 -0.4123 -0.1723 -2.4828
12545TIP3   OH259049   0.608   2.398  15.485  0.4022  0.2130 -0.1996
12545TIP3    H159050   0.637   2.366  15.400 -3.9676 -1.9953 -1.1249
12545TIP3    H259051   0.619   2.323  15.544 -0.4051  0.3738  0.1687
12546TIP3   OH259052   2.649   5.298   0.842  0.2965 -0.1918  0.7933
12546TIP3    H159053   2.722   5.241   0.820  1.5890  1.0238  1.7225
12546TIP3    H259054   2.652   5.305   0.938 -0.9719 -0.0167  0.8439
12547TIP3   OH259055   4.474   2.334   3.182 -0.1727 -0.0985  0.1479
12547TIP3    H159056   4.425   2.371   3.256 -0.0350 -1.0940  0.7510
12547TIP3    H259057   4.561   2.375   3.189  0.1441 -0.8955  1.1235
12548TIP3   OH259058   5.333   2.786  15.188 -0.4763 -0.2728 -0.0251
12548TIP3    H159059   5.260   2.839  15.155 -1.0919 -0.3485  1.1849
12548TIP3    H259060   5.374   2.840  15.256  1.4830  0.3479 -1.5801
12549TIP3   OH259061   0.395   4.838   5.861  0.6101  0.0998  0.2277
12549TIP3    H159062   0.448   4.790   5.925 -1.1725 -1.0301  0.9474
12549TIP3    H259063   0.362   4.771   5.802  0.8444  0.9223 -0.8670
12550TIP3   OH259064   0.127   0.886   3.179 -0.5683 -0.1749 -0.1503
12550TIP3    H159065   0.205   0.832   3.193 -0.2342 -0.1733 -1.7514
12550TIP3    H259066   0.161   0.972   3.154 -1.0098 -0.6205 -2.4912
12551TIP3   OH259067   6.373   6.004  13.187 -0.4049 -0.5612  0.5177
12551TIP3    H159068   6.437   6.038  13.250 -1.7436  1.1005  1.0642
12551TIP3    H259069   6.410   6.024  13.101 -0.9920  2.2315  0.8087
12552TIP3   OH259070   0.583   1.360  13.443 -0.0791 -0.2963 -0.3324
12552TIP3    H159071   0.598   1.443  13.489 -0.2790 -1.8690  2.8994
12552TIP3    H259072   0.534   1.384  13.365 -2.4202  2.4311  1.7734
12553TIP3   OH259073   1.547   3.301  15.791  0.6973  0.3910  0.6707
12553TIP3    H159074   1.471   3.297  15.733  0.9255  0.3550  0.3758
12553TIP3    H259075   1.517   3.352  15.866  0.2283 -0.0414  0.7816
12554TIP3   OH259076   1.805   6.188   5.475 -0.3444 -0.1825  0.3826
12554TIP3    H159077   1.768   6.273   5.496  2.0744  1.1698 -0.3994
12554TIP3    H259078   1.734   6.126   5.489 -2.0863  1.9116  1.2992
12555TIP3   OH259079   3.989   3.282  12.461  0.2187 -0.3260 -0.2119
12555TIP3    H159080   3.986   3.370  12.423 -1.0119 -0.2954 -0.0899
12555TIP3    H259081   3.907   3.241  12.432  0.0750 -0.9040  0.9684
12556TIP3   OH259082   4.710   5.799  17.122 -0.6524  0.0486 -0.0314
12556TIP3    H159083   4.648   5.726  17.115  0.4526 -0.9541  0.2040
12556TIP3    H259084   4.671   5.869  17.070 -3.4794  0.5747  2.5478
12557TIP3   OH259085   2.507   5.038   5.382  0.0112 -0.0016  0.3548
12557TIP3    H159086   2.526   4.946   5.398 -3.0659 -0.7996  0.0232
12557TIP3    H259087   2.478   5.042   5.291  1.1546  1.5113  0.0203
12558TIP3   OH259088   0.074   3.820  11.406  0.2065 -0.7867 -0.1509
12558TIP3    H159089   0.123   3.893  11.368  0.2198 -1.6394 -1.8452
12558TIP3    H259090   0.094   3.824  11.500  0.8997  0.8404 -0.3353
12559TIP3   OH259091   4.745   1.172  11.150 -0.8433  0.2007 -0.0702
12559TIP3    H159092   4.813   1.118  11.190 -1.2589  0.0066  0.3812
12559TIP3    H259093   4.695   1.207  11.224 -1.1349  0.4739 -0.3935
12560TIP3   OH259094   3.486   5.689   3.867 -0.1144 -0.1932  0.2030
12560TIP3    H159095   3.468   5.635   3.790 -2.2271  2.2224 -1.1627
12560TIP3    H259096   3.426   5.657   3.934 -1.9574  0.8497 -0.8612
12561TIP3   OH259097   4.202   0.487  13.209  0.7386  0.2525 -0.2123
12561TIP3    H159098   4.291   0.508  13.237  0.7587 -0.9955  0.7857
12561TIP3    H259099   4.147   0.515  13.282  0.3035  0.9255 -0.7810
12562TIP3   OH259100   4.926   5.759  12.918  0.4235  0.7313  0.2209
12562TIP3    H159101   4.922   5.717  13.004 -0.3240 -1.1299 -0.6613
12562TIP3    H259102   4.834   5.764  12.890  0.8012 -2.4472 -2.1102
12563TIP3   OH259103   1.836   3.427   4.570 -0.1855 -0.4843  0.5076
12563TIP3    H159104   1.901   3.443   4.502 -0.5941 -2.0386 -0.2807
12563TIP3    H259105   1.839   3.333   4.586 -2.9804 -0.8219 -0.3689
12564TIP3   OH259106   4.483   6.450   5.855  0.3468 -0.1602 -0.2814
12564TIP3    H159107   4.573   6.451   5.821  0.2328 -3.5868 -1.1571
12564TIP3    H259108   4.428   6.444   5.776 -0.8895  3.5192  0.1446
12565TIP3   OH259109   5.181   1.900  11.089  0.2119  0.0596  0.4149
12565TIP3    H159110   5.150   1.827  11.035 -1.1317 -1.6506  3.2515
12565TIP3    H259111   5.257   1.865  11.134  0.6631  1.0702  0.4453
12566TIP3   OH259112   0.773   1.322   5.287  0.5049  0.0840 -0.1473
12566TIP3    H159113   0.752   1.373   5.366 -0.5160  0.5688 -0.7108
12566TIP3    H259114   0.719   1.361   5.219  1.5953 -0.1473 -1.1633
12567TIP3   OH259115   4.951   1.949   3.037 -0.0181  0.0724  0.2967
12567TIP3    H159116   4.924   2.041   3.026  1.3037  0.3440 -0.9123
12567TIP3    H259117   4.964   1.917   2.947  0.1722 -1.1112  0.7289
12568TIP3   OH259118   0.834   4.082  14.153  0.6241 -0.3877 -0.3241
12568TIP3    H159119   0.791   4.128  14.225  1.4841 -0.7334  0.4289
12568TIP3    H259120   0.766   4.024  14.117 -0.8911  2.2534 -2.1033
12569TIP3   OH259121   1.532   4.628   1.788  0.1016 -0.1733 -0.3912
12569TIP3    H159122   1.539   4.537   1.759  0.6176 -0.8373  1.6600
12569TIP3    H259123   1.622   4.656   1.801 -0.0963  0.2043  0.2205
12570TIP3   OH259124   5.721   1.253  11.619 -0.3106 -0.3784 -0.3471
12570TIP3    H159125   5.789   1.301  11.572 -0.7660  2.1739  1.3579
12570TIP3    H259126   5.748   1.257  11.711 -2.2466 -0.1117  0.2610
12571TIP3   OH259127   4.415   5.738  16.162  0.5662  0.2914 -0.6349
12571TIP3    H159128   4.489   5.691  16.124  0.7032  0.0305 -0.0651
12571TIP3    H259129   4.374   5.782  16.088  2.7140  2.4497 -0.6446
12572TIP3   OH259130   6.619   3.824   3.549  0.5979  0.2145  0.2107
12572TIP3    H159131   6.599   3.775   3.469 -1.7292  0.9164  0.2994
12572TIP3    H259132   6.715   3.828   3.551  0.8014 -2.0408 -1.1601
12573TIP3   OH259133   6.169   1.314  12.687 -0.4787  0.5336 -0.1089
12573TIP3    H159134   6.242   1.254  12.667 -0.1891  1.2183 -1.2045
12573TIP3    H259135   6.210   1.387  12.734 -0.1406  1.6668 -2.0612
12574TIP3   OH259136   4.419   2.351  16.186 -0.1110  0.0208 -0.4770
12574TIP3    H159137   4.432   2.380  16.276 -2.7147 -1.6682  0.5995
12574TIP3    H259138   4.353   2.410  16.151 -0.8161 -0.7086 -0.4244
12575TIP3   OH259139   3.320   5.722   5.452  0.4220 -0.5080 -0.1768
12575TIP3    H159140   3.376   5.798   5.469  0.1012 -0.5746  1.3596
12575TIP3    H259141   3.349   5.688   5.368 -0.0454  1.8602 -1.3728
12576TIP3   OH259142   5.118   2.850  15.897  0.1007 -1.0562 -0.9347
12576TIP3    H159143   5.117   2.770  15.950  2.2934 -0.7732 -0.3872
12576TIP3    H259144   5.141   2.820  15.810 -0.0387 -1.1153 -0.9525
12577TIP3   OH259145   5.845   2.648  13.079 -0.0806 -0.4089 -0.3267
12577TIP3    H159146   5.783   2.665  13.008 -0.1629 -1.9490 -0.6656
12577TIP3    H259147   5.840   2.553  13.093  1.9112 -0.5233 -0.0997
12578TIP3   OH259148   3.979   4.898  16.774  0.3917 -0.1340 -0.4248
12578TIP3    H159149   3.952   4.990  16.779 -0.5713 -0.4595  1.5289
12578TIP3    H259150   4.056   4.899  16.717 -0.5938  1.6123 -1.8492
12579TIP3   OH259151   6.700   1.341  16.040  0.1954  0.0565 -0.2479
12579TIP3    H159152   6.669   1.264  16.087  1.5120 -0.2512  0.1403
12579TIP3    H259153   6.682   1.414  16.100 -1.1972  0.1057 -0.6798
12580TIP3   OH259154   6.383   2.627  14.725 -0.3721  0.2033  0.3828
12580TIP3    H159155   6.464   2.595  14.766 -0.4873 -1.5257 -0.6192
12580TIP3    H259156   6.314   2.576  14.768 -0.5950 -0.7992 -1.1132
12581TIP3   OH259157   5.145   3.628   2.620  0.1523  0.2078  0.3240
12581TIP3    H159158   5.056   3.593   2.621  0.2716 -0.1154  1.9492
12581TIP3    H259159   5.134   3.721   2.602 -0.5819  0.2922  1.1669
12582TIP3   OH259160   2.358   0.896  16.287 -0.1772  0.2922  0.5523
12582TIP3    H159161   2.366   0.801  16.281  0.9146  0.4531 -1.3779
12582TIP3    H259162   2.268   0.910  16.316 -0.5557 -1.3265  0.2956
12583TIP3   OH259163   0.581   6.501   4.313  0.8775  0.2005 -0.1455
12583TIP3    H159164   0.602   6.451   4.391 -0.1499  1.1119  0.7540
12583TIP3    H259165   0.603   6.591   4.336 -0.6577  0.6697 -0.4133
12584TIP3   OH259166   1.859   3.576   3.055 -0.1759 -0.0716 -0.6191
12584TIP3    H159167   1.871   3.485   3.028 -0.2959 -0.0332 -0.8085
12584TIP3    H259168   1.824   3.571   3.144  1.3500 -0.1818 -0.0062
12585TIP3   OH259169   6.244   3.482   1.844  0.3759 -0.0463 -0.3183
12585TIP3    H159170   6.271   3.411   1.902  1.7943 -0.6408 -1.6254
12585TIP3    H259171   6.160   3.512   1.879  0.0550 -1.9281  0.6416
12586TIP3   OH259172   4.254   4.177   4.557 -0.0671 -0.1620  0.1755
12586TIP3    H159173   4.181   4.163   4.617 -0.5637 -0.2245 -0.4277
12586TIP3    H259174   4.236   4.118   4.484 -0.2170  0.8991 -0.6718
12587TIP3   OH259175   5.101   0.230   2.988  0.2300  0.3898 -0.7910
12587TIP3    H159176   5.094   0.282   3.068 -1.8126 -1.4508  0.3459
12587TIP3    H259177   5.026   0.258   2.934  0.0191 -0.2595 -0.8452
12588TIP3   OH259178   5.190   2.271  15.670 -0.2839 -0.3290  0.0684
12588TIP3    H159179   5.284   2.281  15.681 -0.2289  2.8752 -1.9166
12588TIP3    H259180   5.153   2.300  15.754  0.4668  0.7856  0.0333
12589TIP3   OH259181   4.065   1.213   0.633 -0.2951 -0.2517  0.3740
12589TIP3    H159182   3.984   1.263   0.642  0.0923  0.3572  0.5708
12589TIP3    H259183   4.134   1.275   0.658  0.2214 -0.7895  0.3017
12590TIP3   OH259184   0.561   0.404  15.217 -0.3581  0.1178  0.1423
12590TIP3    H159185   0.484   0.381  15.269 -0.5807  0.4627 -0.0357
12590TIP3    H259186   0.635   0.382  15.273 -0.5472 -1.4360 -0.1740
12591TIP3   OH259187   2.885   3.668  11.906 -0.2818  0.0462  0.9288
12591TIP3    H159188   2.961   3.675  11.849  0.4561 -0.6630  1.7787
12591TIP3    H259189   2.815   3.716  11.861 -0.2022 -1.7835 -1.3359
12592TIP3   OH259190   3.029   3.795   0.791 -0.2927 -0.3795  0.1638
12592TIP3    H159191   2.961   3.862   0.787 -1.7471 -1.6165  2.1718
12592TIP3    H259192   2.989   3.717   0.751  0.8832 -0.4751 -0.9090
12593TIP3   OH259193   5.625   4.225   3.029 -0.2987  0.0052  0.0492
12593TIP3    H159194   5.576   4.152   3.068 -2.5024  0.9417 -0.7806
12593TIP3    H259195   5.661   4.190   2.947 -0.9345 -0.2976 -0.1036
12594TIP3   OH259196   0.087   3.022  16.462  0.0586 -0.9836 -0.6025
12594TIP3    H159197  -0.003   2.996  16.441  0.1362 -1.1602 -0.7169
12594TIP3    H259198   0.135   2.940  16.470  0.2500 -0.8845 -0.7199
12595TIP3   OH259199   4.847   4.996   4.088 -0.4987  0.0902  0.0629
12595TIP3    H159200   4.941   4.991   4.071 -0.3120 -0.0910  1.0874
12595TIP3    H259201   4.832   5.088   4.113 -0.6405  0.1752 -0.3242
12596TIP3   OH259202   3.911   1.020   5.705  0.3016  0.2282  0.2407
12596TIP3    H159203   3.943   0.982   5.787 -0.4475 -2.1218 -0.4881
12596TIP3    H259204   3.825   0.980   5.692  0.3088  0.7301 -1.5918
12597TIP3   OH259205   6.276   4.895  14.087  0.2016  0.1392  0.7302
12597TIP3    H159206   6.346   4.835  14.060  0.0918 -0.2356  1.2579
12597TIP3    H259207   6.296   4.977  14.044  0.8711 -0.0192  0.7374
12598TIP3   OH259208   0.126   2.013  17.128  0.1180 -0.4273  0.3569
12598TIP3    H159209   0.160   1.961  17.055 -0.8275 -0.7119  0.0940
12598TIP3    H259210   0.063   2.072  17.087 -0.1915 -0.3695  0.9064
12599TIP3   OH259211   1.566   3.491   3.732  0.7268  0.7343  0.2637
12599TIP3    H159212   1.610   3.474   3.816  0.1609  1.2969  0.6819
12599TIP3    H259213   1.512   3.568   3.749 -1.0924 -0.4364  0.0049
12600TIP3   OH259214   2.558   0.073  13.361  0.9345 -0.0585 -0.0183
12600TIP3    H159215   2.648   0.059  13.388  1.5558  1.7966 -0.9096
12600TIP3    H259216   2.561   0.070  13.265 -0.1880 -1.0794 -0.0553
12601TIP3   OH259217   1.111   3.035   0.802 -0.2558  0.1114 -0.4945
12601TIP3    H159218   1.205   3.024   0.785 -0.0154  0.2124  0.6911
12601TIP3    H259219   1.068   2.987   0.731  0.7037 -2.7041  0.6754
12602TIP3   OH259220   0.549   6.653  16.167  0.3753 -0.5885 -0.5786
12602TIP3    H159221   0.515   6.715  16.232 -1.9963 -1.1335 -1.1932
12602TIP3    H259222   0.639   6.681  16.151 -0.2230  1.9166  0.0700
12603TIP3   OH259223   4.576   5.928  15.230  0.0307  0.5065  0.2372
12603TIP3    H159224   4.504   5.870  15.205 -0.0118  0.8573 -0.4848
12603TIP3    H259225   4.558   5.951  15.321 -0.5006  0.2012  0.2166
12604TIP3   OH259226   4.986   2.830  12.444 -0.0262  0.1866  0.0399
12604TIP3    H159227   4.899   2.866  12.462  0.0096  0.3846 -0.1851
12604TIP3    H259228   5.037   2.854  12.522 -0.0260  0.5481 -0.0686
12605TIP3   OH259229   2.952   6.774   4.154 -0.0959  0.0067  0.1726
12605TIP3    H159230   3.000   6.713   4.210  0.2077  0.1916  0.1127
12605TIP3    H259231   2.874   6.725   4.127 -1.2445  0.5400  2.2810
12606TIP3   OH259232   1.059   5.149  11.350 -0.2489 -0.1682 -0.1730
12606TIP3    H159233   1.097   5.235  11.368  0.1086 -0.0325 -1.4363
12606TIP3    H259234   1.105   5.089  11.408 -0.0236  0.4016  0.2420
12607TIP3   OH259235   1.195   3.968  11.179 -0.1191  0.1981  0.9089
12607TIP3    H159236   1.228   3.910  11.110 -1.2900  0.4182  0.1444
12607TIP3    H259237   1.201   3.916  11.259 -2.2414 -1.4632  0.0736
12608TIP3   OH259238   1.751   2.800  13.038  0.0759  0.7360  0.5570
12608TIP3    H159239   1.735   2.887  13.075  0.2896  1.6720 -1.4240
12608TIP3    H259240   1.761   2.815  12.944  3.7927 -0.8984  0.5101
12609TIP3   OH259241   1.887   2.967  15.242 -0.4015  0.4828  0.8279
12609TIP3    H159242   1.963   2.916  15.271 -0.2542  0.4878  0.4529
12609TIP3    H259243   1.924   3.035  15.186 -0.8765 -0.9553 -1.3541
12610TIP3   OH259244   4.472   5.596  14.860 -0.0690  0.4841 -0.3273
12610TIP3    H159245   4.523   5.517  14.880 -1.0038  0.5566  3.0702
12610TIP3    H259246   4.400   5.565  14.805  1.0472 -0.4920 -1.2769
12611TIP3   OH259247   2.261   6.661   3.002 -0.4128  1.1015 -0.4962
12611TIP3    H159248   2.311   6.697   2.929 -0.0747  0.3264 -0.6550
12611TIP3    H259249   2.289   6.712   3.078  1.7792 -0.2954 -0.2962
12612TIP3   OH259250   5.070   5.786   3.984 -0.3669 -0.2236 -0.6163
12612TIP3    H159251   5.149   5.739   4.012 -1.0254 -0.3431  1.2290
12612TIP3    H259252   5.015   5.719   3.943  0.3101 -0.2144 -1.5699
12613TIP3   OH259253   3.137   4.213   1.703 -0.0962  0.1159  0.4515
12613TIP3    H159254   3.072   4.257   1.648  0.7680 -0.3416 -0.9828
12613TIP3    H259255   3.185   4.285   1.745 -2.4983  0.4966  2.8817
12614TIP3   OH259256   3.050   1.190   4.173 -0.0279  0.4782  0.1097
12614TIP3    H159257   3.132   1.155   4.137 -0.9935 -0.0693 -1.7156
12614TIP3    H259258   3.048   1.160   4.263  0.9454 -1.0277 -0.3339
12615TIP3   OH259259   2.772   1.875   1.708 -0.2648  0.5512 -0.0438
12615TIP3    H159260   2.761   1.843   1.618  1.2617 -2.3470  0.6617
12615TIP3    H259261   2.685   1.903   1.735 -0.8639  0.9491 -2.2140
12616TIP3   OH259262   5.070   1.593  12.980 -0.1002 -0.4772  0.1005
12616TIP3    H159263   5.020   1.595  12.898 -0.4692 -1.3307  0.3006
12616TIP3    H259264   5.121   1.674  12.978 -1.8045  0.6436  0.0963
12617TIP3   OH259265   3.127   5.811   3.533 -0.4629 -0.4659  0.1059
12617TIP3    H159266   3.163   5.890   3.574 -0.7419  0.5114 -1.4350
12617TIP3    H259267   3.153   5.740   3.591  0.9982  0.5966  0.8364
12618TIP3   OH259268   3.018   0.047   5.293 -0.3947 -0.0890  0.8925
12618TIP3    H159269   3.114   0.054   5.293 -0.3629 -0.4046  1.4995
12618TIP3    H259270   2.989   0.118   5.349 -0.5863  0.6599 -0.1330
12619TIP3   OH259271   5.161   1.061  16.217 -0.6728  0.6819  0.0195
12619TIP3    H159272   5.103   1.136  16.233 -1.0466  0.2744  0.6362
12619TIP3    H259273   5.248   1.092  16.241 -0.5057  1.4969 -1.4959
12620TIP3   OH259274   6.508   1.119   3.235 -0.2042 -0.8468  0.2103
12620TIP3    H159275   6.445   1.068   3.185  0.0376 -1.9516  1.0024
12620TIP3    H259276   6.560   1.164   3.168 -1.2076 -0.6514 -0.4702
12621TIP3   OH259277   2.498   2.195   3.747  0.5422  1.0121 -0.0512
12621TIP3    H159278   2.444   2.274   3.742  1.4175  1.8183  1.8805
12621TIP3    H259279   2.469   2.152   3.827  0.6406 -0.2086 -0.6577
12622TIP3   OH259280   5.706   3.988  17.068 -0.3317 -0.2043  0.2969
12622TIP3    H159281   5.786   3.996  17.017 -2.4039 -0.6594 -3.3367
12622TIP3    H259282   5.670   4.076  17.071 -1.4479 -0.5612 -1.3460
12623TIP3   OH259283   3.205   3.187  13.943  0.4242  0.2412  0.2732
12623TIP3    H159284   3.123   3.209  13.899  0.0215 -0.8967  0.4336
12623TIP3    H259285   3.182   3.179  14.035  0.5595 -0.7465  0.2357
12624TIP3   OH259286   3.985   5.984  13.798 -0.6823 -0.1506 -0.6635
12624TIP3    H159287   3.995   5.905  13.851  0.2712 -0.6263 -1.5152
12624TIP3    H259288   3.967   5.951  13.710  1.1680  0.5245 -1.3263
12625TIP3   OH259289   3.125   5.367   2.886 -0.4353  0.5720  0.2934
12625TIP3    H159290   3.089   5.403   2.967  2.9033 -1.0137  2.7238
12625TIP3    H259291   3.097   5.276   2.886 -0.0339  0.4448 -0.1177
12626TIP3   OH259292   5.522   1.963   5.570 -0.4824  0.9397  0.7103
12626TIP3    H159293   5.530   1.868   5.569 -1.7243  0.8295  0.2903
12626TIP3    H259294   5.606   1.995   5.536 -0.0336  0.0081  0.9228
12627TIP3   OH259295   5.314   1.243   0.053  0.1539 -0.2539 -0.2736
12627TIP3    H159296   5.405   1.215   0.062 -0.1874 -1.1856  0.3292
12627TIP3    H259297   5.318   1.315  -0.011  1.6330  1.4544  1.6215
12628TIP3   OH259298   6.492   6.085   1.953 -0.2378 -0.1912  0.7957
12628TIP3    H159299   6.454   6.170   1.975  2.3601  1.2387  0.1167
12628TIP3    H259300   6.476   6.074   1.860 -0.8305 -0.6376  0.9379
12629TIP3   OH259301   4.058   4.701  11.253  0.2847  0.7909 -0.0524
12629TIP3    H159302   4.046   4.651  11.172 -0.3858 -0.0788  0.5686
12629TIP3    H259303   4.010   4.783  11.237  0.3994  0.7530 -0.6311
12630TIP3   OH259304   5.919   4.171  14.108 -0.4234 -0.0889 -0.6042
12630TIP3    H159305   5.851   4.191  14.044  0.1748  0.5097 -1.0681
12630TIP3    H259306   5.939   4.255  14.149 -0.9977 -0.5120  0.5885
12631TIP3   OH259307   5.088   5.755   2.160 -0.0120 -0.0924  0.7361
12631TIP3    H159308   5.013   5.781   2.214  0.4121 -0.3379  1.4496
12631TIP3    H259309   5.163   5.760   2.219  0.5508  0.2106  0.0101
12632TIP3   OH259310   6.474   3.904   5.062 -0.1226  0.0315 -0.4542
12632TIP3    H159311   6.476   3.843   5.136  0.1977  0.7116  0.0983
12632TIP3    H259312   6.464   3.847   4.986 -1.4008 -0.6267  0.1731
12633TIP3   OH259313   4.822   2.741   1.308 -0.0417  0.3863 -0.1689
12633TIP3    H159314   4.741   2.714   1.351 -1.4846  3.4763 -0.6903
12633TIP3    H259315   4.838   2.674   1.242 -1.1790 -1.1639  1.0390
12634TIP3   OH259316   0.393   4.937  15.802 -0.4593 -0.0695  0.2494
12634TIP3    H159317   0.405   4.939  15.707 -1.7746  0.6214  0.0713
12634TIP3    H259318   0.298   4.944  15.814 -0.4589 -1.7658  1.5806
12635TIP3   OH259319   3.969   5.188   2.477 -0.8721 -0.1990 -0.3236
12635TIP3    H159320   3.976   5.095   2.495  1.5838 -0.2282 -1.0622
12635TIP3    H259321   3.879   5.200   2.446 -1.4269 -2.1890  0.3679
12636TIP3   OH259322   5.205   5.050   2.836  0.1346  0.0888  0.3726
12636TIP3    H159323   5.127   5.105   2.832 -0.1817 -0.3996 -1.1640
12636TIP3    H259324   5.266   5.090   2.774 -0.6862 -2.0294 -2.0092
12637TIP3   OH259325   3.541   4.487   1.688  0.4269  0.3431 -0.4455
12637TIP3    H159326   3.451   4.486   1.720  0.5583 -2.0914  0.0621
12637TIP3    H259327   3.595   4.487   1.767  0.8084 -0.7896 -0.6798
12638TIP3   OH259328   1.865   5.569   5.255  0.1999  0.2727  0.2405
12638TIP3    H159329   1.914   5.556   5.336 -0.2786  0.4649  0.5631
12638TIP3    H259330   1.886   5.658   5.228 -0.5047  0.5950  0.7447
12639TIP3   OH259331   6.027   2.184  13.491 -0.0366  0.5590  0.3286
12639TIP3    H159332   5.978   2.102  13.482 -1.5982  1.4214  0.4595
12639TIP3    H259333   6.015   2.208  13.583 -0.0579  1.1887  0.1636
12640TIP3   OH259334   6.682   5.402   0.386 -0.3577  0.0023 -0.3745
12640TIP3    H159335   6.752   5.351   0.425  1.5543  2.5754 -0.1432
12640TIP3    H259336   6.675   5.369   0.296  1.4905 -0.0466 -0.5451
12641TIP3   OH259337   2.798   5.117  11.168  1.0248  0.1196 -0.1684
12641TIP3    H159338   2.847   5.091  11.246 -0.6038 -1.2518  0.4611
12641TIP3    H259339   2.865   5.131  11.102  2.4373  1.0328  1.3711
12642TIP3   OH259340   4.833   3.998   3.449  0.4654  0.9974 -0.6266
12642TIP3    H159341   4.829   3.928   3.383 -1.2156  0.1070  0.3305
12642TIP3    H259342   4.860   4.076   3.400  0.2380  0.1575 -2.1677
12643TIP3   OH259343   3.010   2.511  14.431 -0.5553  0.6766 -0.0578
12643TIP3    H159344   3.033   2.578  14.495  0.4277  0.1067  0.2151
12643TIP3    H259345   3.070   2.526  14.357 -0.0829 -0.0897  0.1502
12644TIP3   OH259346   5.490   4.953  15.715  0.1483 -0.1446 -0.1686
12644TIP3    H159347   5.520   4.926  15.628 -0.2020 -1.0376 -0.0204
12644TIP3    H259348   5.398   4.928  15.717 -1.3154  4.2546 -1.3412
12645TIP3   OH259349   4.223   1.389   2.046 -0.4371  0.0370  0.1667
12645TIP3    H159350   4.256   1.447   1.977 -0.6373 -1.8289 -1.5891
12645TIP3    H259351   4.300   1.341   2.076 -0.7780 -1.1789 -0.8189
12646TIP3   OH259352   0.038   4.808  14.165 -0.2433  0.7162  0.2944
12646TIP3    H159353   0.128   4.780  14.184 -0.4247  0.7705  1.3031
12646TIP3    H259354  -0.006   4.807  14.250 -1.6844 -0.9616 -0.4080
12647TIP3   OH259355   3.135   5.525   0.321 -0.5588 -0.1087  0.1078
12647TIP3    H159356   3.054   5.561   0.357 -0.0521  1.0483  0.1475
12647TIP3    H259357   3.175   5.599   0.275  1.0495 -0.3206  1.1026
12648TIP3   OH259358   0.565   5.271  14.879 -0.6901 -0.1278  0.5019
12648TIP3    H159359   0.569   5.237  14.789  3.1070  0.9709  0.0801
12648TIP3    H259360   0.612   5.207  14.931 -0.4968  0.5709  1.2046
12649TIP3   OH259361   1.807   0.977   5.941 -0.0890 -0.0897  0.2055
12649TIP3    H159362   1.815   1.028   6.021 -0.8195 -0.2374  0.3760
12649TIP3    H259363   1.816   1.042   5.871  1.2061 -0.0516  0.3823
12650TIP3   OH259364   6.728   5.105   0.425  0.1453 -0.3197 -0.4204
12650TIP3    H159365   6.643   5.130   0.388 -0.6318 -0.1622  1.3434
12650TIP3    H259366   6.712   5.018   0.463  0.8461 -0.3859 -0.2716
12651TIP3   OH259367   2.273   6.248   0.441 -0.1483 -0.1988  0.1779
12651TIP3    H159368   2.233   6.247   0.527  0.1331  0.7809  0.3367
12651TIP3    H259369   2.206   6.212   0.382 -1.8980  2.7524  0.1847
12652TIP3   OH259370   0.412   3.570   2.613  0.5088  0.1483 -0.5315
12652TIP3    H159371   0.419   3.637   2.545  0.6352  1.6332  0.8845
12652TIP3    H259372   0.463   3.605   2.687  0.3035 -1.3589  0.3675
12653TIP3   OH259373   0.035   4.488  14.144 -0.1391  0.7656  0.6368
12653TIP3    H159374   0.082   4.417  14.188 -0.7757  0.4293  0.7958
12653TIP3    H259375   0.091   4.513  14.070  0.4711  0.6572  1.0619
12654TIP3   OH259376   0.323   6.222   3.975  0.1432  0.5492  0.0718
12654TIP3    H159377   0.245   6.268   3.943  0.5349  0.0163 -1.7261
12654TIP3    H259378   0.307   6.212   4.069 -1.0556  2.1801  0.0927
12655TIP3   OH259379   5.476   2.308   2.993 -0.3960  0.6673 -0.5525
12655TIP3    H159380   5.554   2.254   2.981 -0.7923 -0.5334  1.7723
12655TIP3    H259381   5.473   2.325   3.087 -2.1095  1.9958 -0.8004
12656TIP3   OH259382   3.889   2.648   5.029 -0.3876  0.1832 -0.1844
12656TIP3    H159383   3.952   2.592   5.074 -1.4522 -0.5762  0.4142
12656TIP3    H259384   3.876   2.606   4.944 -1.3924 -0.6636  0.3688
12657TIP3   OH259385   0.659   2.587  14.745  0.3238 -0.2234  0.0152
12657TIP3    H159386   0.669   2.506  14.795  2.0453 -0.3133 -0.4287
12657TIP3    H259387   0.715   2.576  14.668  0.3793  1.2656 -0.1977
12658TIP3   OH259388   1.885   5.338  12.621  0.2514  0.3350  0.1580
12658TIP3    H159389   1.946   5.267  12.638  1.4041  1.3520  0.4492
12658TIP3    H259390   1.823   5.302  12.558  1.7103 -0.4531 -0.8893
12659TIP3   OH259391   4.548   0.094  11.408 -0.3523  0.3886  0.5066
12659TIP3    H159392   4.592   0.012  11.431  0.5292 -0.3558 -3.2671
12659TIP3    H259393   4.508   0.077  11.323 -1.3044  3.5150  0.2156
12660TIP3   OH259394   2.166   6.611   3.540  0.0757  0.1620  0.6784
12660TIP3    H159395   2.111   6.673   3.492  0.9484  1.5130  1.3693
12660TIP3    H259396   2.256   6.636   3.519  0.4804 -1.8249 -0.1858
12661TIP3   OH259397   1.498   3.651  12.529 -0.4473  0.0453  0.3230
12661TIP3    H159398   1.506   3.679  12.620  0.2034  2.5555 -0.4261
12661TIP3    H259399   1.576   3.597  12.514 -1.2447 -1.5479  1.5663
12662TIP3   OH259400   4.389   3.436  10.771 -0.1464 -0.3347  0.0313
12662TIP3    H159401   4.449   3.413  10.841  0.0126  2.9288  1.1253
12662TIP3    H259402   4.434   3.408  10.691  0.8043 -1.8593  1.0387
12663TIP3   OH259403   0.330   4.731  14.136  0.4078  0.1813  0.0368
12663TIP3    H159404   0.413   4.698  14.101  0.4641  0.8206 -0.4624
12663TIP3    H259405   0.336   4.715  14.230  1.1888  0.4038  0.0366
12664TIP3   OH259406   2.133   4.888  10.486  0.0592  0.0108  0.3968
12664TIP3    H159407   2.049   4.929  10.505  0.5220  1.0056  0.3518
12664TIP3    H259408   2.112   4.796  10.466 -0.9309  0.0929  1.0412
12665TIP3   OH259409   3.276   0.963   2.656  0.3383  0.4562  0.4245
12665TIP3    H159410   3.293   0.907   2.581 -0.8995 -1.9984  1.8185
12665TIP3    H259411   3.288   1.052   2.624 -1.7219 -0.3627 -3.1171
12666TIP3   OH259412   2.667   2.464   5.613 -0.1101  0.0121 -0.2100
12666TIP3    H159413   2.626   2.535   5.662  0.5593  0.8259 -0.8102
12666TIP3    H259414   2.757   2.460   5.646  0.6426  1.2066 -1.9955
12667TIP3   OH259415   0.410   3.542  13.679 -0.2833 -0.2966 -0.1999
12667TIP3    H159416   0.371   3.537  13.592  1.8455 -1.6800 -1.1718
12667TIP3    H259417   0.435   3.633  13.690 -0.0910 -0.2111 -1.2781
12668TIP3   OH259418   2.030   0.071  11.362 -0.0700 -0.2404  0.1116
12668TIP3    H159419   2.065   0.002  11.419  0.8575  0.4381  0.3678
12668TIP3    H259420   1.946   0.036  11.332  0.6420 -1.7337 -0.2284
12669TIP3   OH259421   2.648   5.194  16.613  0.4200  0.0757  0.1586
12669TIP3    H159422   2.742   5.180  16.607  0.3053 -0.4836 -0.3457
12669TIP3    H259423   2.634   5.282  16.579  0.7418  0.1032  0.0993
12670TIP3   OH259424   4.255   3.422  16.871 -0.3031  0.6148  0.6969
12670TIP3    H159425   4.279   3.374  16.792 -1.1256  0.4848  0.5229
12670TIP3    H259426   4.166   3.394  16.891 -0.9242  2.2828  0.4262
12671TIP3   OH259427   2.530   1.421  16.128  0.5269  0.0423 -0.3409
12671TIP3    H159428   2.435   1.433  16.126  0.0389 -2.9608  0.2087
12671TIP3    H259429   2.562   1.495  16.181 -2.1684 -1.6103  4.2117
12672TIP3   OH259430   4.983   1.859   2.781  0.1033  0.0447 -0.3697
12672TIP3    H159431   5.060   1.811   2.751 -0.5069 -1.7985  0.8281
12672TIP3    H259432   4.910   1.820   2.733 -0.4617 -0.6048  0.9777
12673TIP3   OH259433   0.972   3.070  17.170  0.3294 -0.1918 -0.0968
12673TIP3    H159434   0.947   3.044  17.081 -0.1714  0.2981 -0.1062
12673TIP3    H259435   1.036   3.004  17.197  0.6405 -0.2358 -0.8979
12674TIP3   OH259436   6.744   2.583  12.822  0.6118  0.0898 -0.6751
12674TIP3    H159437   6.652   2.579  12.849  0.8249  0.2519  0.0820
12674TIP3    H259438   6.764   2.677  12.819  1.1797  0.0302  0.6526
12675TIP3   OH259439   4.942   6.162  12.002  0.2253  0.2346  0.0898
12675TIP3    H159440   5.008   6.219  12.041 -0.1048  0.0114  0.9828
12675TIP3    H259441   4.865   6.218  11.993  0.1516  0.1511  0.2047
12676TIP3   OH259442   1.422   5.975  12.307  0.3953 -0.2577  0.0958
12676TIP3    H159443   1.415   5.932  12.222 -1.6935 -1.5826  0.8573
12676TIP3    H259444   1.453   5.906  12.366 -0.2106  0.0467  0.7900
12677TIP3   OH259445   1.749   3.475   3.983  0.0670  0.1503 -0.1654
12677TIP3    H159446   1.772   3.554   4.033  1.0159 -0.5566  0.5458
12677TIP3    H259447   1.677   3.436   4.034  0.7921 -0.3770  0.4785
12678TIP3   OH259448   2.996   0.102   0.792 -0.3453  0.4961  0.2895
12678TIP3    H159449   3.087   0.076   0.804 -1.1810 -3.3107 -0.3776
12678TIP3    H259450   2.983   0.103   0.697 -1.4093 -0.8557  0.3929
12679TIP3   OH259451   2.799   2.638  13.887 -0.5004 -0.1417 -1.1245
12679TIP3    H159452   2.766   2.660  13.974 -1.2284  0.7227 -1.5946
12679TIP3    H259453   2.791   2.543  13.882  0.0425 -0.2627 -0.0659
12680TIP3   OH259454   6.482   2.320   4.888 -0.2116 -0.7290 -0.0835
12680TIP3    H159455   6.508   2.399   4.842 -2.1786  0.0836  0.1180
12680TIP3    H259456   6.410   2.347   4.944 -0.6166 -2.5671  0.3576
12681TIP3   OH259457   5.170   0.272  11.492  0.1928 -0.5997  0.4323
12681TIP3    H159458   5.199   0.304  11.407 -1.5834  0.0174 -0.0041
12681TIP3    H259459   5.188   0.344  11.552 -0.6200 -0.1158  0.1171
12682TIP3   OH259460   2.803   5.320   2.986 -0.1711  0.1698  0.3441
12682TIP3    H159461   2.736   5.286   2.928  0.6102  0.1311 -0.5568
12682TIP3    H259462   2.840   5.395   2.940  0.4108  0.1866  0.8159
12683TIP3   OH259463   6.375   2.154   4.414 -0.4212 -0.1113 -0.0772
12683TIP3    H159464   6.293   2.106   4.430 -1.4746  1.5959 -0.1112
12683TIP3    H259465   6.415   2.163   4.500 -0.6957 -0.2064  0.0628
12684TIP3   OH259466   0.072   0.473  16.263 -0.1848 -0.5510 -0.3240
12684TIP3    H159467   0.057   0.392  16.311  0.4779  0.0381  0.9194
12684TIP3    H259468   0.015   0.467  16.186 -0.3541 -2.0518 -0.0925
12685TIP3   OH259469   0.716   6.160  13.940 -0.0482 -0.3262 -0.4067
12685TIP3    H159470   0.779   6.221  13.903 -0.7452  0.9010  0.3203
12685TIP3    H259471   0.735   6.161  14.034 -0.7559 -0.3990 -0.2574
12686TIP3   OH259472   2.840   2.012   3.841  0.7102 -0.3197 -0.0612
12686TIP3    H159473   2.797   1.946   3.896  0.1178  0.5165  0.5119
12686TIP3    H259474   2.821   1.984   3.752 -4.2347  1.8027 -0.0100
12687TIP3   OH259475   0.869   6.387  16.847 -0.9161 -0.5816  0.0128
12687TIP3    H159476   0.894   6.479  16.832  0.8970 -0.8173  1.2282
12687TIP3    H259477   0.865   6.379  16.942  0.8194 -2.1792  0.0116
12688TIP3   OH259478   6.042   6.480  13.368  0.1742  0.0213 -0.1666
12688TIP3    H159479   6.016   6.567  13.397 -0.8663 -0.0606 -0.7959
12688TIP3    H259480   6.029   6.424  13.444 -0.1199  0.2374 -0.0585
12689TIP3   OH259481   1.133   3.151  12.409 -0.7777 -0.4422 -0.2929
12689TIP3    H159482   1.196   3.085  12.382 -0.9118 -0.1721 -1.3446
12689TIP3    H259483   1.069   3.153  12.337 -2.8726 -1.8031  1.4115
12690TIP3   OH259484   2.473   2.293   4.567  0.0177  0.0650  0.9458
12690TIP3    H159485   2.547   2.313   4.510 -0.3633 -1.1738 -0.0270
12690TIP3    H259486   2.513   2.263   4.649  0.5836  0.4606  0.8171
12691TIP3   OH259487   0.473   3.656   4.707 -0.0942 -0.4774  0.2300
12691TIP3    H159488   0.429   3.603   4.640 -2.1648 -0.1038  1.2014
12691TIP3    H259489   0.474   3.745   4.671 -0.4702 -0.4260  0.3389
12692TIP3   OH259490   6.013   3.641   5.281 -0.1553 -0.0945 -0.1279
12692TIP3    H159491   6.044   3.557   5.313  0.4197 -0.0130 -0.4669
12692TIP3    H259492   5.919   3.628   5.265 -0.0434 -0.7023 -0.2984
12693TIP3   OH259493   2.685   0.549  12.852 -0.2731  0.2691 -0.3812
12693TIP3    H159494   2.727   0.587  12.775  1.0539  1.2696  0.7972
12693TIP3    H259495   2.658   0.461  12.823  1.6663 -0.0131 -1.5187
12694TIP3   OH259496   0.994   3.965  17.058 -0.3296  0.4465  1.3237
12694TIP3    H159497   1.018   3.878  17.090 -1.5099 -0.3420  0.1666
12694TIP3    H259498   1.076   4.004  17.028  0.8150  1.1345  4.8956
12695TIP3   OH259499   6.181   3.915  11.759  0.1730 -0.1242 -0.3185
12695TIP3    H159500   6.090   3.887  11.759  1.0768 -3.4747 -0.7086
12695TIP3    H259501   6.190   3.968  11.838 -1.9989 -0.0901 -0.0454
12696TIP3   OH259502   0.241   3.799  15.120  0.4969 -0.6743  0.1611
12696TIP3    H159503   0.234   3.764  15.209  2.8757  1.3455  1.2487
12696TIP3    H259504   0.296   3.735  15.074 -2.2337 -2.7108 -0.5664
12697TIP3   OH259505   6.378   5.710  16.769 -0.0538 -0.4297  0.1125
12697TIP3    H159506   6.455   5.759  16.798  0.4502 -0.6235 -0.8429
12697TIP3    H259507   6.401   5.679  16.682 -1.2608 -0.4197 -0.2257
12698TIP3   OH259508   6.140   0.249   2.275  0.4206  0.5882 -0.3900
12698TIP3    H159509   6.220   0.199   2.288  0.3851  0.5909 -0.1703
12698TIP3    H259510   6.166   0.320   2.216  0.1265 -0.5700 -1.9833
12699TIP3   OH259511   4.288   3.677   2.370  0.1338 -0.2413  0.3173
12699TIP3    H159512   4.356   3.684   2.302 -2.4648 -1.8527 -2.7416
12699TIP3    H259513   4.330   3.626   2.439  3.1502  2.0419  0.4044
12700TIP3   OH259514   2.341   0.023  10.830 -0.1210  0.5800 -0.0049
12700TIP3    H159515   2.335   0.036  10.735  0.5558  2.4918  0.1653
12700TIP3    H259516   2.328   0.110  10.867 -1.0508 -0.2337  1.7267
12701TIP3   OH259517   0.590   5.822  11.287 -0.7905 -0.2484  0.0294
12701TIP3    H159518   0.509   5.776  11.269 -1.0332  0.4008 -0.5693
12701TIP3    H259519   0.617   5.859  11.203  0.7577 -1.4408 -0.0489
12702TIP3   OH259520   5.595   5.675  13.313  0.3701 -0.2026 -0.2057
12702TIP3    H159521   5.650   5.617  13.366  0.9288 -0.4684 -1.0620
12702TIP3    H259522   5.629   5.667  13.224 -2.3750 -2.0506 -1.2369
12703TIP3   OH259523   5.803   1.060  13.411  0.1812  0.4361 -0.1551
12703TIP3    H159524   5.787   0.973  13.448  0.0960  0.8927  0.9371
12703TIP3    H259525   5.826   1.044  13.320  1.7593 -0.8648  0.4266
12704TIP3   OH259526   0.961   5.156  14.867 -0.2472 -0.3528  0.2790
12704TIP3    H159527   0.950   5.097  14.793  0.6212  1.3595 -1.3026
12704TIP3    H259528   0.904   5.231  14.847 -0.3561 -0.0581  1.5835
12705TIP3   OH259529   1.128   3.676   5.798 -0.0864 -0.5979  0.2074
12705TIP3    H159530   1.187   3.727   5.853 -0.1346  1.6026 -1.6271
12705TIP3    H259531   1.155   3.585   5.811  0.8458 -0.0471  2.6587
12706TIP3   OH259532   0.550   4.937   3.936  0.5939  0.6848  0.3446
12706TIP3    H159533   0.567   5.016   3.884  3.2385 -0.5330 -0.8092
12706TIP3    H259534   0.571   4.962   4.026 -1.9260  2.1835  0.6277
12707TIP3   OH259535   1.088   2.353   4.439  0.1649  0.2237  0.1131
12707TIP3    H159536   1.040   2.380   4.360  0.5387  0.4205 -0.0494
12707TIP3    H259537   1.037   2.279   4.473  1.3622 -1.5754 -1.7388
12708TIP3   OH259538   6.304   1.812   1.938  0.0792  0.0474  0.6485
12708TIP3    H159539   6.373   1.804   1.872 -1.1397  0.1007 -0.6783
12708TIP3    H259540   6.238   1.749   1.910 -0.8467  0.6990  1.3265
12709TIP3   OH259541   0.992   1.476   1.516  0.3137  0.0946 -0.8085
12709TIP3    H159542   1.030   1.513   1.596 -0.5101  2.0464 -1.2754
12709TIP3    H259543   1.066   1.434   1.472  0.7482 -1.2782  1.0514
12710TIP3   OH259544   5.984   1.308  15.705 -0.1355 -0.8071  0.2429
12710TIP3    H159545   5.946   1.227  15.672 -0.4771 -1.8935  2.9906
12710TIP3    H259546   6.078   1.292  15.710 -0.0248 -0.4608 -0.6089
12711TIP3   OH259547   4.018   1.232  17.010 -0.0184  0.2175 -0.4568
12711TIP3    H159548   4.063   1.167  16.957  1.2961  1.6427 -1.1802
12711TIP3    H259549   3.982   1.183  17.083  1.4932 -1.2151 -0.6142
12712TIP3   OH259550   5.993   4.977   6.266 -0.0071  0.1915 -0.5356
12712TIP3    H159551   5.935   5.020   6.329  0.2361 -0.8254  0.4199
12712TIP3    H259552   6.013   4.892   6.306  1.7455  0.3113 -1.0747
12713TIP3   OH259553   5.689   3.797  11.699  0.2100 -0.1036 -0.2891
12713TIP3    H159554   5.781   3.816  11.682 -0.1326  0.3260 -1.8624
12713TIP3    H259555   5.667   3.730  11.634 -0.7840  0.3892 -0.4712
12714TIP3   OH259556   3.365   1.381   5.483 -0.2764 -0.2676 -0.0872
12714TIP3    H159557   3.424   1.414   5.415  0.1262 -0.6978  0.0486
12714TIP3    H259558   3.292   1.342   5.435 -0.3037  0.0003 -0.2618
12715TIP3   OH259559   3.645   3.531  15.904 -0.2353  0.0189  0.2515
12715TIP3    H159560   3.614   3.593  15.838 -0.8656 -1.2221 -0.6687
12715TIP3    H259561   3.586   3.545  15.979 -3.0020 -2.0632 -1.3436
12716TIP3   OH259562   6.799   3.689   4.098 -0.7289  0.0832  0.1342
12716TIP3    H159563   6.790   3.614   4.158  1.4613 -0.7589 -0.4789
12716TIP3    H259564   6.722   3.743   4.115 -1.2161 -1.1597  2.2348
12717TIP3   OH259565   1.441   3.546  11.111  0.1991  0.2095 -0.5764
12717TIP3    H159566   1.484   3.546  11.026  1.6898 -1.3511  0.1196
12717TIP3    H259567   1.512   3.538  11.175 -0.8977  1.0180  0.8136
12718TIP3   OH259568   4.932   1.102   0.097  0.3283 -0.1918 -0.2537
12718TIP3    H159569   4.886   1.184   0.110  1.2619  0.2491  0.3156
12718TIP3    H259570   4.957   1.073   0.185  0.5223 -0.7893 -0.4963
12719TIP3   OH259571   5.057   4.096   4.972 -0.0689  0.5774  0.9925
12719TIP3    H159572   4.983   4.152   4.949  1.2961  2.1003  0.0395
12719TIP3    H259573   5.106   4.085   4.890  1.4961  0.8099  1.8489
12720TIP3   OH259574   0.873   4.697   3.061 -0.4310  0.4941  0.1128
12720TIP3    H159575   0.857   4.772   3.119 -1.4869 -0.5639  1.2334
12720TIP3    H259576   0.803   4.702   2.997  0.1766  1.1103 -0.5208
12721TIP3   OH259577   5.756   0.037   4.604  0.2411 -0.1900 -0.2179
12721TIP3    H159578   5.787   0.112   4.655 -2.7870  0.7665  0.3961
12721TIP3    H259579   5.766  -0.037   4.664 -0.7633  0.4848  0.8368
12722TIP3   OH259580   1.759   6.497  16.457 -0.0012 -0.1545  0.4056
12722TIP3    H159581   1.807   6.534  16.531  1.4237  0.7146 -0.9048
12722TIP3    H259582   1.796   6.409  16.446  0.2410 -0.0443  0.3311
12723TIP3   OH259583   6.152   2.593  15.761 -0.3366 -0.3837  0.3857
12723TIP3    H159584   6.144   2.611  15.667  0.2172 -3.2733 -0.3015
12723TIP3    H259585   6.099   2.661  15.803 -0.5174  1.0532 -1.9804
12724TIP3   OH259586   4.766   5.298   1.423  0.4740  0.4244  0.2216
12724TIP3    H159587   4.726   5.256   1.347 -0.6234  1.9019 -0.0605
12724TIP3    H259588   4.810   5.226   1.469 -0.3036 -0.8051 -0.8667
12725TIP3   OH259589   4.954   3.959   1.269  0.9843  0.2529 -0.0353
12725TIP3    H159590   4.922   4.040   1.310  1.8111  0.0768  0.9913
12725TIP3    H259591   5.049   3.962   1.281  1.2544  0.1322 -1.8630
12726TIP3   OH259592   5.995   0.582   1.666  0.2750  0.2364 -0.1089
12726TIP3    H159593   5.934   0.581   1.593  0.0038 -1.2017  0.1158
12726TIP3    H259594   5.942   0.562   1.743  0.7023  0.9164  0.3811
12727TIP3   OH259595   3.378   5.739   0.149 -0.3426  0.5062 -0.1538
12727TIP3    H159596   3.325   5.681   0.094 -0.6974  2.3262 -1.8779
12727TIP3    H259597   3.464   5.698   0.151 -0.9348 -0.7917 -0.1019
12728TIP3   OH259598   1.930   3.036  13.311  0.3771 -0.5253 -0.5875
12728TIP3    H159599   2.016   3.053  13.350 -0.0336 -1.0247  0.5612
12728TIP3    H259600   1.950   2.999  13.225  1.4013 -2.9378  0.5767
12729TIP3   OH259601   0.702   2.500  16.003  0.5152  0.6691 -0.5331
12729TIP3    H159602   0.682   2.438  16.073  0.7605  0.2062 -0.8686
12729TIP3    H259603   0.784   2.542  16.031  1.1105 -0.1691 -0.9600
12730TIP3   OH259604   5.149   3.882  11.156  0.4739  0.6786  0.1182
12730TIP3    H159605   5.213   3.930  11.208 -0.0492  0.7501  0.7003
12730TIP3    H259606   5.096   3.950  11.115  0.4191  0.6112  0.0762
12731TIP3   OH259607   0.756   1.584   3.008  0.1172  0.0585  0.9393
12731TIP3    H159608   0.840   1.564   2.965 -0.1980  0.9269 -0.1067
12731TIP3    H259609   0.692   1.586   2.937 -0.6594  0.2172  1.6279
12732TIP3   OH259610   5.426   1.281  15.608 -1.0472  0.4236 -0.0671
12732TIP3    H159611   5.394   1.249  15.692 -1.2097  0.9373  0.0706
12732TIP3    H259612   5.432   1.376  15.619 -1.1609  0.5042 -0.6659
12733TIP3   OH259613   2.877   5.951  10.876 -0.1733 -0.1264  0.1561
12733TIP3    H159614   2.839   5.986  10.956  0.0690 -0.7566  0.5494
12733TIP3    H259615   2.808   5.898  10.837 -0.8640  1.4805 -0.9191
12734TIP3   OH259616   4.927   5.291  14.862 -0.6784 -0.0737 -0.2835
12734TIP3    H159617   4.919   5.330  14.949 -2.6202  0.8695 -0.8436
12734TIP3    H259618   4.851   5.233  14.855 -0.1785 -0.6494 -1.1125
12735TIP3   OH259619   5.247   0.070   1.649  0.0279  0.1405  0.1593
12735TIP3    H159620   5.341   0.088   1.650  0.0194  0.3578  2.3138
12735TIP3    H259621   5.241  -0.025   1.656  0.1577  0.2343  2.3197
12736TIP3   OH259622   1.425   1.399  16.218  0.4720 -0.5188 -0.0180
12736TIP3    H159623   1.519   1.404  16.233  0.8195 -2.2191 -1.3387
12736TIP3    H259624   1.404   1.306  16.225 -1.1334 -0.1621  0.2901
12737TIP3   OH259625   4.302   6.528  15.486  0.0121  0.5139 -0.0646
12737TIP3    H159626   4.339   6.556  15.570 -1.8632 -1.2830  1.4915
12737TIP3    H259627   4.284   6.434  15.499 -0.8152  0.3119 -2.3003
12738TIP3   OH259628   2.298   6.741  13.384  0.0520  0.5470  0.3192
12738TIP3    H159629   2.240   6.806  13.423  0.2522  0.7777  0.2371
12738TIP3    H259630   2.376   6.791  13.360 -0.9939  0.9241 -2.6560
12739TIP3   OH259631   0.686   4.255   0.372  0.3205  0.1385 -0.1941
12739TIP3    H159632   0.719   4.280   0.458 -1.3994  0.2539  0.4739
12739TIP3    H259633   0.651   4.337   0.336 -2.7394 -0.6139  0.7996
12740TIP3   OH259634   5.868   3.560   1.771 -0.1815  0.0714 -0.0288
12740TIP3    H159635   5.831   3.649   1.775  0.5794  0.4363 -0.7994
12740TIP3    H259636   5.912   3.549   1.855 -0.6306  0.2613  0.2382
12741TIP3   OH259637   1.002   4.610   4.198 -0.5309 -0.0257 -0.4664
12741TIP3    H159638   1.080   4.563   4.167 -0.2425  0.0274  0.1570
12741TIP3    H259639   0.947   4.542   4.236 -1.9300 -0.4597 -3.0273
12742TIP3   OH259640   1.794   0.862  13.854 -0.0340  0.3301 -0.7748
12742TIP3    H159641   1.837   0.817  13.927  0.0242 -0.5689 -1.3514
12742TIP3    H259642   1.703   0.871  13.882  0.0099  0.0862 -0.5492
12743TIP3   OH259643   0.979   3.306  12.591  0.5012  0.3917 -0.1938
12743TIP3    H159644   1.042   3.263  12.534  2.8994  0.2980  2.2924
12743TIP3    H259645   0.931   3.235  12.633 -1.0651  0.4539 -1.7928
12744TIP3   OH259646   2.483   4.377   5.470 -0.1993  0.1820  0.0316
12744TIP3    H159647   2.571   4.409   5.493  0.4040 -3.3661  3.9464
12744TIP3    H259648   2.500   4.305   5.409 -0.7321  1.2879 -1.4695
12745TIP3   OH259649   6.375   2.188  16.195  0.6693  0.0952  0.0215
12745TIP3    H159650   6.312   2.237  16.249  0.1867  1.4163 -1.6509
12745TIP3    H259651   6.385   2.241  16.116  3.0909 -0.6226 -0.2416
12746TIP3   OH259652   6.486   5.835   1.464  0.1946  0.2456 -0.1262
12746TIP3    H159653   6.548   5.861   1.396  0.9768  1.2195  0.9149
12746TIP3    H259654   6.401   5.834   1.420  0.9018 -1.0045 -1.5593
12747TIP3   OH259655   0.777   1.624   1.433  0.0961  0.2427  0.2939
12747TIP3    H159656   0.862   1.582   1.449 -0.8296 -1.4102  1.1697
12747TIP3    H259657   0.723   1.554   1.397 -0.5629  1.6029 -1.4892
12748TIP3   OH259658   4.164   5.964   4.696  0.2031  0.5357 -0.2066
12748TIP3    H159659   4.124   5.879   4.714 -1.9811  1.2831 -1.1809
12748TIP3    H259660   4.245   5.964   4.748  1.2364 -2.8025 -1.5605
12749TIP3   OH259661   5.131   0.647  14.962  0.2380 -0.7773  0.2673
12749TIP3    H159662   5.088   0.604  14.888 -1.9655  4.1350 -1.7638
12749TIP3    H259663   5.223   0.655  14.936  0.1000 -1.7175 -0.5452
12750TIP3   OH259664   2.221   0.936  12.905  1.0843  0.5107 -0.1839
12750TIP3    H159665   2.151   0.881  12.871  0.2731  2.0417 -1.0298
12750TIP3    H259666   2.246   0.893  12.987  0.2738 -0.9430 -0.6587
12751TIP3   OH259667   0.547   6.155  17.047  0.1614 -0.6122 -0.0306
12751TIP3    H159668   0.570   6.242  17.081 -1.0451  0.3929 -1.6207
12751TIP3    H259669   0.630   6.116  17.022  0.9562 -0.8354  2.6257
12752TIP3   OH259670   0.764   5.552   2.078 -0.2304  0.1143 -0.2299
12752TIP3    H159671   0.741   5.499   2.002  0.7459  1.4318 -1.4954
12752TIP3    H259672   0.860   5.559   2.074 -0.0744 -0.5172  1.6322
12753TIP3   OH259673   6.023   6.409  15.196 -0.4823  0.0923  0.0786
12753TIP3    H159674   5.975   6.329  15.222 -0.1428 -0.7430 -1.7177
12753TIP3    H259675   6.093   6.417  15.261  0.3186 -1.8915 -0.4660
12754TIP3   OH259676   4.187   2.402   3.916 -0.1111  0.1179 -0.8358
12754TIP3    H159677   4.239   2.458   3.973 -1.0714  0.7096 -0.5229
12754TIP3    H259678   4.198   2.314   3.952  1.3256  0.0864 -1.2743
12755TIP3   OH259679   6.155   1.231   3.635 -0.2450 -0.1183  0.0938
12755TIP3    H159680   6.232   1.197   3.590  0.1460  0.0177  0.6436
12755TIP3    H259681   6.115   1.154   3.676 -0.4085 -0.1908 -0.2035
12756TIP3   OH259682   2.714   5.049   4.177 -0.4703 -0.0987 -0.3107
12756TIP3    H159683   2.733   5.046   4.271  0.8845  0.1579 -0.5525
12756TIP3    H259684   2.711   5.142   4.156  0.6666 -0.1475 -0.7668
12757TIP3   OH259685   0.385   1.092   0.881  0.2228  0.5423 -0.0631
12757TIP3    H159686   0.440   1.129   0.950  1.3063  1.1881 -1.2437
12757TIP3    H259687   0.411   1.000   0.876  5.0556  1.6961 -3.9203
12758TIP3   OH259688   0.692   0.188  15.358  0.1502  0.4057  0.0734
12758TIP3    H159689   0.765   0.126  15.369 -0.4937 -0.0820  2.0583
12758TIP3    H259690   0.614   0.133  15.363 -0.4218  0.7985 -2.9553
12759TIP3   OH259691   2.676   4.136  15.183  0.1536  0.3558  0.0260
12759TIP3    H159692   2.721   4.202  15.130 -0.7220  0.6506 -0.3587
12759TIP3    H259693   2.584   4.148  15.163  0.0173 -1.5052 -0.6568
12760TIP3   OH259694   1.003   2.916  11.664  0.3538  0.5291  0.3419
12760TIP3    H159695   1.061   2.845  11.692  1.8085  1.5762  0.1213
12760TIP3    H259696   1.049   2.996  11.691  0.6239  1.5212 -2.6674
12761TIP3   OH259697   6.032   1.543  14.548  0.2126 -0.1088  0.7075
12761TIP3    H159698   6.064   1.593  14.473 -1.2125 -0.7191 -0.3483
12761TIP3    H259699   6.003   1.610  14.611 -1.8079  0.4940 -0.7457
12762TIP3   OH259700   1.259   3.298  16.835  0.6437 -0.8049  0.1214
12762TIP3    H159701   1.245   3.215  16.788 -0.2796 -0.9639  0.6669
12762TIP3    H259702   1.231   3.280  16.924 -1.0412  0.5200 -0.1013
12763TIP3   OH259703   1.404   6.417   6.420  0.4773  0.1454  0.4598
12763TIP3    H159704   1.344   6.490   6.436 -1.4624 -0.6488 -2.4223
12763TIP3    H259705   1.468   6.452   6.358 -0.1624 -0.3918 -0.5359
12764TIP3   OH259706   5.934   1.435  16.586 -0.1964 -0.6134  0.6077
12764TIP3    H159707   5.989   1.436  16.508 -1.1383 -1.0778 -0.0840
12764TIP3    H259708   5.986   1.478  16.654 -0.0450  1.4459 -0.7323
12765TIP3   OH259709   1.621   4.536   0.978 -0.0757  0.2863 -0.0355
12765TIP3    H159710   1.562   4.474   0.935 -0.1792  0.0984  0.3759
12765TIP3    H259711   1.668   4.578   0.906 -0.1941 -0.0820 -0.3288
12766TIP3   OH259712   1.238   2.344   0.613 -0.3412  0.3907 -0.8697
12766TIP3    H159713   1.305   2.278   0.595 -1.0605 -0.3934 -0.7500
12766TIP3    H259714   1.158   2.306   0.579 -0.6412  1.5641 -1.5226
12767TIP3   OH259715   6.725   0.532   0.504 -0.5221  0.1692 -0.7460
12767TIP3    H159716   6.683   0.468   0.446 -2.4973  3.1925 -2.9537
12767TIP3    H259717   6.685   0.519   0.589 -0.7832 -1.5569 -1.1069
12768TIP3   OH259718   1.410   3.508   0.181 -0.0924  0.2892  0.2761
12768TIP3    H159719   1.356   3.579   0.217  1.6533  0.9558  1.7685
12768TIP3    H259720   1.351   3.432   0.178 -1.8894  1.6752 -0.9827
12769TIP3   OH259721   5.088   1.422   3.260 -0.2551 -0.0993  0.7756
12769TIP3    H159722   5.074   1.477   3.182  0.0575 -1.0014  0.0652
12769TIP3    H259723   5.145   1.475   3.316  1.5138 -0.3412 -0.6715
12770TIP3   OH259724   0.183   0.371  12.756  0.1520 -0.2924 -0.1478
12770TIP3    H159725   0.264   0.346  12.711  0.5159  0.9059 -0.1896
12770TIP3    H259726   0.125   0.402  12.685 -0.1441 -0.6224 -0.0537
12771TIP3   OH259727   5.448   4.829   1.069 -0.9602  0.3099  0.1696
12771TIP3    H159728   5.375   4.891   1.067 -2.1861 -1.0832 -1.6127
12771TIP3    H259729   5.522   4.878   1.033 -1.8590  0.8430 -1.0241
12772TIP3   OH259730   1.229   5.374   0.086 -0.3270  0.6880 -0.1386
12772TIP3    H159731   1.292   5.442   0.110  1.4030 -1.2340  0.9904
12772TIP3    H259732   1.166   5.373   0.159 -0.4879  1.2014 -0.2657
12773TIP3   OH259733   3.281   3.993  11.753  0.3568  0.3628 -0.0754
12773TIP3    H159734   3.239   4.079  11.756 -0.0749  0.3395 -2.6698
12773TIP3    H259735   3.299   3.971  11.844 -1.2844  2.3351  0.7994
12774TIP3   OH259736   0.602   1.222  15.862  0.1777  0.9272  0.0826
12774TIP3    H159737   0.678   1.276  15.839  0.9738 -0.4167 -0.6194
12774TIP3    H259738   0.542   1.282  15.906  1.3441  2.1923  0.0299
12775TIP3   OH259739   5.513   6.702   1.797 -0.0683  0.2359 -0.5735
12775TIP3    H159740   5.533   6.795   1.785  0.0539  0.8742  3.3023
12775TIP3    H259741   5.598   6.663   1.821 -0.7779  0.1571  2.2111
12776TIP3   OH259742   5.620   5.373   3.451 -0.4944 -0.2955 -0.1555
12776TIP3    H159743   5.652   5.376   3.361  1.8966  0.4567  0.6490
12776TIP3    H259744   5.602   5.280   3.466  0.0117 -0.5676 -1.1224
12777TIP3   OH259745   5.756   2.642   3.473  0.0935  0.3337 -0.0029
12777TIP3    H159746   5.688   2.618   3.410  0.0159 -0.8101  0.4952
12777TIP3    H259747   5.717   2.710   3.527 -0.3725  0.2479 -0.2324
12778TIP3   OH259748   3.298   2.701  13.944 -0.1021 -0.0317 -0.1343
12778TIP3    H159749   3.383   2.657  13.945  0.5336  0.7901 -3.5834
12778TIP3    H259750   3.299   2.759  14.020  3.7920  2.1775 -1.6171
12779TIP3   OH259751   1.919   3.903  12.372  0.4973  0.1931  0.6216
12779TIP3    H159752   1.826   3.880  12.371  0.5655 -0.1047  0.8834
12779TIP3    H259753   1.962   3.823  12.403  0.8230  0.3819  0.6498
12780TIP3   OH259754   4.390   2.914  12.753 -0.1654 -0.1900 -0.6291
12780TIP3    H159755   4.321   2.876  12.699  0.9140 -0.7857 -1.6033
12780TIP3    H259756   4.445   2.840  12.778  0.7434  0.4335 -0.7652
12781TIP3   OH259757   5.051   6.490  11.466  0.1465  0.4407 -0.0150
12781TIP3    H159758   5.083   6.401  11.452 -0.0961  0.5497 -1.4436
12781TIP3    H259759   4.964   6.491  11.427  0.2697  1.3784 -0.3027
12782TIP3   OH259760   6.627   5.343   2.195  0.4735  0.5031  0.7302
12782TIP3    H159761   6.664   5.419   2.151 -0.8361  1.0026  0.4381
12782TIP3    H259762   6.550   5.377   2.241 -1.3072 -0.9238 -0.9853
12783TIP3   OH259763   0.396   2.107   0.277  0.9638  0.1286  0.0950
12783TIP3    H159764   0.461   2.059   0.226  1.3878  0.0598  0.6930
12783TIP3    H259765   0.323   2.046   0.288  0.6653  0.3070 -0.8327
12784TIP3   OH259766   0.985   6.274  15.619  0.1856  0.5416  0.2561
12784TIP3    H159767   0.967   6.274  15.713  1.1920 -1.3210  0.5198
12784TIP3    H259768   0.990   6.181  15.597  0.2529  0.9573 -1.5893
12785TIP3   OH259769   1.192   2.470   3.580 -0.1589 -0.2862  0.2435
12785TIP3    H159770   1.256   2.501   3.644  1.1945  1.7487 -1.9339
12785TIP3    H259771   1.244   2.423   3.515 -1.0149  0.5260 -1.0651
12786TIP3   OH259772   1.092   2.924   3.529  0.2402 -0.0086 -0.2874
12786TIP3    H159773   1.104   2.855   3.594  0.5295  0.5693  0.2875
12786TIP3    H259774   1.021   2.893   3.474  0.3320 -0.7429 -0.0044
12787TIP3   OH259775   6.361   0.025   0.060 -0.0874 -0.0866  0.1593
12787TIP3    H159776   6.277   0.011   0.015 -0.8551  1.8810  0.8552
12787TIP3    H259777   6.395  -0.063   0.076 -2.4457 -0.9923  0.6098
12788TIP3   OH259778   5.219   3.703   0.046  0.1690 -0.1949 -0.4998
12788TIP3    H159779   5.212   3.611   0.071 -0.1436  0.1072  0.5478
12788TIP3    H259780   5.256   3.746   0.123 -2.1681  1.0104  0.0393
12789TIP3   OH259781   3.785   6.638  11.762 -0.0989 -0.2704  0.3462
12789TIP3    H159782   3.795   6.563  11.703  0.1898  1.6238 -2.1858
12789TIP3    H259783   3.826   6.711  11.714 -0.2991  1.5033  2.7206
12790TIP3   OH259784   2.504   3.718   3.289 -0.2801 -0.0407  0.1269
12790TIP3    H159785   2.551   3.691   3.210  0.0788 -4.2246  1.5105
12790TIP3    H259786   2.556   3.789   3.325  0.1881  1.1854 -2.7227
12791TIP3   OH259787   0.773   3.201   2.697  0.4033 -0.0604 -0.0341
12791TIP3    H159788   0.707   3.269   2.714  1.6453  0.8041  1.5746
12791TIP3    H259789   0.793   3.165   2.783  2.6054  0.2496 -0.3715
12792TIP3   OH259790   3.791   0.496  13.420  1.0738 -0.2611  0.0605
12792TIP3    H159791   3.773   0.483  13.513  0.9784  0.0715  0.0901
12792TIP3    H259792   3.707   0.477  13.377  1.1845 -0.6571  0.0199
12793TIP3   OH259793   0.431   1.379  13.141 -0.5053 -0.3076 -0.2565
12793TIP3    H159794   0.459   1.288  13.149  1.1057  0.1716 -0.2243
12793TIP3    H259795   0.393   1.385  13.053 -0.9338 -1.0656 -0.1398
12794TIP3   OH259796   4.460   5.089   0.494 -0.3540 -0.4545 -0.5053
12794TIP3    H159797   4.412   5.103   0.576  0.0366  1.9934 -0.6191
12794TIP3    H259798   4.552   5.105   0.518 -0.4202  2.2958 -1.7382
12795TIP3   OH259799   5.247   4.166  15.782  0.2831 -0.4020 -0.0526
12795TIP3    H159800   5.317   4.102  15.799  0.7697  0.2352  0.3655
12795TIP3    H259801   5.205   4.134  15.702  1.1039 -0.7478 -0.3566
12796TIP3   OH259802   0.870   4.069  14.642 -0.4935 -0.2710 -0.0970
12796TIP3    H159803   0.958   4.107  14.644  0.3267 -1.7782 -2.5779
12796TIP3    H259804   0.858   4.030  14.729  1.9674 -1.3539 -0.1649
12797TIP3   OH259805   4.330   3.269   5.890  0.4399 -0.2390 -0.0407
12797TIP3    H159806   4.330   3.299   5.981 -1.1703  0.1452 -0.1334
12797TIP3    H259807   4.290   3.182   5.893  0.0279 -0.0677 -0.4212
12798TIP3   OH259808   4.307   6.145  10.668  0.2875  0.0184  0.2037
12798TIP3    H159809   4.322   6.114  10.758  1.5314  0.2323  0.0888
12798TIP3    H259810   4.366   6.093  10.614 -1.4870 -1.1286 -0.7260
12799TIP3   OH259811   2.951   2.086   4.889 -0.2926  0.1506  0.2414
12799TIP3    H159812   3.030   2.036   4.866  1.3737  2.7146  0.0155
12799TIP3    H259813   2.913   2.037   4.962  2.0175 -0.7366  0.9546
12800TIP3   OH259814   1.515   0.599   5.800  0.2820 -0.4139 -0.0665
12800TIP3    H159815   1.548   0.672   5.852  3.6710 -1.6330 -0.2428
12800TIP3    H259816   1.481   0.639   5.720 -1.5752  1.1863  1.4260
12801TIP3   OH259817   4.501   2.482  12.961 -0.1040  0.5368 -0.5420
12801TIP3    H159818   4.551   2.429  12.898  0.7471  2.0955 -1.2224
12801TIP3    H259819   4.515   2.437  13.045  1.0063 -0.0488 -1.0087
12802TIP3   OH259820   4.689   5.197  13.277 -0.1611  0.1577  0.9203
12802TIP3    H159821   4.638   5.274  13.299  1.3725  1.5238 -0.0860
12802TIP3    H259822   4.624   5.130  13.255 -1.5113  1.1632  1.7491
12803TIP3   OH259823   4.661   6.286   1.097 -0.1414 -0.0209  0.2297
12803TIP3    H159824   4.648   6.258   1.007  0.4172  0.0835  0.1168
12803TIP3    H259825   4.573   6.311   1.127 -0.1375  1.1351 -0.6825
12804TIP3   OH259826   4.272   0.054  13.742 -0.6187 -0.0129 -0.2276
12804TIP3    H159827   4.284   0.069  13.648  0.0773  0.9375  0.0025
12804TIP3    H259828   4.231  -0.033  13.747  2.4081 -1.6534 -1.2802
12805TIP3   OH259829   0.083   5.072   1.706 -0.0727  0.0360  0.4262
12805TIP3    H159830   0.076   4.979   1.731  2.0399  0.4117  2.8059
12805TIP3    H259831   0.054   5.119   1.784  3.0211  1.3258  0.9173
12806TIP3   OH259832   2.632   0.153   2.303  0.0118  0.2046  0.6340
12806TIP3    H159833   2.678   0.213   2.361  0.5575 -0.5960  1.0461
12806TIP3    H259834   2.697   0.128   2.237 -0.0704 -0.2893  0.7369
12807TIP3   OH259835   5.188   4.457  14.265 -0.0572 -0.7123 -0.3692
12807TIP3    H159836   5.159   4.449  14.174  1.9869 -0.0195 -1.1476
12807TIP3    H259837   5.150   4.539  14.296  0.7824  0.0385 -1.2655
12808TIP3   OH259838   6.613   4.503   5.749  0.4659  0.0802 -0.5629
12808TIP3    H159839   6.598   4.411   5.727 -1.1700 -0.0076  0.7751
12808TIP3    H259840   6.529   4.546   5.732  1.2741  1.4005 -1.3919
12809TIP3   OH259841   2.035   6.356  16.759  0.0414 -0.4224  0.0516
12809TIP3    H159842   2.117   6.355  16.809  2.1701  2.7338 -2.8909
12809TIP3    H259843   2.046   6.287  16.694  0.8304  0.5693 -0.8942
12810TIP3   OH259844   1.330   1.148   3.407 -0.4001 -0.2218 -0.0662
12810TIP3    H159845   1.243   1.172   3.375  0.2772  1.0988 -1.0298
12810TIP3    H259846   1.387   1.217   3.373  0.5538  0.9092  3.4378
12811TIP3   OH259847   6.490   6.335   3.582  0.1410 -0.7062 -0.2202
12811TIP3    H159848   6.460   6.401   3.644 -0.8411 -1.6055  0.2945
12811TIP3    H259849   6.584   6.328   3.598  0.0666 -0.2207  0.4754
12812TIP3   OH259850   1.936   4.354  11.310 -0.5067 -0.3745 -0.3612
12812TIP3    H159851   1.902   4.390  11.392  1.2214 -2.0441  1.1751
12812TIP3    H259852   2.028   4.336  11.327 -0.1378 -0.9552 -2.6221
12813TIP3   OH259853   6.730   1.903  13.685  0.0394  0.0877  0.7703
12813TIP3    H159854   6.795   1.970  13.708  0.6200 -0.1583 -0.1253
12813TIP3    H259855   6.724   1.847  13.763  1.4936 -0.3515  0.5872
12814TIP3   OH259856   5.768   3.327  15.166 -0.2210  0.5262  0.2186
12814TIP3    H159857   5.858   3.308  15.191  0.1417 -0.0667 -1.4632
12814TIP3    H259858   5.772   3.353  15.074 -1.9749 -1.6469 -0.5858
12815TIP3   OH259859   5.275   1.482  17.079  0.0124 -0.1275 -0.2158
12815TIP3    H159860   5.358   1.523  17.055 -0.1764  0.6828  0.4954
12815TIP3    H259861   5.236   1.456  16.995  0.9097 -0.4006 -0.5652
12816TIP3   OH259862   0.081   2.849   1.315 -0.2811  0.1190  1.3614
12816TIP3    H159863   0.018   2.902   1.364 -0.4105 -0.2608  1.6080
12816TIP3    H259864   0.166   2.882   1.342 -0.3487 -0.1814  1.9508
12817TIP3   OH259865   4.093   4.459   2.922 -0.3079  0.6145 -0.0496
12817TIP3    H159866   4.167   4.489   2.869 -0.2768  1.7737  0.6137
12817TIP3    H259867   4.016   4.488   2.875 -0.2771  3.9637  1.7065
12818TIP3   OH259868   2.960   3.817  13.068 -0.3631  0.5696  0.4716
12818TIP3    H159869   2.995   3.906  13.056 -1.7852  1.1849  0.7342
12818TIP3    H259870   2.982   3.772  12.987 -1.4805  1.8027 -0.5612
12819TIP3   OH259871   2.726   1.389   4.953 -0.4601  0.1691 -0.5898
12819TIP3    H159872   2.674   1.410   5.030  0.7845  0.6097  0.1564
12819TIP3    H259873   2.747   1.296   4.962  0.3883  0.4072  0.0704
12820TIP3   OH259874   1.131   4.545   2.446 -0.2593  0.2138 -0.5436
12820TIP3    H159875   1.064   4.503   2.500 -0.6100 -1.0515 -1.8635
12820TIP3    H259876   1.203   4.564   2.506 -0.3487 -1.7555  0.2630
12821TIP3   OH259877   1.153   3.164  10.580  0.6727 -0.3301 -0.4055
12821TIP3    H159878   1.066   3.196  10.605  0.5489 -2.0030  1.6156
12821TIP3    H259879   1.210   3.241  10.585 -0.1827  0.2434  1.0430
12822TIP3   OH259880   6.495   2.548   1.537  0.2253  0.5067  0.5121
12822TIP3    H159881   6.532   2.505   1.614  1.0393 -1.2930 -0.8158
12822TIP3    H259882   6.567   2.549   1.474 -1.3551 -1.2605 -1.4488
12823TIP3   OH259883   0.680   4.430   1.307  0.1765 -0.0828 -0.4720
12823TIP3    H159884   0.655   4.519   1.281 -1.7188 -0.0898  1.1304
12823TIP3    H259885   0.669   4.429   1.402 -1.0492 -2.3753 -0.5740
12824TIP3   OH259886   2.746   5.092  12.612 -0.3222  0.3940 -0.6384
12824TIP3    H159887   2.811   5.063  12.549 -1.0580 -0.8817 -0.8398
12824TIP3    H259888   2.791   5.158  12.665  0.8328  0.2029 -1.3671
12825TIP3   OH259889   4.601   0.486  12.989  0.1861  0.3580  0.5741
12825TIP3    H159890   4.528   0.537  12.953 -0.3364 -0.6712  0.1367
12825TIP3    H259891   4.611   0.518  13.078 -0.8522  0.4668  0.6651
12826TIP3   OH259892   5.018   3.337   0.118 -0.0796 -0.0997  0.3318
12826TIP3    H159893   5.096   3.291   0.148 -1.5049 -1.2548  2.5055
12826TIP3    H259894   4.986   3.285   0.044 -0.6557 -1.6548  1.6125
12827TIP3   OH259895   1.044   4.693  15.135  0.5531  0.5047  0.5401
12827TIP3    H159896   1.133   4.660  15.129  0.2001 -0.3315 -0.2494
12827TIP3    H259897   1.002   4.637  15.200  0.5151  0.6958  0.6810
12828TIP3   OH259898   5.344   2.751  11.328 -0.7379 -0.2146 -0.6925
12828TIP3    H159899   5.260   2.760  11.285 -0.0998 -1.4332 -2.2736
12828TIP3    H259900   5.348   2.659  11.355  0.5599 -0.4787 -1.7093
12829TIP3   OH259901   3.980   0.943  14.248  0.3239  0.0406 -0.3103
12829TIP3    H159902   3.899   0.993  14.238  0.3520 -0.0332 -0.9584
12829TIP3    H259903   4.022   0.980  14.325 -0.0366  0.4871 -0.3261
12830TIP3   OH259904   2.329   5.043  16.562  0.1278 -0.2029  0.2946
12830TIP3    H159905   2.413   5.079  16.592  0.0919  0.3608 -0.2657
12830TIP3    H259906   2.275   5.042  16.641  0.0612  1.1947  0.2857
12831TIP3   OH259907   4.374   1.063  11.361 -0.1317 -0.5183  0.5263
12831TIP3    H159908   4.293   1.090  11.404  0.2330  1.2630  0.1528
12831TIP3    H259909   4.444   1.091  11.420  0.2539 -1.4272  0.5207
12832TIP3   OH259910   6.470   3.214  10.760 -0.0555 -0.1549  0.2279
12832TIP3    H159911   6.490   3.296  10.805 -0.6866  0.4280 -0.5248
12832TIP3    H259912   6.552   3.190  10.716 -0.3428  1.0604 -1.0555
12833TIP3   OH259913   3.941   0.911  16.968 -0.0352  0.3038  0.3479
12833TIP3    H159914   3.988   0.918  17.051  2.6826 -0.3956 -1.0460
12833TIP3    H259915   4.006   0.929  16.901 -0.9728 -3.4273 -1.8530
12834TIP3   OH259916   4.195   0.944   1.181 -0.4046 -0.3990 -0.3560
12834TIP3    H159917   4.285   0.967   1.158 -0.4050 -1.1242 -1.1278
12834TIP3    H259918   4.143   1.017   1.147 -0.1983 -0.4415 -0.7719
12835TIP3   OH259919   2.536   4.054  10.648 -0.7903 -0.8549  0.7898
12835TIP3    H159920   2.534   4.117  10.576 -0.2047 -2.6211 -0.8509
12835TIP3    H259921   2.623   4.066  10.687 -0.6951 -0.6294  0.5168
12836TIP3   OH259922   4.536   0.440   6.153 -0.0280  0.5013  0.2841
12836TIP3    H159923   4.574   0.413   6.237  0.3474  0.9420  0.2559
12836TIP3    H259924   4.473   0.508   6.177  0.0027  0.5539  0.2140
12837TIP3   OH259925   6.115   6.384  11.451  0.0405 -0.6779  0.7117
12837TIP3    H159926   6.045   6.424  11.503 -0.0457 -1.6748  1.4051
12837TIP3    H259927   6.118   6.436  11.370 -2.4701 -1.4521  0.0278
12838TIP3   OH259928   1.011   1.200   6.052 -0.2758  0.1962 -0.2957
12838TIP3    H159929   1.064   1.178   6.129  0.4101  1.9737 -0.2011
12838TIP3    H259930   0.997   1.116   6.008 -0.2308 -0.7918  1.4587
12839TIP3   OH259931   4.043   4.965  16.001 -0.2161  0.0644 -0.1286
12839TIP3    H159932   4.066   4.930  15.914 -1.3515  1.1152 -0.8822
12839TIP3    H259933   4.016   4.888  16.051 -0.1800 -0.4765 -0.9137
12840TIP3   OH259934   1.441   3.203  16.377 -0.5053 -0.5446 -0.2277
12840TIP3    H159935   1.481   3.240  16.455 -2.7489  1.3392  0.1554
12840TIP3    H259936   1.351   3.183  16.404 -1.2929 -0.0018 -2.2459
12841TIP3   OH259937   0.646   1.034   3.623 -0.6417 -0.2528 -0.0362
12841TIP3    H159938   0.574   1.061   3.565  1.0551  2.2542 -1.1502
12841TIP3    H259939   0.710   0.994   3.565 -0.1738 -0.3802  0.5650
12842TIP3   OH259940   4.688   4.816  11.148 -0.3503  0.0016  0.2829
12842TIP3    H159941   4.771   4.770  11.136  0.5254  1.6737 -0.3522
12842TIP3    H259942   4.700   4.866  11.229 -0.0121  1.7067 -0.7901
12843TIP3   OH259943   6.290   3.628  13.465 -0.1997 -0.6518  0.3012
12843TIP3    H159944   6.300   3.692  13.536  0.0496  0.1256 -0.4139
12843TIP3    H259945   6.311   3.544  13.505  0.8108 -0.1159  0.9276
12844TIP3   OH259946   0.594   4.630  15.213 -0.2554 -0.0477 -0.0755
12844TIP3    H159947   0.617   4.548  15.258 -2.2012 -0.3809  0.4042
12844TIP3    H259948   0.533   4.603  15.144  0.3323  0.8276 -0.9529
12845TIP3   OH259949   3.481   0.709  13.384  0.1845  0.6086 -0.2289
12845TIP3    H159950   3.549   0.704  13.452 -1.6163 -2.1352  1.5704
12845TIP3    H259951   3.522   0.673  13.306  0.9737 -0.4863  0.6707
12846TIP3   OH259952   6.558   2.687   4.177  0.7426 -0.0701  0.1693
12846TIP3    H159953   6.552   2.764   4.233  2.6783 -0.1080  0.5072
12846TIP3    H259954   6.617   2.713   4.106 -1.1503 -0.2354 -1.5407
12847TIP3   OH259955   5.070   4.356  12.763 -0.5997  0.6036 -0.6179
12847TIP3    H159956   5.051   4.294  12.693  0.8349 -0.3297 -0.2277
12847TIP3    H259957   4.993   4.413  12.768 -0.6830  0.7840 -3.0331
12848TIP3   OH259958   4.373   6.780   2.119  0.1459  0.3417 -0.3214
12848TIP3    H159959   4.393   6.856   2.174  0.3307 -1.0185  1.5965
12848TIP3    H259960   4.413   6.801   2.035  1.9230  1.5622  0.7385
12849TIP3   OH259961   3.848   0.730   6.193  0.5369 -0.0527 -0.7185
12849TIP3    H159962   3.852   0.747   6.288 -0.3344 -2.3890 -0.2036
12849TIP3    H259963   3.887   0.808   6.154  2.4230  0.3224  1.6325
12850TIP3   OH259964   5.057   0.589  13.095  0.0241  0.2091  0.1721
12850TIP3    H159965   5.071   0.526  13.024  0.1853  1.5281 -1.0317
12850TIP3    H259966   5.126   0.655  13.082  0.0122  0.5221  1.5260
12851TIP3   OH259967   6.247   1.076   2.303 -0.2559 -0.5486  0.3804
12851TIP3    H159968   6.320   1.135   2.286  0.0024 -0.5282  1.4902
12851TIP3    H259969   6.169   1.131   2.299 -0.0984 -0.3193  0.4695
12852TIP3   OH259970   1.329   6.032  14.340  0.3831 -0.4157  0.6896
12852TIP3    H159971   1.240   6.060  14.322  1.1418  1.4402 -0.4856
12852TIP3    H259972   1.384   6.089  14.286  2.2656 -1.9145  0.8860
12853TIP3   OH259973   2.471   3.904  14.989 -1.0108  0.8615 -0.0339
12853TIP3    H159974   2.438   3.892  14.900 -1.1795  0.6232  0.0587
12853TIP3    H259975   2.560   3.936  14.977 -1.1768  1.2501 -0.2900
12854TIP3   OH259976   5.410   3.026  12.878  0.2602  0.4078 -0.3785
12854TIP3    H159977   5.351   3.100  12.888  0.6448  0.8048 -1.0042
12854TIP3    H259978   5.490   3.063  12.842  0.4009 -0.3374 -0.8627
12855TIP3   OH259979   2.905   1.622  11.924 -0.3426  0.3697  0.0897
12855TIP3    H159980   2.957   1.663  11.855 -1.3681 -0.8667 -1.4658
12855TIP3    H259981   2.951   1.541  11.943 -0.5665  0.2735  0.2171
12856TIP3   OH259982   4.025   0.069   4.431 -0.6111 -0.1196 -0.5728
12856TIP3    H159983   4.037   0.016   4.510  0.3586 -0.2137 -0.7729
12856TIP3    H259984   3.931   0.090   4.430 -0.4674  0.8014  1.1992
12857TIP3   OH259985   1.225   6.680   0.757 -0.1960 -0.4094 -0.6487
12857TIP3    H159986   1.173   6.693   0.678  0.9281  1.4187 -1.1690
12857TIP3    H259987   1.297   6.623   0.729 -0.1813 -0.3288 -0.7774
12858TIP3   OH259988   1.105   1.727  12.464  0.5019 -0.0713 -0.0733
12858TIP3    H159989   1.048   1.797  12.432 -0.3306 -0.9569 -0.5760
12858TIP3    H259990   1.067   1.701  12.548  1.1770  0.4799  0.4223
12859TIP3   OH259991   0.916   0.140  15.165 -0.0983  0.2078 -0.7527
12859TIP3    H159992   0.942   0.146  15.074  0.3148  1.3836 -0.5715
12859TIP3    H259993   0.923   0.047  15.186 -1.4472 -0.2714 -2.2598
12860TIP3   OH259994   5.807   3.584   2.721 -0.6169  0.5197 -0.1162
12860TIP3    H159995   5.824   3.567   2.814  0.3758 -1.5212 -0.6192
12860TIP3    H259996   5.878   3.643   2.694 -0.5283  0.5948  0.2763
12861TIP3   OH259997   0.873   6.184   2.245 -0.0664 -0.4007  0.2988
12861TIP3    H159998   0.911   6.116   2.301  1.0196  0.2371  0.3662
12861TIP3    H259999   0.853   6.256   2.305 -1.8178 -0.8709  0.3308
12862TIP3   OH260000   4.318   5.267  15.325 -0.0036  0.4617  0.3926
12862TIP3    H160001   4.374   5.302  15.394  0.5421 -0.1566  0.2749
12862TIP3    H260002   4.350   5.178  15.310 -1.4040 -0.1241  0.7251
12863TIP3   OH260003   1.628   3.434   1.565 -1.0557  0.6056  0.1050
12863TIP3    H160004   1.654   3.354   1.520 -0.3548  1.1938 -0.5506
12863TIP3    H260005   1.549   3.463   1.518 -0.1365  1.4017 -1.0091
12864TIP3   OH260006   4.658   5.845   4.197 -0.2032  0.4435 -0.1878
12864TIP3    H160007   4.742   5.846   4.243  0.0407  0.3190 -0.6348
12864TIP3    H260008   4.671   5.786   4.123 -0.5423  0.7906 -0.5280
12865TIP3   OH260009   5.038   5.497  12.855 -0.4593 -0.4763 -0.1437
12865TIP3    H160010   5.103   5.485  12.786  0.0448  0.8824  0.0743
12865TIP3    H260011   5.032   5.592  12.867 -0.8186 -0.6584  1.4048
12866TIP3   OH260012   5.374   0.753   4.614  0.6095  0.5910 -0.1386
12866TIP3    H160013   5.335   0.674   4.577 -0.7315  1.0729  0.1950
12866TIP3    H260014   5.467   0.746   4.593  0.6341 -1.3837  0.4551
12867TIP3   OH260015   3.173   1.179  11.914  0.1943 -0.1091 -0.3585
12867TIP3    H160016   3.241   1.111  11.908  1.3461  1.0620 -1.0893
12867TIP3    H260017   3.122   1.169  11.834 -0.2871 -0.7426  0.0125
12868TIP3   OH260018   1.653   3.569  12.162 -0.1806  0.3633 -0.1607
12868TIP3    H160019   1.655   3.508  12.235 -0.8170  0.6986  0.1418
12868TIP3    H260020   1.624   3.517  12.087  2.6404 -0.5432 -0.7460
12869TIP3   OH260021   6.376   5.916  11.407 -0.2410  0.0029  0.2002
12869TIP3    H160022   6.464   5.945  11.385 -0.3140  1.7599  1.9355
12869TIP3    H260023   6.388   5.850  11.474 -0.2427  0.2650  0.4598
12870TIP3   OH260024   5.940   5.612   3.944  0.0404  0.4153  0.6681
12870TIP3    H160025   5.872   5.665   3.902  1.2375 -0.2803 -2.4083
12870TIP3    H260026   5.905   5.523   3.943  0.1025  0.3855  1.1099
12871TIP3   OH260027   1.965   0.799  14.517 -0.0951 -0.1943 -0.5973
12871TIP3    H160028   1.951   0.774  14.426  3.3845  2.3387 -2.0521
12871TIP3    H260029   2.046   0.753  14.542  0.1925  0.8347  0.4310
12872TIP3   OH260030   4.234   5.122  12.781 -0.1023  0.6701  0.8831
12872TIP3    H160031   4.202   5.040  12.818 -1.5157  0.5923 -0.3947
12872TIP3    H260032   4.307   5.096  12.725 -0.8517  0.1972  0.1030
12873TIP3   OH260033   0.136   2.075  14.679  0.2143 -0.2357 -0.0020
12873TIP3    H160034   0.136   1.984  14.650  1.1982 -0.3108  0.1747
12873TIP3    H260035   0.117   2.070  14.773 -3.1859  0.0229 -0.5758
12874TIP3   OH260036   1.494   4.692  14.377  0.6625 -0.0974 -0.0872
12874TIP3    H160037   1.531   4.653  14.457  1.4265 -0.7149 -0.7269
12874TIP3    H260038   1.561   4.679  14.311 -0.7391 -1.3764 -1.3290
12875TIP3   OH260039   4.327   0.255   5.177  0.2602 -0.2434 -0.0905
12875TIP3    H160040   4.399   0.281   5.119  0.9845  0.3253  1.0121
12875TIP3    H260041   4.310   0.333   5.230  0.0024 -0.9067  0.8323
12876TIP3   OH260042   2.807   5.057   5.187  0.2749 -0.2687 -0.3544
12876TIP3    H160043   2.796   5.145   5.224 -1.3380  0.0748 -1.5740
12876TIP3    H260044   2.849   5.072   5.103  0.0889 -0.6883 -0.5230
12877TIP3   OH260045   0.794   1.326   0.133  0.5130 -0.7544  0.1845
12877TIP3    H160046   0.820   1.363   0.217  0.4652 -1.3190  0.4577
12877TIP3    H260047   0.750   1.397   0.087  0.9881 -0.2986  0.4322
12878TIP3   OH260048   2.424   1.678   1.588  0.2511  0.4287  0.3303
12878TIP3    H160049   2.477   1.620   1.642  0.0002 -0.0808  0.0394
12878TIP3    H260050   2.399   1.625   1.512 -0.5115  0.7102  0.3680
12879TIP3   OH260051   3.383   2.304  15.440  0.2249 -0.2105  0.1829
12879TIP3    H160052   3.308   2.319  15.382 -1.1699 -1.3383  1.6240
12879TIP3    H260053   3.397   2.210  15.436  1.2809 -0.0666  0.3155
12880TIP3   OH260054   6.289   2.612  11.515  0.1642  0.0158  0.6290
12880TIP3    H160055   6.282   2.516  11.508  2.3326 -0.2088  0.7176
12880TIP3    H260056   6.267   2.644  11.428 -1.9980 -0.3960  0.9579
12881TIP3   OH260057   2.447   4.471   3.335 -0.3540 -0.0175  0.5767
12881TIP3    H160058   2.504   4.547   3.346  1.0428 -0.7481 -1.1234
12881TIP3    H260059   2.503   4.396   3.356 -0.9426 -0.7005 -0.2027
12882TIP3   OH260060   6.583   0.203   0.642  0.5390 -0.0121 -0.0094
12882TIP3    H160061   6.530   0.125   0.659 -0.8219  0.9652  0.4617
12882TIP3    H260062   6.582   0.252   0.724  2.8628 -0.3089  0.2566
12883TIP3   OH260063   5.371   4.693  11.051  0.0222  0.1398 -0.6166
12883TIP3    H160064   5.278   4.671  11.057  0.2487 -0.8799 -0.6428
12883TIP3    H260065   5.416   4.623  11.099  0.8014  0.3784 -0.9749
12884TIP3   OH260066   4.170   3.589   1.066 -0.2573 -0.1044 -0.1215
12884TIP3    H160067   4.170   3.682   1.089  1.5286 -0.0790 -0.1344
12884TIP3    H260068   4.261   3.569   1.044 -0.9261 -1.4301 -1.9143
12885TIP3   OH260069   5.412   0.007   2.056 -0.6698  0.6359 -0.3964
12885TIP3    H160070   5.497   0.037   2.088 -1.9198  1.6000  2.3460
12885TIP3    H260071   5.430  -0.029   1.969  2.8198 -0.9569  0.8311
12886TIP3   OH260072   5.434   0.886   0.303  0.4597 -0.4266  0.2847
12886TIP3    H160073   5.364   0.827   0.330 -0.1749 -0.4635 -1.2982
12886TIP3    H260074   5.388   0.961   0.264  1.2872  0.2349  0.5357
12887TIP3   OH260075   0.357   0.381   4.330  0.3284  0.4037  0.6801
12887TIP3    H160076   0.277   0.427   4.355 -1.2027 -1.3481 -0.6502
12887TIP3    H260077   0.358   0.303   4.385 -1.4942 -1.9659 -2.3068
12888TIP3   OH260078   6.724   0.244  10.109  0.2132 -0.3797 -0.2739
12888TIP3    H160079   6.757   0.302  10.041  0.4475  0.4865  0.5563
12888TIP3    H260080   6.703   0.302  10.182 -0.2416 -1.2617  0.3193
12889TIP3   OH260081   6.222   0.679   3.179  0.7295 -0.2630 -0.6878
12889TIP3    H160082   6.284   0.698   3.250  0.0600 -0.1032 -0.1411
12889TIP3    H260083   6.202   0.765   3.142 -1.2763  0.0342  0.9288
12890TIP3   OH260084   1.375   1.972  11.086 -0.2472  0.3536  0.0815
12890TIP3    H160085   1.464   1.990  11.054  1.1011 -2.3858  1.8924
12890TIP3    H260086   1.328   1.940  11.010  0.4495  1.3177 -0.7854
12891TIP3   OH260087   3.302   2.681   4.429 -0.5948 -0.5339 -0.3105
12891TIP3    H160088   3.319   2.600   4.381  0.8037 -0.6049  0.2516
12891TIP3    H260089   3.294   2.654   4.520 -0.4383 -0.0877 -0.1597
12892TIP3   OH260090   2.832   5.149  14.915  0.2134  0.5800 -0.2723
12892TIP3    H160091   2.855   5.210  14.846 -0.1791 -0.2049 -1.1086
12892TIP3    H260092   2.916   5.111  14.942  0.2613  0.0650 -1.1090
12893TIP3   OH260093   6.479   5.216  15.591  0.0341  0.0052  0.2733
12893TIP3    H160094   6.490   5.311  15.593  1.0339 -0.0795 -0.6435
12893TIP3    H260095   6.544   5.185  15.529 -1.3165 -1.1397 -0.6431
12894TIP3   OH260096   1.838   6.507   6.330 -0.2736 -0.1610 -0.3336
12894TIP3    H160097   1.746   6.522   6.308 -0.2252  0.1625 -0.3200
12894TIP3    H260098   1.887   6.559   6.265 -0.0988 -0.3775 -0.3792
12895TIP3   OH260099   0.130   4.506   6.106  0.6808 -0.1146  0.3491
12895TIP3    H160100   0.224   4.523   6.105  1.3982 -3.3138  1.4664
12895TIP3    H260101   0.110   4.489   6.198 -0.3220 -2.3291 -0.2099
12896TIP3   OH260102   3.981   5.846  12.527  0.1657 -0.5376  0.0966
12896TIP3    H160103   3.970   5.752  12.519 -0.8133 -0.3712 -0.7879
12896TIP3    H260104   4.045   5.869  12.460  0.9041 -0.6454  0.7521
12897TIP3   OH260105   3.871   1.688  14.271 -0.0927  0.4633 -0.1069
12897TIP3    H160106   3.824   1.631  14.333  3.4617 -0.3224  2.1739
12897TIP3    H260107   3.844   1.777  14.295  0.5680  0.1286  2.1260
12898TIP3   OH260108   3.473   6.271   1.203 -0.3447 -0.1949  0.1554
12898TIP3    H160109   3.550   6.290   1.150  0.4390  0.0971  1.3710
12898TIP3    H260110   3.473   6.176   1.213 -0.5924 -0.2678 -0.4898
12899TIP3   OH260111   1.715   4.536  16.892  0.3329 -0.6811  0.0031
12899TIP3    H160112   1.736   4.443  16.883 -0.7733 -1.0283  0.7409
12899TIP3    H260113   1.674   4.559  16.808  1.3228 -0.6368 -0.4837
12900TIP3   OH260114   5.927   5.850   0.831 -0.1417 -0.0721 -0.6410
12900TIP3    H160115   5.853   5.808   0.786 -1.4367 -0.0365  1.3436
12900TIP3    H260116   5.995   5.782   0.835 -1.5585 -1.4841  0.9780
12901TIP3   OH260117   1.146   0.447  14.837 -0.2580  0.3515 -0.1382
12901TIP3    H160118   1.235   0.452  14.873  0.8173 -1.1389 -2.3656
12901TIP3    H260119   1.097   0.513  14.886  1.6028  0.0246  2.3945
12902TIP3   OH260120   6.007   0.973   6.307 -0.6023  0.5247  0.0903
12902TIP3    H160121   6.081   0.973   6.245 -0.4428  2.2999  0.2543
12902TIP3    H260122   6.020   0.893   6.358  1.5751  1.0633  0.5157
12903TIP3   OH260123   3.238   4.500  12.993  0.3333 -0.3181  0.3343
12903TIP3    H160124   3.160   4.456  13.028 -0.5911  1.8377  1.1253
12903TIP3    H260125   3.287   4.526  13.071 -0.3354  2.0814  0.0269
12904TIP3   OH260126   2.412   3.966  15.607 -0.0337  0.5215  0.2208
12904TIP3    H160127   2.357   3.989  15.682  1.2461 -2.0348  2.0877
12904TIP3    H260128   2.393   4.034  15.542 -2.0419  2.2242  2.4031
12905TIP3   OH260129   4.442   1.237  14.702  0.0932 -0.4100 -0.3673
12905TIP3    H160130   4.429   1.315  14.756  0.2487 -0.0834 -0.7953
12905TIP3    H260131   4.410   1.263  14.616 -0.7846 -1.1498 -0.2680
12906TIP3   OH260132   1.274   3.133   3.675 -0.1191  0.3770  0.1807
12906TIP3    H160133   1.323   3.210   3.703 -0.8248  0.8576  0.0979
12906TIP3    H260134   1.296   3.124   3.582  0.2251  0.2680  0.2676
12907TIP3   OH260135   0.485   3.554   3.260 -0.0568 -0.3164 -0.1327
12907TIP3    H160136   0.409   3.548   3.319 -3.5750  0.8115 -4.0566
12907TIP3    H260137   0.521   3.465   3.258 -0.4732 -0.6318  2.7142
12908TIP3   OH260138   2.028   6.675  12.543  0.0696 -0.1345  0.3461
12908TIP3    H160139   1.986   6.717  12.468  0.2821  0.0387  0.3218
12908TIP3    H260140   1.968   6.605  12.569  0.5667 -0.9860 -0.7371
12909TIP3   OH260141   1.068   5.644   3.090 -0.1754 -0.3112 -0.0343
12909TIP3    H160142   1.157   5.677   3.101 -0.0180 -0.9146  0.5547
12909TIP3    H260143   1.078   5.563   3.040 -0.7201  1.4101 -3.2322
12910TIP3   OH260144   1.441   1.181   6.408 -0.3769 -1.4270 -0.0414
12910TIP3    H160145   1.455   1.221   6.494 -1.4909  1.7547 -1.1812
12910TIP3    H260146   1.528   1.183   6.366 -0.4543  0.3445 -0.2034
12911TIP3   OH260147   3.707   2.302  10.628 -0.1042  0.1785  0.3254
12911TIP3    H160148   3.687   2.339  10.542  1.1016 -0.8204 -0.4222
12911TIP3    H260149   3.801   2.319  10.640 -0.1660 -0.0651  1.2651
12912TIP3   OH260150   0.658   0.086  17.005 -0.2914 -0.0814 -0.2876
12912TIP3    H160151   0.680   0.152  16.939 -0.5710 -0.5195 -0.8271
12912TIP3    H260152   0.659   0.003  16.957 -0.6958 -0.3835  0.2194
12913TIP3   OH260153   5.839   5.890  16.014 -0.0789  0.8184  0.2433
12913TIP3    H160154   5.754   5.916  16.048 -0.1633  0.4893  0.2819
12913TIP3    H260155   5.830   5.895  15.919  0.2760  2.1267  0.2660
12914TIP3   OH260156   3.727   3.040   0.536 -0.0181 -0.0257  0.4968
12914TIP3    H160157   3.653   2.980   0.531 -0.5252  0.6784 -2.0180
12914TIP3    H260158   3.687   3.127   0.540  0.7118  0.2718  1.9517
12915TIP3   OH260159   5.051   0.164  16.078  0.0498 -0.1069  0.0113
12915TIP3    H160160   5.094   0.133  15.998  2.5571  0.5797  1.0058
12915TIP3    H260161   5.003   0.088  16.110  1.6381 -1.3702 -0.4511
12916TIP3   OH260162   4.710   3.149  13.055 -0.4793  0.6298 -0.3995
12916TIP3    H160163   4.655   3.071  13.045  1.1488 -0.6638  0.3974
12916TIP3    H260164   4.696   3.177  13.145  0.0519  0.3576 -0.2257
12917TIP3   OH260165   2.143   0.605   3.408 -0.3796 -0.2891 -0.5135
12917TIP3    H160166   2.198   0.684   3.412 -0.5829 -0.2052  1.4297
12917TIP3    H260167   2.059   0.637   3.374 -0.9583  0.6937  1.6707
12918TIP3   OH260168   5.007   2.977  17.113  0.1571 -0.1702 -0.0340
12918TIP3    H160169   5.001   3.058  17.062  0.4152  0.3211  0.6859
12918TIP3    H260170   4.991   3.005  17.203 -0.1817 -1.0008  0.1698
12919TIP3   OH260171   4.867   4.715   3.710  0.7806 -0.3829  0.3986
12919TIP3    H160172   4.864   4.762   3.627  3.2889  0.4436  0.6808
12919TIP3    H260173   4.839   4.626   3.689  0.5395  0.0358 -1.1500
12920TIP3   OH260174   4.633   0.257  12.341 -0.1753  0.5420 -0.0726
12920TIP3    H160175   4.563   0.311  12.379 -3.3307 -2.0412 -1.7318
12920TIP3    H260176   4.712   0.282  12.390 -1.9890  4.3079  1.3303
12921TIP3   OH260177   5.598   1.965   4.173  0.9008 -0.5198 -0.1369
12921TIP3    H160178   5.506   1.941   4.185  1.2112 -1.7259 -0.1314
12921TIP3    H260179   5.615   2.028   4.243 -0.1103  0.3027 -0.5933
12922TIP3   OH260180   2.461   3.136  11.927  0.1887 -0.6957  0.4085
12922TIP3    H160181   2.437   3.187  12.004  0.3639  0.7538 -0.4559
12922TIP3    H260182   2.518   3.067  11.961  0.1481 -0.1721  1.5894
12923TIP3   OH260183   4.665   0.284  10.821  0.4393 -0.1644  0.3312
12923TIP3    H160184   4.694   0.344  10.891  0.0864 -0.8132  1.0513
12923TIP3    H260185   4.652   0.341  10.745 -1.2090  0.9113  1.3610
12924TIP3   OH260186   6.719   1.803  11.696 -0.2557 -0.4792  0.0795
12924TIP3    H160187   6.660   1.811  11.771  0.8750 -1.3806  1.1084
12924TIP3    H260188   6.681   1.733  11.643 -2.7106  2.0680 -1.8678
12925TIP3   OH260189   0.575   4.441  11.181  0.7133 -0.4305 -0.2825
12925TIP3    H160190   0.629   4.480  11.111 -0.7096  1.7808 -0.2218
12925TIP3    H260191   0.501   4.403  11.135 -1.4673  3.0511 -0.0371
12926TIP3   OH260192   0.951   0.750   1.253  0.6900 -0.0042  0.5216
12926TIP3    H160193   0.961   0.690   1.327 -0.2917 -0.3881  0.3594
12926TIP3    H260194   0.872   0.720   1.208 -0.3391  1.9194  0.9312
12927TIP3   OH260195   4.831   1.407   5.879  0.4842  0.0537 -0.3359
12927TIP3    H160196   4.838   1.323   5.833 -1.1974  0.1636 -0.8536
12927TIP3    H260197   4.817   1.383   5.971 -0.7750 -0.2596 -0.5989
12928TIP3   OH260198   1.703   4.404  14.974  0.4189  0.1528 -0.0705
12928TIP3    H160199   1.777   4.391  15.034 -1.4844  0.6535  2.6076
12928TIP3    H260200   1.681   4.497  14.984 -1.0989 -0.1868 -0.1133
12929TIP3   OH260201   4.662   3.390  16.514  0.0670  0.3173 -0.0051
12929TIP3    H160202   4.581   3.398  16.564 -2.2081 -3.0725 -2.7273
12929TIP3    H260203   4.699   3.306  16.540 -0.0985 -0.5704 -2.3947
12930TIP3   OH260204   1.219   4.963  14.686  0.2168 -0.4647 -0.5856
12930TIP3    H160205   1.314   4.962  14.672  0.5208  0.7397  1.0589
12930TIP3    H260206   1.182   4.971  14.598  1.7859  2.0136 -1.1421
12931TIP3   OH260207   2.192   2.872   4.345 -0.7731 -0.3270 -0.7104
12931TIP3    H160208   2.170   2.863   4.253 -0.1491 -0.1485 -0.8795
12931TIP3    H260209   2.193   2.966   4.361 -0.5445 -0.3472 -0.6016
12932TIP3   OH260210   4.695   1.662  15.183  0.1940 -0.5808  0.1347
12932TIP3    H160211   4.766   1.708  15.227 -1.7717  2.6307  0.2914
12932TIP3    H260212   4.653   1.611  15.253  1.1607 -0.9621  0.4477
12933TIP3   OH260213   0.142   6.699   0.176 -0.6621 -0.3857  0.2230
12933TIP3    H160214   0.066   6.664   0.131 -0.9038 -0.5149  0.7206
12933TIP3    H260215   0.217   6.662   0.130 -0.8970 -2.1640  1.1577
12934TIP3   OH260216   2.445   4.065   1.135  0.3797  0.3882  0.0416
12934TIP3    H160217   2.368   4.020   1.099  0.5307 -0.2274  0.4794
12934TIP3    H260218   2.440   4.153   1.097 -1.0304  0.6437  0.7358
12935TIP3   OH260219   4.059   5.996   3.544 -0.4518  0.3547 -0.2265
12935TIP3    H160220   4.141   6.041   3.565  0.0688 -1.1785  1.2606
12935TIP3    H260221   4.032   5.956   3.627 -0.7730 -2.1741 -1.4629
12936TIP3   OH260222   1.347   5.628   5.098  0.1619  0.3591  0.6460
12936TIP3    H160223   1.330   5.539   5.069 -2.2654  0.1915  2.2764
12936TIP3    H260224   1.441   5.640   5.085  1.1004 -3.3070  2.5406
12937TIP3   OH260225   3.754   6.569  12.023 -0.6194 -0.1540 -0.2962
12937TIP3    H160226   3.764   6.611  11.938 -0.0794  0.0068 -0.1538
12937TIP3    H260227   3.736   6.477  12.003 -2.1117  0.1698 -0.6205
12938TIP3   OH260228   0.649   5.468   3.236 -0.2295 -0.1148 -0.3490
12938TIP3    H160229   0.603   5.504   3.312  0.3457  0.8920 -0.4573
12938TIP3    H260230   0.664   5.376   3.258 -0.4060  0.0721  0.5977
12939TIP3   OH260231   1.345   1.537   4.299  0.7751 -0.0417 -0.0623
12939TIP3    H160232   1.257   1.571   4.282  0.5611 -0.7526 -0.3959
12939TIP3    H260233   1.364   1.564   4.389  0.1882  0.0625  0.0329
12940TIP3   OH260234   1.461   5.856  11.430  0.0312  0.1084  0.1141
12940TIP3    H160235   1.501   5.939  11.458  0.3360 -0.3597  1.0919
12940TIP3    H260236   1.371   5.880  11.407 -0.3846  0.4614  1.9541
12941TIP3   OH260237   2.435   0.642   2.529  0.4975  0.2668 -0.9931
12941TIP3    H160238   2.362   0.704   2.530 -0.1492 -0.4398  1.1079
12941TIP3    H260239   2.401   0.567   2.480 -0.0488  0.0949 -0.3600
12942TIP3   OH260240   2.543   0.922   1.488 -0.1393 -0.3460 -0.7284
12942TIP3    H160241   2.542   0.883   1.575  1.6521  0.4037 -0.3397
12942TIP3    H260242   2.472   0.878   1.441 -0.4588 -1.4986  0.7759
12943TIP3   OH260243   0.312   5.886  14.559  0.0511  0.9058 -0.5244
12943TIP3    H160244   0.293   5.890  14.466  0.6162  1.9417 -0.6064
12943TIP3    H260245   0.356   5.802  14.571  0.1842  0.8692 -1.2275
12944TIP3   OH260246   3.421   2.746   6.505 -0.3164 -0.3273  0.2880
12944TIP3    H160247   3.327   2.733   6.512 -0.3791 -0.5033 -0.7214
12944TIP3    H260248   3.443   2.802   6.580 -1.2015 -0.3438  0.5732
12945TIP3   OH260249   4.115   6.302  11.895 -0.2669  0.1143  0.2879
12945TIP3    H160250   4.183   6.236  11.883  0.9196  1.3911 -0.2624
12945TIP3    H260251   4.083   6.320  11.807 -1.2291 -0.3834  0.5318
12946TIP3   OH260252   1.031   5.024  15.999  0.3450  0.2681  0.7761
12946TIP3    H160253   1.047   5.118  15.998  0.8009  0.1972  0.8519
12946TIP3    H260254   0.941   5.014  15.969  0.5167  0.6862  0.1103
12947TIP3   OH260255   4.876   0.043  13.663 -0.1447 -0.4637 -0.5200
12947TIP3    H160256   4.881  -0.025  13.730  0.2185 -0.1840 -0.2687
12947TIP3    H260257   4.961   0.041  13.620  0.7167  1.3609  0.9656
12948TIP3   OH260258   4.388   2.601  10.439  0.3245  0.6130  0.6204
12948TIP3    H160259   4.477   2.637  10.445  0.4014  0.5614 -0.1280
12948TIP3    H260260   4.341   2.643  10.511  0.7620  1.1945  0.5754
12949TIP3   OH260261   0.571   6.777  10.997 -0.3643 -0.0097  0.2130
12949TIP3    H160262   0.580   6.768  10.902 -0.4048  0.0633  0.2015
12949TIP3    H260263   0.655   6.746  11.032 -0.3216  0.0321  0.1491
12950TIP3   OH260264   6.672   1.812   3.762 -0.0065 -0.1893 -0.0805
12950TIP3    H160265   6.585   1.789   3.795  0.2604  0.6176  1.2728
12950TIP3    H260266   6.720   1.729   3.761 -0.1676 -0.3175  1.1914
12951TIP3   OH260267   2.310   0.982   4.991  0.1667 -0.2795 -0.0818
12951TIP3    H160268   2.363   1.061   4.997  1.3346 -0.9927 -0.8179
12951TIP3    H260269   2.288   0.962   5.082  1.3745 -0.1062  0.2681
12952TIP3   OH260270   5.927   2.702  13.869  0.8094  0.0403  0.1790
12952TIP3    H160271   5.996   2.749  13.917 -0.8750 -0.1051  2.9916
12952TIP3    H260272   5.945   2.610  13.886  0.5518 -0.0461 -0.0104
12953TIP3   OH260273   4.888   5.143  13.795  0.0392  0.3474 -0.1674
12953TIP3    H160274   4.897   5.237  13.781 -1.5193  0.5396 -0.0494
12953TIP3    H260275   4.916   5.129  13.886  1.5268  0.4770 -0.5892
12954TIP3   OH260276   3.658   4.668  12.899  0.4463  0.1231 -0.2117
12954TIP3    H160277   3.578   4.719  12.892 -1.9204 -2.3411  4.3706
12954TIP3    H260278   3.699   4.697  12.980  0.5531 -3.0240  1.0152
12955TIP3   OH260279   1.850   5.113   3.119  0.3867 -0.4367 -0.0337
12955TIP3    H160280   1.941   5.101   3.145 -0.0547 -2.6489  0.7332
12955TIP3    H260281   1.850   5.104   3.024  1.4231  3.4386 -0.5556
12956TIP3   OH260282   0.986   0.782  11.855  0.1432  0.3235  0.1499
12956TIP3    H160283   1.058   0.745  11.804 -0.4834  0.1247 -0.6102
12956TIP3    H260284   1.008   0.875  11.864  0.1426  0.4124 -0.6979
12957TIP3   OH260285   5.781   3.477  15.514  0.0099  0.0559 -0.2270
12957TIP3    H160286   5.781   3.420  15.591  0.2955 -1.2659 -1.1554
12957TIP3    H260287   5.862   3.455  15.468  0.1022  1.1999 -0.6499
12958TIP3   OH260288   2.441   3.080   5.221  0.1877 -0.0632  0.3585
12958TIP3    H160289   2.390   3.097   5.141  0.8688  1.6078  0.2519
12958TIP3    H260290   2.410   3.145   5.283  0.7447 -0.3747  0.9691
12959TIP3   OH260291   3.272   5.750   6.401 -0.3273  0.3575  0.4761
12959TIP3    H160292   3.310   5.825   6.447  2.5518 -1.4536  1.3391
12959TIP3    H260293   3.250   5.688   6.471 -0.4148 -0.5382 -0.3229
12960TIP3   OH260294   4.357   3.234   9.972  0.6994  0.2610  0.6713
12960TIP3    H160295   4.391   3.192  10.051  0.8338  0.7565  0.8801
12960TIP3    H260296   4.384   3.176   9.901  2.3477  0.8360  0.7929
12961TIP3   OH260297   1.866   2.989   1.969  0.2592  0.1314 -0.4665
12961TIP3    H160298   1.917   3.038   1.905 -0.7218 -1.1952 -2.3715
12961TIP3    H260299   1.787   3.041   1.982  1.6604  1.8396  1.9593
12962TIP3   OH260300   4.467   4.385  16.399 -0.1849 -0.1189 -0.4098
12962TIP3    H160301   4.523   4.367  16.323  0.5121 -1.0448  0.3002
12962TIP3    H260302   4.383   4.345  16.376  0.3741 -1.4639 -0.2217
12963TIP3   OH260303   4.523   4.924  14.537  0.0703 -0.1027 -0.3933
12963TIP3    H160304   4.549   5.003  14.585 -1.2516 -0.4380  0.9583
12963TIP3    H260305   4.535   4.853  14.600  1.1302 -1.0006 -1.5534
12964TIP3   OH260306   5.806   1.695   0.928 -0.2720 -0.0466 -0.2295
12964TIP3    H160307   5.826   1.686   0.835  0.2306 -0.9740 -0.0383
12964TIP3    H260308   5.886   1.732   0.966 -0.8095  1.2556 -0.3014
12965TIP3   OH260309   4.492   1.020   4.545 -0.7361 -0.0756  0.8408
12965TIP3    H160310   4.472   0.928   4.526  0.2701 -0.0990 -0.1675
12965TIP3    H260311   4.406   1.063   4.545 -1.0365 -0.5320 -1.3970
12966TIP3   OH260312   1.038   0.294  13.327  0.1850  0.1008  0.3841
12966TIP3    H160313   0.946   0.273  13.306 -0.0213  1.4407 -0.1658
12966TIP3    H260314   1.036   0.324  13.418 -0.1225  1.1270  0.0585
12967TIP3   OH260315   3.015   1.224   2.256  0.3786  0.7427  0.9290
12967TIP3    H160316   3.071   1.205   2.181 -0.0523  0.5253  0.6616
12967TIP3    H260317   3.056   1.300   2.297 -0.6607  2.3395 -0.8588
12968TIP3   OH260318   4.196   3.270  13.801 -0.1221  0.0685 -0.5761
12968TIP3    H160319   4.286   3.244  13.782  0.4640  0.4703  1.4981
12968TIP3    H260320   4.161   3.296  13.715  1.1093 -1.8361 -1.7330
12969TIP3   OH260321   3.957   5.627  12.753 -0.1387 -0.7741  0.4270
12969TIP3    H160322   3.968   5.561  12.685  0.5876 -1.4170  1.1417
12969TIP3    H260323   3.868   5.615  12.786 -0.2977 -0.8291 -0.0267
12970TIP3   OH260324   1.265   1.139  11.130 -0.1140 -0.1044 -0.3141
12970TIP3    H160325   1.333   1.185  11.082  0.8569  0.7395  1.7617
12970TIP3    H260326   1.297   1.049  11.138 -1.5032 -0.9964 -3.4103
12971TIP3   OH260327   2.820   4.418  13.996  0.0046 -1.0589 -0.2314
12971TIP3    H160328   2.875   4.453  14.066 -1.4698  0.6859  0.1096
12971TIP3    H260329   2.732   4.416  14.033 -1.0282  0.9754 -2.3141
12972TIP3   OH260330   0.313   4.399  10.501  0.2774  0.1458 -0.4694
12972TIP3    H160331   0.393   4.448  10.519  0.0831  0.0141  0.8577
12972TIP3    H260332   0.244   4.448  10.545 -0.4332  0.3749 -1.7816
12973TIP3   OH260333   1.891   4.335   5.394  0.6616 -0.9448 -0.0911
12973TIP3    H160334   1.950   4.407   5.412 -0.3679 -0.0121 -0.3487
12973TIP3    H260335   1.912   4.309   5.304  0.9337 -0.8705 -0.0493
12974TIP3   OH260336   3.334   2.360  13.314 -0.2091  0.0676  0.5000
12974TIP3    H160337   3.300   2.278  13.350 -0.4244 -0.2817 -0.4798
12974TIP3    H260338   3.327   2.422  13.386 -1.7744 -0.3044  0.7044
12975TIP3   OH260339   1.568   1.515  16.001 -0.0379 -0.0127 -0.4279
12975TIP3    H160340   1.652   1.511  15.956  0.0236 -1.2840 -0.2440
12975TIP3    H260341   1.538   1.424  16.003 -0.2169  0.0500  1.7651
12976TIP3   OH260342   5.863   1.179   5.164 -0.3830  0.6840  0.3325
12976TIP3    H160343   5.951   1.178   5.127  0.3084  0.0197  1.9144
12976TIP3    H260344   5.816   1.245   5.113  1.8796  3.2657  1.3662
12977TIP3   OH260345   2.434   1.470  14.926 -0.4965 -0.1336  0.4516
12977TIP3    H160346   2.434   1.522  14.845  1.6331  1.9618  1.6985
12977TIP3    H260347   2.507   1.409  14.915  2.4905  2.8179  2.2171
12978TIP3   OH260348   3.583   3.069   5.472 -0.3049 -0.1449  0.1022
12978TIP3    H160349   3.625   2.986   5.450 -1.0211 -0.7515  0.9464
12978TIP3    H260350   3.648   3.115   5.525 -0.3907 -0.7580  0.7650
12979TIP3   OH260351   5.164   3.571  15.268 -0.3628  0.5099 -0.4660
12979TIP3    H160352   5.233   3.623  15.229  0.0689 -1.2258 -2.1435
12979TIP3    H260353   5.209   3.515  15.331 -0.2418 -0.4710 -1.4056
12980TIP3   OH260354   4.078   2.513  13.246  0.0312 -0.0531 -0.8371
12980TIP3    H160355   4.099   2.427  13.281 -0.0831  0.0241 -0.5704
12980TIP3    H260356   3.986   2.506  13.219 -0.3826  0.3580  0.3905
12981TIP3   OH260357   3.352   1.525  12.820  0.2732 -0.3126  0.1996
12981TIP3    H160358   3.347   1.433  12.843 -0.0796 -0.0600  1.1753
12981TIP3    H260359   3.406   1.527  12.741  0.7737 -1.2881  0.5039
12982TIP3   OH260360   5.615   5.534   3.804 -0.0043 -0.2273  0.1891
12982TIP3    H160361   5.605   5.599   3.735  0.2293  0.3005  0.6509
12982TIP3    H260362   5.629   5.585   3.883 -0.5172 -0.8256  0.6697
12983TIP3   OH260363   3.881   0.030  12.644 -0.0085  0.4296  0.1367
12983TIP3    H160364   3.801   0.020  12.592  0.7456 -1.7314 -0.7184
12983TIP3    H260365   3.850   0.043  12.734 -1.5226 -4.3875  0.5931
12984TIP3   OH260366   3.193   5.663   3.740  0.1078 -0.7269 -0.3862
12984TIP3    H160367   3.180   5.664   3.835  2.7436 -0.0512  0.0454
12984TIP3    H260368   3.144   5.586   3.710 -1.7371 -0.3021  1.3112
12985TIP3   OH260369   3.770   5.392  13.646  0.5507  0.3645 -0.2012
12985TIP3    H160370   3.803   5.309  13.681  0.8010  0.1429 -0.9419
12985TIP3    H260371   3.790   5.456  13.714  0.9120 -0.0800  0.1158
12986TIP3   OH260372   1.034   5.395  10.479 -0.2727 -0.1073  0.0165
12986TIP3    H160373   0.962   5.370  10.537  0.0049  1.5564  1.1489
12986TIP3    H260374   1.028   5.334  10.405 -3.5889  0.6744 -0.5256
12987TIP3   OH260375   6.356   0.305  13.837  0.3210 -0.4094  0.1845
12987TIP3    H160376   6.378   0.220  13.874  0.0058 -0.6844 -0.2537
12987TIP3    H260377   6.344   0.289  13.743 -2.1895 -0.3778  0.4445
12988TIP3   OH260378   4.972   2.811   4.746 -0.3867  0.0665 -0.0849
12988TIP3    H160379   4.999   2.775   4.661  1.2075  0.4250  0.2379
12988TIP3    H260380   4.957   2.733   4.800 -1.8776 -0.1769 -0.7988
12989TIP3   OH260381   0.494   2.972  11.218  0.2303 -0.2440  0.0181
12989TIP3    H160382   0.587   2.975  11.197  0.4523  0.7583  1.0163
12989TIP3    H260383   0.450   2.971  11.133  1.1266  0.6053 -0.4817
12990TIP3   OH260384   5.737   6.154  16.343  0.0190 -0.6057 -0.0180
12990TIP3    H160385   5.758   6.170  16.251  4.3808  2.7952  1.2144
12990TIP3    H260386   5.669   6.217  16.364  0.6561  0.2652 -0.4782
12991TIP3   OH260387   6.222   1.981  12.507  0.0664  0.3071 -0.3369
12991TIP3    H160388   6.237   2.007  12.598 -2.1644 -0.3745  0.3089
12991TIP3    H260389   6.298   1.929  12.484  1.4050  1.7429  0.5947
12992TIP3   OH260390   0.239   2.128   6.156  0.3496 -0.0506  0.5550
12992TIP3    H160391   0.330   2.113   6.182  1.3170  1.3592 -1.7357
12992TIP3    H260392   0.223   2.220   6.176 -1.2285 -0.6767  2.5349
12993TIP3   OH260393   2.177   3.149   1.692  0.0491  0.1286 -0.6658
12993TIP3    H160394   2.237   3.126   1.621  0.0554 -3.0547  0.2064
12993TIP3    H260395   2.233   3.151   1.770 -0.3721  1.0103 -0.3760
12994TIP3   OH260396   3.279   5.324   1.959  0.4058  0.1470  0.2882
12994TIP3    H160397   3.222   5.287   2.026 -0.6628  0.2316 -0.5468
12994TIP3    H260398   3.221   5.374   1.903  1.2724  0.0732 -0.7124
12995TIP3   OH260399   6.275   0.285  16.167  0.3351  0.0155  0.3203
12995TIP3    H160400   6.349   0.242  16.211  0.3476 -1.3460 -0.9359
12995TIP3    H260401   6.204   0.284  16.231 -0.6013 -4.5918 -0.4638
12996TIP3   OH260402   3.258   4.535   0.688  0.3001  0.0135 -0.3936
12996TIP3    H160403   3.188   4.471   0.701  0.7119 -0.4158 -0.2728
12996TIP3    H260404   3.336   4.483   0.671  0.4933  0.4942 -1.0592
12997TIP3   OH260405   6.253   5.245   3.687 -0.3807  0.2347 -0.1025
12997TIP3    H160406   6.312   5.179   3.650  0.9925  0.7469  1.0924
12997TIP3    H260407   6.282   5.255   3.778 -1.0920  1.8621 -0.0228
12998TIP3   OH260408   2.381   3.309   5.411  0.0679  0.1928 -0.7093
12998TIP3    H160409   2.450   3.369   5.381  0.9974 -1.5839 -2.4262
12998TIP3    H260410   2.411   3.280   5.497  0.3997  1.0130 -0.5377
12999TIP3   OH260411   3.287   5.808   3.304 -0.3500 -0.0191 -0.1973
12999TIP3    H160412   3.250   5.775   3.385 -0.2171  0.9226  0.2622
12999TIP3    H260413   3.316   5.897   3.325 -0.7000  0.4031 -1.3779
13000TIP3   OH260414   0.883   6.036  13.105  0.1853 -0.1266 -0.1082
13000TIP3    H160415   0.852   5.951  13.136 -1.1142  0.1049 -0.6886
13000TIP3    H260416   0.803   6.081  13.078  0.9729  0.8648 -0.8166
13001TIP3   OH260417   4.733   3.849   2.234  0.6420 -0.0794  0.3001
13001TIP3    H160418   4.825   3.841   2.260  1.1784  2.3665 -0.5145
13001TIP3    H260419   4.735   3.841   2.138  0.3387  1.6724  0.0977
13002TIP3   OH260420   5.406   6.735   3.715  0.0580  0.5019  0.4692
13002TIP3    H160421   5.393   6.773   3.628 -0.3634  1.5716  0.9897
13002TIP3    H260422   5.328   6.681   3.729  0.5877 -0.4854 -0.2058
13003TIP3   OH260423   3.300   2.565   5.785  0.1164 -0.3054  0.2633
13003TIP3    H160424   3.219   2.593   5.828  1.3115  0.5770  2.0544
13003TIP3    H260425   3.320   2.637   5.724 -0.5576 -0.6567 -0.3957
13004TIP3   OH260426   4.096   0.771  11.562  0.2074 -0.0149 -0.3594
13004TIP3    H160427   4.035   0.752  11.491 -1.3417 -0.1905  0.9446
13004TIP3    H260428   4.130   0.686  11.588 -1.6343 -0.3692  1.1098
13005TIP3   OH260429   2.479   5.622   3.739  0.5834 -0.2812 -0.0558
13005TIP3    H160430   2.552   5.636   3.799  1.3627 -0.0792 -1.0253
13005TIP3    H260431   2.506   5.664   3.657 -0.7933  0.1488 -0.3219
13006TIP3   OH260432   1.137   6.248  11.230  0.3174 -0.3687  0.0409
13006TIP3    H160433   1.146   6.160  11.194 -1.2133 -0.0181 -1.2921
13006TIP3    H260434   1.117   6.304  11.155 -0.9206  0.7530  1.1284
13007TIP3   OH260435   2.053   1.681   0.975  0.7035  0.1096  0.1906
13007TIP3    H160436   1.962   1.699   0.947  0.0990  1.8903  2.9060
13007TIP3    H260437   2.065   1.588   0.958 -1.3678 -0.0371 -0.9002
13008TIP3   OH260438   3.286   3.746   0.276  0.5336  0.1815 -0.3221
13008TIP3    H160439   3.351   3.798   0.324  0.9050 -1.2144  0.7353
13008TIP3    H260440   3.244   3.810   0.218  1.7145  1.4458  0.1348
13009TIP3   OH260441   6.783   3.318   4.773  0.6407 -0.2741  0.2013
13009TIP3    H160442   6.803   3.411   4.776 -0.4140 -0.0547  0.6269
13009TIP3    H260443   6.786   3.296   4.679 -4.4263  1.4343 -0.6222
13010TIP3   OH260444   5.476   5.543   0.258 -0.4410  0.2639 -0.0245
13010TIP3    H160445   5.506   5.475   0.317 -0.8294 -1.6301 -1.8937
13010TIP3    H260446   5.398   5.580   0.300  0.2460  0.1606  1.3914
13011TIP3   OH260447   4.147   3.561  12.134  0.1426  0.1018 -0.2196
13011TIP3    H160448   4.222   3.514  12.170  0.4036 -0.8430 -1.8861
13011TIP3    H260449   4.150   3.543  12.040 -0.8364  1.9646 -0.6593
13012TIP3   OH260450   2.819   4.742  17.003  0.1287 -0.0940 -0.2161
13012TIP3    H160451   2.774   4.817  17.043 -0.5751 -0.0693 -1.0218
13012TIP3    H260452   2.911   4.756  17.024  0.0491  1.1710 -0.5902
13013TIP3   OH260453   0.291   1.083  14.557 -0.8942 -0.1968  0.2223
13013TIP3    H160454   0.314   1.146  14.489 -1.7423 -0.8632 -0.7214
13013TIP3    H260455   0.294   1.133  14.638  1.2739  0.3452 -0.1332
13014TIP3   OH260456   3.524   6.204  11.725  0.5326  0.0438  0.4467
13014TIP3    H160457   3.494   6.155  11.648  0.1796 -0.3092  0.8098
13014TIP3    H260458   3.616   6.223  11.707 -0.4117  3.4525 -1.9288
13015TIP3   OH260459   1.308   6.469   4.839 -0.8556  0.1352 -0.1822
13015TIP3    H160460   1.306   6.405   4.910 -1.8300  1.5841  1.1384
13015TIP3    H260461   1.333   6.551   4.880  1.8760  0.4087 -2.0976
13016TIP3   OH260462   5.023   0.561   1.548  0.6913 -0.1772 -0.2001
13016TIP3    H160463   5.045   0.507   1.472 -0.6629  0.4039 -1.0617
13016TIP3    H260464   5.042   0.650   1.520 -2.9951  0.4607 -1.2799
13017TIP3   OH260465   2.112   5.975   0.766  0.1326 -0.4422  0.6610
13017TIP3    H160466   2.138   5.891   0.728  0.4968  0.0405 -0.1774
13017TIP3    H260467   2.153   5.977   0.853 -0.6146 -1.5044  1.0622
13018TIP3   OH260468   1.825   2.704   5.264  0.8432 -0.2421 -0.2231
13018TIP3    H160469   1.758   2.637   5.247 -2.6555  2.5904  1.0910
13018TIP3    H260470   1.824   2.758   5.185  1.6650 -0.1859 -0.1993
13019TIP3   OH260471   4.112   6.739  12.899  0.0928 -0.8745  0.4161
13019TIP3    H160472   4.078   6.828  12.905 -0.7882 -1.1475 -0.3435
13019TIP3    H260473   4.035   6.683  12.905  0.7414 -1.6381  1.9139
13020TIP3   OH260474   3.595   0.912   2.528 -0.0509  0.2628 -0.5393
13020TIP3    H160475   3.670   0.940   2.477  0.2370  2.6094  1.0020
13020TIP3    H260476   3.525   0.901   2.464  0.9720  0.4406 -1.7186
13021TIP3   OH260477   5.793   6.134   4.992  0.0873 -0.2734 -0.3638
13021TIP3    H160478   5.879   6.138   5.034 -0.8327 -1.1939  1.7538
13021TIP3    H260479   5.793   6.049   4.947  0.0505 -0.6070  0.2489
13022TIP3   OH260480   3.983   5.617   1.106  0.4579 -0.3467 -0.0886
13022TIP3    H160481   3.988   5.526   1.078 -2.3028 -1.3369  2.1926
13022TIP3    H260482   3.941   5.662   1.032  1.9659 -0.8295 -1.2875
13023TIP3   OH260483   0.344   2.467   2.725 -0.0572  0.1928 -0.1025
13023TIP3    H160484   0.275   2.522   2.762  0.8323  1.5068 -0.3173
13023TIP3    H260485   0.353   2.499   2.635  1.2282  0.4342  0.1071
13024TIP3   OH260486   5.464   0.814  15.914 -0.0091 -0.1522 -0.0139
13024TIP3    H160487   5.375   0.839  15.888  0.4181  0.3845 -0.9978
13024TIP3    H260488   5.461   0.816  16.010 -1.4320 -1.5131  0.0178
13025TIP3   OH260489   6.019   0.454   3.467 -0.8595  0.1060  0.0678
13025TIP3    H160490   5.996   0.414   3.551  1.1812 -1.8668 -0.2064
13025TIP3    H260491   6.068   0.533   3.491 -1.8776  0.5703  0.6761
13026TIP3   OH260492   2.306   6.614  15.073  0.0610 -0.1565 -0.3655
13026TIP3    H160493   2.270   6.702  15.081 -1.4129 -0.8673  1.4482
13026TIP3    H260494   2.397   6.623  15.102 -0.7385  0.4076  2.3048
13027TIP3   OH260495   2.096   2.278   2.157  0.2803  0.1218 -0.3969
13027TIP3    H160496   2.093   2.372   2.143  1.2602  0.0196 -1.3679
13027TIP3    H260497   2.108   2.240   2.070 -1.2843 -0.9844 -0.1879
13028TIP3   OH260498   2.303   3.572   3.704 -0.4740 -0.2865 -0.0019
13028TIP3    H160499   2.247   3.521   3.646 -0.2613  0.1954 -0.6393
13028TIP3    H260500   2.388   3.573   3.659 -0.9662  2.3334 -1.0529
13029TIP3   OH260501   5.004   1.345  13.866  0.3947  0.4430 -0.3554
13029TIP3    H160502   5.021   1.438  13.875  0.7022  0.2552  1.4151
13029TIP3    H260503   5.081   1.311  13.820 -0.3795  1.2344 -2.3532
13030TIP3   OH260504   2.225   5.468  15.292  0.2455  0.0004 -0.5285
13030TIP3    H160505   2.289   5.399  15.312 -0.5805 -0.5121  0.4886
13030TIP3    H260506   2.249   5.541  15.349  0.6713  0.2854 -1.0639
13031TIP3   OH260507   0.505   5.689   1.387 -0.1738 -0.0576  0.2700
13031TIP3    H160508   0.473   5.766   1.434  0.3780 -0.4852  1.3778
13031TIP3    H260509   0.444   5.619   1.409  0.6245 -0.4974  1.1528
13032TIP3   OH260510   3.032   5.387   0.971 -0.1678  0.3216  0.2877
13032TIP3    H160511   3.097   5.336   1.018  0.3596  1.1279  0.4542
13032TIP3    H260512   2.988   5.324   0.914  1.0905 -0.1349 -0.1958
13033TIP3   OH260513   4.918   5.923   6.426 -0.1603 -0.2480 -0.1298
13033TIP3    H160514   4.840   5.904   6.478  0.0382 -0.3819  0.1174
13033TIP3    H260515   4.937   6.015   6.443 -0.8265  0.0556 -0.9388
13034TIP3   OH260516   0.031   4.497   2.217 -0.2828  0.0516 -0.2596
13034TIP3    H160517  -0.028   4.432   2.257  1.0762 -1.0994 -0.0537
13034TIP3    H260518   0.040   4.565   2.284 -0.9323 -0.0223 -0.0859
13035TIP3   OH260519   4.821   3.215  16.686  0.4996 -0.0537  0.1022
13035TIP3    H160520   4.862   3.153  16.626  3.2285  1.8003 -0.1672
13035TIP3    H260521   4.798   3.163  16.763  0.4361 -1.8005 -1.0470
13036TIP3   OH260522   5.238   5.201   3.815 -0.1201  0.2288 -0.0069
13036TIP3    H160523   5.280   5.154   3.887 -2.2283  0.2720  1.3394
13036TIP3    H260524   5.235   5.138   3.744 -1.0226 -1.0296  1.0877
13037TIP3   OH260525   3.147   4.934   5.182 -0.1103  0.5055 -0.1797
13037TIP3    H160526   3.205   4.983   5.241 -0.4169  1.2340 -0.4732
13037TIP3    H260527   3.075   4.905   5.238  1.5098 -2.2569  0.6923
13038TIP3   OH260528   1.167   4.053  14.989  0.1697 -0.0633  0.1300
13038TIP3    H160529   1.098   4.007  14.941 -0.1378 -0.4285  0.9016
13038TIP3    H260530   1.213   3.984  15.037  1.2929  0.1341 -0.6269
13039TIP3   OH260531   1.423   0.152  12.128  0.0558 -0.2999 -1.0147
13039TIP3    H160532   1.380   0.237  12.113  0.5494  0.4790  1.4519
13039TIP3    H260533   1.514   0.174  12.146  0.2447 -1.3748 -0.5720
13040TIP3   OH260534   0.182   1.471  11.667  0.3754 -0.3533 -0.5266
13040TIP3    H160535   0.164   1.527  11.592  0.8297 -1.9520 -1.8846
13040TIP3    H260536   0.263   1.505  11.704  1.6807 -1.1692 -2.4661
13041TIP3   OH260537   0.756   0.116   5.236 -0.4135  0.2079 -0.6320
13041TIP3    H160538   0.828   0.080   5.185 -0.0047 -0.1549  0.1895
13041TIP3    H260539   0.781   0.103   5.327 -0.8220  1.4444 -0.3098
13042TIP3   OH260540   3.824   6.382   0.337  0.7119 -0.1256 -0.1476
13042TIP3    H160541   3.830   6.342   0.250 -0.9255  0.2610 -0.4808
13042TIP3    H260542   3.743   6.346   0.374  0.6165  0.8313  0.6194
13043TIP3   OH260543   5.303   1.726  12.161  0.3149 -0.3566  0.4458
13043TIP3    H160544   5.276   1.656  12.221  0.6832 -0.5782  0.3589
13043TIP3    H260545   5.398   1.728  12.169  0.2498  0.7615  1.1506
13044TIP3   OH260546   4.620   5.510   1.234  0.2910  0.2378  0.1578
13044TIP3    H160547   4.713   5.491   1.248  0.2258  0.7113  1.3061
13044TIP3    H260548   4.582   5.424   1.215  0.3820 -0.6070  3.1824
13045TIP3   OH260549   5.658   3.386   5.340 -0.2839 -0.0584 -0.1556
13045TIP3    H160550   5.708   3.355   5.416 -0.6202 -0.9065 -0.2733
13045TIP3    H260551   5.721   3.389   5.269 -0.5896 -2.2328 -0.5939
13046TIP3   OH260552   5.660   3.133  15.347 -0.1328 -0.2374  0.2097
13046TIP3    H160553   5.674   3.210  15.292  1.2086 -0.0528  0.7783
13046TIP3    H260554   5.701   3.061  15.299 -1.5123 -0.6521 -0.3912
13047TIP3   OH260555   0.840   4.094  11.336 -0.1075  0.0499  0.0633
13047TIP3    H160556   0.909   4.098  11.402 -1.6737 -1.3713  1.8911
13047TIP3    H260557   0.846   4.006  11.299  0.1876  0.5378 -1.1163
13048TIP3   OH260558   4.476   3.924  14.146 -0.1813  0.4513 -0.1312
13048TIP3    H160559   4.555   3.976  14.131 -0.3818  0.0371 -3.0487
13048TIP3    H260560   4.408   3.968  14.095 -0.9905 -1.1615 -0.5167
13049TIP3   OH260561   3.015   3.051  11.364  0.2878  0.1416 -0.4200
13049TIP3    H160562   2.976   3.137  11.378  0.0201 -0.2111  1.1465
13049TIP3    H260563   3.109   3.065  11.381  0.4305  0.3732 -1.3626
13050TIP3   OH260564   1.994   1.677   4.412 -0.4287  0.0833  0.9877
13050TIP3    H160565   2.037   1.751   4.368  0.8125  0.3401  2.5567
13050TIP3    H260566   2.039   1.600   4.376 -0.3506  0.2045  0.8187
13051TIP3   OH260567   5.303   4.028  17.148 -0.3417 -0.0382 -0.3106
13051TIP3    H160568   5.375   4.078  17.186  1.1540 -0.3310 -2.5071
13051TIP3    H260569   5.249   4.094  17.103 -0.6126  0.0144  0.0861
13052TIP3   OH260570   0.925   2.376  14.005 -0.1226 -0.5727 -0.4685
13052TIP3    H160571   0.978   2.319  14.062  1.1002 -0.1735 -1.1633
13052TIP3    H260572   0.842   2.386  14.052  0.8498 -0.2102  1.2690
13053TIP3   OH260573   6.041   5.551   0.523 -0.2021  0.3318 -0.0039
13053TIP3    H160574   6.032   5.578   0.432 -3.0750 -1.0797 -0.2595
13053TIP3    H260575   6.051   5.456   0.519 -0.5772  0.2255  1.1613
13054TIP3   OH260576   4.669   1.980   0.839 -0.2132  0.1895 -0.4297
13054TIP3    H160577   4.683   2.065   0.880  0.4226  0.8327 -1.9025
13054TIP3    H260578   4.737   1.924   0.876  0.9733  1.0232 -1.3013
13055TIP3   OH260579   6.623   6.278  13.453 -0.1011  0.1750 -0.7565
13055TIP3    H160580   6.641   6.251  13.363 -1.0361  0.8374 -1.1585
13055TIP3    H260581   6.527   6.280  13.459 -0.0689 -0.7769  0.5406
13056TIP3   OH260582   0.539   3.544   0.384  0.4347  0.1231  0.0004
13056TIP3    H160583   0.564   3.482   0.315  0.9601  0.5498 -0.2076
13056TIP3    H260584   0.623   3.579   0.415  0.1311  1.2096 -0.3504
13057TIP3   OH260585   3.033   2.720   5.369 -0.4598 -0.5108  0.0318
13057TIP3    H160586   3.001   2.804   5.335 -0.0114 -0.0460  0.7199
13057TIP3    H260587   2.991   2.654   5.314 -1.6024  0.1273  0.1001
13058TIP3   OH260588   4.370   6.352  11.750 -0.2438  0.7683  0.2437
13058TIP3    H160589   4.377   6.426  11.689  0.8032  1.2931  0.9736
13058TIP3    H260590   4.379   6.275  11.694  0.4113  1.2346 -0.3282
13059TIP3   OH260591   3.526   0.310   4.366 -0.0574 -0.2766  0.1494
13059TIP3    H160592   3.496   0.261   4.442 -1.7633  0.9687  0.3554
13059TIP3    H260593   3.542   0.244   4.299 -0.0680 -1.2678  1.1021
13060TIP3   OH260594   4.030   0.077   5.454  0.0716  0.0874 -0.7579
13060TIP3    H160595   3.948   0.027   5.465 -1.9009  3.4210  1.6964
13060TIP3    H260596   4.098   0.020   5.490 -1.6380 -1.6912 -0.1554
13061TIP3   OH260597   1.152   0.891   3.776  0.2753  0.0904 -0.2297
13061TIP3    H160598   1.243   0.920   3.784  0.3165  0.3753 -1.4674
13061TIP3    H260599   1.149   0.807   3.822  0.5920  1.1658  1.8561
13062TIP3   OH260600   4.413   5.028   4.597 -0.0650  0.2513  0.1696
13062TIP3    H160601   4.409   5.000   4.505 -1.4789 -2.1915  0.8662
13062TIP3    H260602   4.454   4.954   4.642 -0.0973  1.0800  1.6099
13063TIP3   OH260603   6.731   1.803   2.174 -0.0435  0.2417 -0.0016
13063TIP3    H160604   6.688   1.737   2.120  0.8728 -0.0627 -0.3730
13063TIP3    H260605   6.691   1.885   2.148 -1.0368 -0.1390  0.3016
13064TIP3   OH260606   5.481   4.330  14.717 -0.0256 -0.4564  0.4645
13064TIP3    H160607   5.400   4.382  14.721 -0.4523 -1.1436  0.9894
13064TIP3    H260608   5.492   4.297  14.806  0.5111 -0.8604  0.2488
13065TIP3   OH260609   1.006   1.052  11.033  0.1850 -0.0940 -0.3768
13065TIP3    H160610   1.062   1.119  11.069 -1.7920  2.5603 -1.8716
13065TIP3    H260611   1.029   1.048  10.940 -0.9552 -0.1095 -0.6805
13066TIP3   OH260612   1.845   4.449  13.809  0.4414 -0.4005 -0.0071
13066TIP3    H160613   1.876   4.383  13.746 -0.1328 -0.7341  0.0509
13066TIP3    H260614   1.761   4.479  13.773  0.8636  0.5682 -0.2185
13067TIP3   OH260615   3.211   5.693  11.848  0.1138  0.1467 -0.0762
13067TIP3    H160616   3.132   5.665  11.801  0.2791  0.3787 -0.4966
13067TIP3    H260617   3.274   5.623  11.833  0.0998  0.1235 -0.0258
13068TIP3   OH260618   6.419   3.695   5.229 -0.0377 -0.1716  1.0858
13068TIP3    H160619   6.404   3.628   5.295 -1.0165 -0.8667  0.1931
13068TIP3    H260620   6.440   3.646   5.149 -1.4134  0.5159  0.2554
13069TIP3   OH260621   2.630   3.017   2.489  0.6966 -0.4012 -0.6117
13069TIP3    H160622   2.568   2.988   2.422 -2.1951  1.8556  0.8958
13069TIP3    H260623   2.601   2.975   2.569  1.9386 -0.2834 -0.0745
13070TIP3   OH260624   2.022   1.227   6.093  0.2100  0.1509  0.4597
13070TIP3    H160625   2.066   1.172   6.028 -1.4378  1.1715 -1.6806
13070TIP3    H260626   1.970   1.166   6.145  0.6640 -0.5902  0.0559
13071TIP3   OH260627   6.695   4.400   3.515 -0.3699  0.1960  0.0784
13071TIP3    H160628   6.599   4.401   3.522 -0.4629  2.3591 -0.6790
13071TIP3    H260629   6.714   4.468   3.450  1.5678 -1.9472 -1.7734
13072TIP3   OH260630   4.029   5.330   6.081 -0.2073 -0.6086 -0.5121
13072TIP3    H160631   3.991   5.320   5.994  0.3648 -0.3742 -0.7929
13072TIP3    H260632   3.954   5.332   6.140 -0.6665  0.4939 -1.1141
13073TIP3   OH260633   3.376   2.666   3.046  0.2575  0.0284 -0.1466
13073TIP3    H160634   3.297   2.683   2.995  0.2491  0.3536 -0.0237
13073TIP3    H260635   3.415   2.589   3.003  0.5729  0.6590 -1.0289
13074TIP3   OH260636   0.924   1.619   0.069  0.7129 -0.3576 -0.5198
13074TIP3    H160637   0.934   1.662  -0.016  0.8357 -1.4893 -1.0978
13074TIP3    H260638   0.832   1.591   0.070  0.7689 -0.5334 -0.3723
13075TIP3   OH260639   1.088   1.939   5.834 -0.4673  0.0808  0.2392
13075TIP3    H160640   1.163   1.965   5.781 -0.8989  0.0143 -0.4191
13075TIP3    H260641   1.116   1.859   5.878  0.2534  0.6858  0.9227
13076TIP3   OH260642   5.040   0.840  16.341  0.2452 -0.3103 -0.4402
13076TIP3    H160643   5.021   0.927  16.377 -1.7602 -0.7183 -0.3951
13076TIP3    H260644   5.085   0.857  16.259  0.7520  0.7441  0.0339
13077TIP3   OH260645   1.132   0.329   0.523 -0.3130 -0.1054  0.3139
13077TIP3    H160646   1.099   0.409   0.482  1.7420  1.3482  1.2997
13077TIP3    H260647   1.121   0.345   0.617 -1.2322 -1.6665  0.5100
13078TIP3   OH260648   3.563   2.438   4.573  0.1096  0.0075  0.2635
13078TIP3    H160649   3.633   2.495   4.606 -0.1288  0.8365 -0.6134
13078TIP3    H260650   3.565   2.451   4.479 -0.1402 -1.2510  0.0710
13079TIP3   OH260651   2.730   0.790  13.011 -0.3994 -0.1502 -0.2281
13079TIP3    H160652   2.735   0.705  12.966  0.3799 -0.4684  0.4427
13079TIP3    H260653   2.819   0.806  13.042 -0.8579  0.2159  0.9302
13080TIP3   OH260654   6.144   2.447  16.847 -0.2061 -0.0124  0.1786
13080TIP3    H160655   6.075   2.382  16.832  0.6103 -1.1689  1.2148
13080TIP3    H260656   6.180   2.423  16.933  1.2542  0.7703 -0.1998
13081TIP3   OH260657   3.058   5.094   2.352  0.0976 -0.0175 -0.3976
13081TIP3    H160658   3.024   5.039   2.422 -0.2230 -1.5234 -1.6721
13081TIP3    H260659   3.125   5.148   2.394  0.1096 -1.0669  1.0070
13082TIP3   OH260660   5.539   1.075  14.435 -0.2923 -0.9155 -0.3987
13082TIP3    H160661   5.625   1.094  14.471  0.5751 -0.4728 -2.5339
13082TIP3    H260662   5.536   0.979  14.428  0.3002 -0.9033 -0.8980
13083TIP3   OH260663   0.865   2.330  13.114  0.1537 -0.0198  0.4638
13083TIP3    H160664   0.940   2.308  13.169  3.9448  1.9746 -3.2912
13083TIP3    H260665   0.858   2.257  13.052 -0.8529 -0.0681  0.6199
13084TIP3   OH260666   4.563   6.269  12.150 -0.1028 -0.0266 -0.0218
13084TIP3    H160667   4.523   6.223  12.224 -0.7427  0.9461  0.2625
13084TIP3    H260668   4.575   6.358  12.181 -2.7569  1.1006 -1.8710
13085TIP3   OH260669   3.037   3.735   5.624  0.2344 -0.6792  0.2300
13085TIP3    H160670   3.067   3.672   5.558  0.1283  0.8787 -1.4047
13085TIP3    H260671   2.945   3.750   5.602 -0.2047 -1.1594  1.6334
13086TIP3   OH260672   6.733   4.782  16.549 -0.1831  0.0131  0.4526
13086TIP3    H160673   6.644   4.810  16.526 -0.5591 -1.3650  0.1225
13086TIP3    H260674   6.790   4.831  16.490 -0.6716  1.2783  0.9938
13087TIP3   OH260675   0.535   5.286   2.123 -0.0953 -0.7611  0.0674
13087TIP3    H160676   0.581   5.204   2.107  2.1238  0.8113 -2.5374
13087TIP3    H260677   0.590   5.334   2.184 -1.9078 -1.4718  2.4300
13088TIP3   OH260678   2.214   4.989  14.533 -0.4768 -0.3214 -0.1636
13088TIP3    H160679   2.136   4.934  14.535 -0.1864 -0.7476 -0.4782
13088TIP3    H260680   2.278   4.943  14.588  0.6330 -1.6479 -2.4342
13089TIP3   OH260681   2.143   3.736   5.157 -0.0250 -0.2596 -0.4295
13089TIP3    H160682   2.172   3.647   5.135 -1.9486 -1.2299  0.6149
13089TIP3    H260683   2.127   3.778   5.072 -0.8683 -1.5713 -0.9488
13090TIP3   OH260684   1.441   4.076   3.999  0.0212 -0.1524 -0.5589
13090TIP3    H160685   1.499   4.099   4.071 -1.0731 -0.1994  0.3634
13090TIP3    H260686   1.486   4.107   3.921  0.2745  1.8174  0.3276
13091TIP3   OH260687   3.567   2.769  15.118  0.2076 -0.0771  0.1258
13091TIP3    H160688   3.503   2.734  15.180 -0.6774  0.6597 -0.3640
13091TIP3    H260689   3.649   2.770  15.168 -0.2537 -0.5218  0.9311
13092TIP3   OH260690   5.472   6.245  13.238  0.0765 -0.1017 -0.2042
13092TIP3    H160691   5.534   6.285  13.176  0.4084  1.3571  1.0104
13092TIP3    H260692   5.519   6.169  13.272 -0.1611 -1.0171 -1.7970
13093TIP3   OH260693   4.233   5.711  14.080 -0.1685  0.2131 -0.2699
13093TIP3    H160694   4.212   5.692  14.171  1.6851 -2.0012 -0.2381
13093TIP3    H260695   4.303   5.776  14.084 -1.2236  1.3876 -0.2049
13094TIP3   OH260696   5.051   2.522  12.643 -1.0821  0.5058  0.3840
13094TIP3    H160697   4.964   2.555  12.617 -2.0550 -1.2744  1.2112
13094TIP3    H260698   5.068   2.564  12.727 -0.7314  1.5069 -0.1687
13095TIP3   OH260699   3.300   4.544   5.820  0.1297  0.3993 -0.0473
13095TIP3    H160700   3.267   4.480   5.884 -0.8096  1.4521  0.5574
13095TIP3    H260701   3.313   4.493   5.740  1.2293 -0.9296  0.9359
13096TIP3   OH260702   3.994   0.070  16.898 -0.1868 -0.1466  0.6687
13096TIP3    H160703   3.942   0.122  16.837 -0.5494  0.8752  1.8087
13096TIP3    H260704   3.952  -0.015  16.900 -1.6997  0.5842  1.3766
13097TIP3   OH260705   0.678   1.998   0.323  0.2727  0.2074  0.3622
13097TIP3    H160706   0.635   2.081   0.342  0.6054  0.7198 -0.9828
13097TIP3    H260707   0.731   2.016   0.245 -0.8942 -1.6742 -0.9546
13098TIP3   OH260708   1.920   2.022  12.560  0.1289  0.5535  0.0288
13098TIP3    H160709   1.962   2.063  12.636  0.2931  0.3129  0.0692
13098TIP3    H260710   1.886   1.939  12.593  0.7314  0.1690 -0.2934
13099TIP3   OH260711   0.999   0.697   0.705 -0.1758 -0.3592  0.1577
13099TIP3    H160712   0.944   0.759   0.753  0.9139  0.6225  0.1725
13099TIP3    H260713   1.083   0.699   0.751  1.4151  1.7378 -2.5902
13100TIP3   OH260714   3.921   2.384  10.396  0.4906  0.0764  0.4428
13100TIP3    H160715   3.844   2.332  10.373  0.0580  1.0396 -0.3884
13100TIP3    H260716   3.887   2.456  10.448  0.5337  1.4913 -1.3887
13101TIP3   OH260717   0.822   4.423  14.943 -0.5467 -0.3772 -0.1228
13101TIP3    H160718   0.754   4.357  14.952 -1.0949  0.2274  0.2756
13101TIP3    H260719   0.880   4.409  15.017 -0.5885 -0.4927 -0.1122
13102TIP3   OH260720   6.354   4.622  14.844  0.2341 -0.5320 -0.0410
13102TIP3    H160721   6.431   4.587  14.888  0.2434 -0.3534  0.0840
13102TIP3    H260722   6.388   4.689  14.785  0.1945 -0.5781 -0.1160
13103TIP3   OH260723   2.618   3.330  11.803 -0.3937  0.2296  0.1491
13103TIP3    H160724   2.562   3.349  11.727 -1.0670 -0.6837  0.3921
13103TIP3    H260725   2.567   3.268  11.854 -0.1185  1.1341  1.5613
13104TIP3   OH260726   6.644   5.227  13.399  0.1820 -0.1300  0.5029
13104TIP3    H160727   6.634   5.313  13.441  0.4772 -0.1264  0.5680
13104TIP3    H260728   6.582   5.230  13.325  1.9430  1.1107 -1.0288
13105TIP3   OH260729   3.943   4.051   6.457 -0.4193 -0.3805  0.4455
13105TIP3    H160730   4.016   4.098   6.417 -0.1509 -2.1120 -1.2253
13105TIP3    H260731   3.950   4.071   6.551 -0.5646  3.1324 -0.1405
13106TIP3   OH260732   4.419   1.955   4.133  0.2868  0.2734 -0.6039
13106TIP3    H160733   4.510   1.927   4.121  0.5142 -1.2705  3.3758
13106TIP3    H260734   4.376   1.930   4.051  3.2619  0.6126 -2.4335
13107TIP3   OH260735   5.302   4.392   1.660  0.3454 -0.0407 -0.1318
13107TIP3    H160736   5.372   4.400   1.595  1.1859  0.7510  0.8363
13107TIP3    H260737   5.270   4.481   1.673 -0.4678 -0.3243 -0.1576
13108TIP3   OH260738   5.023   6.724  15.360 -0.3311  0.1331  0.2482
13108TIP3    H160739   5.066   6.641  15.341 -0.0823  0.5878 -1.3952
13108TIP3    H260740   4.991   6.716  15.450  0.4208 -1.4044  0.3984
13109TIP3   OH260741   1.237   5.492  13.612 -0.1743  0.0632  0.7266
13109TIP3    H160742   1.193   5.407  13.615  2.1727 -1.2462  1.2345
13109TIP3    H260743   1.188   5.546  13.674 -1.1846 -1.2030  1.0893
13110TIP3   OH260744   2.921   1.053   5.345 -0.1199 -0.0807 -0.0144
13110TIP3    H160745   2.835   1.015   5.366 -0.2517  0.0137 -0.3801
13110TIP3    H260746   2.922   1.057   5.250  0.2986 -0.0907 -0.0097
13111TIP3   OH260747   2.246   4.866   2.660 -0.2044 -0.0582 -0.3153
13111TIP3    H160748   2.173   4.814   2.627 -0.0137  1.0607 -2.6969
13111TIP3    H260749   2.318   4.847   2.600  1.2878 -0.5254  1.5095
13112TIP3   OH260750   5.538   2.082  13.664  0.5294  0.2101 -0.1635
13112TIP3    H160751   5.623   2.085  13.621  0.3010 -1.7645 -0.8357
13112TIP3    H260752   5.528   1.991  13.692 -0.5697  0.8045  1.5775
13113TIP3   OH260753   6.680   4.805  16.096 -0.1800 -0.3091 -1.3317
13113TIP3    H160754   6.726   4.752  16.032 -0.1135 -0.7064 -0.9586
13113TIP3    H260755   6.740   4.877  16.116  1.6092 -2.3673  1.3446
13114TIP3   OH260756   0.744   4.050   3.467  0.0575 -0.3945  0.1272
13114TIP3    H160757   0.733   3.972   3.522 -0.3632 -0.7970 -0.5231
13114TIP3    H260758   0.838   4.070   3.474  0.1075 -0.7524  0.5683
13115TIP3   OH260759   5.537   1.511   3.716  0.1569  0.0568  0.3445
13115TIP3    H160760   5.553   1.547   3.804 -0.0834 -0.2150  0.4983
13115TIP3    H260761   5.448   1.477   3.719 -0.0447  0.5264 -0.1719
13116TIP3   OH260762   2.297   1.371  13.437 -0.1097  0.4420 -0.5019
13116TIP3    H160763   2.273   1.361  13.529  1.1492 -0.6055 -0.2590
13116TIP3    H260764   2.285   1.284  13.399 -3.1526  1.4118 -2.0254
13117TIP3   OH260765   0.105   4.675  13.172  0.2658 -0.1836 -0.1918
13117TIP3    H160766   0.144   4.750  13.216  0.0177 -0.6505  0.8648
13117TIP3    H260767   0.031   4.712  13.123 -0.3868  0.1668  1.0107
13118TIP3   OH260768   1.282   4.820  12.540  0.2318 -0.4842 -0.6007
13118TIP3    H160769   1.343   4.748  12.552  0.1846 -0.6668 -1.3919
13118TIP3    H260770   1.196   4.779  12.531  0.1965 -0.3330 -0.9952
13119TIP3   OH260771   4.891   2.087  15.893 -0.6873 -0.6024  0.3032
13119TIP3    H160772   4.853   2.032  15.962 -1.6739 -1.8476 -1.1555
13119TIP3    H260773   4.816   2.135  15.858  0.0280  1.0574  0.9658
13120TIP3   OH260774   4.017   0.104   3.791  0.0219 -0.3962 -0.6360
13120TIP3    H160775   3.968   0.088   3.711  0.3405  0.6639 -1.0628
13120TIP3    H260776   4.107   0.118   3.762  0.2581 -0.6042 -0.0285
13121TIP3   OH260777   5.537   4.799   2.648  0.0285  0.0884 -0.1311
13121TIP3    H160778   5.452   4.841   2.639  0.1258 -0.0715 -2.5477
13121TIP3    H260779   5.524   4.711   2.612  0.9848 -0.2872  0.4006
13122TIP3   OH260780   4.767   4.336   2.511  0.2613 -0.0550 -0.1793
13122TIP3    H160781   4.716   4.255   2.510 -0.2304  0.1951  1.2177
13122TIP3    H260782   4.703   4.404   2.532  0.4582  0.9014 -2.4520
13123TIP3   OH260783   4.916   1.718  11.179  0.0708  0.0031  0.2837
13123TIP3    H160784   5.000   1.742  11.141 -0.0411  1.3068  0.8079
13123TIP3    H260785   4.876   1.659  11.114  1.2139 -0.3433 -0.1294
13124TIP3   OH260786   0.222   5.643  12.248 -0.2301 -0.4716 -0.4228
13124TIP3    H160787   0.162   5.710  12.280  1.3189  0.6380  0.2823
13124TIP3    H260788   0.250   5.674  12.162  1.5186  0.5442  0.4587
13125TIP3   OH260789   2.325   6.072  14.987  0.5001 -0.0376  0.3914
13125TIP3    H160790   2.306   6.073  15.081  0.8108 -0.4620  0.4609
13125TIP3    H260791   2.419   6.089  14.982  0.8009 -1.6644  0.2503
13126TIP3   OH260792   2.702   0.154  15.690  0.0518  0.0359  0.0375
13126TIP3    H160793   2.682   0.095  15.616  1.1899 -0.9644  0.4839
13126TIP3    H260794   2.790   0.127  15.718  0.8687  2.3557 -0.0935
13127TIP3   OH260795   0.411   2.060  14.815  0.3480  0.0127 -0.0448
13127TIP3    H160796   0.503   2.045  14.835  0.0711  0.0852  1.4039
13127TIP3    H260797   0.400   2.155  14.820  0.2690  0.0367 -0.6007
13128TIP3   OH260798   2.620   3.674  15.417 -0.1222 -0.0133 -0.5163
13128TIP3    H160799   2.623   3.673  15.321  0.5622 -1.6749 -0.5166
13128TIP3    H260800   2.693   3.618  15.443  0.0618  0.8901  1.0088
13129TIP3   OH260801   1.355   6.727   1.245 -0.7703  0.4751  0.1189
13129TIP3    H160802   1.284   6.731   1.182  1.4635 -3.6609 -3.1786
13129TIP3    H260803   1.426   6.778   1.204 -0.3145  0.5449  0.9713
13130TIP3   OH260804   1.291   1.474   3.127 -0.8640  0.1732  0.2194
13130TIP3    H160805   1.341   1.519   3.059 -0.4282  0.7580  0.9183
13130TIP3    H260806   1.331   1.387   3.132 -0.2324  0.4702  0.4238
13131TIP3   OH260807   0.717   0.354  15.627 -0.0636  0.3952  0.3189
13131TIP3    H160808   0.751   0.442  15.642 -0.1540  0.6387 -0.8373
13131TIP3    H260809   0.742   0.333  15.537 -0.8911 -0.3739  0.2539
13132TIP3   OH260810   4.704   0.489   4.804  0.1105  0.0847 -0.4587
13132TIP3    H160811   4.737   0.579   4.811 -0.9343  0.4375  0.3745
13132TIP3    H260812   4.701   0.472   4.710  0.4325  0.8936 -0.6289
13133TIP3   OH260813   2.446   5.674  12.501 -0.4088 -0.2140  0.0412
13133TIP3    H160814   2.485   5.709  12.420  1.1610  3.1170  2.0041
13133TIP3    H260815   2.363   5.721  12.510 -0.6119 -0.6235  0.3189
13134TIP3   OH260816   0.594   2.688  13.967  0.1117 -0.0388  0.3979
13134TIP3    H160817   0.687   2.685  13.945  0.0921  0.2044  0.2799
13134TIP3    H260818   0.589   2.750  14.040 -0.1556  1.1884 -0.6225
13135TIP3   OH260819   5.953   1.459  10.705  0.1628 -1.1134 -0.6369
13135TIP3    H160820   6.031   1.421  10.665  0.2407 -1.5028 -0.1288
13135TIP3    H260821   5.909   1.384  10.746  0.1578 -0.6985  0.1179
13136TIP3   OH260822   0.467   4.421   3.312  0.1774  0.1502  0.4687
13136TIP3    H160823   0.512   4.369   3.379 -0.0715 -0.2633  0.3163
13136TIP3    H260824   0.510   4.397   3.230 -0.2915 -0.2136  0.3293
13137TIP3   OH260825   0.353   2.611  12.882  0.0599 -0.2627  0.5039
13137TIP3    H160826   0.375   2.690  12.832  2.3643 -0.2187  1.4575
13137TIP3    H260827   0.281   2.637  12.939  0.7379  1.1472  0.7470
13138TIP3   OH260828   5.469   5.657  14.473 -0.3460  0.9410 -0.3438
13138TIP3    H160829   5.526   5.582  14.493 -1.4101  0.1547 -0.1522
13138TIP3    H260830   5.512   5.731  14.516  0.7810  0.4697 -0.6072
13139TIP3   OH260831   2.810   0.590   3.833 -0.0199 -0.5753  0.5813
13139TIP3    H160832   2.740   0.591   3.767 -0.9929 -1.0309  1.5934
13139TIP3    H260833   2.871   0.523   3.802 -1.1514 -1.7506  0.8229
13140TIP3   OH260834   1.198   1.863  11.289 -0.9717  0.4936 -0.5523
13140TIP3    H160835   1.221   1.910  11.209 -1.0843  0.7755 -0.4183
13140TIP3    H260836   1.168   1.930  11.349 -0.5194  0.3319 -0.1338
13141TIP3   OH260837   5.990   0.654  12.820 -0.7988  0.4094 -0.0031
13141TIP3    H160838   5.917   0.672  12.761 -0.6912  2.7550  0.4916
13141TIP3    H260839   6.068   0.673  12.768 -0.5213 -1.2177 -0.2444
13142TIP3   OH260840   4.347   5.239  16.162  0.0448 -0.4135  0.1965
13142TIP3    H160841   4.394   5.181  16.222 -0.2058  0.2523  1.0569
13142TIP3    H260842   4.407   5.312  16.147 -0.7187  0.5026  1.4010
13143TIP3   OH260843   5.864   5.793   4.483 -0.0976  0.0812  0.1937
13143TIP3    H160844   5.854   5.861   4.417  1.3227  0.4592  0.3205
13143TIP3    H260845   5.880   5.713   4.434  1.7218  0.4970  0.0395
13144TIP3   OH260846   4.909   0.010   5.887  0.2472 -0.6815  0.3761
13144TIP3    H160847   4.911  -0.035   5.971  2.4587 -1.0242  0.2008
13144TIP3    H260848   4.989  -0.018   5.843  0.0624  0.9201 -1.0813
13145TIP3   OH260849   1.055   3.781  15.263 -0.3745 -0.0760  0.1636
13145TIP3    H160850   0.976   3.732  15.238 -0.0868 -0.9482  0.8770
13145TIP3    H260851   1.127   3.726  15.233 -0.0451  0.0027  0.7823
13146TIP3   OH260852   3.988   0.156   2.614  0.5386 -0.1585  0.7112
13146TIP3    H160853   3.894   0.139   2.621  0.8191 -1.6703  1.2923
13146TIP3    H260854   4.008   0.138   2.522  0.5167 -1.5347  0.9410
13147TIP3   OH260855   1.823   3.473  16.949  0.0886  0.2080  0.0546
13147TIP3    H160856   1.848   3.526  16.873  0.5381  0.1233  0.1380
13147TIP3    H260857   1.846   3.527  17.025  1.7881 -0.5944  0.1716
13148TIP3   OH260858   3.419   6.707   0.351 -0.1177  0.0108 -0.3107
13148TIP3    H160859   3.427   6.767   0.425 -0.6129 -0.1230 -0.1472
13148TIP3    H260860   3.328   6.677   0.354  0.1050 -0.6786 -0.4437
13149TIP3   OH260861   1.815   1.489   0.268  0.0682  0.2806 -0.5527
13149TIP3    H160862   1.726   1.500   0.233  0.4397 -1.7261 -2.2578
13149TIP3    H260863   1.858   1.430   0.207  1.8395 -0.7327  1.5655
13150TIP3   OH260864   5.058   1.150  14.703 -0.4421 -0.6067  0.5405
13150TIP3    H160865   5.053   1.055  14.706 -1.2648 -0.7257 -2.1656
13150TIP3    H260866   4.974   1.178  14.668 -0.0788  1.0889  0.9295
13151TIP3   OH260867   0.517   4.604  13.772 -0.5116  0.1112 -0.1484
13151TIP3    H160868   0.431   4.587  13.734 -0.8163  2.1443 -0.4904
13151TIP3    H260869   0.529   4.699  13.761  2.5945 -0.3477 -1.9070
13152TIP3   OH260870   3.621   3.578  14.997 -0.1662  0.0607  0.2020
13152TIP3    H160871   3.526   3.573  15.006 -0.0995 -0.5073  0.6878
13152TIP3    H260872   3.640   3.533  14.914 -0.2682 -0.5293  0.4894
13153TIP3   OH260873   4.313   1.411  15.389  0.4755 -0.1991 -0.6921
13153TIP3    H160874   4.314   1.356  15.467  0.0002 -0.1666 -0.6578
13153TIP3    H260875   4.239   1.471  15.403  0.9342  0.3877 -0.7685
13154TIP3   OH260876   3.077   0.666  11.871 -0.3300  0.0132 -0.0324
13154TIP3    H160877   3.156   0.674  11.923 -0.6118 -0.6144  0.5045
13154TIP3    H260878   3.033   0.750  11.881  0.6865  0.6934 -1.0520
13155TIP3   OH260879   3.961   0.671   1.570 -0.3498 -0.4825  0.0010
13155TIP3    H160880   3.994   0.687   1.482 -0.0715  1.0655  0.3715
13155TIP3    H260881   3.909   0.590   1.561  2.7403 -2.5615 -0.7711
13156TIP3   OH260882   4.855   1.130  13.698  0.1404 -0.0191  0.0015
13156TIP3    H160883   4.912   1.193  13.743  0.1655  0.6019 -0.8689
13156TIP3    H260884   4.899   1.046  13.710  0.5521  0.2520  0.4663
13157TIP3   OH260885   0.592   2.614  15.660 -0.4442 -0.4897 -0.2415
13157TIP3    H160886   0.570   2.681  15.596  0.1073  0.1785  0.2493
13157TIP3    H260887   0.593   2.532  15.611  0.8253  0.1185 -1.2765
13158TIP3   OH260888   2.494   1.314   2.598 -0.0153  0.7455  0.3632
13158TIP3    H160889   2.577   1.307   2.645  0.1861  0.9493  0.0392
13158TIP3    H260890   2.459   1.225   2.598  0.0908  0.7039  0.7055
13159TIP3   OH260891   5.298   2.499  16.715 -0.4320 -0.1146 -0.4763
13159TIP3    H160892   5.246   2.566  16.670  0.5628 -0.0433 -1.5936
13159TIP3    H260893   5.389   2.529  16.704 -0.1316 -0.2670  1.3634
13160TIP3   OH260894   0.527   6.406  16.873 -0.5709 -0.2640  0.6003
13160TIP3    H160895   0.455   6.427  16.933 -0.2047 -0.3806  1.0887
13160TIP3    H260896   0.605   6.442  16.915  0.0421 -2.3410  1.3535
13161TIP3   OH260897   6.280   5.150   2.547  0.5105 -0.6504  0.5151
13161TIP3    H160898   6.317   5.153   2.636  3.0850  0.2310 -0.4770
13161TIP3    H260899   6.198   5.199   2.553 -0.4506 -2.3907  2.8135
13162TIP3   OH260900   2.957   0.773   1.884 -0.0515 -0.0592  0.5579
13162TIP3    H160901   2.876   0.799   1.929  0.4565  0.6874  1.0473
13162TIP3    H260902   2.931   0.695   1.833 -1.3226  0.7198 -0.0470
13163TIP3   OH260903   6.066   1.663  13.066  0.1940 -0.2444  0.1375
13163TIP3    H160904   6.121   1.726  13.112 -0.0046  0.3298 -0.4025
13163TIP3    H260905   6.074   1.582  13.117 -0.6013  0.5610  1.6129
13164TIP3   OH260906   6.652   1.564   0.370  0.7061  0.2989 -0.1322
13164TIP3    H160907   6.618   1.633   0.427  0.0808 -0.2001  0.1057
13164TIP3    H260908   6.574   1.519   0.338  1.0807  0.1472 -0.8521
13165TIP3   OH260909   6.674   0.427  10.302  0.3405 -0.0056  0.1854
13165TIP3    H160910   6.673   0.445  10.396 -3.5403 -1.3172  0.5890
13165TIP3    H260911   6.618   0.495  10.265  0.1444 -0.7025 -0.8365
13166TIP3   OH260912   0.307   4.853  10.573 -0.6370  0.1055  0.6897
13166TIP3    H160913   0.395   4.816  10.571 -0.7175 -0.1442  1.2956
13166TIP3    H260914   0.270   4.821  10.656 -2.3716 -2.2795 -0.8831
13167TIP3   OH260915   1.237   2.007  13.202  0.1157 -0.0705  0.0583
13167TIP3    H160916   1.307   2.049  13.153  0.6914 -0.5527  0.4537
13167TIP3    H260917   1.187   1.959  13.136 -2.4076  3.5076 -0.9716
13168TIP3   OH260918   4.046   4.528  13.565 -0.0127  0.1931 -0.0058
13168TIP3    H160919   4.052   4.433  13.560 -2.4251 -0.0669  0.8110
13168TIP3    H260920   4.117   4.554  13.623  1.0485 -1.0181 -0.7144
13169TIP3   OH260921   4.805   3.528   6.291  0.3079 -0.9475  0.0405
13169TIP3    H160922   4.796   3.455   6.230  1.1100 -0.9556 -0.0816
13169TIP3    H260923   4.899   3.538   6.302  0.2219  0.3043 -0.2276
13170TIP3   OH260924   6.598   6.583  13.779 -0.1675 -0.0400 -0.4679
13170TIP3    H160925   6.518   6.624  13.746  0.1448  1.4996  0.5908
13170TIP3    H260926   6.668   6.618  13.723  0.1493  1.2328  0.6849
13171TIP3   OH260927   0.799   5.124  11.036  0.4635  0.7005  0.0234
13171TIP3    H160928   0.775   5.217  11.027 -1.0917  0.2249 -1.2864
13171TIP3    H260929   0.800   5.109  11.130  1.3783  2.1905  0.2824
13172TIP3   OH260930   3.186   2.007   5.192 -0.6368 -0.0474 -0.2229
13172TIP3    H160931   3.148   2.051   5.116 -0.3843 -2.3797 -1.8116
13172TIP3    H260932   3.277   2.034   5.193 -0.7426  0.3211 -0.4838
13173TIP3   OH260933   0.250   2.484   1.657  0.1100  0.2226  0.1900
13173TIP3    H160934   0.246   2.572   1.618  0.2394 -0.7952 -2.3111
13173TIP3    H260935   0.340   2.477   1.690 -0.2054  1.3669  1.3829
13174TIP3   OH260936   0.817   2.447   3.642  0.2084 -0.1081 -0.1780
13174TIP3    H160937   0.800   2.522   3.700 -0.4923 -0.2599 -0.1874
13174TIP3    H260938   0.811   2.371   3.699 -1.7013 -0.3561 -0.6679
13175TIP3   OH260939   2.961   2.390   1.862 -0.1007  0.2105 -0.0800
13175TIP3    H160940   2.959   2.460   1.928 -1.4262  0.2602 -0.1529
13175TIP3    H260941   3.043   2.405   1.815  1.6065 -0.6645  2.4133
13176TIP3   OH260942   0.850   3.473   2.551 -0.2123 -0.1132 -0.1283
13176TIP3    H160943   0.901   3.413   2.606  0.7659 -0.1995 -1.0847
13176TIP3    H260944   0.791   3.416   2.503  1.1952 -0.4455 -1.5515
13177TIP3   OH260945   2.912   3.580   1.626  0.3757 -0.7196 -0.1716
13177TIP3    H160946   2.888   3.531   1.704 -0.4635  1.3690  0.9633
13177TIP3    H260947   2.829   3.606   1.587  0.7939  0.0073 -0.6006
13178TIP3   OH260948   5.779   6.213  13.198  0.2775  0.0982 -0.1434
13178TIP3    H160949   5.821   6.247  13.118  0.6220  1.0138  0.4090
13178TIP3    H260950   5.786   6.118  13.190  2.1070  0.2060 -0.2744
13179TIP3   OH260951   5.624   6.573  12.075 -0.6577 -0.0502  0.2661
13179TIP3    H160952   5.633   6.482  12.103 -0.2772 -0.0807  0.0588
13179TIP3    H260953   5.649   6.624  12.152  0.8284 -0.1347 -0.1196
13180TIP3   OH260954   1.474   0.488   2.857  0.5509 -0.0324  0.2978
13180TIP3    H160955   1.521   0.485   2.940  1.7247  0.8952 -0.2951
13180TIP3    H260956   1.527   0.545   2.801 -1.3014  1.0952 -0.4164
13181TIP3   OH260957   1.751   5.126   2.448  0.1419 -0.1974 -0.4152
13181TIP3    H160958   1.680   5.181   2.482  0.2977  0.8370 -1.7083
13181TIP3    H260959   1.708   5.065   2.389  0.2709  0.2520 -0.9876
13182TIP3   OH260960   2.807   3.810  10.696 -0.2374  0.1442  0.3027
13182TIP3    H160961   2.714   3.789  10.710 -0.3278 -0.6639 -1.3180
13182TIP3    H260962   2.806   3.900  10.663 -0.3407  0.5424  1.3633
13183TIP3   OH260963   6.226   3.328  16.594 -0.1497 -0.3465  0.4280
13183TIP3    H160964   6.322   3.333  16.595 -0.0817 -1.2117 -0.5982
13183TIP3    H260965   6.203   3.325  16.501 -1.1320 -0.9396  0.6793
13184TIP3   OH260966   3.861   1.128   3.515  0.3587  0.0450  0.5097
13184TIP3    H160967   3.868   1.056   3.578 -2.2612  0.4478  1.4224
13184TIP3    H260968   3.878   1.088   3.430 -0.6635 -1.6095  1.0314
13185TIP3   OH260969   1.765   1.073  15.791 -0.2004  0.3255 -0.0143
13185TIP3    H160970   1.730   1.095  15.705 -2.4539 -0.4254  0.6506
13185TIP3    H260971   1.733   1.142  15.849 -0.7098 -0.4240  0.6280
13186TIP3   OH260972   5.248   2.600  10.767  0.2561  0.1412  0.3620
13186TIP3    H160973   5.275   2.649  10.689  0.7113  1.1288  1.1146
13186TIP3    H260974   5.290   2.646  10.839 -3.4205  1.8479  1.6672
13187TIP3   OH260975   3.237   2.273  11.079  0.2739  0.6057  0.4550
13187TIP3    H160976   3.245   2.270  10.984 -1.5123  1.0521  0.2558
13187TIP3    H260977   3.220   2.182  11.105 -1.3060  0.7829  0.1064
13188TIP3   OH260978   6.355   2.425   1.954 -0.0326 -0.2327 -0.5916
13188TIP3    H160979   6.403   2.350   1.921  0.8332  0.2797 -0.5084
13188TIP3    H260980   6.295   2.449   1.883  0.3823 -0.3926 -0.9947
13189TIP3   OH260981   5.925   6.704  16.952  0.4697  0.1005  0.2994
13189TIP3    H160982   6.013   6.667  16.958 -0.1048 -1.0768  2.1102
13189TIP3    H260983   5.867   6.630  16.967 -0.8213  1.0383  0.0553
13190TIP3   OH260984   3.948   2.447  12.907  0.0648 -0.7602 -0.3751
13190TIP3    H160985   3.932   2.408  12.993 -0.0721 -0.4506 -0.2595
13190TIP3    H260986   3.913   2.384  12.845 -4.5433  1.1624 -0.0992
13191TIP3   OH260987   4.740   5.758  11.209  0.0463 -0.1224 -0.1133
13191TIP3    H160988   4.646   5.753  11.227 -0.1832  0.6259 -1.0107
13191TIP3    H260989   4.746   5.777  11.115  1.0477  0.9044  0.1246
13192TIP3   OH260990   0.717   5.338  16.285  0.4648  0.6656  0.4038
13192TIP3    H160991   0.635   5.299  16.316 -0.8421  3.1979  0.3498
13192TIP3    H260992   0.731   5.298  16.199  0.1095 -0.8784  1.0284
13193TIP3   OH260993   1.886   5.177   3.643 -0.1448 -0.4630 -0.5553
13193TIP3    H160994   1.839   5.191   3.561  1.6066  0.4141 -1.4534
13193TIP3    H260995   1.868   5.256   3.695 -0.4830 -0.5960 -0.4649
13194TIP3   OH260996   3.894   3.901   4.297 -0.2776  0.1715  0.2140
13194TIP3    H160997   3.863   3.834   4.236  0.3941  0.6866 -0.7156
13194TIP3    H260998   3.858   3.983   4.262  0.0228  0.4598  0.5765
13195TIP3   OH260999   5.442   3.161   0.985 -0.1225  0.2816 -0.4228
13195TIP3    H161000   5.486   3.148   1.068  1.1910  2.5526 -0.6976
13195TIP3    H261001   5.364   3.213   1.006  0.8443  1.8948 -0.7148
13196TIP3   OH261002   1.540   1.660   2.290 -0.1387  0.4324 -0.0022
13196TIP3    H161003   1.519   1.678   2.198 -1.2489 -0.9892 -0.0602
13196TIP3    H261004   1.596   1.733   2.316  0.1159  0.9261 -1.7729
13197TIP3   OH261005   3.927   5.553  16.230 -0.6540  0.1308 -0.0252
13197TIP3    H161006   3.957   5.642  16.214  0.5473 -0.0006  1.2690
13197TIP3    H261007   3.834   5.562  16.252 -0.5543  1.0603  0.0581
13198TIP3   OH261008   0.827   0.757  12.591 -0.4314 -0.6391  0.9049
13198TIP3    H161009   0.799   0.848  12.598 -0.1829 -0.2834 -1.6935
13198TIP3    H261010   0.748   0.709  12.565 -0.0370 -0.6789 -0.3008
13199TIP3   OH261011   0.441   1.209  15.290 -0.2392 -0.5200  0.4172
13199TIP3    H161012   0.378   1.167  15.348 -2.0433 -0.4652 -1.3913
13199TIP3    H261013   0.427   1.167  15.205  0.0166  1.6326 -0.7464
13200TIP3   OH261014   4.092   3.461   4.640  0.2122  0.5637 -0.6280
13200TIP3    H161015   4.164   3.520   4.664 -0.8651  2.4092 -1.6225
13200TIP3    H261016   4.075   3.481   4.548 -1.5801  0.2123 -0.4195
13201TIP3   OH261017   0.346   0.841  12.559  0.6543 -0.0206  0.4684
13201TIP3    H161018   0.340   0.883  12.644  2.6503  0.5073  0.4074
13201TIP3    H261019   0.380   0.909  12.501  1.5422 -0.9981 -0.1996
13202TIP3   OH261020   4.374   1.932  11.336  0.2554  0.0046  0.3867
13202TIP3    H161021   4.320   1.860  11.304 -0.1270 -0.1349  1.3056
13202TIP3    H261022   4.318   2.009  11.331  0.4947  0.1516 -0.1138
13203TIP3   OH261023   4.736   6.273  16.804 -0.1395 -0.1464 -0.0733
13203TIP3    H161024   4.718   6.299  16.895 -0.7754 -0.2273 -0.1658
13203TIP3    H261025   4.828   6.249  16.803 -0.3680 -1.1525  0.7973
13204TIP3   OH261026   6.261   4.431  11.296  0.2352  0.2887  0.6399
13204TIP3    H161027   6.263   4.416  11.202  0.9941  3.4273  0.0602
13204TIP3    H261028   6.168   4.425  11.319 -0.1915  1.2530 -0.6785
13205TIP3   OH261029   5.361   5.086  16.472 -0.2515 -0.0317 -0.3496
13205TIP3    H161030   5.393   5.012  16.524  0.2039 -0.0468 -0.6525
13205TIP3    H261031   5.359   5.159  16.534  1.8338  0.3532 -0.6685
13206TIP3   OH261032   4.196   5.155  11.279 -0.0014  0.4744 -0.5611
13206TIP3    H161033   4.226   5.158  11.188  0.0092 -0.5449 -0.6056
13206TIP3    H261034   4.274   5.134  11.330  0.0455  1.3038 -0.2742
13207TIP3   OH261035   5.718   1.771   4.360 -0.0115 -0.1913 -0.4320
13207TIP3    H161036   5.701   1.680   4.335  2.8288 -0.6155 -1.1314
13207TIP3    H261037   5.699   1.822   4.281 -3.0876  0.1173  0.3935
13208TIP3   OH261038   5.855   6.090  14.856 -0.5854 -0.1777  0.1003
13208TIP3    H161039   5.863   6.164  14.916 -0.9745 -0.2014  0.1826
13208TIP3    H261040   5.871   6.128  14.769 -1.2468  0.0917  0.0953
13209TIP3   OH261041   1.044   0.618   1.977 -0.1290 -0.2764 -0.0672
13209TIP3    H161042   0.953   0.643   1.993  0.3206  2.0383 -0.7795
13209TIP3    H261043   1.084   0.614   2.064 -0.9379 -1.5995  0.2729
13210TIP3   OH261044   0.217   4.977  11.903  0.2839 -0.1476  0.1693
13210TIP3    H161045   0.220   4.955  11.996 -1.1133 -4.1491 -0.5267
13210TIP3    H261046   0.124   4.973  11.880  0.6364  0.3287 -1.4855
13211TIP3   OH261047   6.077   2.054   0.773  0.3903  0.4552 -0.2914
13211TIP3    H161048   5.982   2.065   0.774  0.2636 -0.5574  0.0949
13211TIP3    H261049   6.097   2.019   0.687  0.9493  4.5108 -2.0553
13212TIP3   OH261050   1.263   6.250   2.662 -0.5456 -0.3291  0.2136
13212TIP3    H161051   1.297   6.312   2.597  0.9691 -1.1255  0.2114
13212TIP3    H261052   1.312   6.170   2.647 -2.8437 -1.7490 -0.1295
13213TIP3   OH261053   0.524   2.536   4.170 -0.2563 -0.3905  0.5319
13213TIP3    H161054   0.518   2.465   4.106  1.0791 -0.3459  0.3388
13213TIP3    H261055   0.511   2.616   4.120 -1.3663 -0.4636  0.6851
13214TIP3   OH261056   5.946   1.764   1.186 -0.7140 -0.1073  0.3818
13214TIP3    H161057   5.901   1.847   1.172 -1.9870 -0.4916  1.9092
13214TIP3    H261058   5.881   1.708   1.228  0.3298 -1.6613 -0.0061
13215TIP3   OH261059   3.985   3.012  16.433  0.3185 -0.6117  0.2598
13215TIP3    H161060   3.915   2.947  16.442  1.3585 -1.8450 -0.1550
13215TIP3    H261061   3.976   3.068  16.510 -2.3213  0.5020 -0.7651
13216TIP3   OH261062   6.332   2.673  15.977  0.0767 -0.5871 -0.7700
13216TIP3    H161063   6.246   2.700  15.945  0.0006  0.9777  0.5924
13216TIP3    H261064   6.359   2.744  16.036  1.8462 -1.5350 -0.3547
13217TIP3   OH261065   6.264   3.555  14.073 -0.1699 -0.2159  0.2852
13217TIP3    H161066   6.181   3.511  14.055 -0.0284 -0.5562  0.4679
13217TIP3    H261067   6.331   3.493  14.047  0.0317  0.0077  0.2647
13218TIP3   OH261068   2.334   2.339  11.528  0.2894  0.1156  0.1154
13218TIP3    H161069   2.326   2.289  11.609  1.9531  0.1047  0.3196
13218TIP3    H261070   2.420   2.314  11.494  0.7058  1.9960 -0.3395
13219TIP3   OH261071   1.063   0.858  13.209 -0.0694 -0.0800  0.1553
13219TIP3    H161072   0.981   0.899  13.236  0.0914  0.4885 -0.2131
13219TIP3    H261073   1.036   0.788  13.149 -0.3058 -0.1160  0.3041
13220TIP3   OH261074   3.576   0.164  15.318  0.0069  0.1591 -0.4359
13220TIP3    H161075   3.589   0.201  15.231 -0.4810 -0.7737 -0.9281
13220TIP3    H261076   3.558   0.239  15.374  1.4356  0.8794 -0.9082
13221TIP3   OH261077   6.524   1.222   4.373 -0.7018 -0.4597 -0.1330
13221TIP3    H161078   6.477   1.289   4.325  0.2196  0.4325  0.1685
13221TIP3    H261079   6.490   1.226   4.462  0.0831  0.3615  0.1490
13222TIP3   OH261080   2.383   3.864  11.787  0.0845 -0.2618 -0.5387
13222TIP3    H161081   2.358   3.948  11.747 -3.0992 -0.7160  0.1966
13222TIP3    H261082   2.363   3.876  11.880 -0.1880 -1.7266 -0.3921
13223TIP3   OH261083   2.883   6.227   1.916  0.2520  0.1484  0.1271
13223TIP3    H161084   2.888   6.145   1.966  0.2192 -0.6981 -1.1924
13223TIP3    H261085   2.812   6.276   1.958 -1.2046 -1.4454 -0.3467
13224TIP3   OH261086   4.349   6.037  15.651 -0.3647  0.3074 -0.5268
13224TIP3    H161087   4.387   6.082  15.726 -0.4341 -0.5551  0.0408
13224TIP3    H261088   4.273   5.991  15.688 -2.7354  2.8548 -1.7758
13225TIP3   OH261089   5.392   3.744   6.054 -0.5276 -0.0704  1.2857
13225TIP3    H161090   5.404   3.652   6.080  0.6432 -0.0064  1.0344
13225TIP3    H261091   5.383   3.792   6.136  1.2609 -0.1118  1.5409
13226TIP3   OH261092   2.700   0.711  13.738  0.3558 -0.3769 -0.9130
13226TIP3    H161093   2.739   0.731  13.653 -1.0327 -1.3628 -1.8123
13226TIP3    H261094   2.611   0.744  13.732  0.0234 -1.0941 -0.0933
13227TIP3   OH261095   1.862   2.620  14.378 -0.0031 -0.3115 -0.3856
13227TIP3    H161096   1.944   2.607  14.332  0.0605  1.9491 -1.0317
13227TIP3    H261097   1.862   2.555  14.448  3.2851  0.8813  0.9045
13228TIP3   OH261098   4.831   2.516   0.025 -0.3337  0.0036 -0.4187
13228TIP3    H161099   4.778   2.452   0.072 -0.8604  1.1463  0.6144
13228TIP3    H261100   4.915   2.516   0.069 -0.5067  0.3808 -0.0802
13229TIP3   OH261101   1.224   5.977   0.528 -0.0334  0.2669  0.1696
13229TIP3    H161102   1.192   6.021   0.607  0.3564 -0.8142  0.9618
13229TIP3    H261103   1.171   6.013   0.457  0.6785  2.4398  0.6681
13230TIP3   OH261104   0.083   4.752   3.754 -0.2646 -0.2973 -0.0921
13230TIP3    H161105  -0.001   4.719   3.787  0.1577  0.1070  1.5057
13230TIP3    H261106   0.060   4.802   3.676 -1.3067 -1.4959 -0.5957
13231TIP3   OH261107   4.355   2.935   3.128  0.2029  0.0885 -0.2233
13231TIP3    H161108   4.325   2.872   3.193 -0.2500  0.1961 -0.3307
13231TIP3    H261109   4.400   3.003   3.179 -0.3578  0.2950  0.0029
13232TIP3   OH261110   6.656   3.130   4.457 -0.0235 -0.4362 -0.3759
13232TIP3    H161111   6.563   3.151   4.467 -0.0434 -0.0423 -1.2891
13232TIP3    H261112   6.659   3.034   4.455 -0.6103 -0.4537 -1.8825
13233TIP3   OH261113   4.745   2.524   5.802 -0.2972  0.3059  0.5674
13233TIP3    H161114   4.735   2.613   5.836  0.1151  0.3285  0.6265
13233TIP3    H261115   4.718   2.531   5.710  1.0473  0.7874  0.1939
13234TIP3   OH261116   1.421   0.457  14.635 -0.4346 -1.2454 -0.3282
13234TIP3    H161117   1.446   0.408  14.714 -1.6245 -1.4053 -0.0293
13234TIP3    H261118   1.477   0.535  14.637  0.0834 -1.6125  0.2586
13235TIP3   OH261119   3.765   0.574   2.479 -0.0247  0.5920  0.2529
13235TIP3    H161120   3.772   0.624   2.397  0.7838 -0.8137 -0.5747
13235TIP3    H261121   3.846   0.522   2.482 -1.5562 -1.9264  0.1931
13236TIP3   OH261122   0.872   2.482   0.422 -0.5247  0.2970  0.3154
13236TIP3    H161123   0.901   2.544   0.354 -0.7317  0.1404  0.0818
13236TIP3    H261124   0.879   2.531   0.504 -0.1029  0.4327  0.2030
13237TIP3   OH261125   3.492   2.611  11.992  0.4395 -0.4031 -0.0677
13237TIP3    H161126   3.572   2.572  12.027 -0.4782 -1.8116  0.5760
13237TIP3    H261127   3.437   2.536  11.970 -0.1009  0.5070 -2.0081
13238TIP3   OH261128   3.840   4.708  13.457  0.3041  0.6515  0.0665
13238TIP3    H161129   3.811   4.755  13.535  1.0829  0.7158  0.3311
13238TIP3    H261130   3.902   4.642  13.490  1.7078  1.5724 -0.6112
13239TIP3   OH261131   4.772   1.123  13.449 -0.1915 -0.4380  0.3733
13239TIP3    H161132   4.784   1.132  13.544  1.1507  2.1337  0.0525
13239TIP3    H261133   4.694   1.176  13.430 -0.5436 -1.0698  0.0520
13240TIP3   OH261134   1.099   4.510  16.514  0.2863  0.4745  0.1106
13240TIP3    H161135   1.113   4.446  16.445 -0.7437  0.8091 -0.4343
13240TIP3    H261136   1.092   4.458  16.595  1.8156  0.1108  0.0252
13241TIP3   OH261137   0.197   2.327  15.597 -1.0015 -0.3637  0.0571
13241TIP3    H161138   0.221   2.399  15.655 -0.1778 -0.8203  0.2959
13241TIP3    H261139   0.188   2.367  15.511  1.2879 -0.2520 -0.1831
13242TIP3   OH261140   6.069   0.074   2.693 -0.0933  0.3208 -0.4744
13242TIP3    H161141   6.020   0.081   2.775 -0.2271 -1.1811 -0.3947
13242TIP3    H261142   6.007   0.104   2.626 -0.1871  0.9920 -0.0882
13243TIP3   OH261143   1.708   0.366  13.317 -0.1722 -0.2823 -0.6836
13243TIP3    H161144   1.708   0.275  13.290  0.0614 -0.4644 -0.0874
13243TIP3    H261145   1.620   0.398  13.294 -0.6303 -0.9617  0.0941
13244TIP3   OH261146   4.334   3.505   0.400  0.4255  0.4160  0.5911
13244TIP3    H161147   4.262   3.492   0.339 -0.7320  1.9875  1.5565
13244TIP3    H261148   4.411   3.475   0.353 -0.6026  0.4357 -1.1791
13245TIP3   OH261149   0.386   5.902  14.912  0.1359 -0.5653  0.0324
13245TIP3    H161150   0.341   5.976  14.870  1.2124  0.3584  0.4436
13245TIP3    H261151   0.446   5.944  14.974 -1.3192 -1.8520  2.4632
13246TIP3   OH261152   4.189   1.767   0.334 -0.1317 -0.3377 -0.3443
13246TIP3    H161153   4.227   1.837   0.280  0.2222  0.5342  0.9831
13246TIP3    H261154   4.259   1.743   0.395 -0.9345 -0.3514  0.6001
13247TIP3   OH261155   5.639   0.718  15.135 -0.5412  0.2866  0.3447
13247TIP3    H161156   5.617   0.805  15.103 -0.1601  0.7561  1.2911
13247TIP3    H261157   5.598   0.713  15.222 -1.1195 -0.7354  0.0278
13248TIP3   OH261158   4.157   0.146  14.283 -0.4497 -0.1606 -0.6465
13248TIP3    H161159   4.223   0.125  14.217  0.3960 -1.6947  0.5991
13248TIP3    H261160   4.086   0.084  14.267 -0.3895 -0.3144 -0.3254
13249TIP3   OH261161   2.812   3.594  13.295  0.3761 -0.2339  0.1097
13249TIP3    H161162   2.821   3.632  13.208 -0.3629  1.4247  0.7065
13249TIP3    H261163   2.745   3.526  13.285 -1.5643  1.6006 -0.2119
13250TIP3   OH261164   4.894   2.181  12.526 -0.2759  0.6899  0.2115
13250TIP3    H161165   4.968   2.146  12.577  1.4030  0.7283 -2.0453
13250TIP3    H261166   4.902   2.276  12.535 -0.0363  0.6944 -0.0362
13251TIP3   OH261167   2.061   6.153   2.829 -0.4110  0.3779 -0.2770
13251TIP3    H161168   2.079   6.235   2.876  0.4157 -0.3587  0.7464
13251TIP3    H261169   1.990   6.112   2.878  0.2575 -0.2540  0.1974
13252TIP3   OH261170   0.050   5.228  14.843  0.2543  0.8846 -0.3255
13252TIP3    H161171   0.041   5.223  14.938  0.3931  0.4571 -0.3282
13252TIP3    H261172   0.042   5.321  14.822  1.1829  1.1028  0.2054
13253TIP3   OH261173   5.088   3.497  14.379 -0.1331  0.0978  0.0891
13253TIP3    H161174   5.153   3.492  14.309 -0.8994 -0.2869 -0.6115
13253TIP3    H261175   5.059   3.588  14.378  0.1048  0.1754  0.1430
13254TIP3   OH261176   0.566   4.407   5.972 -0.7328 -0.2192  0.0844
13254TIP3    H161177   0.626   4.434   6.041  0.5653 -0.7418 -0.8116
13254TIP3    H261178   0.603   4.326   5.937 -0.6492  0.6620 -2.0580
13255TIP3   OH261179   4.272   0.447  15.457  0.1392  0.0524  0.0079
13255TIP3    H161180   4.188   0.460  15.501 -0.2991  0.1896 -0.8488
13255TIP3    H261181   4.264   0.361  15.415  0.9038 -0.5019  0.9364
13256TIP3   OH261182   2.999   4.473  14.200 -0.0948 -0.4089  0.2304
13256TIP3    H161183   3.054   4.432  14.267 -0.5255  0.6738  1.2854
13256TIP3    H261184   2.981   4.561  14.234 -1.5710 -0.3593 -0.5854
13257TIP3   OH261185   0.360   1.376  14.976  0.2495  0.3019 -0.4181
13257TIP3    H161186   0.382   1.289  15.009  0.8449  0.4518 -0.4236
13257TIP3    H261187   0.266   1.371  14.959 -0.4680  0.7027  2.7948
13258TIP3   OH261188   6.739   4.124  15.219 -0.1240  0.8096  0.2984
13258TIP3    H161189   6.734   4.033  15.189 -0.5889  0.3090  1.8114
13258TIP3    H261190   6.765   4.174  15.141 -0.9274 -0.4645 -0.8133
13259TIP3   OH261191   3.764   3.055  15.875 -0.1407 -0.4749  0.1346
13259TIP3    H161192   3.774   3.149  15.865 -0.3303 -0.4529  0.1492
13259TIP3    H261193   3.695   3.031  15.813 -0.5305 -0.5061  0.5741
13260TIP3   OH261194   3.866   4.158   0.765 -1.1452  0.2272 -0.8933
13260TIP3    H161195   3.915   4.223   0.715 -0.2751 -0.1732 -0.5995
13260TIP3    H261196   3.774   4.177   0.748 -0.9636  2.2952  0.1272
13261TIP3   OH261197   0.442   4.931  13.107  0.0327 -0.0889 -0.6160
13261TIP3    H161198   0.457   4.858  13.048  2.6306  0.7287 -1.1145
13261TIP3    H261199   0.397   4.892  13.182  2.7123 -2.6478 -0.1083
13262TIP3   OH261200   6.118   0.717  12.342 -0.1172 -0.5168 -0.5550
13262TIP3    H161201   6.067   0.661  12.283 -0.7070  1.1921 -1.7301
13262TIP3    H261202   6.057   0.738  12.414 -0.4862  0.0333 -1.0204
13263TIP3   OH261203   4.835   5.070   2.314  0.5209  0.4125 -0.3678
13263TIP3    H161204   4.806   4.978   2.315  0.2115  0.5078 -0.3717
13263TIP3    H261205   4.815   5.101   2.226  0.3645  0.5646 -0.2801
13264TIP3   OH261206   0.664   2.956   2.323  0.5539  0.0753 -0.4103
13264TIP3    H161207   0.585   3.002   2.295  0.4832 -0.4639 -1.1282
13264TIP3    H261208   0.638   2.864   2.326  1.4050 -0.2312 -1.6483
13265TIP3   OH261209   2.093   2.812  15.344  0.1987  0.4562  0.2424
13265TIP3    H161210   2.169   2.866  15.324 -0.1602  0.9790  0.2640
13265TIP3    H261211   2.120   2.722  15.325  0.1294  0.8491 -1.8342
13266TIP3   OH261212   4.914   1.893   2.220  0.0842  0.0460 -0.1342
13266TIP3    H161213   4.928   1.810   2.266  0.5897  0.3626  0.2919
13266TIP3    H261214   4.818   1.903   2.217  0.0412  0.3769  1.5078
13267TIP3   OH261215   4.467   0.581  13.224  0.9877  0.2551 -0.1672
13267TIP3    H161216   4.506   0.656  13.178 -0.7068  2.0622  1.1945
13267TIP3    H261217   4.501   0.588  13.313  0.5050 -0.3690  0.0655
13268TIP3   OH261218   6.129   0.144  14.610  0.7523  0.0979 -0.4469
13268TIP3    H161219   6.183   0.073  14.643 -0.6744  0.0454  1.9806
13268TIP3    H261220   6.153   0.220  14.663 -0.8752  0.2898  0.0752
13269TIP3   OH261221   0.515   2.360  10.787  0.1981  0.0757  0.4004
13269TIP3    H161222   0.443   2.297  10.795 -1.6953  1.7986 -1.6517
13269TIP3    H261223   0.474   2.445  10.795  2.2970  1.1289  0.7168
13270TIP3   OH261224   4.417   4.750  13.789  0.6216  0.7753  0.1128
13270TIP3    H161225   4.502   4.753  13.746 -0.4886  2.3275 -2.1245
13270TIP3    H261226   4.382   4.839  13.780 -0.8759  0.4127  1.7848
13271TIP3   OH261227   2.655   6.641   1.356 -0.5307  0.0476 -0.0349
13271TIP3    H161228   2.600   6.690   1.295 -1.0659 -0.1790  0.2654
13271TIP3    H261229   2.688   6.707   1.417  0.9281  0.4758 -1.2206
13272TIP3   OH261230   5.116   0.794  13.399 -0.1159 -0.3515 -0.2818
13272TIP3    H161231   5.044   0.838  13.353 -0.2595 -1.2354 -0.9276
13272TIP3    H261232   5.086   0.704  13.410  0.2274 -0.3327  0.9032
13273TIP3   OH261233   0.152   6.503  11.728  0.0579 -0.3950 -0.4769
13273TIP3    H161234   0.190   6.586  11.699 -0.0890  0.1678  0.9036
13273TIP3    H261235   0.059   6.510  11.707 -0.2834  0.5312  1.2069
13274TIP3   OH261236   5.091   3.525   5.950  0.5103 -0.2045 -0.1115
13274TIP3    H161237   5.119   3.513   5.859 -3.5142  0.8345 -1.7088
13274TIP3    H261238   5.130   3.452   5.998  1.3590 -1.7966 -3.0169
13275TIP3   OH261239   6.128   0.336  12.136  0.3520 -0.0805  0.2211
13275TIP3    H161240   6.219   0.343  12.106  0.3562 -0.1888  0.2070
13275TIP3    H261241   6.126   0.256  12.187 -0.7919 -2.8184 -3.6446
13276TIP3   OH261242   3.723   0.498   6.115 -0.0759 -0.2142  0.3767
13276TIP3    H161243   3.716   0.442   6.192  2.1892 -2.2103 -0.7423
13276TIP3    H261244   3.791   0.562   6.139  1.2372 -1.3511 -0.1785
13277TIP3   OH261245   1.102   0.723   5.061  0.1136 -0.4761 -0.1984
13277TIP3    H161246   1.090   0.801   5.114 -2.7698 -1.3903  0.7130
13277TIP3    H261247   1.090   0.753   4.971  2.5569  0.6523 -0.2220
13278TIP3   OH261248   5.255   2.799  12.910  0.4513 -0.2318 -0.3728
13278TIP3    H161249   5.340   2.832  12.939  0.8300 -0.3608 -1.2687
13278TIP3    H261250   5.243   2.838  12.823 -0.2041 -0.5564 -0.4351
13279TIP3   OH261251   1.224   0.898  16.447  0.2199  0.5667 -0.2308
13279TIP3    H161252   1.287   0.831  16.422 -0.5707  0.2231 -1.4020
13279TIP3    H261253   1.139   0.857  16.434 -0.2778  1.0269  1.2898
13280TIP3   OH261254   5.705   3.426  14.888 -0.0600 -0.0663 -0.3405
13280TIP3    H161255   5.612   3.444  14.899  0.4058  1.2738  1.8681
13280TIP3    H261256   5.708   3.357  14.821 -2.7649 -1.7471  1.0985
13281TIP3   OH261257   1.042   4.406  12.508  1.1154 -0.3047  0.7490
13281TIP3    H161258   1.012   4.491  12.540 -2.1635 -1.3964  0.9222
13281TIP3    H261259   1.034   4.412  12.413  0.4604 -0.5564  0.7867
13282TIP3   OH261260   4.103   4.239   6.315  0.0093 -0.2754  0.0571
13282TIP3    H161261   4.158   4.178   6.364 -0.9853 -0.7485  0.5926
13282TIP3    H261262   4.155   4.319   6.311  1.5400 -1.2673 -1.0631
13283TIP3   OH261263   6.241   4.177   2.657 -0.5593  0.0553 -0.1107
13283TIP3    H161264   6.291   4.105   2.694 -1.3623 -1.5894 -2.0414
13283TIP3    H261265   6.299   4.216   2.592 -0.6094  0.3111 -0.0043
13284TIP3   OH261266   1.308   5.382  15.337  0.1007  0.5033 -0.0590
13284TIP3    H161267   1.309   5.407  15.244 -1.5589  3.2183  0.5339
13284TIP3    H261268   1.304   5.287  15.335 -0.1556  0.4678 -2.7913
13285TIP3   OH261269   0.431   3.948  11.929  0.3941  0.5994  0.4986
13285TIP3    H161270   0.496   3.911  11.869  1.5907  3.0921  0.1187
13285TIP3    H261271   0.346   3.923  11.892  1.1386 -0.1205 -0.7608
13286TIP3   OH261272   6.201   4.341   2.207 -0.3591  0.1554 -0.6733
13286TIP3    H161273   6.175   4.250   2.226 -0.5371  0.1384 -0.9877
13286TIP3    H261274   6.157   4.393   2.274 -1.8820  0.2099 -1.6650
13287TIP3   OH261275   3.545   4.474   2.474  0.3963  0.5031  0.0691
13287TIP3    H161276   3.507   4.387   2.461  0.7647  0.4211 -0.5084
13287TIP3    H261277   3.489   4.532   2.423  0.9407  0.4047 -0.6549
13288TIP3   OH261278   4.512   6.524  13.500  0.2004  0.4617  0.3884
13288TIP3    H161279   4.506   6.429  13.504  1.6467  0.3401  0.2889
13288TIP3    H261280   4.564   6.542  13.421  1.7800  1.2068  1.5399
13289TIP3   OH261281   5.094   4.382  12.101 -0.5555 -0.4906  0.1812
13289TIP3    H161282   5.037   4.362  12.027 -0.0796  0.3903 -0.4386
13289TIP3    H261283   5.177   4.410  12.061 -0.4537  0.4931  1.0322
13290TIP3   OH261284   6.538   1.294  13.533  0.3415 -0.3636  0.1058
13290TIP3    H161285   6.585   1.330  13.609 -0.2293  2.5595 -0.7814
13290TIP3    H261286   6.450   1.277  13.564  0.1712  0.6130  0.1829
13291TIP3   OH261287   0.266   1.991  15.913  0.0631 -0.3856  0.2599
13291TIP3    H161288   0.316   1.960  15.838 -0.6440  1.3301 -0.9851
13291TIP3    H261289   0.284   2.085  15.917 -0.8541 -0.2329  1.4965
13292TIP3   OH261290   5.029   5.938   3.214  0.2821 -0.7178  0.1459
13292TIP3    H161291   5.026   5.996   3.291  0.5083 -0.2484 -0.1953
13292TIP3    H261292   4.971   5.981   3.151  0.3548 -0.9326 -0.0637
13293TIP3   OH261293   6.638   6.204  14.109 -0.0232  0.1116 -0.5616
13293TIP3    H161294   6.604   6.238  14.191  3.7944 -0.5633  1.5011
13293TIP3    H261295   6.640   6.279  14.050  0.8967  1.6020  1.2984
13294TIP3   OH261296   2.202   3.953   2.827  0.0094  0.3815 -0.4024
13294TIP3    H161297   2.189   4.016   2.898 -0.6521 -1.2070  0.9906
13294TIP3    H261298   2.206   4.005   2.748  0.7092  2.2488  0.7934
13295TIP3   OH261299   2.946   3.852  15.703 -0.6951 -0.3068 -0.0411
13295TIP3    H161300   2.868   3.907  15.710 -2.1500 -2.4210  3.2749
13295TIP3    H261301   2.920   3.782  15.643 -0.8302 -0.2120 -0.0938
13296TIP3   OH261302   1.421   2.011  14.328  0.6661 -0.7856 -0.0781
13296TIP3    H161303   1.415   1.931  14.381 -4.9370 -1.3015 -0.7832
13296TIP3    H261304   1.410   1.979  14.238 -1.8040  0.6085 -0.3575
13297TIP3   OH261305   2.965   0.191   2.250  0.2557 -0.2558 -0.0066
13297TIP3    H161306   3.041   0.139   2.275  0.7424  0.7173  0.6185
13297TIP3    H261307   2.928   0.146   2.174  0.5732 -1.5661  0.5938
13298TIP3   OH261308   1.124   1.085   1.186 -0.4123 -0.2686 -0.2688
13298TIP3    H161309   1.205   1.134   1.194 -0.1261 -0.4897 -1.6451
13298TIP3    H261310   1.151   0.993   1.183 -0.6487 -0.3222 -1.2073
13299TIP3   OH261311   6.578   4.712  15.059 -0.2967 -0.2380  0.3503
13299TIP3    H161312   6.535   4.685  15.141 -0.1715  0.2890  0.5912
13299TIP3    H261313   6.543   4.799  15.041  0.4991  0.1026  0.4313
13300TIP3   OH261314   0.951   6.298   4.036 -0.5957 -0.5152  0.1240
13300TIP3    H161315   1.044   6.310   4.059  0.2065 -0.6160 -2.6418
13300TIP3    H261316   0.928   6.212   4.073  1.3546 -1.8564 -1.5077
13301TIP3   OH261317   4.536   6.286  15.219  0.0630 -0.0457 -0.5105
13301TIP3    H161318   4.604   6.277  15.152  1.0014  3.3845 -0.2183
13301TIP3    H261319   4.567   6.234  15.292  0.2900 -1.7845 -1.7774
13302TIP3   OH261320   4.205   5.236   0.212  0.2463 -0.1840  0.6779
13302TIP3    H161321   4.202   5.246   0.117 -0.0099  0.1199  0.7156
13302TIP3    H261322   4.134   5.291   0.244  0.9121  0.4403  1.1094
13303TIP3   OH261323   1.575   4.347   2.833  0.5595  0.6699  0.5679
13303TIP3    H161324   1.578   4.280   2.765 -2.6174  0.4807  0.5111
13303TIP3    H261325   1.631   4.417   2.799  1.3880 -0.5844 -0.8353
13304TIP3   OH261326   6.358   0.697  14.482  0.6332 -0.2158  0.1018
13304TIP3    H161327   6.353   0.636  14.408  0.6815 -0.1730  0.0628
13304TIP3    H261328   6.390   0.778  14.443 -2.5664  0.9060 -0.5360
13305TIP3   OH261329   6.197   0.171   3.544 -0.5329  0.0123 -0.4328
13305TIP3    H161330   6.185   0.201   3.454 -0.2713 -0.0754 -0.4995
13305TIP3    H261331   6.110   0.174   3.583 -0.8843 -1.2833 -1.0962
13306TIP3   OH261332   5.438   0.083   2.888 -0.1970  0.3045 -0.5137
13306TIP3    H161333   5.478   0.138   2.956 -0.6041 -0.8893  0.7240
13306TIP3    H261334   5.511   0.034   2.852 -0.3000 -0.9431  0.8732
13307TIP3   OH261335   2.672   4.886  15.852 -0.4189  0.1949 -0.1165
13307TIP3    H161336   2.600   4.879  15.915 -1.3300  3.5390 -0.5836
13307TIP3    H261337   2.628   4.897  15.767  0.7407 -0.5084 -0.8421
13308TIP3   OH261338   3.086   6.457  15.723 -0.4094 -0.1247  0.1643
13308TIP3    H161339   3.049   6.490  15.804  0.6863 -1.1891  1.1481
13308TIP3    H261340   3.129   6.533  15.683  0.9833 -0.0264  1.7412
13309TIP3   OH261341   6.794   2.889  14.752  0.3662 -0.1106 -0.4006
13309TIP3    H161342   6.745   2.871  14.832  1.0425 -0.4001 -0.0401
13309TIP3    H261343   6.779   2.812  14.697  0.6086 -0.3082 -0.1921
13310TIP3   OH261344   3.291   4.632   6.776  0.3282  0.3081 -0.0480
13310TIP3    H161345   3.386   4.621   6.777  0.3021 -0.0888 -1.0501
13310TIP3    H261346   3.276   4.712   6.725  0.0451 -0.9259 -2.0009
13311TIP3   OH261347   0.601   5.913   5.886  0.7208 -0.1616 -0.0551
13311TIP3    H161348   0.554   5.841   5.928 -0.0168  1.1229  1.4495
13311TIP3    H261349   0.662   5.944   5.954  1.1779  0.4827 -0.7477
13312TIP3   OH261350   2.325   6.722  12.544  0.4177 -0.8221 -0.1602
13312TIP3    H161351   2.233   6.696  12.540  0.1820 -0.2843  1.0287
13312TIP3    H261352   2.325   6.812  12.510  0.6688 -1.1585 -1.0636
13313TIP3   OH261353   6.332   3.658  15.775  0.1050 -0.1904 -0.3422
13313TIP3    H161354   6.405   3.613  15.816 -0.2751  0.1122  0.7132
13313TIP3    H261355   6.348   3.651  15.681  0.5287 -1.7020 -0.1816
13314TIP3   OH261356   0.115   6.223  15.677  0.6488 -0.0256 -0.1181
13314TIP3    H161357   0.098   6.304  15.630 -0.1995  0.1096  0.4021
13314TIP3    H261358   0.207   6.229  15.703  0.1191  1.6625  1.5879
13315TIP3   OH261359   0.976   5.164   3.170  0.3877  0.0931 -0.1485
13315TIP3    H161360   1.054   5.176   3.115  1.1082 -2.0724  0.3345
13315TIP3    H261361   0.903   5.164   3.107  1.0411 -0.6134 -0.9305
13316TIP3   OH261362   0.589   4.525   0.328 -0.4020 -0.0467  0.5794
13316TIP3    H161363   0.523   4.592   0.307 -0.3846 -0.2692 -0.1973
13316TIP3    H261364   0.635   4.561   0.404 -0.6626  0.6400  0.4245
13317TIP3   OH261365   1.506   5.455  16.157 -0.1225 -0.8473 -0.6287
13317TIP3    H161366   1.469   5.500  16.234 -0.7941 -1.1237 -0.7821
13317TIP3    H261367   1.593   5.493  16.147 -0.6532  0.4043 -0.7288
13318TIP3   OH261368   3.162   3.512  14.158 -0.0523 -0.4448 -0.4491
13318TIP3    H161369   3.236   3.475  14.207 -0.0400  0.5068  0.2625
13318TIP3    H261370   3.202   3.575  14.098 -0.1408 -1.0863 -1.1949
13319TIP3   OH261371   3.776   1.364   2.309 -0.2019  0.2151  0.4425
13319TIP3    H161372   3.823   1.321   2.238 -1.9096 -2.7513  0.9750
13319TIP3    H261373   3.779   1.457   2.286 -1.6997 -0.6021 -4.2023
13320TIP3   OH261374   1.402   5.053   2.104 -0.3163 -0.0919 -0.0543
13320TIP3    H161375   1.314   5.055   2.142  0.7623 -0.2933  2.6733
13320TIP3    H261376   1.427   5.145   2.095  0.1359 -0.0019  1.7071
13321TIP3   OH261377   1.271   6.772   4.789  0.3025 -0.5432 -0.6032
13321TIP3    H161378   1.287   6.866   4.781 -0.3620 -0.4870 -1.3031
13321TIP3    H261379   1.176   6.764   4.792  0.3635 -1.1635 -0.0878
13322TIP3   OH261380   4.648   3.648  16.995 -0.3155 -0.1296 -0.2034
13322TIP3    H161381   4.566   3.651  16.945  0.2348 -1.2826 -1.2241
13322TIP3    H261382   4.692   3.730  16.973 -1.2081  0.5183  0.3870
13323TIP3   OH261383   1.547   4.732   2.115  0.5151 -0.1631  0.0636
13323TIP3    H161384   1.547   4.679   2.036  1.5982 -1.2030  0.7319
13323TIP3    H261385   1.460   4.720   2.152  0.3667 -0.5532 -0.4027
13324TIP3   OH261386   6.373   4.704   4.434 -0.4657  0.1064 -0.6666
13324TIP3    H161387   6.304   4.749   4.481 -2.1086 -0.8573 -2.0541
13324TIP3    H261388   6.439   4.772   4.418 -0.7015  0.8771  1.2984
13325TIP3   OH261389   5.286   2.752   2.028  0.1453 -0.2563  0.5767
13325TIP3    H161390   5.324   2.831   2.067  1.9913 -0.5218 -0.5642
13325TIP3    H261391   5.359   2.691   2.021 -0.2214 -0.5302 -2.4558
13326TIP3   OH261392   0.854   2.346   6.105 -0.5824  0.3628  0.1717
13326TIP3    H161393   0.803   2.268   6.128  2.1420 -0.9450  2.4411
13326TIP3    H261394   0.875   2.386   6.190  1.2125  1.4082 -0.6986
13327TIP3   OH261395   3.090   0.520   5.208 -0.1823  0.0958  0.0112
13327TIP3    H161396   3.168   0.479   5.248 -0.4461  0.2273  0.6694
13327TIP3    H261397   3.126   0.576   5.139  0.1931 -1.2626 -0.9508
13328TIP3   OH261398   0.266   5.719  13.988 -0.2476 -0.5600 -0.3646
13328TIP3    H161399   0.186   5.724  13.936 -0.0887  1.8235 -0.5065
13328TIP3    H261400   0.334   5.693  13.925 -0.2104  1.4985 -1.2852
13329TIP3   OH261401   3.504   4.677   1.491  0.5540 -0.0705 -0.0759
13329TIP3    H161402   3.464   4.739   1.551 -0.7001 -1.5115  0.6510
13329TIP3    H261403   3.534   4.605   1.546 -0.5189 -1.3766 -1.0971
13330TIP3   OH261404   6.440   6.502  16.063 -0.8890 -0.3673  0.2714
13330TIP3    H161405   6.519   6.537  16.103 -0.9070  0.3754 -0.3370
13330TIP3    H261406   6.375   6.502  16.134 -0.6107 -0.0891  0.5261
13331TIP3   OH261407   6.512   4.931   4.422  0.4592  0.3682 -0.3747
13331TIP3    H161408   6.466   5.009   4.389 -1.1893  0.0856  1.1128
13331TIP3    H261409   6.596   4.964   4.451 -0.2634  1.6513  0.3645
13332TIP3   OH261410   3.108   2.122   0.588 -0.2673 -0.7342 -0.6852
13332TIP3    H161411   3.180   2.141   0.648 -3.3167 -0.4927  3.3248
13332TIP3    H261412   3.078   2.035   0.613 -3.1587  0.3358 -0.0216
13333TIP3   OH261413   6.580   6.299  12.052 -0.0869  0.0915  0.5501
13333TIP3    H161414   6.498   6.326  12.012 -0.9018 -0.4726  1.7791
13333TIP3    H261415   6.591   6.208  12.027  0.4725  0.3235 -0.0824
13334TIP3   OH261416   1.719   6.545   2.965  0.4026  0.4648 -0.3634
13334TIP3    H161417   1.644   6.599   2.990  0.1771 -0.2642  0.6002
13334TIP3    H261418   1.684   6.483   2.900 -0.3569 -1.1571  1.4933
13335TIP3   OH261419   0.501   5.768  16.662 -0.1842  0.1504  0.0749
13335TIP3    H161420   0.565   5.835  16.636 -2.0221  0.7395 -3.5069
13335TIP3    H261421   0.428   5.818  16.699 -0.2704 -0.1432  0.3007
13336TIP3   OH261422   1.024   4.125   0.257  0.3707  0.5584 -0.3688
13336TIP3    H161423   0.936   4.116   0.222  0.9638  0.2962 -1.9067
13336TIP3    H261424   1.079   4.138   0.179  1.6257  1.1958  0.5817
13337TIP3   OH261425   4.828   0.288  13.786  0.2450  0.7651 -0.4532
13337TIP3    H161426   4.875   0.222  13.735 -1.6543 -1.3862  0.3961
13337TIP3    H261427   4.790   0.346  13.720 -0.1890 -0.5332 -1.3877
13338TIP3   OH261428   4.140   2.008   4.454  0.2559 -0.5582  0.0188
13338TIP3    H161429   4.086   1.985   4.530  0.7164 -1.4767  0.0762
13338TIP3    H261430   4.078   2.016   4.382 -0.6326  3.2446  0.9917
13339TIP3   OH261431   3.938   5.364   4.659 -0.1533  0.3729 -0.4113
13339TIP3    H161432   3.876   5.314   4.712  1.1062  0.5234  1.2879
13339TIP3    H261433   4.023   5.324   4.676  0.4448  1.1139 -1.4979
13340TIP3   OH261434   4.037   5.344  13.986 -0.3620 -0.0252 -0.1062
13340TIP3    H161435   4.119   5.393  13.995 -0.0913 -0.3368 -0.7628
13340TIP3    H261436   4.000   5.343  14.074 -0.0880  0.8519  0.0304
13341TIP3   OH261437   4.273   2.802   4.959 -0.4282  0.0605  0.3935
13341TIP3    H161438   4.184   2.819   4.990 -0.4693  0.3748  0.1130
13341TIP3    H261439   4.288   2.869   4.892  0.0832  0.1141  0.5601
13342TIP3   OH261440   1.465   1.133   0.818 -0.0668  0.1003  0.2415
13342TIP3    H161441   1.385   1.175   0.784 -0.1872 -0.0804  0.3009
13342TIP3    H261442   1.522   1.206   0.842  0.2925  0.2388 -0.9681
13343TIP3   OH261443   6.164   2.983  12.575 -0.1401  0.1527  0.3211
13343TIP3    H161444   6.106   3.059  12.572 -1.1821 -0.4667  2.4548
13343TIP3    H261445   6.250   3.019  12.597 -0.3461  0.8166  0.0447
13344TIP3   OH261446   1.842   0.260  15.864 -1.0346 -0.2487 -0.7769
13344TIP3    H161447   1.859   0.204  15.789  3.5455 -0.4833  0.1178
13344TIP3    H261448   1.863   0.349  15.834 -0.2599 -0.1954 -0.1342
13345TIP3   OH261449   4.816   1.302  15.399 -0.3214 -0.2363  0.3652
13345TIP3    H161450   4.790   1.391  15.421 -0.5971 -0.1175 -0.4047
13345TIP3    H261451   4.875   1.276  15.470 -1.0010  0.1987  1.1013
13346TIP3   OH261452   5.622   6.440   3.951 -0.5980  0.0428  0.3007
13346TIP3    H161453   5.689   6.506   3.974 -0.9477  0.3764  0.3742
13346TIP3    H261454   5.627   6.376   4.022  0.1290 -0.3152 -0.0560
13347TIP3   OH261455   6.230   0.969   4.796 -0.2903 -0.1065 -0.4129
13347TIP3    H161456   6.177   1.030   4.746 -0.6595 -1.2241 -1.4374
13347TIP3    H261457   6.182   0.886   4.791  0.8276 -0.7882 -0.1361
13348TIP3   OH261458   4.573   0.276  11.622 -0.2615 -0.1961 -0.0130
13348TIP3    H161459   4.561   0.206  11.558  0.8952  0.6040 -1.1616
13348TIP3    H261460   4.668   0.286  11.629 -0.3818  0.0951  1.4372
13349TIP3   OH261461   0.030   4.374   5.473 -0.3798 -0.3578 -0.5660
13349TIP3    H161462   0.072   4.288   5.475  0.5930  0.0588 -1.4797
13349TIP3    H261463  -0.062   4.356   5.454 -0.2639 -1.2194 -0.3451
13350TIP3   OH261464   0.614   4.835   4.785  0.1827 -0.4250 -0.0615
13350TIP3    H161465   0.652   4.795   4.863 -0.5480 -1.1848 -0.0888
13350TIP3    H261466   0.625   4.929   4.799 -0.2592 -0.5368  1.1224
13351TIP3   OH261467   6.800   5.234   0.749 -0.4480 -0.3021  0.3888
13351TIP3    H161468   6.733   5.299   0.727 -0.3655 -0.1820  0.4887
13351TIP3    H261469   6.778   5.206   0.838 -0.4178 -0.3294  0.3876
13352TIP3   OH261470   6.188   2.494   5.505 -0.3886 -0.2533  0.2257
13352TIP3    H161471   6.155   2.409   5.477 -0.6982 -0.6093  1.5637
13352TIP3    H261472   6.112   2.537   5.545  0.2755 -0.2780  1.5760
13353TIP3   OH261473   6.649   3.707   0.763 -0.0873 -0.3315  0.3851
13353TIP3    H161474   6.607   3.638   0.814 -2.0214 -1.1809 -2.1349
13353TIP3    H261475   6.729   3.667   0.730 -0.3809 -0.8303  0.2638
13354TIP3   OH261476   4.097   1.820  12.995  0.0264  0.4731 -0.6049
13354TIP3    H161477   4.155   1.777  13.059 -1.9363  0.1496  1.0557
13354TIP3    H261478   4.136   1.906  12.982  1.5751 -0.1771 -0.5433
13355TIP3   OH261479   3.972   6.186   3.980  0.4394  0.3036  0.0659
13355TIP3    H161480   4.062   6.172   3.949  0.6529  0.5790  0.5587
13355TIP3    H261481   3.940   6.099   4.002  0.7674  0.2656  0.3912
13356TIP3   OH261482   5.354   2.077   4.571 -0.2880  0.5390 -0.3782
13356TIP3    H161483   5.278   2.023   4.549  0.2534 -0.1273 -0.6540
13356TIP3    H261484   5.424   2.014   4.587 -0.1687  1.0771  1.4046
13357TIP3   OH261485   2.415   1.524   0.739  0.2094 -0.3845 -0.8995
13357TIP3    H161486   2.444   1.486   0.656  0.5917  0.0201 -0.9578
13357TIP3    H261487   2.320   1.534   0.729  0.3712  0.5818 -1.6844
13358TIP3   OH261488   3.764   4.623   2.499 -0.3016  0.6830  0.1804
13358TIP3    H161489   3.795   4.583   2.581 -1.9530  1.0830  1.0439
13358TIP3    H261490   3.686   4.573   2.476  0.3379  0.3450 -1.3857
13359TIP3   OH261491   1.421   5.613   2.007 -0.1726  0.9301  0.7407
13359TIP3    H161492   1.492   5.665   1.968 -1.1187  1.1031 -0.8280
13359TIP3    H261493   1.361   5.596   1.935 -0.7945 -0.8552  1.6085
13360TIP3   OH261494   1.420   0.296   3.129 -0.4389  0.0274  0.7612
13360TIP3    H161495   1.330   0.321   3.152 -0.3951 -0.1238  1.0900
13360TIP3    H261496   1.475   0.351   3.185 -0.3385 -0.5684  1.2500
13361TIP3   OH261497   5.768   4.071   4.776  0.0547 -0.0806 -0.4247
13361TIP3    H161498   5.732   3.984   4.792  0.6896 -0.0252  1.7466
13361TIP3    H261499   5.692   4.127   4.761 -0.3585 -0.9675 -1.7779
13362TIP3   OH261500   0.543   0.981   3.105 -0.3632 -0.0828  0.2378
13362TIP3    H161501   0.555   1.039   3.030 -1.2749 -0.0257  0.1321
13362TIP3    H261502   0.558   0.893   3.070 -0.8035 -0.0580 -0.0141
13363TIP3   OH261503   2.933   3.541   6.562  0.1066  0.7759  0.3186
13363TIP3    H161504   2.998   3.472   6.551 -0.1127  0.5909  0.1638
13363TIP3    H261505   2.983   3.622   6.561  0.4478  0.5862  1.2279
13364TIP3   OH261506   4.451   0.695  12.884  0.2227 -0.1984  0.2560
13364TIP3    H161507   4.377   0.658  12.836  1.4586 -0.2693 -1.6935
13364TIP3    H261508   4.452   0.787  12.860  0.0414  0.0906  1.2923
13365TIP3   OH261509   6.348   3.600  16.509 -1.1099  0.1789  0.4775
13365TIP3    H161510   6.391   3.609  16.594 -2.1462  0.7022  0.9695
13365TIP3    H261511   6.416   3.567  16.451 -0.2803  0.1802  1.4192
13366TIP3   OH261512   2.411   5.441   3.461  0.9096  0.7806 -0.1327
13366TIP3    H161513   2.426   5.530   3.492 -1.6610  1.4286 -0.5356
13366TIP3    H261514   2.428   5.446   3.367  0.2848  0.9806 -0.2375
13367TIP3   OH261515   2.202   5.266  13.653 -0.2266 -0.0638 -1.0615
13367TIP3    H161516   2.133   5.329  13.632 -0.9746 -0.7477 -0.7124
13367TIP3    H261517   2.157   5.194  13.697  0.5049 -1.1957 -2.0992
13368TIP3   OH261518   4.982   1.382   0.255  0.3740  0.3171  0.2244
13368TIP3    H161519   5.066   1.388   0.300  0.5745 -1.9752  0.2697
13368TIP3    H261520   4.917   1.379   0.325  0.3908  0.4344  0.2445
13369TIP3   OH261521   3.377   2.241   2.706  0.3526 -0.3858 -0.3645
13369TIP3    H161522   3.452   2.258   2.649  0.7199  0.1381  0.2734
13369TIP3    H261523   3.341   2.158   2.673  1.0645 -0.5213 -0.8257
13370TIP3   OH261524   5.380   0.448  13.481 -0.2326 -0.0902  0.1818
13370TIP3    H161525   5.397   0.462  13.387  0.5182 -1.3658  0.1148
13370TIP3    H261526   5.458   0.482  13.525 -0.2224 -0.2569  0.2929
13371TIP3   OH261527   2.970   2.625   1.543  0.0329  0.5432 -0.4482
13371TIP3    H161528   2.969   2.621   1.447  1.2503  1.5387 -0.5358
13371TIP3    H261529   3.061   2.646   1.565 -0.1020 -0.2373  0.9643
13372TIP3   OH261530   3.002   5.505   2.104 -0.3601 -0.0702 -0.3017
13372TIP3    H161531   3.006   5.540   2.193  0.4919 -1.5807  0.3093
13372TIP3    H261532   3.008   5.410   2.116 -1.1781 -0.3729 -1.9326
13373TIP3   OH261533   3.364   1.523   0.281  0.5156  0.5272  0.7066
13373TIP3    H161534   3.327   1.577   0.211  0.3550  1.4984  1.5051
13373TIP3    H261535   3.293   1.464   0.305  1.0886 -0.9561 -1.0162
13374TIP3   OH261536   4.353   3.131  16.170  0.0022 -1.0572 -0.8604
13374TIP3    H161537   4.404   3.084  16.105  1.6929  0.5456 -0.8112
13374TIP3    H261538   4.267   3.142  16.131  0.8978 -0.3501 -2.7634
13375TIP3   OH261539   5.162   0.979  12.869 -0.2010 -0.7287  0.2584
13375TIP3    H161540   5.176   0.980  12.964  2.0587  0.5507 -0.0095
13375TIP3    H261541   5.244   0.946  12.833 -0.4139  0.3093 -1.3052
13376TIP3   OH261542   4.206   5.534  12.309  0.2010  0.5087 -0.0014
13376TIP3    H161543   4.251   5.536  12.394 -1.0829 -0.0100  0.7305
13376TIP3    H261544   4.260   5.588  12.252  1.8068 -0.2004  0.7808
13377TIP3   OH261545   6.587   4.438  15.719 -0.1492  0.3879 -0.0131
13377TIP3    H161546   6.529   4.370  15.684  0.2883  0.2319 -0.4535
13377TIP3    H261547   6.661   4.390  15.755  0.2630  0.6307 -0.5144
13378TIP3   OH261548   6.174   1.798   1.335 -0.4820 -0.3632 -0.3314
13378TIP3    H161549   6.080   1.796   1.316 -0.6284  1.0279  0.0885
13378TIP3    H261550   6.180   1.797   1.430 -0.0189 -1.2697 -0.3573
13379TIP3   OH261551   6.442   0.463   5.071  0.2402 -0.0177 -0.5120
13379TIP3    H161552   6.416   0.527   5.004  0.5502  0.4582 -0.1892
13379TIP3    H261553   6.383   0.389   5.058 -0.2214  0.3923 -0.8041
13380TIP3   OH261554   5.145   4.525   5.403  0.0209 -0.0614 -0.3522
13380TIP3    H161555   5.061   4.556   5.370  0.4269  1.3262 -0.1860
13380TIP3    H261556   5.123   4.453   5.462 -1.1542  0.8408  0.3710
13381TIP3   OH261557   3.235   2.708  16.726  0.1874  0.0245  0.2145
13381TIP3    H161558   3.209   2.755  16.647  0.0263  1.3231  1.0187
13381TIP3    H261559   3.328   2.730  16.737  0.9344 -2.1928 -0.9814
13382TIP3   OH261560   2.163   4.364  12.928 -0.2093 -0.1220 -0.0114
13382TIP3    H161561   2.105   4.431  12.964 -0.6013 -0.9436  0.9360
13382TIP3    H261562   2.110   4.283  12.930  0.4050 -0.5549 -0.7025
13383TIP3   OH261563   1.653   3.311  12.327 -0.2171  0.5441  0.0860
13383TIP3    H161564   1.687   3.223  12.311 -0.4168  0.8167 -2.3110
13383TIP3    H261565   1.688   3.336  12.412 -0.4458 -1.9611  0.9883
13384TIP3   OH261566   5.695   5.523   0.929 -0.1417 -0.3553  0.1665
13384TIP3    H161567   5.719   5.544   0.839 -0.2969 -0.4677  0.0992
13384TIP3    H261568   5.728   5.597   0.980  0.1721 -0.4117  0.0510
13385TIP3   OH261569   6.425   0.176  10.981  0.3714  0.5291  0.6227
13385TIP3    H161570   6.512   0.177  10.941  1.2748  1.2117  2.4731
13385TIP3    H261571   6.366   0.199  10.910  1.6986  0.0596 -0.6825
13386TIP3   OH261572   0.121   1.910   0.398 -0.5606  0.2928 -0.4394
13386TIP3    H161573   0.204   1.867   0.378  0.8178  1.5991  1.9940
13386TIP3    H261574   0.092   1.947   0.315  2.3747  1.5027 -1.0421
13387TIP3   OH261575   3.302   0.736  11.713 -0.2135  0.0823 -0.0392
13387TIP3    H161576   3.318   0.642  11.725  0.4065  0.3050  1.0752
13387TIP3    H261577   3.207   0.746  11.721 -0.2220 -0.3744  0.4772
13388TIP3   OH261578   1.641   6.168  12.346 -0.2384 -0.4587 -0.5100
13388TIP3    H161579   1.613   6.076  12.337  0.6919 -0.6734 -1.2655
13388TIP3    H261580   1.711   6.179  12.282  1.9302 -0.1357  1.7646
13389TIP3   OH261581   0.323   4.243   2.992 -0.7582 -0.3148 -0.2435
13389TIP3    H161582   0.275   4.256   3.074  0.7592  0.4397  0.5725
13389TIP3    H261583   0.306   4.152   2.968 -3.1601  0.1246 -0.4000
13390TIP3   OH261584   3.486   5.228   4.237 -0.2541 -0.1560 -0.4922
13390TIP3    H161585   3.429   5.292   4.279  1.3164 -0.8194  2.9284
13390TIP3    H261586   3.435   5.146   4.239 -0.2886 -0.1275 -0.0500
13391TIP3   OH261587   3.924   1.248   0.325  0.1104 -0.0313  0.0316
13391TIP3    H161588   3.979   1.272   0.399  1.4040  0.2352 -0.9711
13391TIP3    H261589   3.880   1.330   0.300  2.2544  0.7482 -1.5341
13392TIP3   OH261590   2.648   6.610  13.819 -0.6311  0.6933  0.0387
13392TIP3    H161591   2.588   6.612  13.744  1.9062 -0.1552 -2.1839
13392TIP3    H261592   2.658   6.702  13.844  0.5575  1.3795 -2.5740
13393TIP3   OH261593   6.650   4.350   4.549 -0.1760 -0.7481 -0.7140
13393TIP3    H161594   6.699   4.331   4.628  0.4512 -1.3196 -1.2265
13393TIP3    H261595   6.677   4.438   4.524 -1.7946  0.1951  0.7253
13394TIP3   OH261596   5.356   5.282  13.019  0.3478  0.6093  0.0660
13394TIP3    H161597   5.290   5.336  13.062  1.0604  1.1390  0.5074
13394TIP3    H261598   5.440   5.322  13.043  0.9584 -1.3009  1.2605
13395TIP3   OH261599   5.256   3.290   3.950 -0.0797 -0.5155 -0.0723
13395TIP3    H161600   5.216   3.244   3.875  1.9982 -0.2312 -1.4442
13395TIP3    H261601   5.237   3.383   3.933  0.8830 -0.4030 -0.5834
13396TIP3   OH261602   2.114   1.536   2.907  0.5050 -0.2787 -0.0273
13396TIP3    H161603   2.067   1.606   2.952 -0.7494 -1.1602  0.0913
13396TIP3    H261604   2.175   1.502   2.972  0.2476 -0.1048  0.3047
13397TIP3   OH261605   5.600   2.523  12.197  0.0180  0.2158  0.1197
13397TIP3    H161606   5.580   2.502  12.288  3.9371 -1.1845  0.8375
13397TIP3    H261607   5.633   2.442  12.160 -0.0232  1.1463 -2.1488
13398TIP3   OH261608   0.081   6.128  15.935  0.1360  0.1123 -0.1635
13398TIP3    H161609  -0.003   6.089  15.961  0.1889 -0.3350 -0.6464
13398TIP3    H261610   0.072   6.143  15.841  0.2447  0.9702 -0.0411
13399TIP3   OH261611   3.566   3.876  13.255  0.4074  0.4235 -0.0550
13399TIP3    H161612   3.574   3.798  13.201  2.2433  0.1721  0.5012
13399TIP3    H261613   3.482   3.915  13.229  0.9671  0.0566 -2.7385
13400TIP3   OH261614   5.539   4.699   0.375 -0.2442 -0.0012 -0.7937
13400TIP3    H161615   5.455   4.745   0.372 -0.6558 -0.5425  1.2770
13400TIP3    H261616   5.605   4.769   0.365 -0.9081  0.7080 -0.3454
13401TIP3   OH261617   6.002   0.908   3.015  0.0327 -0.2927  0.0422
13401TIP3    H161618   6.012   1.002   3.033  0.8066 -0.5769  1.2273
13401TIP3    H261619   6.026   0.899   2.923  0.6644  0.5802  0.1049
13402TIP3   OH261620   2.597   3.107   0.313  0.2392 -0.3109 -0.2897
13402TIP3    H161621   2.528   3.079   0.373 -1.6914  0.6040 -1.9564
13402TIP3    H261622   2.630   3.026   0.275  0.5632 -0.8040  0.9880
13403TIP3   OH261623   5.812   6.188   4.557 -0.7746 -0.4508  0.0097
13403TIP3    H161624   5.873   6.179   4.630 -1.6319  0.0230  0.8126
13403TIP3    H261625   5.862   6.160   4.480  1.5610  2.8827  0.0637
13404TIP3   OH261626   5.264   4.813   0.051 -0.2193  0.4229  0.3866
13404TIP3    H161627   5.356   4.824   0.026  0.6990  0.5242  3.3812
13404TIP3    H261628   5.251   4.877   0.121 -2.2760 -0.3623  0.7860
13405TIP3   OH261629   5.597   3.078   6.063  0.1243 -0.3449 -0.0894
13405TIP3    H161630   5.662   3.108   6.126  0.5419 -0.1540 -0.6077
13405TIP3    H261631   5.595   2.983   6.074 -1.0463 -0.1828  1.4048
13406TIP3   OH261632   1.299   2.007   5.673  0.3119 -0.1996  0.2058
13406TIP3    H161633   1.300   1.964   5.588  1.4788 -0.5118  0.3558
13406TIP3    H261634   1.347   1.947   5.731 -1.0095 -0.2831  1.2394
13407TIP3   OH261635   4.048   2.454   3.056  0.5293  0.0309 -0.5028
13407TIP3    H161636   4.138   2.430   3.032  0.3904  0.4500 -1.5311
13407TIP3    H261637   4.048   2.458   3.151  1.5607 -0.1288 -0.4880
13408TIP3   OH261638   4.451   0.245  16.394  0.5272  0.1605 -0.3670
13408TIP3    H161639   4.422   0.307  16.327  1.6052 -0.6803 -1.6601
13408TIP3    H261640   4.543   0.267  16.410  0.6339 -0.4452 -0.0832
13409TIP3   OH261641   5.101   6.158   1.641  0.4405  0.5877  0.4407
13409TIP3    H161642   5.186   6.115   1.654  0.4600 -1.0514 -3.6485
13409TIP3    H261643   5.049   6.095   1.592 -1.9107  2.8936 -0.2700
13410TIP3   OH261644   0.686   1.192  16.857  0.2759  0.1062  0.3172
13410TIP3    H161645   0.633   1.270  16.873  0.3036 -0.1438  1.7040
13410TIP3    H261646   0.643   1.150  16.782  0.4545  1.5955 -0.6847
13411TIP3   OH261647   4.356   4.482   6.816  0.6332 -0.3831 -0.4687
13411TIP3    H161648   4.435   4.502   6.867  0.7364  0.5146 -0.9571
13411TIP3    H261649   4.339   4.562   6.767 -0.5581 -0.5877 -0.4100
13412TIP3   OH261650   6.453   1.479  15.837 -0.0019  0.0192 -0.0825
13412TIP3    H161651   6.510   1.555  15.825  0.8250 -0.6522 -0.4588
13412TIP3    H261652   6.493   1.410  15.784  0.0587 -1.0973  1.3655
13413TIP3   OH261653   5.681   3.021  13.761 -0.0640  0.3520 -0.2299
13413TIP3    H161654   5.602   3.074  13.764 -1.6183 -1.7522 -1.0613
13413TIP3    H261655   5.654   2.935  13.794  2.3354  0.0190  1.1232
13414TIP3   OH261656   5.569   5.264   1.051  0.1002 -0.0127 -0.0019
13414TIP3    H161657   5.652   5.312   1.047  0.2384 -0.2575 -0.0908
13414TIP3    H261658   5.512   5.319   1.105  0.3070  0.1752  0.0270
13415TIP3   OH261659   5.092   0.874  16.034 -0.6096 -0.0287 -0.0207
13415TIP3    H161660   5.106   0.944  16.098  0.2979 -2.2456  2.4106
13415TIP3    H261661   5.159   0.888  15.968  1.0670  0.1625  1.6371
13416TIP3   OH261662   3.104   2.570  15.052 -0.6001  0.3278  0.2342
13416TIP3    H161663   3.166   2.562  14.980  0.6793 -1.7600  1.4635
13416TIP3    H261664   3.022   2.596  15.010 -0.0135 -1.1850 -2.0212
13417TIP3   OH261665   4.858   3.492   3.453 -0.0137 -0.0788 -0.4439
13417TIP3    H161666   4.779   3.524   3.497  1.4379  3.6502 -0.1486
13417TIP3    H261667   4.908   3.448   3.521 -0.5840  0.0539  0.0675
13418TIP3   OH261668   4.334   0.150  11.146 -0.1277  0.2174  0.2599
13418TIP3    H161669   4.248   0.136  11.186 -0.1392  0.2136  0.2333
13418TIP3    H261670   4.333   0.097  11.066 -0.0874  0.1887  0.2783
13419TIP3   OH261671   0.720   2.637  11.442 -0.4432 -0.1028 -0.1814
13419TIP3    H161672   0.794   2.578  11.424 -0.4171  0.0472 -0.5650
13419TIP3    H261673   0.645   2.596  11.400 -0.9611 -1.1632  1.6696
13420TIP3   OH261674   5.844   4.200   5.005 -0.1497  0.1339 -0.2607
13420TIP3    H161675   5.899   4.173   5.078  0.3934  0.3604 -0.5845
13420TIP3    H261676   5.847   4.126   4.944 -2.2150 -0.9314  0.8083
13421TIP3   OH261677   2.380   5.808  13.888 -0.6077  0.8421 -0.3487
13421TIP3    H161678   2.357   5.715  13.889 -0.5493  0.8127 -1.1405
13421TIP3    H261679   2.403   5.826  13.797  0.6019  1.3315  0.0350
13422TIP3   OH261680   3.544   3.508   1.508 -0.7709 -0.2880 -0.1324
13422TIP3    H161681   3.626   3.521   1.556 -0.8658  0.1898 -0.0931
13422TIP3    H261682   3.564   3.440   1.444 -0.2650  0.0052 -0.2945
13423TIP3   OH261683   0.522   4.382   5.661  0.4275 -0.4995  0.0080
13423TIP3    H161684   0.528   4.412   5.752 -1.8426 -1.0173  0.3804
13423TIP3    H261685   0.453   4.436   5.622  1.5965 -0.0392 -1.5518
13424TIP3   OH261686   0.542   1.109   1.290  0.1050  0.0036 -0.1028
13424TIP3    H161687   0.611   1.061   1.337  1.5906  2.1773  0.1090
13424TIP3    H261688   0.576   1.117   1.201  2.0623  4.1473  0.7667
13425TIP3   OH261689   1.829   4.142  13.269  0.1484  0.3596  0.1088
13425TIP3    H161690   1.791   4.156  13.182  0.5125  0.6418 -0.0086
13425TIP3    H261691   1.909   4.093  13.252 -0.1485 -0.2131  0.3531
13426TIP3   OH261692   4.720   4.370   2.068  0.0246  0.4128  0.0107
13426TIP3    H161693   4.677   4.352   1.984 -0.0410  0.9559 -0.0736
13426TIP3    H261694   4.774   4.292   2.085  1.1015  0.8758 -1.1901
13427TIP3   OH261695   4.376   3.829   6.292  0.3052  1.1506  0.8133
13427TIP3    H161696   4.456   3.870   6.324  1.6162  0.1383 -0.9746
13427TIP3    H261697   4.360   3.758   6.354  2.2444 -0.1741 -0.0855
13428TIP3   OH261698   1.938   0.727  12.561  0.3515  0.2361 -0.1146
13428TIP3    H161699   1.937   0.792  12.631 -0.7075  0.4171 -0.2819
13428TIP3    H261700   1.900   0.772  12.486 -0.3045 -0.5459 -0.2587
13429TIP3   OH261701   2.296   5.823   0.248 -0.6003  0.2896  0.4179
13429TIP3    H161702   2.304   5.843   0.154 -2.0784 -0.4935  0.0875
13429TIP3    H261703   2.355   5.884   0.291  4.2671 -2.6613 -1.3280
13430TIP3   OH261704   5.306   2.569   4.414  0.6164  0.3916  0.2271
13430TIP3    H161705   5.256   2.560   4.333 -0.4147 -0.2228  0.9210
13430TIP3    H261706   5.357   2.489   4.420 -0.8273 -0.4903  1.1865
13431TIP3   OH261707   6.333   4.117  15.211 -0.1828  0.0390 -0.6873
13431TIP3    H161708   6.270   4.046  15.218  2.7502 -2.6678  1.5200
13431TIP3    H261709   6.408   4.078  15.166  1.1624  2.0591 -0.3352
13432TIP3   OH261710   1.426   5.058   1.812 -0.0107 -0.0141 -0.2770
13432TIP3    H161711   1.432   4.994   1.883  1.2708  0.5314  0.1392
13432TIP3    H261712   1.394   5.137   1.854  0.3152  0.1816 -0.3961
13433TIP3   OH261713   0.576   5.772  12.384  0.0620 -0.1524 -0.1607
13433TIP3    H161714   0.506   5.836  12.371 -1.4310 -1.7338 -0.2049
13433TIP3    H261715   0.531   5.688  12.392  1.5294 -0.7716  4.3924
13434TIP3   OH261716   3.585   1.689  16.142  0.8133  0.6103 -0.1673
13434TIP3    H161717   3.571   1.745  16.219 -0.9332  0.3039 -0.2185
13434TIP3    H261718   3.570   1.747  16.067  3.3149  1.1209 -0.3755
13435TIP3   OH261719   1.204   4.555   0.975 -0.2551  0.2319 -0.3618
13435TIP3    H161720   1.266   4.562   1.048 -0.0269 -0.7958 -0.4461
13435TIP3    H261721   1.182   4.462   0.971  0.4233  0.1090 -2.1491
13436TIP3   OH261722   3.760   6.195   5.587 -0.3451  0.9391  0.4793
13436TIP3    H161723   3.665   6.189   5.578 -0.5102  0.6002  2.0339
13436TIP3    H261724   3.773   6.242   5.670  0.8251 -0.1467  0.9465
13437TIP3   OH261725   2.008   2.078   3.630 -0.0692 -0.1272  0.2772
13437TIP3    H161726   2.023   2.041   3.542  0.9277  0.1146  0.3337
13437TIP3    H261727   2.007   2.002   3.688 -1.9511 -0.4053 -0.0732
13438TIP3   OH261728   2.102   1.737   3.147  0.5587 -0.4575  0.1309
13438TIP3    H161729   2.107   1.792   3.226  0.4202 -0.0497 -0.1420
13438TIP3    H261730   2.087   1.799   3.076  0.1653 -0.8718 -0.1510
13439TIP3   OH261731   1.492   5.646  12.715 -0.3025 -0.3486  0.0680
13439TIP3    H161732   1.418   5.694  12.751 -0.7026 -0.4175 -0.6309
13439TIP3    H261733   1.517   5.585  12.784  0.0877  0.7167  0.8839
13440TIP3   OH261734   4.031   3.515  16.024 -0.4688  0.0985  0.1404
13440TIP3    H161735   4.086   3.592  16.007 -0.6676  0.1305 -0.3499
13440TIP3    H261736   4.093   3.441  16.024 -0.6062 -0.0702 -1.9674
13441TIP3   OH261737   2.571   3.556  14.508  0.4168 -0.1556  0.0025
13441TIP3    H161738   2.642   3.499  14.480  0.0822 -1.0413  0.8961
13441TIP3    H261739   2.596   3.586  14.595 -0.7301 -1.2919  0.7683
13442TIP3   OH261740   0.004   6.504  14.281 -0.7123 -0.5304  0.3592
13442TIP3    H161741  -0.056   6.465  14.217 -1.3856 -1.3812  1.4865
13442TIP3    H261742  -0.021   6.465  14.365  0.6687 -0.0265  1.0340
13443TIP3   OH261743   6.425   1.157   0.098  0.0590 -0.2462 -0.1563
13443TIP3    H161744   6.504   1.133   0.051 -0.7223 -1.5491 -0.8464
13443TIP3    H261745   6.372   1.078   0.099 -1.0127  0.4487  0.7659
13444TIP3   OH261746   5.190   0.195   1.883 -0.2859  0.4193  0.4681
13444TIP3    H161747   5.227   0.163   1.801 -0.8842 -0.3876  0.5036
13444TIP3    H261748   5.174   0.288   1.868 -0.5217  0.2489 -0.3686
13445TIP3   OH261749   3.358   5.546   2.361 -0.3096 -0.8075 -0.4341
13445TIP3    H161750   3.368   5.602   2.438  1.0591  0.4648 -1.4641
13445TIP3    H261751   3.272   5.568   2.326 -0.8778 -1.2854  0.6310
13446TIP3   OH261752   1.321   4.163  11.367 -0.1822 -0.0146  0.2138
13446TIP3    H161753   1.361   4.094  11.420 -0.3782 -0.8258 -0.6500
13446TIP3    H261754   1.312   4.123  11.280 -0.4236  1.0669 -0.2701
13447TIP3   OH261755   4.154   6.459   6.180 -0.2525 -0.2504 -0.2968
13447TIP3    H161756   4.089   6.443   6.249 -1.6644  2.0893 -0.9568
13447TIP3    H261757   4.230   6.495   6.226  1.0230 -3.6794  0.5759
13448TIP3   OH261758   6.442   2.514  15.738  0.7677 -0.1396  0.0914
13448TIP3    H161759   6.511   2.567  15.699 -0.3167  0.1092 -1.5854
13448TIP3    H261760   6.370   2.576  15.754  0.1982 -0.7332 -0.1041
13449TIP3   OH261761   2.369   1.046  15.146  0.6033 -0.5138  0.1578
13449TIP3    H161762   2.414   1.059  15.063  1.6927  0.0878  0.8232
13449TIP3    H261763   2.328   1.131  15.165 -1.1342 -1.1324 -0.5901
13450TIP3   OH261764   4.682   5.960   4.924 -0.1801 -0.5623 -0.0566
13450TIP3    H161765   4.695   6.055   4.926 -2.9880 -0.0648  2.7708
13450TIP3    H261766   4.686   5.934   5.016 -2.1633 -2.7083 -0.4910
13451TIP3   OH261767   4.512   6.065  17.046  0.0360 -0.6083 -0.1497
13451TIP3    H161768   4.574   6.117  17.098 -0.6452 -1.1461  1.2461
13451TIP3    H261769   4.471   6.129  16.987  1.3683 -0.1242 -0.5900
13452TIP3   OH261770   4.075   3.107   6.383 -0.1260  0.0037 -0.0543
13452TIP3    H161771   4.142   3.085   6.447 -0.8508  0.2553  0.8118
13452TIP3    H261772   4.066   3.202   6.389  0.7973  0.2253 -1.5577
13453TIP3   OH261773   2.556   2.286   2.114 -0.0563 -0.7448 -0.5312
13453TIP3    H161774   2.498   2.329   2.050  0.4791  1.4976  0.3720
13453TIP3    H261775   2.623   2.244   2.061 -0.7030 -0.6152 -1.4881
13454TIP3   OH261776   5.659   3.849   0.627 -0.1511  0.5746  0.4853
13454TIP3    H161777   5.743   3.821   0.591  0.2982  1.5376  0.7813
13454TIP3    H261778   5.607   3.874   0.550 -0.3824 -0.5526  0.2550
13455TIP3   OH261779   3.080   1.421  11.989 -0.1578  0.6731 -0.0994
13455TIP3    H161780   3.119   1.347  11.943 -0.0912  1.1212 -0.7710
13455TIP3    H261781   3.142   1.440  12.060 -0.9766 -0.9465  1.1203
13456TIP3   OH261782   0.354   1.500  14.391 -0.4506 -0.5201 -0.4911
13456TIP3    H161783   0.401   1.552  14.456  0.3369 -0.6003 -0.9815
13456TIP3    H261784   0.361   1.550  14.310 -2.8762  0.4205 -0.1955
13457TIP3   OH261785   4.454   3.756   3.437  0.7261  0.4799  0.3259
13457TIP3    H161786   4.393   3.682   3.429  0.2607  0.8208  0.6947
13457TIP3    H261787   4.404   3.824   3.482  1.8414  0.2152  2.0918
13458TIP3   OH261788   6.118   4.923  14.307  0.3355 -0.1640  0.1444
13458TIP3    H161789   6.107   4.848  14.365  3.1612  0.8021  2.1370
13458TIP3    H261790   6.169   4.890  14.233  1.1839 -0.3312  0.7943
13459TIP3   OH261791   4.576   2.110   3.645 -0.1977 -0.1560 -0.3345
13459TIP3    H161792   4.565   2.078   3.735  1.4483  0.2276  0.0407
13459TIP3    H261793   4.587   2.205   3.654  0.5523 -0.1817 -0.8729
13460TIP3   OH261794   4.217   0.315  15.770 -0.1202  0.1902 -0.7264
13460TIP3    H161795   4.243   0.349  15.684  4.2463 -1.5428 -0.3592
13460TIP3    H261796   4.221   0.391  15.828  2.1610  0.5260 -1.2152
13461TIP3   OH261797   4.632   2.344  12.765 -0.5396 -0.3958 -0.2827
13461TIP3    H161798   4.703   2.289  12.798 -1.0904 -1.3380 -0.6029
13461TIP3    H261799   4.655   2.362  12.674 -0.5654 -0.4572 -0.3018
13462TIP3   OH261800   4.916   0.564   3.322  0.0013  0.3554 -0.1465
13462TIP3    H161801   4.962   0.516   3.391  1.1498  1.3534 -0.1927
13462TIP3    H261802   4.942   0.655   3.335 -2.8799  1.1864  0.5553
13463TIP3   OH261803   5.600   0.494   4.312  0.8926 -0.2168 -1.1272
13463TIP3    H161804   5.584   0.458   4.225 -2.8463 -0.3236 -0.5500
13463TIP3    H261805   5.597   0.418   4.370 -0.2634  0.1982 -0.6026
13464TIP3   OH261806   0.308   5.298   1.211  0.2662  0.1134 -0.3916
13464TIP3    H161807   0.269   5.250   1.284  0.3072  1.8990  0.8701
13464TIP3    H261808   0.366   5.234   1.169 -0.0709 -1.0783  0.8768
13465TIP3   OH261809   4.122   1.953   5.093 -0.2123 -0.1379  0.4983
13465TIP3    H161810   4.169   1.955   5.010 -1.8589 -0.2156 -0.4794
13465TIP3    H261811   4.153   2.030   5.140  1.0390 -0.3117 -0.0002
13466TIP3   OH261812   1.676   3.803  11.040 -0.0695  0.1984  0.2151
13466TIP3    H161813   1.693   3.714  11.070  2.2754  0.2984 -0.6151
13466TIP3    H261814   1.637   3.792  10.953  1.5271 -0.0643 -0.5051
13467TIP3   OH261815   4.434   4.843  11.650 -0.1267  0.0093 -0.4244
13467TIP3    H161816   4.370   4.873  11.586 -0.4758 -2.7958 -1.5105
13467TIP3    H261817   4.397   4.763  11.687  1.0277  0.4122  1.7993
13468TIP3   OH261818   1.312   1.190  12.167  0.0573  0.1439 -0.0832
13468TIP3    H161819   1.231   1.240  12.159  1.1079  1.9690  0.2163
13468TIP3    H261820   1.319   1.170  12.260  0.2565  0.5336 -0.0127
13469TIP3   OH261821   4.464   3.220  13.669 -0.4240  0.0839 -0.1789
13469TIP3    H161822   4.553   3.187  13.660  0.0182  1.3358 -0.6136
13469TIP3    H261823   4.421   3.197  13.586 -0.4467 -0.3554 -0.0435
13470TIP3   OH261824   4.117   0.929  10.517  0.0660 -0.9987 -0.0840
13470TIP3    H161825   4.149   1.019  10.518 -0.5318 -0.7192 -2.0895
13470TIP3    H261826   4.027   0.936  10.549 -0.4918 -0.6050 -1.6298
13471TIP3   OH261827   5.079   3.717  10.942  0.1538  0.0793 -0.5895
13471TIP3    H161828   5.157   3.719  10.886  0.9408  0.5034  0.4847
13471TIP3    H261829   5.108   3.756  11.024 -1.0791 -0.1846 -0.0105
13472TIP3   OH261830   0.450   5.132   0.702  0.0451 -0.2636 -0.0346
13472TIP3    H161831   0.381   5.197   0.715 -0.0618 -0.3141 -0.3267
13472TIP3    H261832   0.439   5.104   0.611  1.8661  1.3631 -0.8106
13473TIP3   OH261833   4.299   0.595  11.319 -0.2029 -0.6173 -0.0948
13473TIP3    H161834   4.216   0.575  11.364  0.3477 -0.5760  0.9682
13473TIP3    H261835   4.359   0.527  11.350  0.4390 -0.0346 -0.0603
13474TIP3   OH261836   4.948   4.743  10.526  0.1412  0.5721  0.0164
13474TIP3    H161837   4.889   4.686  10.574  0.9058  0.4332  0.8310
13474TIP3    H261838   5.032   4.697  10.527  0.5448  1.2805 -0.1169
13475TIP3   OH261839   2.501   4.280   3.048  0.0231  0.6600 -0.1829
13475TIP3    H161840   2.434   4.305   2.985  0.1400  1.7532  0.1236
13475TIP3    H261841   2.464   4.205   3.094 -0.7956  0.9671 -0.3297
13476TIP3   OH261842   4.134   0.925  12.156 -0.1567  0.2307  0.1418
13476TIP3    H161843   4.182   0.999  12.192 -0.3783  0.2405  0.4204
13476TIP3    H261844   4.056   0.918  12.211  0.1112 -0.5251  0.4377
13477TIP3   OH261845   2.483   2.459  16.017 -0.3514  0.0435 -0.0849
13477TIP3    H161846   2.405   2.430  16.064  0.3475 -1.0163  0.4582
13477TIP3    H261847   2.521   2.526  16.074  0.3035 -0.9900  0.7378
13478TIP3   OH261848   0.702   4.649  12.554  0.0986  0.0398  0.0106
13478TIP3    H161849   0.679   4.654  12.647 -1.1601 -0.7899 -0.2274
13478TIP3    H261850   0.649   4.717  12.512  0.4045  0.1793 -0.1542
13479TIP3   OH261851   4.735   6.075   0.057 -0.2241 -0.0391 -0.0563
13479TIP3    H161852   4.743   5.981   0.071 -1.0101 -0.1817 -0.5349
13479TIP3    H261853   4.808   6.097  -0.003  1.7749  0.1980  2.2942
13480TIP3   OH261854   3.782   0.470   1.760 -0.0319  0.3962 -0.5335
13480TIP3    H161855   3.732   0.415   1.821 -0.9195  0.7642 -0.9251
13480TIP3    H261856   3.718   0.529   1.722  0.6678  0.7470 -1.1957
13481TIP3   OH261857   6.500   6.583  12.202  0.6754 -0.0890  0.3271
13481TIP3    H161858   6.460   6.522  12.264 -2.0779  0.8161 -0.4188
13481TIP3    H261859   6.489   6.541  12.117  2.9293 -0.5666  0.2262
13482TIP3   OH261860   0.310   5.266  14.457 -0.1911 -0.7405  0.2888
13482TIP3    H161861   0.345   5.182  14.428  0.4158 -0.4990  0.3032
13482TIP3    H261862   0.387   5.323  14.465 -0.8686  1.1287 -3.8769
13483TIP3   OH261863   2.381   4.115  13.706  0.5464 -0.0533 -0.4399
13483TIP3    H161864   2.411   4.043  13.762  0.1985  0.2600  0.1592
13483TIP3    H261865   2.429   4.192  13.739 -1.0056  0.4939  0.6531
13484TIP3   OH261866   5.652   2.761   1.755  0.4160 -0.0356 -0.0491
13484TIP3    H161867   5.668   2.777   1.662  0.1473 -1.0464 -0.2831
13484TIP3    H261868   5.565   2.720   1.758  0.3135  0.2215  0.6707
13485TIP3   OH261869   3.738   5.298  14.759  0.1228 -0.6575 -0.3004
13485TIP3    H161870   3.684   5.323  14.684  0.8111 -0.6258 -0.7922
13485TIP3    H261871   3.769   5.381  14.796  0.1598 -0.6901 -0.2578
13486TIP3   OH261872   5.246   1.305  15.408 -0.0190  0.5370 -0.2488
13486TIP3    H161873   5.297   1.279  15.485 -0.7578  0.5824  0.2672
13486TIP3    H261874   5.195   1.227  15.385  1.4477 -0.0385 -1.7539
13487TIP3   OH261875   5.901   2.125  16.286  0.2335 -0.1515 -0.0455
13487TIP3    H161876   5.978   2.071  16.301  0.2413 -0.3466 -0.7471
13487TIP3    H261877   5.828   2.074  16.322  0.0620 -1.2389 -1.7823
13488TIP3   OH261878   5.542   0.921   4.374  0.4459  0.2539  0.3386
13488TIP3    H161879   5.482   0.849   4.353 -1.4806  1.8571  0.0287
13488TIP3    H261880   5.511   0.954   4.458  1.2949  0.7038  0.4781
13489TIP3   OH261881   3.387   1.342   1.859 -0.4609 -1.1098 -1.0119
13489TIP3    H161882   3.413   1.253   1.834  0.3429 -0.6673 -1.8222
13489TIP3    H261883   3.469   1.390   1.864 -0.9761 -0.1074 -1.8282
13490TIP3   OH261884   2.627   5.624   3.078  0.6573  0.0063  0.5633
13490TIP3    H161885   2.647   5.710   3.041  0.5433 -0.4508 -0.5787
13490TIP3    H261886   2.532   5.617   3.073  0.5098  0.4604  2.1600
13491TIP3   OH261887   0.799   1.572  16.038  0.2498  0.2516 -0.2606
13491TIP3    H161888   0.709   1.602  16.054 -0.4313 -1.6094 -0.4041
13491TIP3    H261889   0.849   1.653  16.025 -1.5119  1.3203 -0.7503
13492TIP3   OH261890   0.775   6.312  13.060  0.4880 -0.6203 -0.5881
13492TIP3    H161891   0.773   6.407  13.062  1.9809 -0.5681 -0.0559
13492TIP3    H261892   0.840   6.291  12.993  0.4865 -1.2576 -0.4012
13493TIP3   OH261893   5.598   4.976  13.862  0.2104 -0.1022 -0.3180
13493TIP3    H161894   5.525   4.975  13.801 -0.3680  0.0422  0.3551
13493TIP3    H261895   5.587   4.897  13.914 -0.6404  0.9045  1.1155
13494TIP3   OH261896   1.519   0.489   5.308 -0.3002  0.9977  0.5107
13494TIP3    H161897   1.439   0.535   5.283 -1.3988 -1.2617 -0.4276
13494TIP3    H261898   1.579   0.503   5.236 -1.0209  0.1378 -0.2859
13495TIP3   OH261899   3.243   3.622   4.726 -0.0979  0.0221  0.0050
13495TIP3    H161900   3.197   3.669   4.796  1.7228 -1.2342  2.2023
13495TIP3    H261901   3.239   3.530   4.752  0.0779 -0.5751 -1.9348
13496TIP3   OH261902   0.139   0.083  11.882 -0.1517  0.0213 -1.1411
13496TIP3    H161903   0.184   0.025  11.820  0.3417 -0.3705 -0.4342
13496TIP3    H261904   0.137   0.033  11.964 -0.9446  0.4636 -0.8780
13497TIP3   OH261905   1.594   5.060  11.454  0.2549 -0.0960  0.3642
13497TIP3    H161906   1.597   5.111  11.535  0.5786  0.3947  0.0485
13497TIP3    H261907   1.627   4.973  11.479 -0.6634 -0.2762  0.9866
13498TIP3   OH261908   3.061   2.366   2.162  0.3151 -0.1718 -0.4832
13498TIP3    H161909   3.018   2.448   2.135 -0.5202 -0.6849 -0.7335
13498TIP3    H261910   3.097   2.386   2.249 -0.5767  0.2183 -0.1939
13499TIP3   OH261911   5.974   3.683  13.746  0.4437  0.1765  0.1506
13499TIP3    H161912   5.970   3.764  13.696 -1.5980 -0.0765 -0.1830
13499TIP3    H261913   6.027   3.704  13.823  0.1236  1.7556 -0.0366
13500TIP3   OH261914   4.346   5.967   5.911  0.5930 -0.4424  0.1257
13500TIP3    H161915   4.335   5.873   5.893  2.4949 -0.7965  0.6782
13500TIP3    H261916   4.288   5.984   5.985  0.0340 -1.1051 -0.1440
13501TIP3   OH261917   1.699   0.177   5.609 -0.2631 -0.0330 -0.0309
13501TIP3    H161918   1.775   0.226   5.641  1.1631 -1.9695 -0.2669
13501TIP3    H261919   1.737   0.102   5.564 -2.3413 -1.2583  0.1536
13502TIP3   OH261920   6.102   5.645   2.240  0.4058 -0.1360 -0.1263
13502TIP3    H161921   6.197   5.646   2.252  0.4410 -1.3433 -0.2411
13502TIP3    H261922   6.071   5.718   2.293  1.1832 -1.1732  1.8254
13503TIP3   OH261923   1.766   0.426  12.689 -0.4377 -0.0006 -0.2280
13503TIP3    H161924   1.731   0.498  12.637 -3.1199 -0.0544  1.3361
13503TIP3    H261925   1.858   0.448  12.701 -0.9389  2.6183 -0.6696
13504TIP3   OH261926   3.620   5.120  13.975 -0.1384  0.0437  0.1380
13504TIP3    H161927   3.579   5.115  13.889 -1.8285 -1.9041  0.9673
13504TIP3    H261928   3.562   5.177  14.026 -1.9071 -2.5463  1.2536
13505TIP3   OH261929   5.501   0.690  12.554  0.5255 -0.5613  0.6513
13505TIP3    H161930   5.440   0.618  12.572  1.3426 -1.6268 -0.6484
13505TIP3    H261931   5.481   0.717  12.464  0.9464  0.1314  0.7532
13506TIP3   OH261932   1.787   5.681   0.938 -0.0744 -0.4567 -0.6665
13506TIP3    H161933   1.862   5.731   0.972 -0.9369 -0.4246  1.3646
13506TIP3    H261934   1.826   5.605   0.895  1.1530 -0.7070  0.7823
13507TIP3   OH261935   1.790   4.697   1.898  0.3442 -0.4340 -0.3438
13507TIP3    H161936   1.773   4.610   1.936  0.4666  0.5707  2.1980
13507TIP3    H261937   1.869   4.685   1.846  0.5354 -1.7941  0.2095
13508TIP3   OH261938   0.966   5.186   3.901  0.2548  0.2165  0.1470
13508TIP3    H161939   0.900   5.118   3.893  0.4345  0.1437 -1.0001
13508TIP3    H261940   1.031   5.150   3.962 -1.2661  0.7415  2.1617
13509TIP3   OH261941   2.787   1.798   0.283  0.3784 -0.2557  0.0556
13509TIP3    H161942   2.720   1.730   0.277  0.7759 -0.6502  0.0448
13509TIP3    H261943   2.810   1.801   0.376 -0.1641  0.3866  0.1812
13510TIP3   OH261944   4.703   1.597  12.514  0.2144 -0.5690 -0.0005
13510TIP3    H161945   4.786   1.610  12.559 -0.0760  0.1739  0.3396
13510TIP3    H261946   4.722   1.611  12.422  0.2284  0.8195  0.2008
13511TIP3   OH261947   6.367   2.464   3.661 -0.6567 -0.7322  0.0993
13511TIP3    H161948   6.274   2.479   3.642 -0.7260 -0.7918  0.3893
13511TIP3    H261949   6.395   2.399   3.597 -0.7937 -0.6540 -0.0407
13512TIP3   OH261950   0.577   6.760  12.342 -0.3128  0.0989  0.2808
13512TIP3    H161951   0.565   6.674  12.381  0.5418 -0.2853 -0.2813
13512TIP3    H261952   0.494   6.777  12.296 -0.1626 -0.8339 -0.3742
13513TIP3   OH261953   6.202   0.976   3.871 -0.0273 -0.4905  0.0477
13513TIP3    H161954   6.233   1.026   3.946 -2.8183  0.6076  0.5887
13513TIP3    H261955   6.229   0.886   3.889  2.0055  0.2070  0.8031
13514TIP3   OH261956   1.805   4.524   4.354 -0.0026  0.0671 -0.0900
13514TIP3    H161957   1.869   4.461   4.323 -2.5649 -1.5076 -2.6407
13514TIP3    H261958   1.806   4.594   4.289  1.8658  2.1668  2.0136
13515TIP3   OH261959   3.363   1.209  11.544 -0.1776 -0.3333 -0.4892
13515TIP3    H161960   3.451   1.185  11.574 -0.1426  0.1674 -0.1826
13515TIP3    H261961   3.317   1.125  11.535  1.1755 -0.8669 -3.3991
13516TIP3   OH261962   0.294   6.317  15.080  0.2228  0.3207 -0.5462
13516TIP3    H161963   0.360   6.384  15.062 -0.4818  1.0268 -0.5495
13516TIP3    H261964   0.308   6.292  15.171 -0.1222  1.1851 -0.2439
13517TIP3   OH261965   1.650   0.550  10.721  0.8438  0.6320 -0.2919
13517TIP3    H161966   1.698   0.470  10.698  1.5644  0.9152  0.2012
13517TIP3    H261967   1.699   0.621  10.680  1.2021  0.9784  0.7068
13518TIP3   OH261968   0.392   1.295   5.534  0.2106 -0.2165  0.2972
13518TIP3    H161969   0.338   1.332   5.605 -0.1242  0.3600 -0.2490
13518TIP3    H261970   0.478   1.282   5.575  0.1527  0.5510  0.6951
13519TIP3   OH261971   0.295   0.324  13.017  0.7058  0.6509 -0.2786
13519TIP3    H161972   0.210   0.358  12.990  0.8783  2.1288  0.9291
13519TIP3    H261973   0.342   0.310  12.935  0.8964  4.1298 -0.9206
13520TIP3   OH261974   2.495   5.726   3.476  0.4536 -0.0324  0.1009
13520TIP3    H161975   2.416   5.737   3.424  0.5157 -0.6999 -0.1401
13520TIP3    H261976   2.543   5.809   3.465 -0.6051  0.7204  0.9516
13521TIP3   OH261977   0.972   3.493   2.299  0.7440 -0.5052 -0.3492
13521TIP3    H161978   0.916   3.487   2.376 -0.5912 -0.6994 -1.2888
13521TIP3    H261979   0.993   3.586   2.291  1.8775 -0.6344  0.8965
13522TIP3   OH261980   2.582   3.830  16.545 -0.2168  0.2689  0.3344
13522TIP3    H161981   2.576   3.746  16.501 -0.0799  0.6409 -0.4086
13522TIP3    H261982   2.493   3.864  16.545 -0.2220  0.2544  0.3630
13523TIP3   OH261983   1.926   4.226  14.520 -0.2781 -0.7407  0.1504
13523TIP3    H161984   1.918   4.281  14.598  1.7961  0.1923 -0.2201
13523TIP3    H261985   1.861   4.260  14.459 -0.5779 -0.1904  0.7689
13524TIP3   OH261986   4.754   0.492   1.254  0.8833 -0.1307 -0.1037
13524TIP3    H161987   4.835   0.524   1.294  1.0289  1.5771 -1.6554
13524TIP3    H261988   4.684   0.540   1.300  0.8880  0.0085 -0.2429
13525TIP3   OH261989   0.409   4.230   4.082 -0.4493 -0.4253 -0.2077
13525TIP3    H161990   0.369   4.291   4.145  1.0785  1.3281 -0.8409
13525TIP3    H261991   0.346   4.224   4.011 -0.4872  0.7082 -0.2857
13526TIP3   OH261992   1.577   2.828  13.616 -0.2752  0.0642 -0.3248
13526TIP3    H161993   1.500   2.804  13.667  0.6384 -1.2480  0.5091
13526TIP3    H261994   1.646   2.840  13.682  0.6879 -0.6474 -1.1676
13527TIP3   OH261995   3.996   1.461   1.325 -0.1936  0.3754  0.3614
13527TIP3    H161996   4.039   1.546   1.321  1.0179 -0.2091  0.7676
13527TIP3    H261997   3.940   1.459   1.247 -0.2830  1.5555  0.3824
13528TIP3   OH261998   5.402   1.028  10.730  0.1083 -0.2864  0.2554
13528TIP3    H161999   5.309   1.048  10.725  0.5236  2.5133  1.6416
13528TIP3    H262000   5.408   0.936  10.707 -2.5630  0.2265 -3.4435
13529TIP3   OH262001   2.638   2.074  10.874 -1.0374 -0.4624 -0.1103
13529TIP3    H162002   2.580   1.998  10.883 -0.9522 -0.5941 -0.6298
13529TIP3    H262003   2.717   2.039  10.833 -0.1399 -0.4918  1.5593
13530TIP3   OH262004   4.950   1.824  13.203 -0.2706 -0.3481 -0.0225
13530TIP3    H162005   4.992   1.746  13.239  0.5842  0.8664  1.7886
13530TIP3    H262006   5.022   1.873  13.163 -0.7046 -0.2254 -0.6664
13531TIP3   OH262007   2.806   0.377  14.461  0.0559  0.2716  1.0670
13531TIP3    H162008   2.747   0.383  14.537  0.4577  1.4351  1.3107
13531TIP3    H262009   2.854   0.295  14.475 -1.2225 -0.5163  1.0506
13532TIP3   OH262010   6.092   5.640  12.152 -0.1679  0.2349 -0.1561
13532TIP3    H162011   6.028   5.573  12.129  1.0718 -0.8014 -0.6841
13532TIP3    H262012   6.161   5.593  12.198  0.0984  1.3770  0.6526
13533TIP3   OH262013   1.348   2.278   0.953 -0.6250  0.2675 -0.2931
13533TIP3    H162014   1.421   2.286   0.891  0.6628  0.5407  1.2033
13533TIP3    H262015   1.382   2.314   1.035 -2.8108  1.4157  0.1851
13534TIP3   OH262016   4.658   1.104  12.920 -0.0483 -0.1327  0.0559
13534TIP3    H162017   4.626   1.145  12.840 -1.5830 -1.1790  0.0886
13534TIP3    H262018   4.688   1.018  12.893  0.4153 -0.0955  0.4413
13535TIP3   OH262019   5.004   5.981   5.064  0.0643 -0.0482 -0.2580
13535TIP3    H162020   5.010   6.032   4.983  1.5797  1.4881  0.7701
13535TIP3    H262021   4.920   6.006   5.102 -0.1159  0.1304 -0.7644
13536TIP3   OH262022   0.202   3.858   1.179 -0.0929 -0.5567  0.4695
13536TIP3    H162023   0.244   3.771   1.179  0.5091 -0.2891 -1.0818
13536TIP3    H262024   0.140   3.855   1.107  0.3694  0.5016  0.0153
13537TIP3   OH262025   4.183   3.122  13.028  0.3155  0.3816 -0.4048
13537TIP3    H162026   4.144   3.059  12.966  0.6020 -1.0831  0.8300
13537TIP3    H262027   4.109   3.151  13.081  0.1996  1.0259 -0.9108
13538TIP3   OH262028   2.149   6.547  13.673  0.6170  0.1284  0.3085
13538TIP3    H162029   2.193   6.481  13.727  1.7043  0.1531 -0.5249
13538TIP3    H262030   2.082   6.498  13.626  2.2222 -0.6749 -1.2446
13539TIP3   OH262031   0.307   3.395   4.284 -0.7113  0.2176 -0.2937
13539TIP3    H162032   0.317   3.483   4.249  2.7991 -0.5494 -1.6389
13539TIP3    H262033   0.270   3.345   4.212 -2.5418  0.4628  0.4151
13540TIP3   OH262034   6.141   0.688  13.178  0.0612 -0.3071  0.6779
13540TIP3    H162035   6.204   0.668  13.247 -0.0260 -0.3983  0.7318
13540TIP3    H262036   6.143   0.610  13.121  1.8614  0.6968 -0.7360
13541TIP3   OH262037   3.575   2.362   5.330  0.1612  0.0954  0.2718
13541TIP3    H162038   3.635   2.374   5.403  1.0538 -1.9623 -0.0520
13541TIP3    H262039   3.623   2.394   5.254  0.4694 -0.6445  0.1522
13542TIP3   OH262040   0.222   2.394  12.774 -0.0039  0.7827  1.0641
13542TIP3    H162041   0.283   2.454  12.818 -0.3553  1.0629  1.1749
13542TIP3    H262042   0.179   2.347  12.845 -0.1631  0.8291  0.9990
13543TIP3   OH262043   0.779   4.709   4.061  0.1810 -0.4016  0.0261
13543TIP3    H162044   0.775   4.619   4.027  0.8346 -1.2655  2.0533
13543TIP3    H262045   0.866   4.714   4.101 -0.4908  0.5770  1.4055
13544TIP3   OH262046   0.403   5.192  15.099 -0.0502  0.0638 -0.0051
13544TIP3    H162047   0.447   5.220  15.019 -1.6610  0.1385 -0.9233
13544TIP3    H262048   0.396   5.097  15.091  0.8534 -0.0673  0.6435
13545TIP3   OH262049   3.048   5.839  14.779 -0.0809  0.4300  0.1831
13545TIP3    H162050   3.004   5.906  14.727  0.8665  0.8255 -0.1328
13545TIP3    H262051   2.994   5.761  14.768 -0.1615  0.6366 -1.0153
13546TIP3   OH262052   0.037   4.717  16.883  0.1088  0.2176  0.2648
13546TIP3    H162053   0.070   4.690  16.797 -0.7061  0.4398 -0.1346
13546TIP3    H262054  -0.020   4.645  16.910  1.6666 -0.6410  1.4164
13547TIP3   OH262055   5.215   3.113   0.260 -0.3296 -0.7622  0.2947
13547TIP3    H162056   5.286   3.078   0.207  0.3669 -0.6900  1.1451
13547TIP3    H262057   5.257   3.181   0.313 -1.7323  1.8768 -1.7399
13548TIP3   OH262058   1.508   1.258  15.889  0.4114 -0.0262 -0.4578
13548TIP3    H162059   1.417   1.253  15.919  1.1608 -4.3906  2.0535
13548TIP3    H262060   1.508   1.215  15.804 -0.0004  1.3957 -1.2103
13549TIP3   OH262061   2.622   4.646  14.837 -0.3414  0.5481  0.0197
13549TIP3    H162062   2.691   4.612  14.780 -1.0936 -0.4309 -0.3551
13549TIP3    H262063   2.616   4.739  14.815 -0.0436  0.3602 -0.9215
13550TIP3   OH262064   2.545   2.119   1.578 -0.0026  0.5553 -0.1809
13550TIP3    H162065   2.637   2.132   1.556  0.1017  0.9932  0.4657
13550TIP3    H262066   2.497   2.172   1.514  0.1560 -0.2075 -0.9409
13551TIP3   OH262067   6.094   3.315   2.214  0.4768 -0.2089 -0.6923
13551TIP3    H162068   6.096   3.260   2.135  0.9751 -0.7657 -0.3037
13551TIP3    H262069   6.005   3.352   2.215  0.1152 -1.0320 -0.9552
13552TIP3   OH262070   4.017   4.907   2.333  0.0756 -0.7245 -0.3902
13552TIP3    H162071   4.095   4.962   2.327  0.1838 -0.7337  0.7058
13552TIP3    H262072   4.018   4.854   2.253 -0.4898  1.4207 -1.9098
13553TIP3   OH262073   4.009   4.253  13.584  0.2528  0.4403  0.3388
13553TIP3    H162074   3.928   4.211  13.554 -0.8677  2.8503 -0.3330
13553TIP3    H262075   4.079   4.197  13.551 -1.1160 -0.7495 -0.6925
13554TIP3   OH262076   6.559   0.564   1.277 -0.2582 -0.0166 -0.3037
13554TIP3    H162077   6.539   0.609   1.195 -2.2208 -1.0555 -0.4536
13554TIP3    H262078   6.581   0.474   1.251  2.5857  0.4705  0.0751
13555TIP3   OH262079   2.993   5.115   3.816 -0.4117 -0.0164 -0.1926
13555TIP3    H162080   3.075   5.139   3.772 -0.3613  0.8987  0.3605
13555TIP3    H262081   2.924   5.142   3.756 -0.3196  0.1128 -0.2408
13556TIP3   OH262082   0.027   5.249  14.161  0.2007  0.0650  0.2826
13556TIP3    H162083  -0.046   5.270  14.103  1.5207  1.8860 -0.8411
13556TIP3    H262084   0.068   5.173  14.120 -0.6935 -0.5949  0.5871
13557TIP3   OH262085   3.304   6.464  12.352  0.4551  0.4450 -0.7034
13557TIP3    H162086   3.229   6.409  12.375 -0.1470  1.0966 -1.0434
13557TIP3    H262087   3.267   6.530  12.293  1.5484  0.0179 -1.9252
13558TIP3   OH262088   3.566   2.207   4.798 -0.0135 -0.1908  0.0878
13558TIP3    H162089   3.660   2.213   4.782  0.3223  3.2539  2.1916
13558TIP3    H262090   3.527   2.268   4.735 -0.8766 -1.5479 -0.7277
13559TIP3   OH262091   2.030   2.728   3.278 -0.2738  0.1559  0.6425
13559TIP3    H162092   2.094   2.755   3.212 -2.2668  0.0630 -1.4386
13559TIP3    H262093   1.983   2.808   3.300 -1.9999 -0.4067 -0.8140
13560TIP3   OH262094   4.207   0.570  12.180 -0.4002  0.0087  0.3000
13560TIP3    H162095   4.119   0.607  12.186 -0.6301 -0.4305 -0.2599
13560TIP3    H262096   4.194   0.484  12.140  0.4638  0.7150 -1.6270
13561TIP3   OH262097   5.365   1.936  12.600 -0.4944  0.1265 -0.2004
13561TIP3    H162098   5.398   1.995  12.668 -1.7960 -0.7013  1.2263
13561TIP3    H262099   5.433   1.869  12.591 -0.1488  0.4428  0.0229
13562TIP3   OH262100   1.499   1.768  16.603  0.0845  0.2830  0.2031
13562TIP3    H162101   1.473   1.798  16.516  1.4898  1.0814  0.0258
13562TIP3    H262102   1.437   1.810  16.663 -0.7715 -0.1185 -0.3947
13563TIP3   OH262103   0.820   2.911  16.403 -0.6914  0.0822  0.4723
13563TIP3    H162104   0.792   2.991  16.359 -0.8685  0.4228  1.1758
13563TIP3    H262105   0.913   2.926  16.422 -1.3615  1.4463  3.2447
13564TIP3   OH262106   2.045   2.196   5.662 -0.0407  0.1811  0.0293
13564TIP3    H162107   1.978   2.264   5.652 -0.6044  0.0885  2.4082
13564TIP3    H262108   1.999   2.121   5.698  0.7243 -1.2517 -1.8382
13565TIP3   OH262109   6.112   4.926   4.017  0.1670  0.1105 -0.0657
13565TIP3    H162110   6.154   4.921   3.931  1.0108  0.9685  0.2770
13565TIP3    H262111   6.155   4.858   4.069  0.3573  0.2460 -0.0433
13566TIP3   OH262112   6.390   2.392  15.980  0.4040  0.2969  0.5459
13566TIP3    H162113   6.374   2.485  15.999  0.6975  0.8004 -1.4149
13566TIP3    H262114   6.391   2.387  15.884  0.1683 -1.7883  0.6063
13567TIP3   OH262115   6.008   0.097   5.855 -0.0674 -0.1901 -0.3040
13567TIP3    H162116   6.000   0.145   5.937  0.4812  0.2850 -0.5216
13567TIP3    H262117   5.935   0.035   5.856  1.0105 -1.5131  1.3927
13568TIP3   OH262118   0.860   2.965   1.755 -0.3218  0.5394 -0.1931
13568TIP3    H162119   0.839   3.053   1.786 -0.2813  0.2661  0.6507
13568TIP3    H262120   0.822   2.960   1.668 -1.1553  1.0698  0.1308
13569TIP3   OH262121   3.365   1.358  11.300 -0.5169 -0.3071  0.0444
13569TIP3    H162122   3.398   1.306  11.374  1.3182 -1.5212 -1.5158
13569TIP3    H262123   3.382   1.449  11.326  3.1607 -0.7844 -0.0710
13570TIP3   OH262124   4.606   4.729  12.314 -0.5063 -0.4834  0.7797
13570TIP3    H162125   4.648   4.814  12.325 -1.0483 -0.2177  0.8129
13570TIP3    H262126   4.522   4.749  12.272  0.6341 -1.2514 -2.1362
13571TIP3   OH262127   6.307   6.400  11.990  0.0437  0.4872 -0.1864
13571TIP3    H162128   6.326   6.445  11.908  0.4084  2.8330  1.0892
13571TIP3    H262129   6.213   6.413  12.004 -0.2710 -0.9558 -0.7718
13572TIP3   OH262130   5.951   0.933  13.918  0.2868 -0.0666  0.0352
13572TIP3    H162131   5.999   0.851  13.929 -1.0501 -1.0824 -1.2752
13572TIP3    H262132   5.879   0.927  13.981 -0.0324 -0.0764 -0.3300
13573TIP3   OH262133   4.050   6.620   4.564  0.1823 -0.2572 -0.2192
13573TIP3    H162134   3.968   6.613   4.614  0.7333 -0.6312  0.6506
13573TIP3    H262135   4.118   6.623   4.631  0.7337  3.5708 -0.7167
13574TIP3   OH262136   1.722   3.379   0.535 -0.6367  0.0074 -0.1623
13574TIP3    H162137   1.636   3.388   0.576 -0.7754 -1.4836 -0.0478
13574TIP3    H262138   1.703   3.382   0.441 -0.9953 -1.3510 -0.1634
13575TIP3   OH262139   4.147   1.247   2.453 -0.2931 -0.5497  0.0558
13575TIP3    H162140   4.115   1.269   2.365  0.6774 -0.0367 -0.1778
13575TIP3    H262141   4.235   1.285   2.457 -0.3404 -0.5352  1.2681
13576TIP3   OH262142   0.567   3.582  13.411 -0.5803  0.2746  0.6847
13576TIP3    H162143   0.580   3.668  13.371  0.4621 -0.2585 -0.1938
13576TIP3    H262144   0.472   3.569  13.410 -0.6849  0.9865 -0.1171
13577TIP3   OH262145   0.647   5.378  13.324  0.3175 -0.2512 -0.1177
13577TIP3    H162146   0.692   5.455  13.358  0.2336  0.2538 -1.0874
13577TIP3    H262147   0.587   5.413  13.257  0.6587 -1.1951 -0.9522
13578TIP3   OH262148   0.885   1.929   0.097  0.8206 -0.0794 -0.1394
13578TIP3    H162149   0.967   1.978   0.085  1.0731 -0.1612  1.1194
13578TIP3    H262150   0.859   1.904   0.008  2.2243 -0.1499 -0.5514
13579TIP3   OH262151   3.881   1.940  11.597 -0.5160 -0.2455  0.5121
13579TIP3    H162152   3.907   1.858  11.638  1.4681 -0.2053 -0.5548
13579TIP3    H262153   3.791   1.953  11.625  0.2163 -0.9782  3.6227
13580TIP3   OH262154   3.013   2.361  16.825  0.2228 -0.5092 -0.5476
13580TIP3    H162155   3.108   2.366  16.828  0.3004 -2.0256  0.3694
13580TIP3    H262156   2.992   2.372  16.732  1.2240  0.5673 -0.6678
13581TIP3   OH262157   5.292   0.757   1.394  0.7443 -0.1593 -0.4153
13581TIP3    H162158   5.354   0.723   1.458  0.3297 -1.0290 -0.4582
13581TIP3    H262159   5.345   0.809   1.334  1.7086 -2.1211 -1.3606
13582TIP3   OH262160   1.861   2.896   0.263 -0.2377  0.2756 -0.0495
13582TIP3    H162161   1.832   2.987   0.269  2.1162  1.1013 -0.1641
13582TIP3    H262162   1.956   2.900   0.274  0.1788 -1.9598 -2.0651
13583TIP3   OH262163   2.556   5.625   2.696  0.5575 -0.1354  0.1605
13583TIP3    H162164   2.467   5.630   2.660  1.0968 -0.6720 -1.3392
13583TIP3    H262165   2.607   5.684   2.641  0.8300  1.6069  2.1537
13584TIP3   OH262166   0.950   1.833  14.046 -0.3027  0.0772 -0.0354
13584TIP3    H162167   1.005   1.781  13.987  1.1730  1.9579 -0.3978
13584TIP3    H262168   0.869   1.782  14.053  0.2131 -1.1689 -2.1211
13585TIP3   OH262169   3.109   3.996   5.737 -0.5636  0.2508 -0.2860
13585TIP3    H162170   3.085   3.918   5.687  0.8937 -1.1297  1.0400
13585TIP3    H262171   3.087   3.974   5.827  0.6239  1.0334  0.2185
13586TIP3   OH262172   2.038   4.260  11.679 -0.5191  0.0409 -0.2105
13586TIP3    H162173   2.027   4.191  11.613 -1.2401  0.5244 -0.6064
13586TIP3    H262174   1.949   4.278  11.710 -0.1912 -0.2384  0.9708
13587TIP3   OH262175   2.735   6.087  12.815 -0.3949  0.6928 -0.7617
13587TIP3    H162176   2.787   6.017  12.775 -1.9740 -1.1423  0.2093
13587TIP3    H262177   2.784   6.112  12.893 -0.1039  0.2423 -0.7964
13588TIP3   OH262178   5.565   5.471   5.832  0.5971 -0.0329  0.4686
13588TIP3    H162179   5.604   5.387   5.856  0.8970  0.4889  1.9733
13588TIP3    H262180   5.565   5.472   5.737  1.3915 -1.3684  0.4336
13589TIP3   OH262181   3.518   4.088   3.179 -0.0667  0.1619  0.0803
13589TIP3    H162182   3.549   4.016   3.124 -0.2176  0.2932 -0.1840
13589TIP3    H262183   3.555   4.166   3.138 -1.2355  0.3820 -0.6141
13590TIP3   OH262184   0.087   5.552   5.872 -0.0635  0.0796  0.4588
13590TIP3    H162185   0.014   5.498   5.903 -0.1875  1.0618  2.0003
13590TIP3    H262186   0.162   5.492   5.871 -0.5808 -0.5808  0.2914
13591TIP3   OH262187   4.816   2.965   5.849 -0.4981 -0.1602 -0.0863
13591TIP3    H162188   4.733   3.006   5.824 -1.5761 -1.9900  0.3317
13591TIP3    H262189   4.874   3.039   5.867 -2.3368  1.1939  0.6068
13592TIP3   OH262190   2.562   1.379   0.937 -0.0344 -0.5277  0.3705
13592TIP3    H162191   2.575   1.289   0.907 -1.0033 -0.4440 -0.3484
13592TIP3    H262192   2.519   1.423   0.863  2.2044  1.0631 -0.0812
13593TIP3   OH262193   1.311   1.094   0.273  0.2108 -0.5909  0.1301
13593TIP3    H162194   1.302   1.004   0.242 -2.2919 -0.4108  0.1918
13593TIP3    H262195   1.238   1.107   0.333  0.4650  1.5148  0.0588
13594TIP3   OH262196   0.041   4.420   6.376  0.2108 -0.0046  0.0298
13594TIP3    H162197  -0.001   4.503   6.352  0.2680 -0.1148 -0.4721
13594TIP3    H262198   0.104   4.443   6.444 -1.8696 -0.0986  2.0974
13595TIP3   OH262199   5.020   6.052   4.425  0.0895 -0.2757 -0.1789
13595TIP3    H162200   5.087   6.040   4.491 -0.3455 -0.1600  0.2865
13595TIP3    H262201   4.962   5.977   4.435  0.4339 -0.6608 -0.9341
13596TIP3   OH262202   1.948   3.478   5.578 -0.2661 -0.2016  0.2892
13596TIP3    H162203   1.977   3.570   5.579 -0.8602 -0.0141  0.8697
13596TIP3    H262204   2.022   3.431   5.540  0.3235  0.4271  0.6295
13597TIP3   OH262205   0.482   3.260   6.563  0.5001 -0.2884 -0.4033
13597TIP3    H162206   0.577   3.265   6.561  0.4875 -0.2319 -0.9765
13597TIP3    H262207   0.454   3.345   6.598  0.6548 -0.2137 -0.4599
13598TIP3   OH262208   3.818   0.014   1.224 -0.1580 -0.1830 -0.0115
13598TIP3    H162209   3.909  -0.015   1.238 -0.1888 -0.5923 -0.6229
13598TIP3    H262210   3.826   0.108   1.206  0.2272 -0.3773 -0.8739
13599TIP3   OH262211   4.557   6.072  16.673 -0.2199  0.4466  0.2808
13599TIP3    H162212   4.472   6.056  16.715 -0.5204  0.3291 -0.3518
13599TIP3    H262213   4.585   6.156  16.708 -0.0676 -0.0251  1.3361
13600TIP3   OH262214   2.189   6.063   1.257  0.1145 -0.5911 -0.4443
13600TIP3    H162215   2.217   6.023   1.339  0.3006  0.3621 -0.0258
13600TIP3    H262216   2.255   6.130   1.239  0.1363 -0.8679 -1.4382
13601TIP3   OH262217   2.430   4.925   6.338  0.7465 -1.1400 -0.3071
13601TIP3    H162218   2.472   4.996   6.291  1.2287 -0.6498  0.8323
13601TIP3    H262219   2.468   4.928   6.426 -1.6838 -0.6514  0.7948
13602TIP3   OH262220   2.164   1.707  15.808  0.4228  0.2313 -0.0815
13602TIP3    H162221   2.069   1.717  15.799  0.4478 -1.4150 -4.2309
13602TIP3    H262222   2.179   1.613  15.807  2.1882  0.4021 -3.7265
13603TIP3   OH262223   5.636   0.352  13.667 -0.0453 -0.2259 -0.3303
13603TIP3    H162224   5.683   0.279  13.708  0.1434 -0.2661 -0.6127
13603TIP3    H262225   5.641   0.334  13.573  2.5807  1.6506 -0.6495
13604TIP3   OH262226   4.289   2.705   3.591  0.0617  0.0717  0.1628
13604TIP3    H162227   4.360   2.724   3.530  0.6697  0.4844  0.9784
13604TIP3    H262228   4.330   2.708   3.678 -0.4164 -2.1205  0.5213
13605TIP3   OH262229   2.799   1.271  11.516  0.0360 -0.3581 -0.1630
13605TIP3    H162230   2.712   1.282  11.555 -0.3284  2.6568 -1.5291
13605TIP3    H262231   2.782   1.235  11.429  0.2197 -0.3124 -0.2180
13606TIP3   OH262232   5.419   3.569   0.544  0.8696 -0.4857  0.3971
13606TIP3    H162233   5.347   3.629   0.562 -0.2520 -1.5439 -0.4340
13606TIP3    H262234   5.456   3.550   0.630 -0.8320 -1.1138  1.0249
13607TIP3   OH262235   1.776   0.166   5.231  0.1711 -0.1303  0.4272
13607TIP3    H162236   1.805   0.154   5.140  2.6296 -1.3003  1.2622
13607TIP3    H262237   1.825   0.242   5.261 -0.4645  0.1170  0.8503
13608TIP3   OH262238   0.117   5.774  15.323  0.2070 -0.4428 -0.3644
13608TIP3    H162239   0.148   5.798  15.235 -1.7060 -0.4730 -1.0894
13608TIP3    H262240   0.073   5.853  15.355  2.0783  0.0422  1.1909
13609TIP3   OH262241   0.726   5.053  12.737  1.0455  0.2318  0.9156
13609TIP3    H162242   0.733   5.148  12.746  1.0053  0.4105 -0.6339
13609TIP3    H262243   0.816   5.022  12.743  1.1955  0.5131  0.2932
13610TIP3   OH262244   6.206   2.787   2.086  0.3809  0.3607  0.3210
13610TIP3    H162245   6.265   2.806   2.013  2.1361 -0.2761  1.4950
13610TIP3    H262246   6.192   2.693   2.083 -2.2392  0.7157 -1.0831
13611TIP3   OH262247   4.218   0.208  14.745 -0.3490  0.1683  0.3302
13611TIP3    H162248   4.294   0.215  14.686  0.9168  1.1425  1.9912
13611TIP3    H262249   4.207   0.297  14.780 -0.3403 -0.5842  2.3747
13612TIP3   OH262250   6.585   3.743   3.288 -0.2355 -0.2903  0.4254
13612TIP3    H162251   6.681   3.741   3.289 -0.2193 -0.1319  2.0197
13612TIP3    H262252   6.563   3.783   3.204  1.1648  1.5387  0.8533
13613TIP3   OH262253   1.139   3.675  11.694 -0.2282  0.6645  0.1659
13613TIP3    H162254   1.049   3.696  11.719 -0.9994 -1.2158 -0.7773
13613TIP3    H262255   1.133   3.587  11.657  1.9470  0.6675 -0.3267
13614TIP3   OH262256   0.731   2.670  16.620 -0.0330 -0.1738  0.4827
13614TIP3    H162257   0.684   2.753  16.616 -1.0615 -0.7526  0.1184
13614TIP3    H262258   0.783   2.675  16.700 -0.7253  0.4792  0.9031
13615TIP3   OH262259   0.963   2.213   3.520  0.3823  0.2322  0.2424
13615TIP3    H162260   0.897   2.181   3.582 -0.4101 -1.0223 -1.1958
13615TIP3    H262261   0.958   2.309   3.527 -1.2803  0.1526  0.4881
13616TIP3   OH262262   6.428   0.993  13.482  0.0588 -0.0866 -0.5469
13616TIP3    H162263   6.361   1.041  13.433  1.3252  0.1061 -2.1922
13616TIP3    H262264   6.388   0.976  13.567 -2.2247 -0.3793 -1.6000
13617TIP3   OH262265   0.630   0.268   5.581  0.6549  0.3664 -0.0701
13617TIP3    H162266   0.706   0.217   5.612  0.5050 -0.2881 -0.7540
13617TIP3    H262267   0.652   0.291   5.491  0.3805  0.8566 -0.0108
13618TIP3   OH262268   1.422   3.633   5.627 -0.9176 -0.6018 -0.8414
13618TIP3    H162269   1.403   3.539   5.634  0.5127 -0.8266  0.4225
13618TIP3    H262270   1.342   3.676   5.656 -1.0662 -1.4475  0.0489
13619TIP3   OH262271   0.016   2.894   2.283 -0.3311 -0.1733  0.3234
13619TIP3    H162272  -0.036   2.838   2.225  2.9276 -1.7916 -1.2511
13619TIP3    H262273  -0.046   2.960   2.313 -2.9999 -1.2492 -2.3009
13620TIP3   OH262274   5.534   1.165  11.443 -0.5894  0.4218  0.2872
13620TIP3    H162275   5.605   1.207  11.492 -0.0915  0.1364 -0.1855
13620TIP3    H262276   5.544   1.072  11.460 -0.6627  0.3545 -0.0329
13621TIP3   OH262277   6.568   5.505  15.095 -0.1462  0.3635  0.0642
13621TIP3    H162278   6.543   5.414  15.078  0.2092  0.4951 -1.2584
13621TIP3    H262279   6.660   5.501  15.119 -0.3079  0.3066  0.6735
13622TIP3   OH262280   2.667   2.937  15.071  0.1144  0.2855 -0.6889
13622TIP3    H162281   2.716   2.947  15.153  2.9176  0.3490 -2.2291
13622TIP3    H262282   2.639   3.026  15.050 -1.7045  0.1007  0.7402
13623TIP3   OH262283   5.676   3.735   5.959  0.5906 -0.4420 -0.2588
13623TIP3    H162284   5.707   3.713   5.871  0.0115 -0.5841 -0.4298
13623TIP3    H262285   5.585   3.762   5.946  0.1359 -1.5784  0.4316
13624TIP3   OH262286   5.809   2.666   5.831  0.1450  0.2440 -0.4639
13624TIP3    H162287   5.816   2.758   5.858  0.6591  0.0300  0.1520
13624TIP3    H262288   5.718   2.643   5.846  0.7535 -0.4027  2.9096
13625TIP3   OH262289   4.859   5.057  13.107  0.3176 -0.2435  0.1348
13625TIP3    H162290   4.807   5.097  13.176  0.8396 -1.1047  1.0673
13625TIP3    H262291   4.816   5.082  13.025 -1.7590 -1.2116  0.8784
13626TIP3   OH262292   5.490   2.201   2.612 -0.1125 -0.3904 -0.6797
13626TIP3    H162293   5.417   2.141   2.595  0.7909 -1.3140 -1.4641
13626TIP3    H262294   5.516   2.182   2.703  0.8471 -2.0178 -1.2468
13627TIP3   OH262295   1.786   1.953  11.825  0.1121  0.2411 -0.0062
13627TIP3    H162296   1.757   1.877  11.875  1.2222 -0.0016  0.3059
13627TIP3    H262297   1.750   1.939  11.737  0.2910 -0.6381  0.0537
13628TIP3   OH262298   4.952   0.679  15.199  0.1769 -0.0747  0.1214
13628TIP3    H162299   5.007   0.651  15.125 -1.0650 -2.8035  0.1145
13628TIP3    H262300   4.882   0.730  15.158  0.9341  0.7144 -0.2319
13629TIP3   OH262301   4.343   4.260  14.743 -0.2473 -0.0060 -0.0661
13629TIP3    H162302   4.332   4.261  14.648 -0.7732 -1.3108 -0.0324
13629TIP3    H262303   4.408   4.193  14.759  0.7395  1.0435  0.4310
13630TIP3   OH262304   2.929   6.426   2.475  0.1881  0.4850 -0.9931
13630TIP3    H162305   2.898   6.336   2.464  0.6093  0.2672 -0.4573
13630TIP3    H262306   2.970   6.448   2.392  1.1251 -0.2401 -0.7418
13631TIP3   OH262307   0.450   2.451  14.008 -0.1230  0.1887 -0.6616
13631TIP3    H162308   0.490   2.534  13.981 -1.2889  0.6106 -1.1548
13631TIP3    H262309   0.501   2.384  13.963  0.7118  0.6410 -0.4083
13632TIP3   OH262310   3.924   6.273  14.175  0.4406  0.1220 -0.4599
13632TIP3    H162311   3.891   6.248  14.089  2.1486 -2.1630 -0.5675
13632TIP3    H262312   3.867   6.228  14.237  1.3569 -1.2499 -0.5605
13633TIP3   OH262313   3.886   1.935  13.628 -0.3360 -0.2932 -0.1158
13633TIP3    H162314   3.878   1.945  13.723 -0.3541  0.5867 -0.2076
13633TIP3    H262315   3.980   1.944  13.611  0.0187 -2.8053  0.0653
13634TIP3   OH262316   4.211   4.578   2.015 -0.1648 -0.3319  0.0902
13634TIP3    H162317   4.254   4.638   2.076  0.3730 -1.6528  1.0388
13634TIP3    H262318   4.170   4.512   2.070 -0.0110 -1.3348 -0.9631
13635TIP3   OH262319   4.245   3.499  15.374 -0.2087  0.0127  0.3620
13635TIP3    H162320   4.246   3.455  15.459  1.7604  1.6415  1.2595
13635TIP3    H262321   4.152   3.509  15.353 -0.7969 -3.5871  0.5224
13636TIP3   OH262322   3.238   1.353  12.409  0.6484 -0.0342 -0.2752
13636TIP3    H162323   3.170   1.285  12.413  0.6766 -0.0372  0.3017
13636TIP3    H262324   3.208   1.414  12.342 -1.0260  1.1172  1.4167
13637TIP3   OH262325   4.743   1.038  16.811  0.6397  0.6490  0.0458
13637TIP3    H162326   4.792   1.119  16.794  1.2931  0.3461  0.4291
13637TIP3    H262327   4.724   1.003  16.724 -2.5490  2.8528 -0.3128
13638TIP3   OH262328   1.210   0.873  12.817  0.7945  0.4408  0.4058
13638TIP3    H162329   1.133   0.912  12.860  0.5710 -0.4087  0.8049
13638TIP3    H262330   1.206   0.780  12.841  2.0215  0.4073  0.5292
13639TIP3   OH262331   5.909   2.276   0.002  0.3733 -0.5107  0.4235
13639TIP3    H162332   5.966   2.200   0.006  0.4314 -0.4815  0.1185
13639TIP3    H262333   5.839   2.257   0.065 -0.8637 -1.8377 -1.2637
13640TIP3   OH262334   0.064   4.652   0.282  0.0199 -0.0871 -0.1132
13640TIP3    H162335   0.101   4.703   0.355 -0.9245  0.7358 -0.1922
13640TIP3    H262336   0.031   4.717   0.221 -0.4494 -0.7909 -0.6276
13641TIP3   OH262337   1.068   1.169   3.271  0.0805 -0.0439  0.2776
13641TIP3    H162338   1.019   1.162   3.189  0.4860 -1.0337  0.1137
13641TIP3    H262339   1.002   1.195   3.335 -0.3526  0.1563 -0.2338
13642TIP3   OH262340   1.475   2.062  13.043  0.2692  0.3963  0.1490
13642TIP3    H162341   1.568   2.078  13.060  0.3808 -0.8913  0.9163
13642TIP3    H262342   1.472   2.039  12.950  0.6390  1.0000 -0.0158
13643TIP3   OH262343   4.114   3.997  15.419  0.1233 -0.2865 -0.5661
13643TIP3    H162344   4.201   4.022  15.452  0.3682 -1.0357 -0.6108
13643TIP3    H262345   4.096   3.913  15.461 -0.8998  0.1869 -0.0192
13644TIP3   OH262346   2.033   2.978   1.339  0.5045 -0.1431 -0.4083
13644TIP3    H162347   2.042   2.936   1.253  1.5773 -0.7317 -0.0281
13644TIP3    H262348   2.040   2.907   1.402 -0.4501  0.2674  0.1771
13645TIP3   OH262349   4.500   1.247  12.727  0.1363  0.5744  0.1389
13645TIP3    H162350   4.424   1.298  12.698 -0.3367 -0.5444 -0.6498
13645TIP3    H262351   4.525   1.195  12.650  0.8985 -0.0248  0.7769
13646TIP3   OH262352   4.547   6.070   3.365  0.2753 -0.2821 -0.1184
13646TIP3    H162353   4.564   6.155   3.324 -1.9560 -0.3672 -1.3949
13646TIP3    H262354   4.550   6.008   3.292 -0.4862 -0.9392  0.3929
13647TIP3   OH262355   0.503   5.668   3.073  0.9092 -0.3468  0.2387
13647TIP3    H162356   0.414   5.638   3.052  0.9997  0.1414 -0.8984
13647TIP3    H262357   0.542   5.595   3.120 -0.4115 -0.2003  1.6658
13648TIP3   OH262358   3.356   3.540   2.035 -0.6537  0.8213 -0.0780
13648TIP3    H162359   3.420   3.512   2.101 -1.1427 -1.7010 -0.5639
13648TIP3    H262360   3.271   3.534   2.079 -0.7173  3.0143  0.2045
13649TIP3   OH262361   3.187   6.725   0.504  0.0858 -0.0617 -0.5033
13649TIP3    H162362   3.223   6.735   0.592 -0.4136 -0.6558 -0.2161
13649TIP3    H262363   3.092   6.726   0.517  0.0074 -1.1289 -0.9061
13650TIP3   OH262364   0.400   4.157  11.499 -0.3409 -0.1045  0.2331
13650TIP3    H162365   0.485   4.199  11.486  0.1773 -0.9216  0.9052
13650TIP3    H262366   0.356   4.167  11.414  0.4042  0.3553 -0.1150
13651TIP3   OH262367   6.038   0.723  16.578  0.1866  0.2024 -0.0591
13651TIP3    H162368   6.085   0.654  16.625  2.9715  2.7493  1.2864
13651TIP3    H262369   5.961   0.741  16.631  0.3757 -0.6937  0.5387
13652TIP3   OH262370   3.491   2.084   5.672 -0.0529 -0.3155  1.1498
13652TIP3    H162371   3.401   2.084   5.638  0.1438 -1.0159  0.5967
13652TIP3    H262372   3.546   2.078   5.594  0.4711 -0.0106  1.4932
13653TIP3   OH262373   6.207   0.727   5.690 -0.0247 -0.2749 -0.5684
13653TIP3    H162374   6.194   0.803   5.746  0.6489  0.3809 -1.2776
13653TIP3    H262375   6.299   0.705   5.700 -0.4316 -1.6660  0.4306
13654TIP3   OH262376   6.650   3.434  14.234  0.1889  0.3374 -0.3466
13654TIP3    H162377   6.684   3.383  14.160  0.3888  0.1418 -0.1251
13654TIP3    H262378   6.657   3.525  14.205 -0.0772  0.2480 -0.7078
13655TIP3   OH262379   1.136   4.163   5.021  0.0140  0.5358 -0.1770
13655TIP3    H162380   1.221   4.121   5.034  0.1290  1.4293  2.7123
13655TIP3    H262381   1.156   4.251   4.992 -0.0063  0.2935 -0.9417
13656TIP3   OH262382   1.163   1.117  15.236  0.6816 -0.0116 -0.3844
13656TIP3    H162383   1.101   1.095  15.305 -0.0012  1.0896 -0.6257
13656TIP3    H262384   1.117   1.179  15.180  1.6982  0.1705 -1.0625
13657TIP3   OH262385   4.837   1.150   4.259 -1.0619  0.0945  0.0232
13657TIP3    H162386   4.876   1.236   4.277 -0.5858 -0.4857  1.9968
13657TIP3    H262387   4.895   1.110   4.195 -1.7198  1.5147 -1.5331
13658TIP3   OH262388   6.052   1.433   1.697 -0.5048  0.3207 -0.7857
13658TIP3    H162389   6.109   1.416   1.622  2.0688  0.5307  0.9811
13658TIP3    H262390   6.088   1.512   1.737 -0.9646 -0.4808  1.3643
13659TIP3   OH262391   3.806   5.999  13.288 -0.1713 -0.2014 -0.5967
13659TIP3    H162392   3.853   6.014  13.205  0.9144 -1.1108 -0.1797
13659TIP3    H262393   3.752   5.922  13.272 -0.0895 -0.2767 -0.5133
13660TIP3   OH262394   2.293   0.581  16.788  0.2317  0.6383  0.8566
13660TIP3    H162395   2.376   0.576  16.741 -0.1564 -0.9889  0.2791
13660TIP3    H262396   2.288   0.672  16.819  3.4737  0.1614  3.2372
13661TIP3   OH262397   4.998   6.062  13.570 -0.1036  0.2909  0.2125
13661TIP3    H162398   4.955   6.113  13.502  1.3297  0.0400 -0.9180
13661TIP3    H262399   5.040   5.990  13.524 -1.9565 -1.9431  1.7406
13662TIP3   OH262400   5.730   2.077   2.267  0.1654 -0.4668 -1.0215
13662TIP3    H162401   5.799   2.019   2.233 -0.5687 -0.2177 -3.0759
13662TIP3    H262402   5.648   2.031   2.248 -0.3021 -1.0695  1.9918
13663TIP3   OH262403   4.317   0.658   1.438  0.3409 -0.1990  0.3414
13663TIP3    H162404   4.352   0.737   1.479  0.1184  2.2005 -3.5519
13663TIP3    H262405   4.225   0.657   1.461  0.4132  0.5373  0.6865
13664TIP3   OH262406   3.124   5.795  15.810  0.2475  0.1590  0.1265
13664TIP3    H162407   3.083   5.867  15.857 -1.7120 -0.5360 -0.4347
13664TIP3    H262408   3.149   5.732  15.878  0.4558  0.6231  0.4803
13665TIP3   OH262409   6.387   5.343   1.020  0.1224 -0.2305  0.1240
13665TIP3    H162410   6.412   5.374   0.933 -0.7190 -1.0181 -0.4258
13665TIP3    H262411   6.467   5.305   1.057  0.4580  0.0184 -0.3434
13666TIP3   OH262412   1.494   1.439   3.637 -0.2592  0.4391 -0.5354
13666TIP3    H162413   1.551   1.491   3.580 -0.1184  1.6658  0.6779
13666TIP3    H262414   1.473   1.497   3.710 -1.7228 -0.5582 -0.1138
13667TIP3   OH262415   6.164   1.779   2.162  0.1461 -0.4058 -0.5212
13667TIP3    H162416   6.161   1.683   2.166  0.1325 -0.3844  0.2989
13667TIP3    H262417   6.212   1.799   2.082  2.3394 -1.1401  0.5305
13668TIP3   OH262418   2.004   2.563  13.799  0.1291  0.6565 -0.2389
13668TIP3    H162419   2.087   2.607  13.816 -0.8192  2.6932 -0.5595
13668TIP3    H262420   2.013   2.527  13.711  0.6194  0.9953 -0.3287
13669TIP3   OH262421   1.979   1.850  15.548 -0.2414  0.9388  0.4130
13669TIP3    H162422   1.954   1.862  15.640  2.0025 -0.4874  1.3230
13669TIP3    H262423   1.912   1.793  15.512  0.3451 -0.9085  2.0627
13670TIP3   OH262424   1.801   0.285  11.332  0.3711 -0.4504 -0.2573
13670TIP3    H162425   1.793   0.195  11.299  1.0242 -0.8279  0.5771
13670TIP3    H262426   1.776   0.279  11.424  1.8028 -0.0675  0.1820
13671TIP3   OH262427   1.668   0.791  14.902 -0.7446  0.0097 -0.2330
13671TIP3    H162428   1.707   0.846  14.834 -1.9095  0.6496 -0.4072
13671TIP3    H262429   1.742   0.745  14.941  0.0058 -0.0065 -1.6122
13672TIP3   OH262430   1.940   1.569  13.893  0.2808 -0.3285  0.3467
13672TIP3    H162431   1.975   1.648  13.933  0.6816 -1.0685  1.5249
13672TIP3    H262432   2.017   1.515  13.874 -0.0199 -0.6410 -0.0058
13673TIP3   OH262433   1.906   0.818  11.382 -0.0437  0.6592  0.9430
13673TIP3    H162434   1.871   0.803  11.295 -0.5303  1.0096  1.0745
13673TIP3    H262435   1.988   0.865  11.367 -1.0425  2.4106  0.7267
13674TIP3   OH262436   6.715   6.314   0.405  0.4995  0.5960 -0.1861
13674TIP3    H162437   6.623   6.308   0.380  0.8174  0.2537 -1.3541
13674TIP3    H262438   6.728   6.243   0.467  0.0478  0.4470 -0.2571
13675TIP3   OH262439   2.008   2.533  12.954  0.1754 -0.4314  0.2357
13675TIP3    H162440   2.070   2.468  12.988  0.9033 -0.0787 -0.3877
13675TIP3    H262441   1.980   2.582  13.031 -0.3652 -1.4466  0.7191
13676TIP3   OH262442   2.273   3.186  12.857 -0.0505  0.1028 -0.0034
13676TIP3    H162443   2.353   3.142  12.886  1.6471  2.1232 -1.3009
13676TIP3    H262444   2.221   3.116  12.817  0.7459 -1.3848  1.4259
13677TIP3   OH262445   2.892   6.295   0.073  0.8048  0.7205 -0.2986
13677TIP3    H162446   2.940   6.361   0.123 -0.2099  0.7824  0.6346
13677TIP3    H262447   2.952   6.221   0.068  1.7456  1.4926 -0.8781
13678TIP3   OH262448   4.555   3.717   6.530  0.2619 -0.0023  0.1818
13678TIP3    H162449   4.579   3.782   6.464 -1.1718 -1.0245 -1.4394
13678TIP3    H262450   4.482   3.757   6.578  1.3155  0.7484  1.1969
13679TIP3   OH262451   4.624   1.952  12.910 -0.6414  0.0707  0.4392
13679TIP3    H162452   4.619   1.872  12.963 -0.1897 -0.9548 -1.0097
13679TIP3    H262453   4.662   2.017  12.969  1.1292 -1.3904  1.0127
13680TIP3   OH262454   3.426   0.245   0.904  0.0928 -0.0392  0.3723
13680TIP3    H162455   3.472   0.329   0.901 -1.0290  0.5569 -1.4594
13680TIP3    H262456   3.345   0.263   0.951 -0.5157  0.1232 -0.7094
13681TIP3   OH262457   3.518   4.687  15.583  0.2270  0.0767  0.3884
13681TIP3    H162458   3.549   4.742  15.655  1.7474 -0.1744 -0.0266
13681TIP3    H262459   3.450   4.633  15.622  1.3668 -0.4137  1.8098
13682TIP3   OH262460   2.674   6.068   3.862 -0.2652  0.0919 -0.3080
13682TIP3    H162461   2.727   6.140   3.829 -0.5080 -0.1636 -1.2780
13682TIP3    H262462   2.583   6.099   3.854 -0.2937  0.5149  1.3064
13683TIP3   OH262463   5.633   6.510  14.127 -0.5894 -0.1848 -0.2786
13683TIP3    H162464   5.577   6.566  14.073 -0.1938 -1.0552 -1.6381
13683TIP3    H262465   5.722   6.533  14.101 -0.3689 -0.1240  0.5147
13684TIP3   OH262466   3.356   0.307  15.023 -0.3505 -0.0887  0.3368
13684TIP3    H162467   3.313   0.228  14.991  0.5924 -0.2144 -0.6851
13684TIP3    H262468   3.449   0.288  15.015 -0.1079  1.2698 -0.3245
13685TIP3   OH262469   6.739   1.673  16.749 -0.2493  0.5746 -0.1930
13685TIP3    H162470   6.782   1.600  16.704  1.9234  0.7579  1.4625
13685TIP3    H262471   6.676   1.707  16.684  2.1216  0.3520 -2.7897
13686TIP3   OH262472   4.532   1.278   2.727 -0.0007 -0.0713 -0.2519
13686TIP3    H162473   4.588   1.224   2.673 -0.0401 -0.2689 -0.0958
13686TIP3    H262474   4.519   1.227   2.808 -0.0809  0.1431 -0.1270
13687TIP3   OH262475   5.719   1.890   6.056 -0.3171 -0.2683  0.3362
13687TIP3    H162476   5.753   1.961   6.001  0.1557 -0.7927 -0.0668
13687TIP3    H262477   5.650   1.850   6.004 -0.9314  0.2116  0.7734
13688TIP3   OH262478   0.121   6.783   2.438 -0.0875 -0.0164 -0.0676
13688TIP3    H162479   0.209   6.819   2.449 -0.3059  0.1433  1.2237
13688TIP3    H262480   0.063   6.852   2.469 -0.7830  0.4931 -2.3121
13689TIP3   OH262481   3.170   1.491   1.047 -0.1628  0.0466 -0.1697
13689TIP3    H162482   3.206   1.462   0.963  1.2072  0.6976  0.1624
13689TIP3    H262483   3.095   1.545   1.023  1.6748  2.3738 -1.2045
13690TIP3   OH262484   0.469   6.563   0.332  0.1236 -0.3230  0.1593
13690TIP3    H162485   0.398   6.500   0.331 -0.6098  0.3293 -3.5549
13690TIP3    H262486   0.428   6.647   0.313  1.7638  0.0551 -2.2370
13691TIP3   OH262487   0.670   2.009   3.023  0.6952 -1.1824  0.2483
13691TIP3    H162488   0.612   2.041   3.091 -0.2603 -0.4761 -0.8570
13691TIP3    H262489   0.731   2.081   3.007 -0.5905 -0.3721 -1.2751
13692TIP3   OH262490   4.765   0.380   5.890 -0.0523  0.2030  0.1851
13692TIP3    H162491   4.700   0.426   5.837  0.2561 -0.8781 -1.1934
13692TIP3    H262492   4.762   0.424   5.975 -0.6076  1.9608 -0.6967
13693TIP3   OH262493   5.967   0.081  16.733 -0.5052 -0.1558 -0.0252
13693TIP3    H162494   6.055   0.061  16.699 -0.2185  0.5098  0.3079
13693TIP3    H262495   5.953   0.015  16.801 -0.1192 -0.0591  0.1540
13694TIP3   OH262496   3.356   0.084  13.639  0.6244 -0.3275 -0.1007
13694TIP3    H162497   3.387   0.002  13.600  0.3167 -0.6296  0.2826
13694TIP3    H262498   3.367   0.149  13.570 -1.6429 -1.1824 -1.3600
13695TIP3   OH262499   5.047   6.289  12.714  0.1864 -0.2529  0.8302
13695TIP3    H162500   5.141   6.299  12.726  0.1688  0.0007  0.7633
13695TIP3    H262501   5.011   6.375  12.735 -0.0703 -0.4682  1.2615
13696TIP3   OH262502   6.440   5.668  16.496 -0.1886  0.3565  0.0367
13696TIP3    H162503   6.390   5.597  16.456 -0.2780 -1.1202  2.5697
13696TIP3    H262504   6.531   5.650  16.471 -0.1719 -0.8670  0.9049
13697TIP3   OH262505   5.347   4.012   2.753  0.0413 -0.0458 -0.1086
13697TIP3    H162506   5.431   3.973   2.729 -1.3723 -1.5508 -3.1692
13697TIP3    H262507   5.362   4.107   2.747  1.5119 -0.2885 -0.7022
13698TIP3   OH262508   3.559   2.101  10.713 -0.1715 -0.4524 -0.1613
13698TIP3    H162509   3.606   2.042  10.654 -0.0971 -0.1376 -0.4187
13698TIP3    H262510   3.608   2.183  10.708 -0.9712  0.0023 -0.7359
13699TIP3   OH262511   6.632   4.874  12.439  0.2662  0.6288  0.0085
13699TIP3    H162512   6.576   4.915  12.374  0.0050  0.8660  0.3839
13699TIP3    H262513   6.615   4.780  12.429 -0.3526  0.7100  0.2604
13700TIP3   OH262514   1.419   0.009   0.474  0.7610  0.2013 -0.2232
13700TIP3    H162515   1.438   0.093   0.517 -0.4642  0.2944  0.1793
13700TIP3    H262516   1.460   0.017   0.388  0.8383  1.1447 -0.1177
13701TIP3   OH262517   6.171   6.497   1.858  0.0801  0.0257  0.3114
13701TIP3    H162518   6.194   6.539   1.941  0.3370  0.8436 -0.1622
13701TIP3    H262519   6.100   6.550   1.823  1.3811  0.9982 -0.9944
13702TIP3   OH262520   2.726   1.212   0.061 -0.0311 -0.6408 -0.4416
13702TIP3    H162521   2.645   1.258   0.082 -0.3056 -1.3606  0.1487
13702TIP3    H262522   2.735   1.147   0.131  2.4764  1.1729  1.1080
13703TIP3   OH262523   5.428   1.694  14.327  0.3721  0.3094  0.0091
13703TIP3    H162524   5.510   1.704  14.376  0.8026 -1.4387 -0.3133
13703TIP3    H262525   5.360   1.704  14.394  0.8705  0.6314  0.4829
13704TIP3   OH262526   6.197   3.038   3.299  0.3037  0.1553  0.4409
13704TIP3    H162527   6.110   3.001   3.314  0.5298 -0.3959  0.4237
13704TIP3    H262528   6.251   3.000   3.367  0.8582 -0.6835 -0.4395
13705TIP3   OH262529   4.396   6.530   1.738  0.6609 -0.0785  0.1253
13705TIP3    H162530   4.330   6.479   1.693  1.2068 -0.3542 -0.3759
13705TIP3    H262531   4.478   6.507   1.695  1.0301  0.5670  0.4631
13706TIP3   OH262532   1.656   6.224  14.407 -0.1595  0.4864  0.0406
13706TIP3    H162533   1.709   6.302  14.393 -0.9753  0.7652 -1.6789
13706TIP3    H262534   1.570   6.245  14.370 -0.5419 -1.0583 -0.0403
13707TIP3   OH262535   2.301   6.399   1.728  0.0661 -0.1525  0.0294
13707TIP3    H162536   2.232   6.434   1.784  0.6648  0.4096  0.4332
13707TIP3    H262537   2.324   6.472   1.671  0.4875 -0.2600  0.0595
13708TIP3   OH262538   1.113   4.942   6.371 -0.2583  0.3009  0.2952
13708TIP3    H162539   1.148   4.923   6.285  0.8053  0.8004  0.5895
13708TIP3    H262540   1.087   5.034   6.367  0.6896  0.6102  0.7630
13709TIP3   OH262541   4.809   6.429  14.095  0.3135 -0.2762 -0.0724
13709TIP3    H162542   4.867   6.355  14.112  0.3178 -0.2499  0.0249
13709TIP3    H262543   4.793   6.469  14.180 -0.6627 -0.8837  0.0475
13710TIP3   OH262544   1.492   4.796  12.341  0.3129  0.1766  0.3212
13710TIP3    H162545   1.454   4.843  12.415 -1.6694  3.3255 -2.4077
13710TIP3    H262546   1.417   4.758  12.296  1.2752 -0.1314 -1.0777
13711TIP3   OH262547   1.771   5.181  15.380 -0.3457 -0.7009  0.2995
13711TIP3    H162548   1.715   5.138  15.444 -1.9067 -0.3661 -0.7666
13711TIP3    H262549   1.750   5.274  15.389  0.1616 -0.5528 -0.0177
13712TIP3   OH262550   5.478   2.263   5.101  0.1068  0.2477 -0.5230
13712TIP3    H162551   5.409   2.319   5.137  0.4375 -0.1704  0.8241
13712TIP3    H262552   5.553   2.321   5.090 -0.9789  1.2548 -4.1111
13713TIP3   OH262553   6.518   6.559  15.476  0.1045 -0.3252 -0.4614
13713TIP3    H162554   6.447   6.541  15.415  0.2037  1.6954 -1.2397
13713TIP3    H262555   6.569   6.478  15.478 -0.4065 -0.7418 -2.3809
13714TIP3   OH262556   2.145   5.825  13.652  0.3281 -0.3498 -0.2491
13714TIP3    H162557   2.205   5.897  13.633  0.7612 -0.9881 -1.4533
13714TIP3    H262558   2.173   5.755  13.593 -1.2001 -0.8832 -0.3836
13715TIP3   OH262559   3.287   5.284  16.444  0.5984  0.2734 -0.1586
13715TIP3    H162560   3.339   5.311  16.520 -0.0511 -0.3323  0.5131
13715TIP3    H262561   3.291   5.189  16.445  1.0704  0.2576 -1.2499
13716TIP3   OH262562   0.296   5.659   1.991 -0.2731 -0.2491  0.0444
13716TIP3    H162563   0.347   5.617   1.922 -2.8315 -1.5627 -1.1743
13716TIP3    H262564   0.315   5.606   2.069 -1.6038 -2.3228 -0.9450
13717TIP3   OH262565   2.714   4.526   5.550  0.2078  0.2290  0.2931
13717TIP3    H162566   2.788   4.474   5.582 -0.1012 -0.7174 -0.4837
13717TIP3    H262567   2.673   4.560   5.630  2.2495  1.9336  0.7119
13718TIP3   OH262568   1.786   5.920  11.340 -0.2055 -0.0627 -0.4642
13718TIP3    H162569   1.797   5.986  11.408 -1.2489 -0.9784  0.6272
13718TIP3    H262570   1.842   5.847  11.368 -0.5223 -0.3855 -0.6615
13719TIP3   OH262571   1.380   2.225   1.458 -0.4468  0.1493 -0.3384
13719TIP3    H162572   1.392   2.134   1.432  0.4284  0.6599 -1.8858
13719TIP3    H262573   1.419   2.231   1.545  0.6968 -0.6809 -0.7728
13720TIP3   OH262574   4.286   1.607   5.077 -0.1751 -0.1104 -0.1090
13720TIP3    H162575   4.318   1.647   4.996 -0.4436 -0.3372 -0.3261
13720TIP3    H262576   4.194   1.586   5.060 -0.4041  0.3817  0.4551
13721TIP3   OH262577   2.179   5.432   5.468 -0.3450  0.3209 -0.1324
13721TIP3    H162578   2.109   5.489   5.500 -0.0088  1.1202 -0.7919
13721TIP3    H262579   2.250   5.492   5.444  0.3229 -0.4327 -0.0849
13722TIP3   OH262580   1.044   4.962   4.687  0.2111 -0.1999 -0.1188
13722TIP3    H162581   1.070   4.870   4.690  0.6821 -0.0599  0.3098
13722TIP3    H262582   0.984   4.973   4.761 -0.1151 -0.2419 -0.3772
13723TIP3   OH262583   4.241   2.331   6.149  0.2697  0.6471  0.4553
13723TIP3    H162584   4.318   2.309   6.097 -0.9768 -2.6767 -0.2243
13723TIP3    H262585   4.211   2.415   6.114  2.1408  0.7920 -0.9177
13724TIP3   OH262586   1.709   4.319  14.056  0.3558  0.3484  0.0999
13724TIP3    H162587   1.723   4.258  14.128 -1.6879 -0.4728 -0.1118
13724TIP3    H262588   1.797   4.341  14.026  1.2084 -0.8320  1.5617
13725TIP3   OH262589   3.392   6.565   0.669  0.0635 -0.1158 -0.6816
13725TIP3    H162590   3.424   6.475   0.670 -0.8445 -0.5760 -3.3927
13725TIP3    H262591   3.375   6.583   0.576  0.2538  2.8787 -0.2254
13726TIP3   OH262592   0.314   4.497   5.096 -0.4218 -0.4597 -0.0518
13726TIP3    H162593   0.403   4.506   5.061  0.0711 -1.8075  0.7906
13726TIP3    H262594   0.257   4.518   5.022  0.5025  3.3343  0.1081
13727TIP3   OH262595   0.504   1.779  11.189  0.3936 -0.5321  0.2618
13727TIP3    H162596   0.492   1.765  11.095  1.3505  2.6292 -0.4195
13727TIP3    H262597   0.422   1.819  11.218  1.2959  1.6625 -0.0223
13728TIP3   OH262598   1.362   5.169  17.172  0.0227 -0.4003 -0.1697
13728TIP3    H162599   1.327   5.125  17.095  0.0341 -2.2824  0.8331
13728TIP3    H262600   1.292   5.227  17.201 -1.3368 -2.2253  0.3442
13729TIP3   OH262601   3.901   3.913   3.362  0.0975  0.0224 -0.1712
13729TIP3    H162602   3.892   3.877   3.274 -0.5273 -1.1255  0.3504
13729TIP3    H262603   3.923   3.838   3.416  1.3909  0.8685  0.5182
13730TIP3   OH262604   4.337   0.201  12.825 -0.2874 -0.3943  0.8027
13730TIP3    H162605   4.301   0.193  12.913 -0.3282 -1.3084  0.7223
13730TIP3    H262606   4.273   0.255  12.778 -0.8314 -0.7998  1.0533
13731TIP3   OH262607   0.943   0.530   0.475  0.0119 -0.3649 -0.5585
13731TIP3    H162608   0.854   0.501   0.493 -0.8210  1.6377 -1.0658
13731TIP3    H262609   0.971   0.574   0.555 -0.2327  0.6931 -1.0341
13732TIP3   OH262610   6.295   4.513  12.390 -0.0584 -0.6772  0.0003
13732TIP3    H162611   6.262   4.424  12.408 -0.1461 -1.3914 -3.1478
13732TIP3    H262612   6.388   4.500  12.370  0.3261  0.2183  1.1026
13733TIP3   OH262613   1.772   1.410  15.672 -0.0584 -0.0538  0.2333
13733TIP3    H162614   1.858   1.446  15.692  0.5191 -0.1151 -1.9636
13733TIP3    H262615   1.713   1.456  15.732  1.4591  0.0798  1.6862
13734TIP3   OH262616   0.084   1.734  10.755 -0.8532 -0.6320 -0.5261
13734TIP3    H162617  -0.010   1.746  10.768 -0.4532  0.1567  2.1940
13734TIP3    H262618   0.116   1.820  10.728 -0.7089 -0.5185  0.0018
13735TIP3   OH262619   2.277   6.423   4.736  0.1688 -0.2494 -0.1808
13735TIP3    H162620   2.221   6.345   4.746  0.9874 -1.0460 -1.5454
13735TIP3    H262621   2.243   6.467   4.658  0.6309 -0.0308 -0.2625
13736TIP3   OH262622   4.613   2.364   6.010  0.1732  0.2195  0.0613
13736TIP3    H162623   4.557   2.353   5.933 -0.6103 -0.1526  0.6613
13736TIP3    H262624   4.691   2.408   5.977 -0.2253  0.2325 -0.9094
13737TIP3   OH262625   0.493   0.524  12.691 -0.2871 -0.0266  0.2504
13737TIP3    H162626   0.475   0.437  12.725 -0.6663 -0.6163 -1.3616
13737TIP3    H262627   0.468   0.584  12.762  1.4946 -1.2440  2.0046
13738TIP3   OH262628   0.262   5.431  13.501  0.6827  0.2944  0.0111
13738TIP3    H162629   0.246   5.524  13.486  1.0633  0.5037  0.8520
13738TIP3    H262630   0.325   5.407  13.433  0.1168  0.4867 -0.6040
13739TIP3   OH262631   0.193   6.280   3.356  0.1550  0.3968  0.2866
13739TIP3    H162632   0.223   6.221   3.426  1.7722  1.1153  0.2387
13739TIP3    H262633   0.270   6.332   3.334 -0.5100  0.6569 -1.5786
13740TIP3   OH262634   1.997   3.184  11.509 -0.5543 -0.0650  0.5850
13740TIP3    H162635   1.966   3.236  11.584 -0.8682  0.3182  0.1960
13740TIP3    H262636   1.995   3.094  11.540  0.7529  0.2036  1.5388
13741TIP3   OH262637   0.392   0.100   3.616  0.0348 -0.3952  0.4715
13741TIP3    H162638   0.358   0.189   3.611  0.9160  0.0516  1.7784
13741TIP3    H262639   0.317   0.047   3.644 -0.5178 -0.0975 -0.4109
13742TIP3   OH262640   6.273   3.253   4.659  0.0701 -0.0667 -0.1740
13742TIP3    H162641   6.329   3.238   4.735 -0.3522 -0.1363  0.1327
13742TIP3    H262642   6.217   3.326   4.686  0.0664  0.0517 -0.5037
13743TIP3   OH262643   5.209   1.350  12.522 -0.2081 -0.1620  0.7720
13743TIP3    H162644   5.132   1.407  12.513  0.0009 -0.1258 -1.3503
13743TIP3    H262645   5.199   1.309  12.607 -2.6173 -0.1838  0.5423
13744TIP3   OH262646   0.962   3.361   2.013 -0.6820 -0.4936 -0.2374
13744TIP3    H162647   1.056   3.352   2.029 -0.8288 -0.3976  0.7375
13744TIP3    H262648   0.921   3.335   2.095 -1.3626  2.8945  0.6691
13745TIP3   OH262649   6.767   3.930  16.440  0.2773 -0.3488  0.7055
13745TIP3    H162650   6.702   3.952  16.506  0.6006  1.1313  0.5592
13745TIP3    H262651   6.838   3.993  16.453  1.5989 -1.7842  0.7148
13746TIP3   OH262652   1.632   6.419  14.757  0.0712  0.3543 -0.1413
13746TIP3    H162653   1.612   6.481  14.827 -0.1409  0.2497 -0.1091
13746TIP3    H262654   1.574   6.445  14.685 -1.3538 -0.9381  0.4958
13747TIP3   OH262655   4.578   4.077   1.544 -0.0963  0.1237 -0.7142
13747TIP3    H162656   4.622   4.072   1.629 -2.4539 -0.5786  0.5704
13747TIP3    H262657   4.526   4.157   1.549 -1.5394 -0.7737 -0.7849
13748TIP3   OH262658   1.296   5.098  15.948  0.1930 -0.0546 -0.0643
13748TIP3    H162659   1.308   5.153  15.870 -0.7894  0.5230  0.1769
13748TIP3    H262660   1.335   5.148  16.019 -0.6320  0.3029  0.1419
13749TIP3   OH262661   2.082   3.943  16.951 -0.0444 -0.1203 -0.2443
13749TIP3    H162662   2.085   4.028  16.908 -1.1052  0.6418  1.0859
13749TIP3    H262663   2.011   3.896  16.908  0.7821 -0.5105 -1.2310
13750TIP3   OH262664   0.122   0.974   1.846  0.0195 -0.2629 -0.4881
13750TIP3    H162665   0.197   1.028   1.818 -0.4364  0.8532  0.3579
13750TIP3    H262666   0.048   1.008   1.795 -0.7189  1.4690  1.6036
13751TIP3   OH262667   3.273   6.699  17.164  0.2143 -0.4478 -0.0585
13751TIP3    H162668   3.365   6.719  17.178 -0.4091  2.3363  0.6009
13751TIP3    H262669   3.242   6.668  17.249  0.2380 -0.0108  0.1117
13752TIP3   OH262670   1.757   2.259  15.017  0.3818 -0.3766  0.7164
13752TIP3    H162671   1.701   2.181  15.017  0.5438 -0.4974  1.2476
13752TIP3    H262672   1.782   2.270  15.108  0.0558  0.5205  0.7028
13753TIP3   OH262673   2.116   2.322   2.824  0.6105  0.0877 -0.3220
13753TIP3    H162674   2.142   2.414   2.822 -0.7767  0.5135  0.2127
13753TIP3    H262675   2.198   2.273   2.819  1.3208  1.3469 -1.1479
13754TIP3   OH262676   0.698   0.496   3.402  0.0999 -0.2556  0.6618
13754TIP3    H162677   0.763   0.427   3.410  0.9857  0.7038  2.4084
13754TIP3    H262678   0.636   0.479   3.474 -0.2551  0.1747  0.4664
13755TIP3   OH262679   0.469   6.111  14.572  0.4576 -0.0605 -0.4024
13755TIP3    H162680   0.444   6.020  14.584  0.1883  0.2000  1.2657
13755TIP3    H262681   0.554   6.107  14.528  0.8142 -1.1585  0.3362
13756TIP3   OH262682   0.545   0.815  10.629  0.3340 -0.1431 -0.5498
13756TIP3    H162683   0.551   0.906  10.657  1.7409 -0.0531 -1.0600
13756TIP3    H262684   0.513   0.819  10.539 -1.9321 -0.3129  0.1887
13757TIP3   OH262685   1.504   5.066  14.576 -0.3689  0.1709 -0.0568
13757TIP3    H162686   1.468   5.055  14.488 -0.0874 -1.2669 -0.0208
13757TIP3    H262687   1.576   5.002  14.580 -1.2473 -0.7590  1.6739
13758TIP3   OH262688   3.656   3.450   0.874 -0.0125  0.8455 -0.0280
13758TIP3    H162689   3.737   3.486   0.838  2.3403 -2.0767  1.8239
13758TIP3    H262690   3.659   3.473   0.967 -1.1176  0.3358  0.1545
13759TIP3   OH262691   2.691   0.609  14.289 -0.1061  0.1890  0.1298
13759TIP3    H162692   2.729   0.556  14.359  0.4064 -0.1479 -0.3947
13759TIP3    H262693   2.732   0.576  14.209 -2.0371 -0.6741 -0.5548
13760TIP3   OH262694   2.678   1.589   2.109  0.4654  0.7033  0.0620
13760TIP3    H162695   2.644   1.547   2.188  2.8739 -0.5477  0.5322
13760TIP3    H262696   2.638   1.676   2.109 -1.1575  0.0118  1.5505
13761TIP3   OH262697   0.504   3.834  13.301 -0.0934  0.2369  0.2211
13761TIP3    H162698   0.572   3.897  13.275  1.0110 -0.5944  0.9949
13761TIP3    H262699   0.471   3.869  13.384 -1.0431  0.9416 -0.4291
13762TIP3   OH262700   6.376   0.992   4.329 -0.1028 -0.2022 -1.0135
13762TIP3    H162701   6.385   0.985   4.424  0.6018 -1.1043 -1.1304
13762TIP3    H262702   6.398   1.083   4.310  1.2394 -0.3863 -0.4540
13763TIP3   OH262703   5.136   5.525   1.677  0.2068 -0.2494  0.3103
13763TIP3    H162704   5.177   5.589   1.737 -0.6449 -0.3674  1.0387
13763TIP3    H262705   5.208   5.467   1.652  1.2669  1.6144 -1.2672
13764TIP3   OH262706   3.202   0.067  12.428 -0.0301 -0.3322 -0.1355
13764TIP3    H162707   3.197   0.157  12.395 -1.7617  0.1071  1.1761
13764TIP3    H262708   3.217   0.015  12.349  0.4620  1.0526 -1.0039
13765TIP3   OH262709   4.212   2.066  14.853  0.4583  0.0274 -0.5629
13765TIP3    H162710   4.153   2.127  14.809  0.5808  0.4044 -0.2057
13765TIP3    H262711   4.154   1.996  14.885  0.2296  0.3014 -0.3786
13766TIP3   OH262712   0.628   6.154  15.901  0.2296  0.3655  0.3401
13766TIP3    H162713   0.614   6.063  15.875 -0.1135  0.3399  0.6104
13766TIP3    H262714   0.713   6.177  15.863 -0.8904  0.8191 -2.1051
13767TIP3   OH262715   3.851   6.521  14.023 -0.3118 -0.0654  0.1336
13767TIP3    H162716   3.838   6.484  14.110 -0.1463 -0.2136  0.0964
13767TIP3    H262717   3.767   6.510  13.979 -0.8172  1.2312  0.7220
13768TIP3   OH262718   3.450   2.342  16.713  0.0340 -0.8040  0.6422
13768TIP3    H162719   3.524   2.363  16.769  0.4568 -0.1978 -0.1355
13768TIP3    H262720   3.488   2.295  16.638 -0.4757 -1.2958  0.6819
13769TIP3   OH262721   1.100   2.961   6.680 -0.5075  0.2471  0.2511
13769TIP3    H162722   1.157   3.038   6.672 -0.5059  0.3481  1.1719
13769TIP3    H262723   1.014   2.997   6.704 -0.3887 -0.0602  1.1786
13770TIP3   OH262724   4.757   4.625  11.935  0.1575 -0.2379 -0.5408
13770TIP3    H162725   4.788   4.619  12.025  0.5305 -0.2034 -0.6652
13770TIP3    H262726   4.721   4.713  11.927 -1.2953 -0.7622  0.0188
13771TIP3   OH262727   0.586   2.386   0.489 -0.1748  0.6412 -0.3748
13771TIP3    H162728   0.656   2.451   0.486  1.4671 -1.0312 -0.6477
13771TIP3    H262729   0.630   2.305   0.514 -2.3297 -0.1628  1.0932
13772TIP3   OH262730   4.949   5.865  17.032 -0.0960 -0.0577  0.5979
13772TIP3    H162731   4.926   5.958  17.031  2.3351  0.6320  0.7023
13772TIP3    H262732   4.887   5.825  17.093 -1.8737  1.2629 -0.2709
13773TIP3   OH262733   3.479   0.878   3.063  0.0687  0.1414  0.7557
13773TIP3    H162734   3.393   0.875   3.104 -0.1851 -2.5690  0.1980
13773TIP3    H262735   3.467   0.837   2.977  1.5098  1.6096 -0.2216
13774TIP3   OH262736   4.710   3.770   0.122  0.4032  0.2266  0.1270
13774TIP3    H162737   4.738   3.846   0.070 -0.9317  1.3171  0.9510
13774TIP3    H262738   4.765   3.698   0.090  0.5176  1.1388 -1.8787
13775TIP3   OH262739   1.252   2.900  13.728  0.4234 -0.0104 -0.7055
13775TIP3    H162740   1.314   2.883  13.799 -1.5093  0.7832  1.2683
13775TIP3    H262741   1.256   2.995  13.714 -0.9721  0.1885  0.0952
13776TIP3   OH262742   2.096   4.903   5.216  0.1212 -0.2235 -0.0228
13776TIP3    H162743   2.087   4.964   5.142 -3.5133 -0.3765  0.1475
13776TIP3    H262744   2.114   4.818   5.175 -1.6806 -0.2723 -0.8021
13777TIP3   OH262745   5.552   3.435  10.189  0.3129 -0.3250 -0.1407
13777TIP3    H162746   5.602   3.360  10.224 -0.1086 -1.3875 -1.7020
13777TIP3    H262747   5.524   3.406  10.102 -2.3167  0.5661  0.3334
13778TIP3   OH262748   6.549   0.494   3.170 -0.0258  0.0528  0.3298
13778TIP3    H162749   6.460   0.460   3.175  0.0575 -0.0834  1.1561
13778TIP3    H262750   6.566   0.507   3.077  0.4336 -3.4341 -0.1965
13779TIP3   OH262751   6.677   0.094   4.732  0.2522  0.6338  0.2775
13779TIP3    H162752   6.682   0.083   4.827  0.1239 -0.3122  0.1802
13779TIP3    H262753   6.603   0.153   4.719  0.2792  0.7809  0.7590
13780TIP3   OH262754   2.587   5.217  11.532 -0.0221  0.1428  0.1056
13780TIP3    H162755   2.609   5.288  11.591  0.1391  0.0908  0.1073
13780TIP3    H262756   2.525   5.163  11.581  1.2605 -0.7331  0.7936
13781TIP3   OH262757   2.995   4.289  12.240  0.9775  0.0118 -0.1936
13781TIP3    H162758   3.042   4.348  12.300 -0.1972  0.6685  0.1059
13781TIP3    H262759   3.062   4.227  12.211  2.0357  0.9178  0.2180
13782TIP3   OH262760   2.844   6.627  14.545 -0.1073 -0.4307  0.1789
13782TIP3    H162761   2.778   6.680  14.590  0.5563  1.0930 -0.5439
13782TIP3    H262762   2.902   6.597  14.615  0.4147  1.1814  0.4871
13783TIP3   OH262763   3.099   0.197  15.893  0.4893  0.2016 -0.0625
13783TIP3    H162764   3.165   0.165  15.954 -1.0111 -0.9499  1.0087
13783TIP3    H262765   3.026   0.226  15.948 -1.0399 -1.1587 -1.2542
13784TIP3   OH262766   0.119   4.046  14.432 -1.2381  0.2539  1.1485
13784TIP3    H162767   0.083   3.998  14.506 -2.0234 -1.2760 -0.1656
13784TIP3    H262768   0.045   4.096  14.397 -1.4909 -0.8603  0.0177
13785TIP3   OH262769   3.347   3.699  14.004 -0.0372 -0.3644 -0.3649
13785TIP3    H162770   3.348   3.762  13.932  0.5591  1.1411  0.8918
13785TIP3    H262771   3.434   3.705  14.043 -0.4205 -0.9754  0.6228
13786TIP3   OH262772   4.059   6.221   6.029  0.4134 -0.5201 -0.3112
13786TIP3    H162773   4.027   6.144   5.982 -0.3023  0.5744 -1.6643
13786TIP3    H262774   3.982   6.258   6.071  0.6242 -0.1322 -0.2567
13787TIP3   OH262775   6.037   1.350   0.582 -0.1636  0.0773  0.7636
13787TIP3    H162776   5.998   1.429   0.544  0.7540  0.8580  1.4136
13787TIP3    H262777   6.116   1.334   0.529  0.3289  0.3270  1.4174
13788TIP3   OH262778   4.492   3.010   0.625 -0.3802 -0.7067  0.3557
13788TIP3    H162779   4.447   3.076   0.572  0.1957 -1.1760 -0.7466
13788TIP3    H262780   4.582   3.010   0.592 -0.3738 -2.0414  0.3492
13789TIP3   OH262781   1.597   5.144  10.683  0.1885 -0.0384  0.2613
13789TIP3    H162782   1.517   5.102  10.714 -0.0285 -0.0182 -0.2434
13789TIP3    H262783   1.611   5.217  10.744 -1.3359  1.2226 -0.7864
13790TIP3   OH262784   1.387   2.501  15.325  0.2276  0.6526  0.1856
13790TIP3    H162785   1.447   2.537  15.390  1.0130 -1.3869  0.6551
13790TIP3    H262786   1.323   2.451  15.376  0.2604 -0.1421 -0.5336
13791TIP3   OH262787   3.774   6.789  15.223  0.2923  0.6817  0.4333
13791TIP3    H162788   3.755   6.714  15.167  1.0855  0.6667  0.1645
13791TIP3    H262789   3.689   6.830  15.238  0.0300  0.5731 -0.6375
13792TIP3   OH262790   3.841   4.790   0.266 -0.4864  0.0545 -0.2795
13792TIP3    H162791   3.770   4.841   0.227  0.8358  0.5524 -2.1851
13792TIP3    H262792   3.889   4.854   0.319 -1.3045 -0.2385  0.8501
13793TIP3   OH262793   0.607   6.436  15.774  0.4270  0.6565 -0.6367
13793TIP3    H162794   0.601   6.403  15.863  1.4778  2.2990  0.0956
13793TIP3    H262795   0.527   6.487  15.761  0.0976  0.1122 -0.7871
13794TIP3   OH262796   4.490   4.601   3.906 -0.1846 -0.0826 -0.3209
13794TIP3    H162797   4.465   4.538   3.838  0.8718 -2.1778  1.1209
13794TIP3    H262798   4.584   4.589   3.917 -0.4460 -0.4268  2.0662
13795TIP3   OH262799   0.462   1.828   3.057  0.0027  0.3233 -0.3219
13795TIP3    H162800   0.550   1.860   3.036 -0.2770  0.6806 -0.9654
13795TIP3    H262801   0.476   1.766   3.129  0.9856 -0.8599 -1.4770
13796TIP3   OH262802   1.857   2.020   5.215 -0.0882  0.2026 -0.9359
13796TIP3    H162803   1.867   2.005   5.121  0.7402  2.0470 -1.1981
13796TIP3    H262804   1.838   2.114   5.222 -1.9325 -0.2223  0.6437
13797TIP3   OH262805   3.771   2.596   3.168  0.2482  0.4697  0.5128
13797TIP3    H162806   3.732   2.633   3.089 -1.2628  0.3649  1.1823
13797TIP3    H262807   3.812   2.671   3.212  0.4356  0.6621  0.0209
13798TIP3   OH262808   5.052   1.897   4.004 -0.0747  0.3548 -0.8563
13798TIP3    H162809   5.077   1.837   4.075 -1.3983  0.2992 -0.4033
13798TIP3    H262810   5.132   1.909   3.953  0.5085 -0.8697 -0.2718
13799TIP3   OH262811   3.836   3.773   5.031 -0.6601  0.0136 -0.1926
13799TIP3    H162812   3.861   3.832   5.102  0.6985 -1.1987  0.3755
13799TIP3    H262813   3.741   3.784   5.024 -0.4165  2.6596 -0.5129
13800TIP3   OH262814   6.681   4.565  15.376 -0.2634 -0.4187 -0.1434
13800TIP3    H162815   6.613   4.587  15.440  0.0289  0.3104 -0.0755
13800TIP3    H262816   6.635   4.516  15.308 -0.7998 -0.1913  0.0481
13801TIP3   OH262817   1.196   4.409   1.270 -0.2753 -0.3341 -0.2498
13801TIP3    H162818   1.165   4.480   1.326  0.2195 -1.4648  1.5023
13801TIP3    H262819   1.119   4.385   1.219 -0.9874  0.1167  0.5786
13802TIP3   OH262820   1.357   1.199   1.910 -0.2282  0.1883  0.1720
13802TIP3    H162821   1.371   1.104   1.903 -1.1870 -0.1209  1.8994
13802TIP3    H262822   1.347   1.228   1.819  1.7933 -1.0584 -0.5152
13803TIP3   OH262823   1.546   5.662  13.746 -0.0526 -0.7812  0.3259
13803TIP3    H162824   1.483   5.710  13.692  0.3344 -0.0074  0.5507
13803TIP3    H262825   1.492   5.598  13.794 -0.3997 -1.5069 -0.9743
13804TIP3   OH262826   6.463   4.720  13.276 -0.1733  0.4660 -0.5842
13804TIP3    H162827   6.414   4.715  13.358  1.3746  0.4352  0.3759
13804TIP3    H262828   6.551   4.691  13.299  0.5064  1.2595 -2.0750
13805TIP3   OH262829   3.528   2.016   2.170  0.0495 -0.3128 -0.2917
13805TIP3    H162830   3.571   1.999   2.086 -0.8673  0.1178 -0.8681
13805TIP3    H262831   3.435   2.010   2.150 -0.2354 -3.1020  1.3013
13806TIP3   OH262832   5.532   2.826   4.739  1.0046  0.1702  0.0798
13806TIP3    H162833   5.500   2.915   4.753 -1.0265 -0.0960 -2.1527
13806TIP3    H262834   5.454   2.777   4.712  2.1876 -2.1600  0.6255
13807TIP3   OH262835   5.849   1.535   2.138  0.2668 -0.1184  0.0571
13807TIP3    H162836   5.870   1.462   2.081 -2.1039 -1.4325  0.7209
13807TIP3    H262837   5.782   1.585   2.090  0.2588  0.3415  0.5317
13808TIP3   OH262838   6.585   0.508   0.747 -0.2298 -0.3049 -0.5539
13808TIP3    H162839   6.595   0.465   0.832 -2.6339  0.2796  0.1147
13808TIP3    H262840   6.630   0.592   0.757 -0.6101 -0.1812  0.2206
13809TIP3   OH262841   4.343   4.935  13.327  0.9494 -0.7660  0.4406
13809TIP3    H162842   4.317   4.848  13.356  0.1829 -0.6180  0.2169
13809TIP3    H262843   4.260   4.983  13.316  1.3052 -0.3040 -0.3518
13810TIP3   OH262844   6.752   5.977   3.397 -0.2499 -0.1651 -0.1819
13810TIP3    H162845   6.690   5.911   3.365  0.4072 -1.9357  1.9141
13810TIP3    H262846   6.715   6.005   3.481  0.8280  0.1552  0.2048
13811TIP3   OH262847   1.648   0.925   5.632 -0.2952 -0.3578  0.0231
13811TIP3    H162848   1.721   0.863   5.635  0.3999  0.4213 -0.2258
13811TIP3    H262849   1.573   0.873   5.603  0.5659 -0.8402 -1.4843
13812TIP3   OH262850   3.363   3.028  16.290 -0.5495  0.3993 -0.5003
13812TIP3    H162851   3.348   3.024  16.196 -0.7822 -1.5334 -0.4153
13812TIP3    H262852   3.439   3.086  16.300 -0.4957  0.5857 -1.8618
13813TIP3   OH262853   6.026   1.761   3.077  0.4323  0.2577  0.1961
13813TIP3    H162854   5.933   1.766   3.055 -0.1085 -0.3106  2.1045
13813TIP3    H262855   6.071   1.760   2.993 -1.2845  0.5288 -0.7740
13814TIP3   OH262856   5.884   3.875  16.666  0.7515 -0.1534  0.2837
13814TIP3    H162857   5.813   3.929  16.700 -0.5648 -2.0066  0.5607
13814TIP3    H262858   5.946   3.939  16.630 -0.0399  1.6214  1.8624
13815TIP3   OH262859   0.125   5.647   2.260  0.2876  0.0262  0.1679
13815TIP3    H162860   0.186   5.713   2.228  0.9659 -1.0382 -0.8200
13815TIP3    H262861   0.150   5.567   2.214 -0.9012 -0.7852  0.8743
13816TIP3   OH262862   6.465   6.654   4.030 -0.0399  0.3930  0.2315
13816TIP3    H162863   6.483   6.739   4.070 -0.7493 -0.0290  1.5098
13816TIP3    H262864   6.378   6.664   3.990 -0.3013  0.1530  0.7359
13817TIP3   OH262865   6.131   5.241  12.567 -0.2578 -0.0409  0.1851
13817TIP3    H162866   6.175   5.157  12.555 -0.8891 -0.6335  1.7442
13817TIP3    H262867   6.069   5.226  12.637  0.3376  2.0013  1.2497
13818TIP3   OH262868   6.704   0.395  11.120 -0.0645  0.0059 -0.0674
13818TIP3    H162869   6.776   0.354  11.167  0.2026  0.0958 -0.3984
13818TIP3    H262870   6.718   0.372  11.028  0.6344  1.6414 -0.4037
13819TIP3   OH262871   5.818   4.331   3.208  0.3661 -0.4952 -0.0710
13819TIP3    H162872   5.741   4.288   3.170 -0.2423  0.0189  0.5412
13819TIP3    H262873   5.783   4.409   3.251  1.4161  0.4788 -0.9268
13820TIP3   OH262874   5.395   1.046   6.085  0.1030 -0.0711  0.0232
13820TIP3    H162875   5.303   1.019   6.081 -0.2509  1.0477 -3.6142
13820TIP3    H262876   5.438   0.979   6.137 -2.3206 -2.1725 -0.4683
13821TIP3   OH262877   0.792   1.408  15.829 -0.4665  0.0481  0.5748
13821TIP3    H162878   0.801   1.476  15.762  2.0801  1.0343  1.7479
13821TIP3    H262879   0.800   1.456  15.912 -0.3297 -1.4846  1.4772
13822TIP3   OH262880   5.340   3.988  12.028  0.3119  0.0289  0.0226
13822TIP3    H162881   5.431   3.969  12.006  0.4541  1.6505 -0.9065
13822TIP3    H262882   5.298   3.902  12.030  1.9599 -0.8261  1.1231
13823TIP3   OH262883   6.081   6.258  12.868 -0.1065 -0.8022 -0.1900
13823TIP3    H162884   6.094   6.349  12.842  0.1823 -0.6233  0.5544
13823TIP3    H262885   6.077   6.261  12.964 -1.8000 -1.3507 -0.2062
13824TIP3   OH262886   5.416   2.115  13.995  0.1851 -0.0038  0.7500
13824TIP3    H162887   5.498   2.071  14.017 -0.0454 -1.6655 -1.3857
13824TIP3    H262888   5.363   2.048  13.952 -2.5560  0.8688  2.4989
13825TIP3   OH262889   4.383   1.599  16.446  0.5475  0.3267 -0.2274
13825TIP3    H162890   4.316   1.568  16.506 -0.7495 -0.2011 -1.8520
13825TIP3    H262891   4.454   1.630  16.502 -0.4109 -0.5214  1.5318
13826TIP3   OH262892   3.661   2.085  17.184  0.3310  0.7177 -0.4111
13826TIP3    H162893   3.678   2.072  17.278  0.1436 -1.8326 -0.6518
13826TIP3    H262894   3.723   2.026  17.140 -1.2284 -0.0046 -1.7601
13827TIP3   OH262895   6.772   0.982  10.386  0.4146 -0.4579  0.0856
13827TIP3    H162896   6.693   0.936  10.414  0.8064 -2.2327 -1.5498
13827TIP3    H262897   6.832   0.971  10.460 -0.7075  0.6252  1.2103
13828TIP3   OH262898   0.732   6.264  12.062 -0.0385  0.8045  0.3282
13828TIP3    H162899   0.817   6.303  12.043  0.9089 -1.3144 -0.1350
13828TIP3    H262900   0.691   6.323  12.125  2.4876  1.0196  1.8908
13829TIP3   OH262901   2.937   0.737   2.833 -0.0737 -0.2233  0.1706
13829TIP3    H162902   2.949   0.664   2.772  0.5600  0.2468 -0.2944
13829TIP3    H262903   2.911   0.697   2.915 -1.5343 -0.8407 -0.5598
13830TIP3   OH262904   6.282   3.870   0.019  0.5393  0.6233 -0.3622
13830TIP3    H162905   6.221   3.935   0.054  0.0107 -0.1552  0.2123
13830TIP3    H262906   6.243   3.843  -0.064  1.0282  1.3992 -0.8567
13831TIP3   OH262907   4.887   1.377   1.037  0.1683 -0.3049  0.0118
13831TIP3    H162908   4.944   1.386   0.961 -1.8497  0.6058 -1.5022
13831TIP3    H262909   4.846   1.463   1.046  0.7162 -0.2155  2.5066
13832TIP3   OH262910   4.821   1.140   5.810  0.6859 -0.0528 -0.1345
13832TIP3    H162911   4.842   1.079   5.880  2.5742 -0.9589 -1.4048
13832TIP3    H262912   4.744   1.103   5.768 -0.1248  0.2058  1.0644
13833TIP3   OH262913   4.323   0.022  13.479 -0.2173  0.4734 -1.4183
13833TIP3    H162914   4.241   0.044  13.434  0.8489  1.3546 -2.9929
13833TIP3    H262915   4.338  -0.070  13.457 -0.6303  0.3806 -1.3323
13834TIP3   OH262916   3.541   4.712   5.624  0.0605 -0.4744  0.4084
13834TIP3    H162917   3.449   4.686   5.630  0.0694 -0.1894  2.9979
13834TIP3    H262918   3.588   4.629   5.612 -0.5802 -0.4268 -3.7245
13835TIP3   OH262919   0.627   0.102   4.590  0.8388  0.0841  0.2829
13835TIP3    H162920   0.652   0.132   4.678  0.9343  2.1605 -0.3960
13835TIP3    H262921   0.540   0.140   4.576  0.5588 -0.7532 -0.2886
13836TIP3   OH262922   6.332   5.367   2.252  0.1409  0.2339 -0.3621
13836TIP3    H162923   6.266   5.320   2.201 -0.1304  0.6305 -0.3867
13836TIP3    H262924   6.291   5.380   2.338  0.1595  0.5374 -0.3970
13837TIP3   OH262925   5.089   2.485   6.210  0.4994 -0.2894 -0.0237
13837TIP3    H162926   5.148   2.425   6.164 -0.6710 -1.3305 -0.2078
13837TIP3    H262927   5.066   2.439   6.290  2.4992  1.4961  1.6945
13838TIP3   OH262928   5.948   4.686   4.113 -0.2770 -1.5052 -0.1699
13838TIP3    H162929   5.963   4.626   4.040  1.6900  2.3888 -3.3525
13838TIP3    H262930   6.035   4.707   4.146 -0.2134  2.9580 -2.4466
13839TIP3   OH262931   4.285   4.261  12.501  0.6798  0.2941 -0.2617
13839TIP3    H162932   4.229   4.307  12.439 -2.8847 -0.0778  2.3913
13839TIP3    H262933   4.314   4.329  12.562 -1.0541 -0.1747  1.1741
13840TIP3   OH262934   3.957   3.574  12.588 -0.1978  0.1559  0.2767
13840TIP3    H162935   4.034   3.627  12.568 -1.1727  2.7211  2.6352
13840TIP3    H262936   3.964   3.558  12.683 -2.0109 -0.5287  0.3266
13841TIP3   OH262937   0.787   6.482   2.074 -0.1939 -0.3400  0.6026
13841TIP3    H162938   0.828   6.467   2.159  2.4804 -0.3697 -0.5793
13841TIP3    H262939   0.711   6.424   2.073 -0.4549 -0.1579  3.0213
13842TIP3   OH262940   6.659   3.086  14.594 -0.2882  0.3898 -0.7375
13842TIP3    H162941   6.729   3.123  14.541  0.5130  0.0883  0.0763
13842TIP3    H262942   6.705   3.041  14.666 -1.2429 -1.1987 -1.0711
13843TIP3   OH262943   3.562   6.597  15.786 -0.3543  0.2600  0.6434
13843TIP3    H162944   3.512   6.659  15.732 -1.5772 -1.5690 -0.4523
13843TIP3    H262945   3.497   6.533  15.815  1.3330 -2.9084 -1.7773
13844TIP3   OH262946   3.379   5.381   5.594 -0.4262  0.0744  0.1362
13844TIP3    H162947   3.374   5.403   5.500 -1.4232 -1.2532 -0.1485
13844TIP3    H262948   3.428   5.299   5.597 -2.0716 -0.9422  0.5609
13845TIP3   OH262949   0.314   6.226  13.818  0.4136  0.2493  0.3462
13845TIP3    H162950   0.242   6.244  13.757  1.4099 -1.1536 -1.3651
13845TIP3    H262951   0.393   6.248  13.769  1.2085  1.8293  2.2121
13846TIP3   OH262952   4.579   5.662  15.327  0.1790  1.0840 -0.5407
13846TIP3    H162953   4.502   5.638  15.275  0.6290 -0.7739 -0.4146
13846TIP3    H262954   4.542   5.706  15.404 -0.8157  0.0990 -0.4186
13847TIP3   OH262955   1.397   6.534   3.139  0.4147 -0.2203 -0.8740
13847TIP3    H162956   1.388   6.515   3.232  1.4791  0.4270 -0.6232
13847TIP3    H262957   1.452   6.612   3.135  2.0487 -1.3475 -2.0936
13848TIP3   OH262958   3.121   0.207   4.069  0.4489 -1.0671 -0.3847
13848TIP3    H162959   3.118   0.182   3.976 -0.7792  0.0264 -0.6709
13848TIP3    H262960   3.066   0.142   4.112 -0.8778 -0.2442 -0.7880
13849TIP3   OH262961   5.951   4.256  13.463  0.0414 -0.3328 -0.1264
13849TIP3    H162962   5.925   4.325  13.403 -0.7747 -0.9106 -0.4439
13849TIP3    H262963   5.870   4.229  13.506  0.7654  1.0954  2.3733
13850TIP3   OH262964   3.850   4.468  15.889  0.5823 -0.0624  0.7726
13850TIP3    H162965   3.774   4.412  15.904  1.0055 -0.5713  1.0519
13850TIP3    H262966   3.880   4.444  15.801 -0.6965  1.4922 -0.1465
13851TIP3   OH262967   5.753   3.778  16.398 -0.2406 -0.2776  0.5974
13851TIP3    H162968   5.693   3.705  16.418  0.2747 -1.9425 -2.9819
13851TIP3    H262969   5.768   3.821  16.482 -3.1649 -2.2986  2.3570
13852TIP3   OH262970   2.954   1.934   2.030  0.2383  0.3124 -0.6743
13852TIP3    H162971   2.864   1.905   2.014 -0.6792  1.0375  2.5652
13852TIP3    H262972   2.997   1.858   2.069 -0.3349  1.2227  1.8992
13853TIP3   OH262973   6.239   2.980  15.660 -0.0205  0.0915  0.0581
13853TIP3    H162974   6.159   2.970  15.711 -0.0811  0.4486  0.0328
13853TIP3    H262975   6.239   2.906  15.599 -1.5648  1.4355 -1.6457
13854TIP3   OH262976   6.055   4.513  16.720  0.1872  0.2661  0.3836
13854TIP3    H162977   6.016   4.428  16.741 -1.7286  1.1007  0.4967
13854TIP3    H262978   6.146   4.493  16.699 -0.1821 -1.7996  0.4567
13855TIP3   OH262979   4.799   6.488   5.956 -0.2157 -0.1446  0.5150
13855TIP3    H162980   4.843   6.425   6.013  2.4567  1.2713  0.2186
13855TIP3    H262981   4.791   6.567   6.010 -2.3406 -0.2856  0.4769
13856TIP3   OH262982   0.723   3.778  15.052 -0.1197  0.6780 -0.8152
13856TIP3    H162983   0.705   3.817  15.138 -0.4378 -2.3548  0.6070
13856TIP3    H262984   0.642   3.788  15.003 -1.2869 -0.8595  0.6682
13857TIP3   OH262985   0.173   5.253  17.020  0.1843 -0.1898 -0.5790
13857TIP3    H162986   0.083   5.237  16.992  0.4443 -1.9451 -0.5712
13857TIP3    H262987   0.227   5.212  16.952  0.9918  0.8812 -0.6099
13858TIP3   OH262988   0.017   0.033   5.916 -0.0611 -0.2021 -0.5773
13858TIP3    H162989   0.033   0.108   5.858  3.0949 -1.9261 -2.2174
13858TIP3    H262990   0.087  -0.028   5.895 -0.7225 -2.3847  2.8219
13859TIP3   OH262991   0.988   5.644  13.472  0.4528 -0.4100  0.3164
13859TIP3    H162992   1.028   5.670  13.556  0.8547  2.3554 -0.6252
13859TIP3    H262993   1.057   5.594  13.428  1.0650  0.0402  0.7345
13860TIP3   OH262994   3.277   1.768  15.823 -0.0244 -0.3760  0.3541
13860TIP3    H162995   3.262   1.834  15.755 -0.5661 -1.4102 -0.5648
13860TIP3    H262996   3.352   1.800  15.872 -0.3985  1.0140  0.0488
13861TIP3   OH262997   0.860   3.655  14.690  0.3553  0.0362  0.1469
13861TIP3    H162998   0.858   3.697  14.605  1.5093  0.9319  0.5332
13861TIP3    H262999   0.862   3.561  14.671 -3.5946 -0.0287 -0.7163
13862TIP3   OH263000   2.259   2.968  15.555 -0.8384 -0.3323  0.8485
13862TIP3    H163001   2.185   3.017  15.590 -0.5374  0.3208  0.5875
13862TIP3    H263002   2.245   2.968  15.460 -1.3309 -1.5709  0.9099
13863TIP3   OH263003   5.244   4.872   4.797 -0.2824  0.1146 -0.7280
13863TIP3    H163004   5.280   4.871   4.886 -1.2333 -0.0142 -0.3321
13863TIP3    H263005   5.228   4.780   4.777  0.2488  0.1190 -1.1646
13864TIP3   OH263006   5.729   4.447  14.992 -0.4006 -0.3281  0.0709
13864TIP3    H163007   5.755   4.495  15.071  0.0188 -1.0935  0.4093
13864TIP3    H263008   5.723   4.355  15.021 -1.7678 -0.4221 -0.4136
13865TIP3   OH263009   4.818   3.880  13.988 -0.7239  0.0285 -0.3236
13865TIP3    H163010   4.791   3.881  14.080 -1.9354  3.4409 -0.5595
13865TIP3    H263011   4.762   3.815  13.947 -1.0998 -0.5842  1.1087
13866TIP3   OH263012   4.878   4.772   5.379 -0.3921  0.2425 -0.0516
13866TIP3    H163013   4.838   4.715   5.445  1.3554  0.7609  1.5286
13866TIP3    H263014   4.825   4.851   5.380 -1.1428 -0.2408 -0.2414
13867TIP3   OH263015   1.433   0.082  11.629  0.0218 -0.0587  0.2785
13867TIP3    H163016   1.361   0.072  11.692  0.8222 -3.1797  0.8677
13867TIP3    H263017   1.505   0.033  11.668  1.4686  0.3193 -1.7819
13868TIP3   OH263018   3.910   1.263   5.566  0.2664  0.2189  0.2615
13868TIP3    H163019   3.909   1.179   5.613  0.7200 -0.1278 -0.3410
13868TIP3    H263020   3.843   1.316   5.610 -0.5441 -0.7133  0.1790
13869TIP3   OH263021   0.452   0.148  12.072 -0.2298  0.0631  0.2710
13869TIP3    H163022   0.380   0.139  12.133 -0.5639 -0.0635 -0.1374
13869TIP3    H263023   0.522   0.189  12.123  0.4349 -2.4136  1.4690
13870TIP3   OH263024   4.595   3.659   5.479  0.5475 -0.0847 -0.1318
13870TIP3    H163025   4.641   3.606   5.544  0.0998 -1.0635 -0.5896
13870TIP3    H263026   4.516   3.609   5.459  0.3645  0.5106 -0.9558
13871TIP3   OH263027   0.439   2.260  16.626 -0.4643  0.0429  0.1121
13871TIP3    H163028   0.352   2.269  16.665  0.1960  1.1205  1.3809
13871TIP3    H263029   0.451   2.166  16.616 -2.9368 -0.1536 -2.8507
13872TIP3   OH263030   1.600   0.805   4.355 -0.0127  0.2475 -0.4989
13872TIP3    H163031   1.663   0.828   4.423 -0.4546  1.0444 -0.3530
13872TIP3    H263032   1.652   0.758   4.289  0.5906  0.2669 -0.0443
13873TIP3   OH263033   5.556   2.086  13.239  0.5326  0.7510  0.5156
13873TIP3    H163034   5.542   2.012  13.180  0.7860 -0.2789  1.6993
13873TIP3    H263035   5.637   2.065  13.285  0.9504  2.0796  0.4430
13874TIP3   OH263036   6.216   2.798  13.413 -0.3898 -0.6671 -0.1574
13874TIP3    H163037   6.180   2.772  13.328  1.2298 -1.4611 -0.6488
13874TIP3    H263038   6.265   2.721  13.443  1.1952  0.4409  0.2576
13875TIP3   OH263039   1.215   4.413  13.125  0.2090 -0.3511 -0.3472
13875TIP3    H163040   1.235   4.380  13.213 -2.0348  0.5561  0.5698
13875TIP3    H263041   1.300   4.436  13.088  1.1019  0.8720  2.2583
13876TIP3   OH263042   2.887   4.618   4.362 -0.0320 -0.1458 -0.2800
13876TIP3    H163043   2.866   4.532   4.326 -0.2936 -0.9961  1.7661
13876TIP3    H263044   2.907   4.672   4.286 -0.1938 -1.9211 -1.6359
13877TIP3   OH263045   5.140   5.725  11.600  0.2323 -0.2703 -0.3117
13877TIP3    H163046   5.171   5.682  11.521 -0.3383  1.1248 -1.3485
13877TIP3    H263047   5.150   5.819  11.582  1.1511  0.0819  1.7226
13878TIP3   OH263048   4.388   0.236  11.856  0.6838  0.3100 -0.0591
13878TIP3    H163049   4.452   0.264  11.921  0.5717  0.4667 -0.0166
13878TIP3    H263050   4.419   0.275  11.774 -0.1423  1.5808  0.2162
13879TIP3   OH263051   6.361   1.201   4.874 -0.0409  0.2705  0.3898
13879TIP3    H163052   6.300   1.133   4.845 -1.1347  1.3514  0.0377
13879TIP3    H263053   6.425   1.155   4.928  0.8852 -1.4780 -2.0572
13880TIP3   OH263054   1.965   5.285   2.049 -0.3546  0.1170  0.3701
13880TIP3    H163055   2.028   5.346   2.011  0.5136 -0.6248  0.5790
13880TIP3    H263056   1.926   5.241   1.974 -0.4438  0.4025  0.2476
13881TIP3   OH263057   0.899   5.664  15.447 -0.4399 -0.2207  0.1143
13881TIP3    H163058   0.824   5.605  15.439 -0.2619 -0.7398  1.8619
13881TIP3    H263059   0.975   5.609  15.427 -0.4299  0.0461 -0.6271
13882TIP3   OH263060   1.040   0.927  13.773  0.1317  0.0436 -0.3484
13882TIP3    H163061   1.107   0.948  13.709 -0.2897 -1.2267 -1.2457
13882TIP3    H263062   1.045   0.998  13.837  3.5049 -0.8965  0.6206
13883TIP3   OH263063   3.974   1.797  16.673  0.1164  0.0294 -0.7412
13883TIP3    H163064   3.913   1.801  16.746  2.1234 -0.9931  1.1123
13883TIP3    H263065   3.946   1.721  16.622 -0.8920  0.3236 -0.6335
13884TIP3   OH263066   3.315   1.161   1.539  0.1341 -1.0565  0.6338
13884TIP3    H163067   3.403   1.160   1.576  0.1965  2.3694  0.9316
13884TIP3    H263068   3.258   1.130   1.609  0.8200 -0.1604  1.6125
13885TIP3   OH263069   0.750   5.578  10.901  0.5661  0.4240 -0.1186
13885TIP3    H163070   0.750   5.520  10.977  1.2925  0.4563 -0.0859
13885TIP3    H263071   0.706   5.527  10.832  0.5178  0.1321  0.1265
13886TIP3   OH263072   0.814   0.302   0.867 -0.1419 -0.3087 -0.3144
13886TIP3    H163073   0.779   0.218   0.837  0.0133 -0.4914  0.0146
13886TIP3    H263074   0.845   0.285   0.955 -0.3921  0.1743 -0.1309
13887TIP3   OH263075   2.404   0.961  14.868 -0.0281 -0.1452  0.6876
13887TIP3    H163076   2.314   0.975  14.838  0.1090  0.1579  0.4056
13887TIP3    H263077   2.458   1.001  14.800  0.2595  1.8973  1.9940
13888TIP3   OH263078   6.747   5.527  11.381  0.0546 -1.2606 -0.4341
13888TIP3    H163079   6.726   5.498  11.292 -3.9887 -1.0369  0.2782
13888TIP3    H263080   6.702   5.464  11.438  1.1737 -0.4525  1.4276
13889TIP3   OH263081   6.365   6.451  13.128  0.3344  0.2132 -0.0292
13889TIP3    H163082   6.449   6.491  13.149  1.0404 -0.3178 -1.6086
13889TIP3    H263083   6.386   6.389  13.057 -1.3636 -0.0159 -0.3702
13890TIP3   OH263084   3.310   4.799   0.635 -0.0007 -0.3241  0.4816
13890TIP3    H163085   3.300   4.706   0.655 -1.3899 -0.4642 -0.7210
13890TIP3    H263086   3.297   4.843   0.719  0.8852 -1.2111  1.1004
13891TIP3   OH263087   5.718   5.935   2.275 -0.0081 -0.2005  0.1278
13891TIP3    H163088   5.636   5.888   2.258 -0.6774  0.0931  2.3091
13891TIP3    H263089   5.717   5.952   2.369  2.6944 -0.4277  0.2749
13892TIP3   OH263090   2.053   6.793   4.432  0.8578  0.2195 -0.1347
13892TIP3    H163091   2.131   6.808   4.485  2.3229 -2.1092 -1.4563
13892TIP3    H263092   1.999   6.735   4.485  0.5784  0.8584  0.2874
13893TIP3   OH263093   3.999   3.302  15.500  0.2763 -0.8036 -0.2730
13893TIP3    H163094   4.026   3.263  15.417 -1.5533 -1.7414 -0.4796
13893TIP3    H263095   3.939   3.239  15.538  1.3769 -0.5762  1.9994
13894TIP3   OH263096   4.940   2.188   6.332 -0.2931 -0.0693 -0.2444
13894TIP3    H163097   4.986   2.123   6.279 -0.1575 -1.0862  1.0712
13894TIP3    H263098   4.996   2.202   6.408 -0.9738  0.5753  0.1526
13895TIP3   OH263099   6.760   0.281  16.632  0.2676  0.4516  0.0119
13895TIP3    H163100   6.787   0.327  16.711 -2.1843 -1.2234  1.9942
13895TIP3    H263101   6.667   0.303  16.622 -0.5263 -2.4088 -0.0058
13896TIP3   OH263102   0.818   2.582  13.489  0.3803  0.1426 -0.1858
13896TIP3    H163103   0.905   2.545  13.477  0.0946 -0.1016 -1.7080
13896TIP3    H263104   0.814   2.654  13.425 -1.2082 -1.1098 -1.6030
13897TIP3   OH263105   4.878   4.352  16.634  0.1668  0.3433 -0.4187
13897TIP3    H163106   4.961   4.386  16.600 -0.0271 -1.2469 -2.7272
13897TIP3    H263107   4.892   4.258  16.642 -1.1156  0.1778  0.0950
13898TIP3   OH263108   4.292   4.600  11.713  0.1163  0.0614  0.4991
13898TIP3    H163109   4.264   4.583  11.624  1.4289 -0.8934  0.2444
13898TIP3    H263110   4.293   4.514  11.755  0.4053  0.3750  1.1506
13899TIP3   OH263111   1.441   6.706   5.277 -0.3119  0.1022 -0.6361
13899TIP3    H163112   1.433   6.801   5.282 -0.0512  0.0767  0.2986
13899TIP3    H263113   1.443   6.688   5.183 -2.0500  0.8600 -0.8637
13900TIP3   OH263114   3.126   3.104   5.041  0.0090  0.8159  0.0072
13900TIP3    H163115   3.056   3.162   5.070  1.0661  1.5610  1.1585
13900TIP3    H263116   3.161   3.068   5.123  0.7099  0.1412 -0.5850
13901TIP3   OH263117   4.779   1.648   0.162  0.0057  0.0328  0.8753
13901TIP3    H163118   4.739   1.642   0.075 -0.0569 -0.2212  0.9227
13901TIP3    H263119   4.862   1.602   0.153 -0.6854 -1.3479  1.3610
13902TIP3   OH263120   5.268   6.667  12.129  0.1095  0.1914 -0.1227
13902TIP3    H163121   5.252   6.749  12.081  0.9076  0.6514  0.3736
13902TIP3    H263122   5.268   6.599  12.062 -0.3225  0.6292 -0.5720
13903TIP3   OH263123   1.819   1.756   5.664  0.2580  0.6463 -0.3689
13903TIP3    H163124   1.792   1.798   5.582  1.2558 -1.2562 -1.7657
13903TIP3    H263125   1.831   1.828   5.725 -1.2458  2.0838 -1.6522
13904TIP3   OH263126   5.658   2.405  15.277 -0.6453  0.2367 -0.8548
13904TIP3    H163127   5.564   2.389  15.286 -0.6642  0.9105  0.4573
13904TIP3    H263128   5.696   2.318  15.264 -1.5553  0.0854 -2.8219
13905TIP3   OH263129   2.476   3.469  11.589 -0.9750  1.1158 -0.0704
13905TIP3    H163130   2.418   3.546  11.589  1.1111  2.7958  0.2704
13905TIP3    H263131   2.563   3.506  11.573  0.0912 -1.2315  0.0238
13906TIP3   OH263132   1.217   0.148  16.191 -0.2310 -0.2956 -0.1186
13906TIP3    H163133   1.244   0.062  16.221  1.0365 -0.4908 -1.6969
13906TIP3    H263134   1.176   0.133  16.106  0.2004  0.6580 -0.5167
13907TIP3   OH263135   3.526   1.045   4.176  0.5431  0.2863 -0.6259
13907TIP3    H163136   3.560   0.970   4.225  1.4402  1.5969  0.8436
13907TIP3    H263137   3.603   1.087   4.140 -0.0313 -0.0159 -2.2858
13908TIP3   OH263138   4.554   5.866   1.805  0.4028 -0.1856  0.1198
13908TIP3    H163139   4.488   5.888   1.870 -0.7386 -0.7697 -0.8157
13908TIP3    H263140   4.614   5.808   1.851 -1.1560 -1.7177  0.3044
13909TIP3   OH263141   6.217   5.362  14.658  0.2127 -0.4673 -0.1843
13909TIP3    H163142   6.205   5.289  14.597 -0.2659  0.5284 -1.3215
13909TIP3    H263143   6.206   5.323  14.744 -2.1763 -1.3865 -0.8154
13910TIP3   OH263144   1.253   5.542   3.471  0.0306 -0.0506 -0.5996
13910TIP3    H163145   1.246   5.637   3.470 -0.3875 -0.0868 -1.1659
13910TIP3    H263146   1.166   5.510   3.447  0.0640 -0.5846 -0.0467
13911TIP3   OH263147   4.035   5.414   0.357 -0.0058 -0.0094  0.3151
13911TIP3    H163148   4.094   5.488   0.373 -0.6939  0.9223 -1.1930
13911TIP3    H263149   3.979   5.411   0.435  0.1864  0.9195  0.5068
13912TIP3   OH263150   3.903   2.233  12.273 -0.0250  0.8084  0.4271
13912TIP3    H163151   3.911   2.226  12.368  0.8392  0.3920  0.3284
13912TIP3    H263152   3.959   2.307  12.250 -1.8869  2.3191  0.4487
13913TIP3   OH263153   2.607   3.389  13.249 -0.5687  0.2057 -0.6019
13913TIP3    H163154   2.519   3.353  13.241 -0.3432 -0.4720 -0.1137
13913TIP3    H263155   2.664   3.312  13.256 -0.0465  0.6392  0.1109
13914TIP3   OH263156   3.149   3.316  17.029 -0.2969  0.1754 -0.0817
13914TIP3    H163157   3.070   3.343  17.076 -1.4068 -2.4229 -0.2923
13914TIP3    H263158   3.181   3.396  16.988 -3.5104  1.1657 -0.9649
13915TIP3   OH263159   0.314   5.916  12.020 -0.3891  0.0581 -0.8313
13915TIP3    H163160   0.264   5.952  12.093  1.2627  0.1463  0.2999
13915TIP3    H263161   0.394   5.967  12.018  1.0651 -2.0580 -0.5706
13916TIP3   OH263162   3.780   0.422  13.707  0.4384  0.5589 -0.1440
13916TIP3    H163163   3.763   0.447  13.798 -0.3934  1.2632 -0.4815
13916TIP3    H263164   3.876   0.416  13.701  0.4773 -1.2659  1.2299
13917TIP3   OH263165   5.891   0.830   4.540  0.1891 -0.1218  0.1342
13917TIP3    H163166   5.876   0.801   4.450  2.8918  0.6160 -0.6450
13917TIP3    H263167   5.962   0.775   4.571  2.8559  2.9234 -0.0693
13918TIP3   OH263168   3.589   0.031   1.012  0.2417  0.2355  0.0613
13918TIP3    H163169   3.522   0.060   0.950 -0.2869 -0.4757  0.2952
13918TIP3    H263170   3.550  -0.044   1.056  0.6920  0.6199  1.1316
13919TIP3   OH263171   5.778   2.229   4.704 -0.6769  0.0814 -0.2819
13919TIP3    H163172   5.696   2.180   4.712  0.3596 -2.0595 -1.7876
13919TIP3    H263173   5.791   2.238   4.610  0.5363  0.9224 -0.0520
13920TIP3   OH263174   4.249   4.464  12.275 -0.0263  0.3377 -0.2594
13920TIP3    H163175   4.328   4.477  12.223 -0.5595 -0.2527 -1.2602
13920TIP3    H263176   4.177   4.475  12.213 -0.7410  0.8802  0.6358
13921TIP3   OH263177   1.324   5.152  14.873 -0.1905  0.0327  0.1191
13921TIP3    H163178   1.275   5.069  14.875 -1.3812  0.7279  1.1745
13921TIP3    H263179   1.284   5.205  14.942  0.4553  1.5568 -0.6314
13922TIP3   OH263180   4.677   5.813   3.521 -0.0863  0.7154  0.1874
13922TIP3    H163181   4.653   5.855   3.604  0.6504 -0.2926  0.9226
13922TIP3    H263182   4.724   5.881   3.473  1.3499  0.7017  1.4829
13923TIP3   OH263183   4.142   1.140  11.529  0.0151  0.2552 -0.1767
13923TIP3    H163184   4.074   1.099  11.476  1.6273 -3.2395  0.1787
13923TIP3    H263185   4.128   1.105  11.617 -0.1375  2.7663  0.9023
13924TIP3   OH263186   1.611   0.505  11.852 -0.0601 -0.3860 -0.2423
13924TIP3    H163187   1.619   0.567  11.925  3.0382 -0.5213 -0.3477
13924TIP3    H263188   1.592   0.559  11.776  0.6577  0.2232  0.0023
13925TIP3   OH263189   4.868   1.784  15.364  0.1892 -0.3499 -0.2122
13925TIP3    H163190   4.808   1.793  15.437 -0.1241 -0.5530 -0.4421
13925TIP3    H263191   4.955   1.779  15.404  0.5029  3.8025 -0.0056
13926TIP3   OH263192   5.513   0.107  10.947 -0.1493 -0.6646 -0.1025
13926TIP3    H163193   5.457   0.098  11.025 -0.4303 -0.7045 -0.3069
13926TIP3    H263194   5.594   0.144  10.980  0.4072 -2.3232  0.4969
13927TIP3   OH263195   0.326   4.971   1.220  0.2900  0.3373 -0.0735
13927TIP3    H163196   0.401   4.927   1.179 -1.5182 -2.6316 -0.5357
13927TIP3    H263197   0.327   4.940   1.311 -0.9227 -0.6153 -0.3607
13928TIP3   OH263198   6.210   1.344   4.448 -0.0149 -0.1840  0.0118
13928TIP3    H163199   6.282   1.372   4.392  0.7580  0.6351  1.3476
13928TIP3    H263200   6.134   1.337   4.390  1.3522 -2.2749 -1.6934
13929TIP3   OH263201   3.876   0.294   2.273 -0.1752  0.2781  0.4129
13929TIP3    H163202   3.932   0.349   2.328 -0.7703  0.7804  0.5230
13929TIP3    H263203   3.891   0.205   2.304 -0.9236  0.6103  1.7782
13930TIP3   OH263204   2.668   6.061   2.802 -0.1343 -0.2812 -0.1709
13930TIP3    H163205   2.720   6.140   2.809 -0.1259 -0.2358 -0.7077
13930TIP3    H263206   2.581   6.092   2.775 -0.4921 -0.3405  0.8537
13931TIP3   OH263207   4.503   2.501  17.019 -0.1762  0.0012  0.0067
13931TIP3    H163208   4.462   2.416  17.033  1.2842 -0.9635 -1.3296
13931TIP3    H263209   4.578   2.502  17.079  1.5872 -0.9609 -2.0858
13932TIP3   OH263210   1.079   1.693  11.597  0.1569  0.3060 -0.2937
13932TIP3    H163211   1.173   1.709  11.608  0.2716  0.2284 -1.0651
13932TIP3    H263212   1.072   1.659  11.508 -0.5765  0.0745 -0.1499
13933TIP3   OH263213   5.960   5.731   5.445  0.1078 -0.6272 -0.0152
13933TIP3    H163214   5.997   5.744   5.532 -0.1876 -0.3019  0.0647
13933TIP3    H263215   6.032   5.748   5.385  0.3979 -1.1750  0.1721
13934TIP3   OH263216   3.034   1.540   6.100 -0.3823  0.0852 -0.8320
13934TIP3    H163217   2.984   1.588   6.165  1.5881 -1.2264  1.8402
13934TIP3    H263218   3.010   1.448   6.114  2.0838 -0.5029  0.0689
13935TIP3   OH263219   0.602   2.629  12.543 -0.2803  0.1632  0.2670
13935TIP3    H163220   0.528   2.569  12.540 -0.2956  0.2092 -1.3967
13935TIP3    H263221   0.677   2.573  12.564 -0.5653 -0.1234  0.5374
13936TIP3   OH263222   3.568   0.096   2.235 -0.1998  0.4255 -0.7188
13936TIP3    H163223   3.567   0.074   2.328 -0.4860 -0.2238 -0.8708
13936TIP3    H263224   3.569   0.192   2.233 -1.8395  0.4892 -0.0341
13937TIP3   OH263225   6.705   5.313  15.375  0.4844 -0.1375 -0.2541
13937TIP3    H163226   6.773   5.248  15.355  0.7438 -0.4466  1.4616
13937TIP3    H263227   6.734   5.393  15.331  0.6114 -0.9299 -1.6770
13938TIP3   OH263228   6.351   0.134   4.782  0.3636  0.1554  0.2320
13938TIP3    H163229   6.373   0.208   4.726  2.4581 -0.1711  0.5323
13938TIP3    H263230   6.302   0.075   4.725  0.9695  0.6011 -0.7804
13939TIP3   OH263231   2.086   0.672   6.210  0.4250  0.0811  0.6604
13939TIP3    H163232   2.055   0.670   6.301  0.0612 -0.0740  0.5358
13939TIP3    H263233   2.096   0.580   6.186 -0.2637  0.0957  0.2857
13940TIP3   OH263234   6.030   1.325  14.177  0.1951 -0.0295  0.3961
13940TIP3    H163235   6.021   1.229  14.181 -1.9888  0.0458 -0.8099
13940TIP3    H263236   5.969   1.357  14.243 -0.4784  0.5282 -0.4787
13941TIP3   OH263237   2.226   5.605   0.424 -0.0683  0.1781  0.0963
13941TIP3    H163238   2.267   5.652   0.351 -0.9722  0.1197 -0.4725
13941TIP3    H263239   2.299   5.570   0.475  0.5900  0.9067 -0.3295
13942TIP3   OH263240   4.089   2.937   6.174 -0.5130  0.2736  0.1558
13942TIP3    H163241   4.011   2.886   6.151 -0.5260  0.8369 -1.0939
13942TIP3    H263242   4.063   2.986   6.252 -0.2022 -2.2916  2.0111
13943TIP3   OH263243   2.306   4.112   5.551 -0.2389  0.2167 -0.3097
13943TIP3    H163244   2.302   4.201   5.515  0.5543  1.1786  1.7731
13943TIP3    H263245   2.224   4.102   5.599  0.6209  0.7707  1.3627
13944TIP3   OH263246   3.673   2.794  12.903  0.0360  0.4615  0.0834
13944TIP3    H163247   3.659   2.877  12.856 -1.4127 -0.1527 -0.6276
13944TIP3    H263248   3.764   2.770  12.881 -0.2117  0.7947 -1.4641
13945TIP3   OH263249   0.561   1.344   2.953 -0.2166  0.3144  0.5160
13945TIP3    H163250   0.559   1.293   2.872  0.0700  0.3760  0.4712
13945TIP3    H263251   0.647   1.327   2.991  0.0598  1.1125  0.2714
13946TIP3   OH263252   5.771   4.843   1.984 -0.2796  0.2670  0.3397
13946TIP3    H163253   5.832   4.821   1.913 -0.0441  0.7421  0.3945
13946TIP3    H263254   5.726   4.761   2.002  0.5213 -0.1562  0.4750
13947TIP3   OH263255   5.783   4.223   0.387  0.2190 -0.2965  0.3047
13947TIP3    H163256   5.871   4.191   0.403 -0.6638 -1.7880  2.8844
13947TIP3    H263257   5.737   4.148   0.348  0.2267  0.7276 -1.8156
13948TIP3   OH263258   4.219   2.045   4.807  0.0158 -0.5358 -0.4587
13948TIP3    H163259   4.127   2.023   4.795 -0.6401  1.1782  0.9839
13948TIP3    H263260   4.246   2.082   4.723 -1.0274  0.2633 -0.4595
13949TIP3   OH263261   4.917   6.112  16.340 -0.2645 -0.2363  0.0506
13949TIP3    H163262   4.912   6.196  16.294 -0.2236  0.3225  1.0369
13949TIP3    H263263   4.830   6.075  16.332 -0.3083 -0.0518 -0.3164
13950TIP3   OH263264   5.702   6.658  11.388 -0.4070  0.1897 -0.0670
13950TIP3    H163265   5.691   6.681  11.480 -0.5227  0.1899 -0.0813
13950TIP3    H263266   5.658   6.573  11.379 -1.7442  0.8870 -0.4554
13951TIP3   OH263267   1.882   6.034   2.453 -0.0220 -0.5867 -0.2370
13951TIP3    H163268   1.974   6.031   2.477  0.5677 -0.5768 -2.3544
13951TIP3    H263269   1.878   6.000   2.364 -1.3900  3.5381 -1.9901
13952TIP3   OH263270   1.007   4.626  13.950  0.2037  0.3830  0.1832
13952TIP3    H163271   1.051   4.699  13.993  3.1334 -1.4573  0.5615
13952TIP3    H263272   1.026   4.638  13.856  0.3637  0.3160  0.2069
13953TIP3   OH263273   6.156   4.897   6.010 -0.5518  0.0738  0.3702
13953TIP3    H163274   6.191   4.986   6.006  2.5496 -1.0470 -0.7049
13953TIP3    H263275   6.170   4.870   6.101 -1.8267  0.7487  0.7894
13954TIP3   OH263276   5.578   1.228   0.078  0.0947  0.2343  0.1370
13954TIP3    H163277   5.630   1.203   0.002  2.0351 -0.0192  1.4650
13954TIP3    H263278   5.632   1.202   0.153 -0.6072  2.7145  1.5958
13955TIP3   OH263279   6.042   4.925   2.331  0.4822  0.1537  0.0306
13955TIP3    H163280   6.021   4.832   2.339 -0.5513  0.5324  3.4137
13955TIP3    H263281   6.134   4.927   2.303  0.4406 -1.8674 -0.3617
13956TIP3   OH263282   3.356   6.487   2.898 -0.2516 -0.1850 -0.0653
13956TIP3    H163283   3.444   6.488   2.862 -0.1875 -1.9603 -0.0489
13956TIP3    H263284   3.299   6.510   2.825  0.1787  0.8466 -0.1054
13957TIP3   OH263285   6.465   1.551  11.179 -0.0302 -0.1279 -0.7812
13957TIP3    H163286   6.483   1.585  11.267  2.3973 -1.8117 -0.5109
13957TIP3    H263287   6.375   1.520  11.184  0.3512 -1.1239  1.5086
13958TIP3   OH263288   2.240   2.501  13.617  0.1420 -0.7525  0.1510
13958TIP3    H163289   2.260   2.415  13.580 -0.8422 -0.6696 -0.6186
13958TIP3    H263290   2.322   2.529  13.657  0.1684 -2.5515  1.4727
13959TIP3   OH263291   3.516   2.491  14.166 -0.0625  0.2250 -0.4552
13959TIP3    H163292   3.530   2.409  14.214 -0.7785  0.4929  0.2317
13959TIP3    H263293   3.435   2.526  14.202 -0.6183  0.4534 -1.8666
13960TIP3   OH263294   2.527   2.155   2.696 -0.1827  0.6979  0.8036
13960TIP3    H163295   2.596   2.112   2.647  0.6626  2.1934  0.6362
13960TIP3    H263296   2.567   2.179   2.779 -0.0772  2.7039  0.2195
13961TIP3   OH263297   5.718   6.350   3.401 -0.4458  0.7471 -0.6031
13961TIP3    H163298   5.797   6.343   3.455  0.1412  1.4040 -1.3574
13961TIP3    H263299   5.657   6.401   3.455 -1.0113 -1.1845  0.6860
13962TIP3   OH263300   5.916   1.952  12.695  0.0505 -0.2860 -0.5095
13962TIP3    H163301   5.952   2.040  12.687  1.3155 -0.9178 -2.4639
13962TIP3    H263302   5.922   1.933  12.789 -1.5967  2.1694  0.2029
13963TIP3   OH263303   5.169   1.040  15.357  0.2934  0.5736  0.0918
13963TIP3    H163304   5.206   0.954  15.338  0.8949  0.9958 -0.7245
13963TIP3    H263305   5.093   1.047  15.300  0.1687  0.5351  0.2520
13964TIP3   OH263306   0.102   0.945  14.404 -0.3335  0.2749 -0.3576
13964TIP3    H163307   0.154   0.947  14.324  0.9943  1.4417  0.4779
13964TIP3    H263308   0.163   0.975  14.472 -1.7587  0.4612  0.8758
13965TIP3   OH263309   4.669   2.727   5.117 -0.1329 -0.2235 -0.0232
13965TIP3    H163310   4.694   2.694   5.031 -0.4762 -0.1957 -0.1349
13965TIP3    H263311   4.615   2.658   5.155  0.4907 -0.4785  0.4038
13966TIP3   OH263312   0.167   3.729  15.392  0.0802 -0.4538 -0.0763
13966TIP3    H163313   0.104   3.798  15.372 -0.7838 -1.9683 -3.3466
13966TIP3    H263314   0.116   3.661  15.436 -0.3453 -1.1200 -1.5349
13967TIP3   OH263315   6.797   2.566  11.768 -0.0953  0.4285 -0.7631
13967TIP3    H163316   6.862   2.530  11.829 -0.1290  2.1223  0.3290
13967TIP3    H263317   6.823   2.657  11.755 -2.1518  1.1261 -0.3971
13968TIP3   OH263318   5.314   2.585  12.289 -0.2927 -0.3197 -0.1044
13968TIP3    H163319   5.379   2.605  12.222 -0.1309 -1.2540 -0.2362
13968TIP3    H263320   5.351   2.620  12.370 -1.1829  2.2568 -0.6883
13969TIP3   OH263321   0.412   2.609   0.630 -0.1167  0.1383 -0.0733
13969TIP3    H163322   0.453   2.566   0.555  0.6239  1.1363 -0.2566
13969TIP3    H263323   0.477   2.672   0.661 -1.0998  1.0029  0.2928
13970TIP3   OH263324   5.146   2.856  10.605  0.7960  0.0833  0.0790
13970TIP3    H163325   5.143   2.948  10.578 -1.8683  0.4342  1.3452
13970TIP3    H263326   5.135   2.858  10.700 -0.5307 -1.5735 -0.0032
13971TIP3   OH263327   5.903   5.100   4.096 -0.5881 -0.7090  0.0340
13971TIP3    H163328   5.865   5.056   4.171 -0.7555 -0.5474  0.0432
13971TIP3    H263329   5.960   5.034   4.056 -0.0436 -0.6162  0.6318
13972TIP3   OH263330   5.388   4.955   0.524  0.1352  0.0516 -0.6230
13972TIP3    H163331   5.393   4.889   0.593 -0.2917  1.0506  0.3943
13972TIP3    H263332   5.400   5.038   0.569  1.7367  0.6417 -2.0288
13973TIP3   OH263333   2.517   6.549   4.169  0.0239  0.4223 -0.8188
13973TIP3    H163334   2.452   6.485   4.142  0.0153  0.8555 -1.8647
13973TIP3    H263335   2.467   6.618   4.212  0.0207 -0.1900  0.2013
13974TIP3   OH263336   5.456   3.273  12.619  0.4343  0.1239 -0.2159
13974TIP3    H163337   5.527   3.229  12.665 -0.7454 -1.3025  0.3286
13974TIP3    H263338   5.414   3.327  12.686 -0.8597 -1.4284  0.3065
13975TIP3   OH263339   5.289   5.922  16.701  0.1320 -0.2423 -0.5740
13975TIP3    H163340   5.222   5.959  16.644  0.6535  1.9011  0.0898
13975TIP3    H263341   5.255   5.836  16.727 -3.1861  1.3700  1.0489
13976TIP3   OH263342   1.421   2.967   4.390  0.3950  0.3362 -0.2091
13976TIP3    H163343   1.470   3.042   4.356  2.7249 -0.4955  1.0119
13976TIP3    H263344   1.400   2.915   4.313 -0.2913  1.6777 -0.9648
13977TIP3   OH263345   1.211   4.010  15.656  0.5711 -0.0253 -0.6060
13977TIP3    H163346   1.118   4.019  15.636  0.8445  1.7424 -1.2932
13977TIP3    H263347   1.232   4.088  15.707  1.6172 -0.5608 -0.1918
13978TIP3   OH263348   1.940   6.025  16.176  0.1682  0.1052 -0.0734
13978TIP3    H163349   1.980   6.095  16.228  0.2464 -0.4227  0.5910
13978TIP3    H263350   1.846   6.036  16.190  0.2251 -0.6126  0.9620
13979TIP3   OH263351   6.249   2.603   6.580 -0.1468  0.0430 -0.0725
13979TIP3    H163352   6.158   2.572   6.579  0.0199 -0.4353 -0.9766
13979TIP3    H263353   6.244   2.689   6.623 -0.9288 -0.2515  0.4657
13980TIP3   OH263354   4.233   2.896   1.966 -1.0800 -0.4373 -0.1235
13980TIP3    H163355   4.291   2.971   1.972  1.5293 -2.2836 -0.5067
13980TIP3    H263356   4.212   2.889   1.873 -0.0721 -1.0023 -0.3274
13981TIP3   OH263357   4.298   4.001  16.989 -0.0084  0.6850  0.4761
13981TIP3    H163358   4.297   3.905  16.988 -0.5092  0.6658  1.4322
13981TIP3    H263359   4.351   4.025  16.913 -1.0005 -0.3200 -0.5753
13982TIP3   OH263360   2.346   1.168  12.822 -0.1953  0.3572  0.0872
13982TIP3    H163361   2.387   1.190  12.905  0.3361  0.2545 -0.1398
13982TIP3    H263362   2.291   1.092  12.841  0.5834 -0.1956  0.1739
13983TIP3   OH263363   3.164   1.719   1.971  0.1292  0.1942 -0.0806
13983TIP3    H163364   3.085   1.689   2.015  0.2427  0.0760  0.0413
13983TIP3    H263365   3.136   1.734   1.880 -0.6458  2.5203  0.4659
13984TIP3   OH263366   1.305   6.792   0.055 -0.1003  0.2949 -0.1219
13984TIP3    H163367   1.219   6.780   0.093 -0.6714  0.3373 -1.3492
13984TIP3    H263368   1.333   6.704   0.031 -1.1054  0.5183 -2.3919
13985TIP3   OH263369   1.924   2.016   3.224  0.0610  0.0231  0.1720
13985TIP3    H163370   1.963   2.061   3.149  2.8794 -1.5111  0.5405
13985TIP3    H263371   1.844   1.977   3.190 -0.6255  2.3267 -1.0298
13986TIP3   OH263372   4.595   6.760  12.681  0.0171 -0.1805  0.1344
13986TIP3    H163373   4.552   6.836  12.642  0.3614  0.6738  1.3663
13986TIP3    H263374   4.554   6.685  12.638 -1.0609  0.6714 -0.3800
13987TIP3   OH263375   4.405   3.557   5.103  0.1673  0.0863 -0.3863
13987TIP3    H163376   4.439   3.645   5.116 -2.0734  0.9583  0.1455
13987TIP3    H263377   4.454   3.502   5.164 -0.8912  1.6782  2.0777
13988TIP3   OH263378   5.757   5.769  13.666 -0.1491 -0.1767  0.2307
13988TIP3    H163379   5.840   5.728  13.641  0.4300 -0.0162  1.8193
13988TIP3    H263380   5.729   5.814  13.586  0.6643 -1.2256 -0.6870
13989TIP3   OH263381   6.168   2.888  15.200 -0.3417  0.0587 -0.0846
13989TIP3    H163382   6.131   2.911  15.285  0.0918 -1.9640  0.7008
13989TIP3    H263383   6.200   2.972  15.165 -1.1600  1.0466  1.3973
13990TIP3   OH263384   6.498   4.403   0.862 -0.2449  0.6131  0.2602
13990TIP3    H163385   6.431   4.423   0.928 -1.3833 -1.8323 -0.0736
13990TIP3    H263386   6.450   4.362   0.791  1.2374  1.5394 -1.3408
13991TIP3   OH263387   3.041   6.095   4.587  0.1988 -0.5121 -0.1162
13991TIP3    H163388   2.955   6.094   4.545 -0.7635 -2.0383  1.7436
13991TIP3    H263389   3.022   6.098   4.680  2.0844 -2.9365  0.4401
13992TIP3   OH263390   0.590   2.290  11.612 -0.3120 -0.0206  0.5499
13992TIP3    H163391   0.628   2.319  11.530 -2.4132  0.7843 -0.2173
13992TIP3    H263392   0.638   2.211  11.635 -1.0255 -1.5152 -2.5985
13993TIP3   OH263393   0.509   1.198   6.181 -0.1075  0.7084 -0.0585
13993TIP3    H163394   0.598   1.212   6.214 -0.7986  1.2408  1.6830
13993TIP3    H263395   0.473   1.128   6.237 -0.9959  0.9406 -0.3242
13994TIP3   OH263396   3.254   2.155   2.425  0.2564  0.2257  0.7846
13994TIP3    H163397   3.172   2.152   2.473  1.0155  0.6157  2.1745
13994TIP3    H263398   3.275   2.248   2.419  0.2277  0.1699 -0.2094
13995TIP3   OH263399   4.404   5.384   5.707  0.4444 -0.0973  0.2500
13995TIP3    H163400   4.339   5.322   5.739  0.3213 -0.0925  0.0148
13995TIP3    H263401   4.456   5.407   5.784  0.2196 -0.1634  0.4218
13996TIP3   OH263402   4.069   3.155   3.119 -0.1533  0.5351  0.0241
13996TIP3    H163403   4.008   3.184   3.052 -1.7579  3.3236  2.4260
13996TIP3    H263404   4.015   3.142   3.197  1.9816  1.0347  1.7220
13997TIP3   OH263405   0.804   0.857  12.945 -0.0982 -0.2756  0.7815
13997TIP3    H163406   0.874   0.914  12.913 -0.2296  0.3863  1.6311
13997TIP3    H263407   0.724   0.906  12.928 -0.5857 -1.8061 -1.9086
13998TIP3   OH263408   5.438   0.756  16.607 -0.0695 -0.2550 -0.1001
13998TIP3    H163409   5.458   0.688  16.670  0.2995  0.6187  0.7548
13998TIP3    H263410   5.351   0.735  16.573  0.0855 -1.1859  0.0821
13999TIP3   OH263411   0.692   3.253  11.795  0.2475  0.2339 -0.8576
13999TIP3    H163412   0.646   3.289  11.718 -1.3378 -0.3502 -0.2139
13999TIP3    H263413   0.689   3.324  11.859 -0.7621 -0.1824 -0.4288
14000TIP3   OH263414   2.049   5.278  12.253  0.3049  0.4548 -0.7232
14000TIP3    H163415   2.049   5.321  12.167 -0.2740 -1.3903 -1.7158
14000TIP3    H263416   2.133   5.233  12.257  1.6032  2.7921  0.9896
14001TIP3   OH263417   4.778   5.009  11.689  0.9992 -0.0430 -0.1665
14001TIP3    H163418   4.733   4.983  11.769 -0.3256  2.5172  0.0074
14001TIP3    H263419   4.870   4.990  11.706  0.5699 -0.9521  1.3376
14002TIP3   OH263420   2.909   6.281  16.072 -0.8922 -0.3823 -0.0996
14002TIP3    H163421   2.822   6.293  16.032 -0.6117  0.0400 -0.5938
14002TIP3    H263422   2.947   6.368  16.072  0.1474 -0.8055 -1.3399
14003TIP3   OH263423   3.194   3.565   3.910 -1.3164  0.2180 -0.4909
14003TIP3    H163424   3.242   3.530   3.985 -2.4166  0.3777  0.3134
14003TIP3    H263425   3.238   3.648   3.890  0.4133 -0.8763 -1.5098
14004TIP3   OH263426   1.216   4.294  14.450  0.0467 -0.0770  0.3145
14004TIP3    H163427   1.229   4.268  14.358 -0.7982 -2.0134  0.6855
14004TIP3    H263428   1.221   4.389  14.449 -1.9330  0.1192 -2.1408
14005TIP3   OH263429   3.893   3.927   5.466 -0.4021 -0.1775  0.2523
14005TIP3    H163430   3.923   3.955   5.379  1.3995  1.3943  1.3133
14005TIP3    H263431   3.798   3.919   5.456 -0.5705  2.4240 -1.2671
14006TIP3   OH263432   3.012   5.228  12.349  0.5613  0.2327 -0.1329
14006TIP3    H163433   2.998   5.308  12.399  1.7680  1.2772 -1.3951
14006TIP3    H263434   3.001   5.254  12.258  1.5632 -0.8933 -0.6058
14007TIP3   OH263435   6.728   0.034  11.052 -0.0956 -0.5527 -0.1137
14007TIP3    H163436   6.742   0.073  10.965  0.9051 -1.1130 -0.2174
14007TIP3    H263437   6.816   0.029  11.090 -0.3029 -1.9305  0.2299
14008TIP3   OH263438   0.121   0.930   0.263  0.4023 -0.0118 -0.0533
14008TIP3    H163439   0.151   1.016   0.290 -1.0968  1.7689 -3.4447
14008TIP3    H263440   0.026   0.940   0.252  0.2840 -1.8881 -1.2059
14009TIP3   OH263441   6.398   4.716   2.812 -0.1760  0.4236 -0.6502
14009TIP3    H163442   6.364   4.746   2.728 -0.5738  1.3488 -0.1690
14009TIP3    H263443   6.411   4.796   2.863  0.7850 -0.0707 -0.0945
14010TIP3   OH263444   1.655   1.135   4.529 -0.5924 -0.3478 -0.4213
14010TIP3    H163445   1.645   1.092   4.614 -0.0457  1.1162  0.4328
14010TIP3    H263446   1.575   1.113   4.482 -1.2103 -0.6698  0.7265
14011TIP3   OH263447   5.283   1.594  16.758  0.1628  0.1752  0.1588
14011TIP3    H163448   5.297   1.659  16.827  1.6079 -1.0760  1.1029
14011TIP3    H263449   5.239   1.521  16.803 -1.6549  0.5237 -0.9313
14012TIP3   OH263450   4.226   6.653   2.551  0.2779  0.2560 -0.1199
14012TIP3    H163451   4.272   6.647   2.467  1.5809 -0.1885  0.6049
14012TIP3    H263452   4.218   6.562   2.580 -0.8901  0.3417 -0.1252
14013TIP3   OH263453   5.941   3.804  15.006  0.2904 -0.5695 -0.7542
14013TIP3    H163454   5.955   3.888  14.963 -0.4177 -0.3315 -0.5305
14013TIP3    H263455   5.908   3.747  14.936  0.1540 -0.4784 -0.7647
14014TIP3   OH263456   0.952   1.628   5.474  0.0382  0.1541  0.8457
14014TIP3    H163457   0.869   1.583   5.463  0.9927 -1.1785 -1.6153
14014TIP3    H263458   1.011   1.562   5.512  0.9419 -0.1861 -1.0297
14015TIP3   OH263459   1.187   4.385  10.857 -0.2787 -0.2108  0.0444
14015TIP3    H163460   1.201   4.295  10.827 -0.2447 -0.4056  0.6233
14015TIP3    H263461   1.264   4.433  10.829 -0.1195 -0.4538  0.0647
14016TIP3   OH263462   0.995   6.790   2.608  0.9130 -0.1554 -0.1051
14016TIP3    H163463   0.949   6.836   2.538  0.5625  2.8663  1.9143
14016TIP3    H263464   1.078   6.836   2.618  0.1660  0.7740  2.6228
14017TIP3   OH263465   4.917   5.193   5.322  0.2394 -0.4184 -0.1701
14017TIP3    H163466   4.862   5.118   5.298 -0.2285 -0.2678  0.3927
14017TIP3    H263467   4.909   5.199   5.417 -1.1356  1.3773 -0.3314
14018TIP3   OH263468   4.946   3.786  13.562 -0.3622 -0.2221  0.8701
14018TIP3    H163469   4.954   3.832  13.478  0.7074 -0.6286  0.7367
14018TIP3    H263470   4.870   3.729  13.550 -0.7553  0.3612  0.4958
14019TIP3   OH263471   2.489   2.731  13.954 -0.1241  0.0728 -1.0293
14019TIP3    H163472   2.565   2.723  14.012  0.7237  0.5809 -2.0373
14019TIP3    H263473   2.526   2.745  13.867 -1.3697 -0.6725 -1.7183
14020TIP3   OH263474   0.178   0.959  13.916 -0.3045  0.0821  0.1807
14020TIP3    H163475   0.192   1.045  13.877 -1.0150  1.1526  2.1446
14020TIP3    H263476   0.230   0.899  13.862  1.2420  1.9211 -0.4780
14021TIP3   OH263477   4.733   3.851  15.469  0.3947 -0.6308  0.5553
14021TIP3    H163478   4.693   3.886  15.389 -0.8666  1.7842  2.1387
14021TIP3    H263479   4.827   3.856  15.452  0.2664  2.3032  0.0574
14022TIP3   OH263480   0.710   3.835   2.046 -0.0325 -0.0672  1.0360
14022TIP3    H163481   0.761   3.901   2.093  0.1548 -0.5640  1.5398
14022TIP3    H263482   0.633   3.882   2.015  1.4093  1.0820 -1.0516
14023TIP3   OH263483   3.812   6.487   3.025 -0.9647  0.0457 -0.4370
14023TIP3    H163484   3.735   6.499   3.080  1.0935  2.1525  2.2423
14023TIP3    H263485   3.884   6.471   3.086  0.9944 -0.5931 -2.7213
14024TIP3   OH263486   3.747   1.933  16.534  0.4333 -0.1531 -0.2248
14024TIP3    H163487   3.832   1.968  16.507  0.6615  0.7760  1.5866
14024TIP3    H263488   3.758   1.912  16.627 -1.1226 -0.6858 -0.1354
14025TIP3   OH263489   3.074   1.186  14.122 -0.0306 -0.2856  0.5126
14025TIP3    H163490   2.980   1.186  14.138 -0.3134  0.4968 -0.9736
14025TIP3    H263491   3.113   1.189  14.209 -1.4121  1.1903  1.1345
14026TIP3   OH263492   2.902   2.435  12.097  0.3268 -0.4504 -0.4845
14026TIP3    H163493   2.922   2.491  12.022  0.9244 -1.7914 -1.3432
14026TIP3    H263494   2.833   2.377  12.066 -1.1453  0.5271  0.7729
14027TIP3   OH263495   2.434   0.993   5.486 -0.3642  0.1309 -0.1570
14027TIP3    H163496   2.372   1.028   5.422  1.3508  0.6298 -1.6328
14027TIP3    H263497   2.449   1.065   5.547 -0.2634  0.4482 -0.5540
14028TIP3   OH263498   2.760   1.616   5.902 -0.0056  0.5887 -0.2303
14028TIP3    H163499   2.765   1.623   5.807 -1.6755 -0.9704 -0.4907
14028TIP3    H263500   2.691   1.677   5.927 -0.7680 -0.2340 -0.2557
14029TIP3   OH263501   1.657   5.187  11.215  0.6194 -0.0550  0.0990
14029TIP3    H163502   1.616   5.228  11.291  1.1223 -2.4742  1.8011
14029TIP3    H263503   1.751   5.204  11.225  0.6807 -0.3194  0.0025
14030TIP3   OH263504   4.052   3.939   1.324 -0.1626 -0.2972 -0.2029
14030TIP3    H163505   4.014   3.941   1.412 -1.3406 -1.5666 -0.6453
14030TIP3    H263506   4.033   3.851   1.292  1.2233 -0.2307 -1.3285
14031TIP3   OH263507   0.050   0.560  13.885  0.1078 -0.0093  0.1910
14031TIP3    H163508  -0.027   0.512  13.914  1.0341  0.0322  3.0021
14031TIP3    H263509   0.061   0.630  13.949  2.3452  0.1108 -0.2120
14032TIP3   OH263510   1.638   5.905   0.908  0.3498 -0.5769  0.5557
14032TIP3    H163511   1.682   5.820   0.909 -0.7036 -1.1356 -0.1026
14032TIP3    H263512   1.579   5.902   0.833 -1.3952 -0.1382  1.8510
14033TIP3   OH263513   3.363   0.836  13.606 -0.3502 -0.1968  0.2795
14033TIP3    H163514   3.268   0.826  13.614 -0.5175 -0.7629 -1.6775
14033TIP3    H263515   3.383   0.798  13.520  1.2482  2.3559 -0.5997
14034TIP3   OH263516   3.960   0.515   5.792 -0.2519 -0.2458 -0.7670
14034TIP3    H163517   3.962   0.506   5.697  1.9939  1.1303 -0.9239
14034TIP3    H263518   3.868   0.532   5.813 -0.4292  2.2465 -3.0483
14035TIP3   OH263519   3.049   1.057  12.615 -0.0038 -0.2661 -0.3907
14035TIP3    H163520   3.058   1.106  12.533  2.3870  1.3765  0.7229
14035TIP3    H263521   3.036   1.125  12.681  2.0233 -1.2043  1.0422
14036TIP3   OH263522   5.131   0.399   6.232  0.0325  0.1438 -0.5438
14036TIP3    H163523   5.143   0.306   6.212 -0.0293 -0.3071  1.2701
14036TIP3    H263524   5.040   0.417   6.206 -0.9163 -1.0973  1.5768
14037TIP3   OH263525   4.736   0.869   2.813 -0.6022  1.3757  0.6163
14037TIP3    H163526   4.825   0.836   2.827 -0.9022  0.0149 -0.4598
14037TIP3    H263527   4.744   0.925   2.735 -0.8894  0.1821 -0.3089
14038TIP3   OH263528   1.006   0.407   5.696  0.1989  0.3287  0.3377
14038TIP3    H163529   1.033   0.448   5.778  0.3936  0.0671  0.4059
14038TIP3    H263530   1.011   0.313   5.713 -2.1572  0.2258  0.8291
14039TIP3   OH263531   4.689   5.291  15.518 -0.2047  0.3444 -0.0223
14039TIP3    H163532   4.708   5.383  15.505  1.3024  0.2145  1.0112
14039TIP3    H263533   4.742   5.246  15.453  0.3399  0.1306  0.5674
14040TIP3   OH263534   6.315   0.778   5.141  0.3136  0.5182  0.0170
14040TIP3    H163535   6.404   0.811   5.157  1.1227 -0.8291 -1.4140
14040TIP3    H263536   6.300   0.795   5.048 -0.5837 -0.0367  0.0512
14041TIP3   OH263537   1.273   1.464   3.425 -0.1712  0.1163 -0.3502
14041TIP3    H163538   1.327   1.450   3.347 -1.1748 -1.5640 -0.8064
14041TIP3    H263539   1.331   1.445   3.498  0.1319 -0.7332 -0.7993
14042TIP3   OH263540   0.626   3.078   0.441  0.8440  0.5986 -0.2785
14042TIP3    H163541   0.537   3.084   0.475  0.7394  1.3966 -0.6495
14042TIP3    H263542   0.677   3.138   0.496  1.4069 -0.6802  0.6524
14043TIP3   OH263543   3.921   3.079   0.745 -0.0110 -0.4682  0.2401
14043TIP3    H163544   3.983   3.013   0.774  0.1047  0.2756  1.8085
14043TIP3    H263545   3.866   3.034   0.681  0.3185 -1.9611  0.9589
14044TIP3   OH263546   5.805   3.451   0.502 -0.4960  0.2190  0.4889
14044TIP3    H163547   5.855   3.416   0.576  1.6927 -0.6905 -1.2898
14044TIP3    H263548   5.714   3.450   0.531  0.3499  0.7385  3.4467
14045TIP3   OH263549   3.118   4.722  15.442 -0.4025 -0.1156 -0.3834
14045TIP3    H163550   3.132   4.635  15.405  0.3275  0.1578 -0.7689
14045TIP3    H263551   3.129   4.782  15.369 -1.4114  0.2815 -0.2251
14046TIP3   OH263552   0.116   1.884  11.909  0.1407 -0.2971  0.2634
14046TIP3    H163553   0.076   1.854  11.828 -1.6219 -0.2678  1.0723
14046TIP3    H263554   0.161   1.808  11.944  0.1157 -0.5617 -0.2751
14047TIP3   OH263555   3.372   0.186   0.423  0.0580  0.0676 -0.3353
14047TIP3    H163556   3.421   0.223   0.349  1.2057 -0.1710  0.2826
14047TIP3    H263557   3.422   0.212   0.500 -2.4574  2.4998  0.6352
14048TIP3   OH263558   0.058   2.059   3.654 -0.3125 -0.2958  0.5423
14048TIP3    H163559   0.041   1.999   3.726  2.9842 -0.7909  1.0821
14048TIP3    H263560   0.088   2.140   3.696 -0.7935  0.3232 -0.2602
14049TIP3   OH263561   2.643   3.454  14.898  0.0394  0.7573 -0.7156
14049TIP3    H163562   2.656   3.530  14.841 -1.7871  1.6698  0.0134
14049TIP3    H263563   2.684   3.479  14.981  2.8142 -0.6214 -1.5462
14050TIP3   OH263564   3.567   4.948   2.619  0.3741 -0.2147 -0.1032
14050TIP3    H163565   3.651   4.903   2.631  0.5441  0.0408 -0.3248
14050TIP3    H263566   3.555   4.998   2.700  0.5127 -0.1288 -0.1353
14051TIP3   OH263567   0.503   0.767  15.773  0.4436 -0.1401 -0.3297
14051TIP3    H163568   0.423   0.820  15.780  0.8568  0.5374 -0.6212
14051TIP3    H263569   0.477   0.692  15.719 -0.5114 -0.9856  1.2376
14052TIP3   OH263570   6.098   2.442   4.212 -0.1442  0.2554  0.1991
14052TIP3    H163571   6.081   2.348   4.205 -0.5618  0.4307 -1.7845
14052TIP3    H263572   6.192   2.448   4.231  0.4973 -0.5953 -2.2610
14053TIP3   OH263573   3.186   1.244   2.032 -0.0718  0.2098 -0.4201
14053TIP3    H163574   3.216   1.202   1.951  0.4533 -1.5684  0.6237
14053TIP3    H263575   3.260   1.296   2.061  0.7913 -1.3391  0.2949
14054TIP3   OH263576   0.461   3.856   1.415  0.1251  0.2747 -0.0767
14054TIP3    H163577   0.522   3.790   1.381  0.9306  1.1660 -0.4198
14054TIP3    H263578   0.451   3.835   1.507  0.7808 -0.0399 -0.0678
14055TIP3   OH263579   0.994   5.236   2.168  0.6806 -0.2806  0.1733
14055TIP3    H163580   1.028   5.250   2.256  0.5524 -1.0353  0.3457
14055TIP3    H263581   0.905   5.204   2.180  0.4013  0.3196 -0.2501
14056TIP3   OH263582   0.254   3.282  12.539 -0.5971  0.6896 -0.0994
14056TIP3    H163583   0.248   3.366  12.585  0.2001  1.4372 -1.3120
14056TIP3    H263584   0.165   3.247  12.543 -0.5339  0.6269  2.1229
14057TIP3   OH263585   0.926   4.156  12.757 -0.1875 -0.6797 -0.0775
14057TIP3    H163586   1.016   4.176  12.728 -0.1090 -1.0310 -0.0719
14057TIP3    H263587   0.888   4.107  12.685  0.2018 -2.0900  0.6414
14058TIP3   OH263588   2.527   2.153   4.123  0.1819  0.1532  0.1359
14058TIP3    H163589   2.616   2.182   4.105 -0.1844  0.8889 -0.5898
14058TIP3    H263590   2.473   2.230   4.107 -0.7102 -0.6181 -0.7217
14059TIP3   OH263591   1.760   1.536   1.200 -0.1283 -0.2454 -0.2913
14059TIP3    H163592   1.843   1.506   1.237 -0.8779 -0.6077  1.1784
14059TIP3    H263593   1.770   1.631   1.195 -0.3382 -0.0512  1.8833
14060TIP3   OH263594   3.858   2.156   1.157 -0.0780 -0.2506  0.0261
14060TIP3    H163595   3.820   2.099   1.224 -0.2645  0.4937  0.5638
14060TIP3    H263596   3.887   2.096   1.088  0.8000 -1.0994  1.1027
14061TIP3   OH263597   2.678   2.654  13.271  0.4098  0.3948 -0.0996
14061TIP3    H163598   2.759   2.633  13.224  0.6945  1.1845  0.0100
14061TIP3    H263599   2.611   2.600  13.230  0.9058  0.0810 -0.5091
14062TIP3   OH263600   3.458   6.260   3.593  0.0931 -0.2219  0.8545
14062TIP3    H163601   3.391   6.329   3.590 -0.1168 -0.4441  0.1381
14062TIP3    H263602   3.456   6.228   3.683  0.4783  0.9824  1.3180
14063TIP3   OH263603   4.836   5.065   0.398 -0.0086  0.9615  0.1727
14063TIP3    H163604   4.857   5.147   0.353 -1.4327  0.9899 -0.4807
14063TIP3    H263605   4.791   5.093   0.477 -1.9076  0.8073 -0.8097
14064TIP3   OH263606   6.349   2.972  12.957  0.0757 -0.1898 -0.2352
14064TIP3    H163607   6.259   2.971  12.989  0.5231 -0.3068  1.0762
14064TIP3    H263608   6.375   2.880  12.955 -0.0914 -0.2308 -1.4312
14065TIP3   OH263609   4.101   5.618   3.932 -0.0119 -0.2042 -0.0236
14065TIP3    H163610   4.120   5.527   3.911  0.5986 -0.2183  0.5610
14065TIP3    H263611   4.055   5.614   4.016 -0.5682 -0.0162 -0.3186
14066TIP3   OH263612   2.395   2.630   0.421 -0.8636 -0.6029 -0.3309
14066TIP3    H163613   2.372   2.597   0.507 -1.7628  3.0584  0.9934
14066TIP3    H263614   2.318   2.677   0.391 -0.1653 -0.8127 -2.6657
14067TIP3   OH263615   5.801   6.515   3.038  0.0086  0.6605 -0.1795
14067TIP3    H163616   5.835   6.485   3.122 -0.3805 -0.2980 -0.3504
14067TIP3    H263617   5.706   6.522   3.050 -0.4756 -2.3078 -1.2869
14068TIP3   OH263618   2.036   2.902  13.927  0.3057 -0.0513 -0.0454
14068TIP3    H163619   2.038   2.901  14.023 -0.3554 -1.3595 -0.0198
14068TIP3    H263620   2.075   2.819  13.901  1.3584  0.6942 -0.9679
14069TIP3   OH263621   1.362   5.555   1.368 -0.4284  0.3567  0.1465
14069TIP3    H163622   1.334   5.476   1.321 -0.4766 -0.2833  1.2037
14069TIP3    H263623   1.444   5.580   1.326  0.3291 -1.0967  0.6671
14070TIP3   OH263624   5.154   2.160  14.918 -0.3886 -0.5116 -0.4126
14070TIP3    H163625   5.070   2.198  14.944 -0.3085 -0.0796 -0.7763
14070TIP3    H263626   5.214   2.235  14.912 -0.3195 -0.6343 -1.4858
14071TIP3   OH263627   4.696   5.043   2.914 -0.2787 -0.2650  0.3043
14071TIP3    H163628   4.749   5.031   2.836  0.5258  1.9860  0.4321
14071TIP3    H263629   4.626   5.103   2.887 -1.0416 -0.8733  0.8819
14072TIP3   OH263630   4.337   4.129   0.754  0.4978  0.1665  0.1662
14072TIP3    H163631   4.428   4.100   0.756  0.0918 -1.2410  2.5218
14072TIP3    H263632   4.290   4.056   0.713  0.3314  0.5146 -0.2614
14073TIP3   OH263633   4.314   1.322  11.218  0.3518  0.0621 -0.2495
14073TIP3    H163634   4.380   1.273  11.266  1.5581  0.5034 -1.4052
14073TIP3    H263635   4.230   1.288  11.250  1.0791  0.4184  2.2072
14074TIP3   OH263636   3.217   1.440   1.652  0.5877  0.1181 -0.8055
14074TIP3    H163637   3.271   1.391   1.714 -0.0451  0.0620 -0.2881
14074TIP3    H263638   3.153   1.486   1.707  0.7446  0.9937 -1.3287
14075TIP3   OH263639   5.511   3.735   2.008 -0.2130  0.2014  0.2822
14075TIP3    H163640   5.469   3.677   2.071 -0.7699  1.6458  1.2835
14075TIP3    H263641   5.524   3.680   1.930  1.3443 -1.9227  1.8933
14076TIP3   OH263642   6.396   1.136  15.803  0.4542 -0.1920 -0.0945
14076TIP3    H163643   6.377   1.135  15.897  0.8600  0.4582  0.0007
14076TIP3    H263644   6.485   1.171  15.797  0.2487  0.2369 -0.7498
14077TIP3   OH263645   3.929   1.135  13.957  0.4603  0.1844 -0.0085
14077TIP3    H163646   3.870   1.059  13.959  1.4812 -0.6358  0.1046
14077TIP3    H263647   4.016   1.096  13.956  1.0241  1.3783  1.0687
14078TIP3   OH263648   2.903   0.382   5.057 -0.0109  0.3519 -0.2570
14078TIP3    H163649   2.899   0.434   4.977  0.1960 -0.3990 -0.7670
14078TIP3    H263650   2.962   0.431   5.114  1.2486  0.0172 -1.2312
14079TIP3   OH263651   0.344   4.521  13.474 -0.8123  0.1437 -0.4505
14079TIP3    H163652   0.411   4.493  13.411  1.1709 -0.8143  1.9089
14079TIP3    H263653   0.274   4.457  13.465 -0.7600  0.2693 -1.9404
14080TIP3   OH263654   3.183   0.745  16.230  0.7224  0.0557  0.4854
14080TIP3    H163655   3.268   0.711  16.259  0.9633  0.5090  0.3187
14080TIP3    H263656   3.139   0.669  16.191  0.7398 -0.3574  1.2481
14081TIP3   OH263657   0.215   6.405   5.593  0.4765  0.0708  0.2563
14081TIP3    H163658   0.142   6.343   5.595  1.7030 -1.6420 -2.5273
14081TIP3    H263659   0.185   6.476   5.537  0.2624  0.3849  0.7589
14082TIP3   OH263660   5.958   6.220   0.135  0.0237  0.2370  0.2138
14082TIP3    H163661   5.944   6.128   0.112 -0.8190 -0.1464  2.1124
14082TIP3    H263662   5.876   6.247   0.176  0.6204  1.5519  0.5845
14083TIP3   OH263663   4.778   0.922   2.202 -0.8477  0.0801  0.0031
14083TIP3    H163664   4.760   0.832   2.231  1.5403 -0.0607  1.2914
14083TIP3    H263665   4.822   0.962   2.276 -0.9572  2.0335 -0.9368
14084TIP3   OH263666   3.585   5.463   5.780 -0.5595  0.5289  0.1349
14084TIP3    H163667   3.547   5.468   5.693 -1.0046 -0.5422  0.2549
14084TIP3    H263668   3.590   5.369   5.799 -0.3344  0.7427  1.2048
14085TIP3   OH263669   3.945   3.204   1.307 -0.1739  0.0311 -0.3783
14085TIP3    H163670   3.977   3.293   1.288 -1.2828  0.1266 -1.9562
14085TIP3    H263671   3.916   3.208   1.398  1.0886  0.8715  0.0264
14086TIP3   OH263672   5.191   5.912  13.265  0.0976  0.1293 -0.4975
14086TIP3    H163673   5.215   5.993  13.311 -0.4665  1.0159 -1.7239
14086TIP3    H263674   5.096   5.908  13.273  0.0511 -0.0001 -1.1113
14087TIP3   OH263675   2.337   5.845  11.550  0.4968 -0.4555 -0.0412
14087TIP3    H163676   2.310   5.791  11.476 -0.0026 -1.1849  0.6611
14087TIP3    H263677   2.260   5.897  11.572  1.2137  1.1891 -1.2342
14088TIP3   OH263678   2.488   1.284  10.926 -0.7081  0.2427  0.8195
14088TIP3    H163679   2.449   1.210  10.878 -1.1950 -0.7575  2.6695
14088TIP3    H263680   2.578   1.289  10.893 -1.7283  1.4163 -2.1896
14089TIP3   OH263681   5.219   2.904   4.877 -0.3445 -0.0258  0.2985
14089TIP3    H163682   5.183   2.859   4.801 -1.1661  2.0010 -0.5832
14089TIP3    H263683   5.224   2.837   4.945 -0.3202 -1.6981 -1.2983
14090TIP3   OH263684   3.781   4.047   5.927 -0.1285  0.0727 -0.3644
14090TIP3    H163685   3.862   4.015   5.966 -0.1147 -0.2380 -0.6408
14090TIP3    H263686   3.712   4.015   5.985 -0.0470  0.4843 -0.0331
14091TIP3   OH263687   2.032   3.994  13.123 -0.1111  0.0277 -0.2099
14091TIP3    H163688   2.125   3.973  13.125 -0.1070  0.0829  0.9473
14091TIP3    H263689   1.988   3.914  13.153 -0.2574  0.7538  1.6555
14092TIP3   OH263690   1.988   3.057  15.554 -0.2954 -0.1310  0.0687
14092TIP3    H163691   1.920   3.090  15.612 -1.2198 -1.4868 -0.2107
14092TIP3    H263692   1.943   2.998  15.494  1.1067 -1.0529 -0.1375
14093TIP3   OH263693   3.713   5.931  16.170 -0.0178 -0.3055  0.3768
14093TIP3    H163694   3.711   5.995  16.240  2.4543  0.7128 -0.3806
14093TIP3    H263695   3.645   5.960  16.109 -1.6714 -0.7808  1.9136
14094TIP3   OH263696   4.573   2.488  15.889 -0.2580 -0.2746 -0.3244
14094TIP3    H163697   4.501   2.527  15.940  0.8460 -0.2774  1.3077
14094TIP3    H263698   4.549   2.395  15.882 -0.5068 -0.2442  0.0568
14095TIP3   OH263699   2.993   3.556   4.277  0.2286  0.0852  0.0573
14095TIP3    H163700   2.960   3.480   4.324  1.5479 -0.7247 -0.2655
14095TIP3    H263701   3.013   3.620   4.345  1.4006 -0.7868  0.5551
14096TIP3   OH263702   2.459   3.979   4.722 -0.1604 -0.3304 -0.3799
14096TIP3    H163703   2.488   3.918   4.789  0.1659  1.4153  1.1455
14096TIP3    H263704   2.527   4.046   4.719 -0.8719  0.3847 -1.4405
14097TIP3   OH263705   2.327   2.095   4.479  0.2488  0.6800 -0.7388
14097TIP3    H163706   2.410   2.141   4.490  0.6054 -0.1612  0.2625
14097TIP3    H263707   2.275   2.120   4.556  0.6151 -0.8773  0.0637
14098TIP3   OH263708   5.733   3.450  16.215  0.2029 -0.1297 -0.4386
14098TIP3    H163709   5.677   3.395  16.160  0.2816 -0.3196 -0.3279
14098TIP3    H263710   5.706   3.429  16.305  0.0224  0.2332 -0.4029
14099TIP3   OH263711   5.413   2.237   0.382 -0.1640  0.0616 -0.3789
14099TIP3    H163712   5.468   2.289   0.324  1.3873 -1.3412 -0.2223
14099TIP3    H263713   5.468   2.217   0.458 -0.6720 -1.8237 -0.4486
14100TIP3   OH263714   2.623   5.786  11.493 -0.1558 -0.3852 -0.1293
14100TIP3    H163715   2.690   5.781  11.561 -0.2855  2.4660  0.3196
14100TIP3    H263716   2.540   5.774  11.540 -0.1423 -0.6401 -0.1672
14101TIP3   OH263717   6.197   2.558  10.830  0.1695  0.4441  0.4006
14101TIP3    H163718   6.202   2.559  10.734  1.2182 -0.9448  0.4081
14101TIP3    H263719   6.212   2.649  10.856  1.5640  0.5642 -0.7098
14102TIP3   OH263720   5.108   1.632  10.673  0.6678  0.3904  0.6983
14102TIP3    H163721   5.107   1.537  10.683 -0.5914  0.3906  0.6745
14102TIP3    H263722   5.190   1.659  10.714  1.5693 -0.7961 -0.2125
14103TIP3   OH263723   3.489   5.996   1.195 -0.2864 -0.1738  0.0589
14103TIP3    H163724   3.490   5.957   1.107  1.5917  0.5752 -0.3166
14103TIP3    H263725   3.423   5.946   1.243 -0.7325 -1.1897 -1.5221
14104TIP3   OH263726   6.733   1.263   1.176 -0.3902 -0.4205 -0.0181
14104TIP3    H163727   6.820   1.224   1.168 -1.0170 -1.9260  0.1842
14104TIP3    H263728   6.748   1.345   1.222  1.2382  0.6242 -2.2327
14105TIP3   OH263729   3.892   3.352   5.029 -0.1026 -0.5769 -0.0142
14105TIP3    H163730   3.878   3.426   4.970  0.2676  1.5709  2.4055
14105TIP3    H263731   3.973   3.312   4.998 -0.0132  0.3469 -1.0584
14106TIP3   OH263732   4.455   2.726   0.677 -0.1224 -0.2639 -0.7261
14106TIP3    H163733   4.431   2.819   0.682 -3.0054 -0.8350 -2.1453
14106TIP3    H263734   4.536   2.725   0.627 -0.5614  1.4451 -1.5501
14107TIP3   OH263735   2.091   3.483   1.303  0.6787 -0.6900 -0.4848
14107TIP3    H163736   2.108   3.423   1.375  0.4317 -2.1274 -1.5795
14107TIP3    H263737   1.997   3.497   1.304  0.6897 -0.6171 -0.4583
14108TIP3   OH263738   1.114   4.105  11.578 -0.1834 -0.2159 -0.6929
14108TIP3    H163739   1.156   4.154  11.648 -1.4953  0.7286 -0.5254
14108TIP3    H263740   1.106   4.168  11.506 -2.1402 -0.0403 -0.3838
14109TIP3   OH263741   0.097   0.968  15.946  0.1585 -0.1819 -0.1727
14109TIP3    H163742   0.160   1.008  15.886 -1.5821 -1.5762 -3.2388
14109TIP3    H263743   0.125   0.877  15.954 -1.6837 -1.0438 -2.2329
14110TIP3   OH263744   1.683   5.460  14.497  0.5681  0.6149  0.1326
14110TIP3    H163745   1.590   5.479  14.507 -0.0939 -1.4869 -1.3288
14110TIP3    H263746   1.712   5.521  14.429  0.1511  0.9561  0.2516
14111TIP3   OH263747   0.632   5.554  12.053 -0.2808  0.0508 -0.1919
14111TIP3    H163748   0.563   5.571  12.118  0.0369  2.3742 -0.3677
14111TIP3    H263749   0.611   5.613  11.981  1.4724  0.2739 -0.5552
14112TIP3   OH263750   2.567   2.628  15.380  0.4121  0.0700  0.2770
14112TIP3    H163751   2.538   2.544  15.345  2.0886 -0.6280  0.4506
14112TIP3    H263752   2.586   2.610  15.472  1.9695  0.2804  0.0284
14113TIP3   OH263753   4.823   2.073  13.778 -0.6002  0.4242  0.1392
14113TIP3    H163754   4.730   2.087  13.798  0.0210  2.9936  1.7465
14113TIP3    H263755   4.864   2.060  13.864  0.8074  1.5641 -0.3177
14114TIP3   OH263756   2.938   6.394  11.572  0.5559 -0.2875 -0.0253
14114TIP3    H163757   2.874   6.336  11.613 -1.5519  2.6653  1.1990
14114TIP3    H263758   2.996   6.421  11.644  2.5727 -1.9892 -0.8963
14115TIP3   OH263759   1.974   0.323   1.825 -0.2729 -0.1208  0.0046
14115TIP3    H163760   1.984   0.378   1.747  1.7359  1.8860  1.5431
14115TIP3    H263761   2.039   0.356   1.887 -1.1317 -2.2360  2.2283
14116TIP3   OH263762   3.299   5.941   3.697 -0.0666  0.0232 -0.1950
14116TIP3    H163763   3.301   5.850   3.726  1.1138  0.3303  0.7516
14116TIP3    H263764   3.390   5.962   3.676 -0.5265  0.5614 -1.8134
14117TIP3   OH263765   0.580   2.204  13.601 -0.6188 -0.1800  0.3067
14117TIP3    H163766   0.526   2.162  13.668 -1.3477 -0.7437 -0.6132
14117TIP3    H263767   0.603   2.133  13.541 -0.2027  0.3641 -0.1853
14118TIP3   OH263768   0.972   1.003   5.634  0.3730 -0.1595 -0.0995
14118TIP3    H163769   0.929   1.033   5.554  0.1935 -0.8871 -0.2864
14118TIP3    H263770   1.039   1.069   5.652  1.2976 -0.6475 -1.5889
14119TIP3   OH263771   4.867   4.601  12.735  0.3588 -0.3957 -0.5546
14119TIP3    H163772   4.808   4.529  12.711 -0.8250  0.3015  0.1785
14119TIP3    H263773   4.845   4.621  12.826  0.3885  1.1704 -0.8620
14120TIP3   OH263774   0.108   5.139  15.346  0.0175  0.3115  0.6211
14120TIP3    H163775   0.101   5.056  15.298  0.8856 -0.4886  1.8342
14120TIP3    H263776   0.186   5.129  15.401 -0.1963  1.7113  1.2207
14121TIP3   OH263777   6.122   0.159   1.957 -0.7224 -0.1082  0.7594
14121TIP3    H163778   6.184   0.141   1.886  0.3115 -0.6108  1.7638
14121TIP3    H263779   6.156   0.239   1.998 -0.0856 -0.9935  2.0038
14122TIP3   OH263780   5.332   0.912  14.153 -0.1890 -0.4008 -0.1924
14122TIP3    H163781   5.372   0.996  14.176  2.4570 -1.5340 -0.3154
14122TIP3    H263782   5.257   0.935  14.097  1.6263  1.8328 -1.8573
14123TIP3   OH263783   4.223   4.706  16.160  0.3615  0.1553 -0.5154
14123TIP3    H163784   4.265   4.621  16.143  0.0380  0.2961 -2.1791
14123TIP3    H263785   4.132   4.693  16.132 -0.1568  0.5453  0.9002
14124TIP3   OH263786   4.771   2.947  15.935 -0.4310  0.6804 -0.1559
14124TIP3    H163787   4.695   2.974  15.988 -0.1086 -0.2703  0.8470
14124TIP3    H263788   4.738   2.876  15.880 -0.3470  0.4643  0.0700
14125TIP3   OH263789   0.147   5.590   4.384  0.4173  0.1600 -0.9108
14125TIP3    H163790   0.070   5.633   4.421  0.6677  0.0745 -0.2805
14125TIP3    H263791   0.159   5.632   4.299 -1.8823 -1.6480 -2.2255
14126TIP3   OH263792   6.024   0.988  12.626  0.1761 -0.5437  0.2923
14126TIP3    H163793   5.973   0.912  12.596  0.7556 -1.2887  1.1585
14126TIP3    H263794   6.115   0.960  12.618  0.4096  0.2305  0.2028
14127TIP3   OH263795   4.451   4.343   1.095 -0.4335  0.3010  0.7008
14127TIP3    H163796   4.474   4.412   1.034  0.3199  0.9429  1.6784
14127TIP3    H263797   4.514   4.273   1.078 -0.6947  0.1744  0.2483
14128TIP3   OH263798   0.459   5.246  16.409  0.0919 -0.1113  0.2293
14128TIP3    H163799   0.415   5.191  16.474 -0.6929 -0.6298 -0.7267
14128TIP3    H263800   0.413   5.329  16.412 -0.6113 -0.4626 -0.3525
14129TIP3   OH263801   0.271   2.043   2.474 -0.9224  0.0951 -0.2226
14129TIP3    H163802   0.353   1.998   2.495  0.0102  1.4871 -0.7500
14129TIP3    H263803   0.277   2.062   2.380 -2.8447 -1.6826 -0.7959
14130TIP3   OH263804   1.752   1.953  12.991 -0.8735  0.0217 -0.4032
14130TIP3    H163805   1.828   1.898  12.972 -0.0111 -0.0926  2.7283
14130TIP3    H263806   1.785   2.042  12.986 -0.4804 -0.0270  0.9226
14131TIP3   OH263807   5.795   2.657  16.777 -0.0179 -0.0466 -0.0450
14131TIP3    H163808   5.796   2.697  16.865 -1.1850 -1.1034  0.4743
14131TIP3    H263809   5.845   2.718  16.723  0.2267  0.9305  1.2307
14132TIP3   OH263810   1.320   5.068   1.180  0.5893  0.0236 -0.4505
14132TIP3    H163811   1.322   5.071   1.084  0.6000  2.1433 -0.4427
14132TIP3    H263812   1.402   5.025   1.204  0.7884 -0.1539 -1.3920
14133TIP3   OH263813   2.347   0.373  15.573  0.0212 -0.7258  0.5546
14133TIP3    H163814   2.415   0.431  15.608 -0.0156 -1.2560  1.5454
14133TIP3    H263815   2.374   0.357  15.483  0.7254 -0.2066  0.6604
14134TIP3   OH263816   2.258   1.444  12.798 -0.5899  0.2870  0.1896
14134TIP3    H163817   2.319   1.509  12.763 -3.4036  2.1599 -1.6793
14134TIP3    H263818   2.293   1.360  12.768  1.1622  1.2375 -0.6101
14135TIP3   OH263819   3.599   1.754  11.905 -0.0906 -0.3165 -0.0099
14135TIP3    H163820   3.663   1.825  11.909 -0.9430  0.4114  2.0549
14135TIP3    H263821   3.651   1.674  11.910  0.7420  0.2245  0.2566
14136TIP3   OH263822   2.050   4.521   0.873  0.3494 -0.1736  0.1422
14136TIP3    H163823   2.000   4.439   0.869  0.6234 -0.3352 -0.0427
14136TIP3    H263824   2.110   4.508   0.947  0.2988 -0.0848  0.1990
14137TIP3   OH263825   2.218   0.831  15.037  0.0544  0.5848  0.8922
14137TIP3    H163826   2.150   0.885  14.997  0.2287  0.4764  0.4548
14137TIP3    H263827   2.267   0.891  15.092  0.4926  0.9539  0.1045
14138TIP3   OH263828   5.892   0.589  11.811 -0.5765  0.0726 -0.0770
14138TIP3    H163829   5.860   0.571  11.722 -0.9263 -0.0208  0.0653
14138TIP3    H263830   5.982   0.555  11.811 -0.7361 -0.3653 -0.2500
14139TIP3   OH263831   0.480   2.013   5.237  0.3431  0.6117 -0.1433
14139TIP3    H163832   0.461   2.106   5.249 -0.8027  0.4133 -0.2646
14139TIP3    H263833   0.431   1.969   5.307  0.3607  0.0625 -0.4702
14140TIP3   OH263834   1.050   0.041   2.904  0.3572  0.7366 -0.5670
14140TIP3    H163835   1.064   0.010   2.815  0.7926 -1.2154  0.1386
14140TIP3    H263836   0.995   0.118   2.894  1.7925  1.6022 -2.6349
14141TIP3   OH263837   5.989   0.390  15.227 -0.8096 -0.7221 -0.3276
14141TIP3    H163838   6.068   0.359  15.185 -1.1268 -1.7921 -0.1648
14141TIP3    H263839   5.946   0.446  15.162  0.7625  1.0773  0.0773
14142TIP3   OH263840   6.090   5.481   5.614  0.3703  0.3371 -0.6055
14142TIP3    H163841   6.002   5.516   5.633  1.2696  2.2348  0.3918
14142TIP3    H263842   6.082   5.387   5.629 -1.2380  0.6130  0.5716
14143TIP3   OH263843   1.395   5.813  11.123  0.2130 -0.0617 -0.9030
14143TIP3    H163844   1.466   5.804  11.059  1.5020  1.2637  0.2633
14143TIP3    H263845   1.389   5.727  11.165  1.1271 -0.2057 -1.0413
14144TIP3   OH263846   6.764   5.229  16.303  0.2662 -0.2643  0.3960
14144TIP3    H163847   6.822   5.242  16.378 -0.2355 -2.4140  1.2234
14144TIP3    H263848   6.776   5.308  16.249  1.8439  0.5922  1.9099
14145TIP3   OH263849   0.836   4.747  16.606  0.0667 -0.1408 -0.3458
14145TIP3    H163850   0.860   4.776  16.518  0.5787  0.8593  0.1040
14145TIP3    H263851   0.884   4.666  16.619  0.8856  0.2974 -0.5663
14146TIP3   OH263852   3.141   6.108   4.207 -0.0176 -0.2368 -0.6006
14146TIP3    H163853   3.130   6.203   4.206 -1.0900 -0.3486 -0.1111
14146TIP3    H263854   3.234   6.095   4.188  0.5917  1.0024  1.2162
14147TIP3   OH263855   4.825   6.092   1.254 -0.0457 -0.1790  0.0882
14147TIP3    H163856   4.831   6.113   1.347  1.0308 -0.8293  0.1848
14147TIP3    H263857   4.760   6.154   1.219 -0.6333 -0.0845  1.3048
14148TIP3   OH263858   1.070   2.632  12.410 -0.7843 -0.7319 -0.1516
14148TIP3    H163859   1.045   2.603  12.497 -1.3706 -2.7642 -0.9207
14148TIP3    H263860   0.987   2.646  12.364 -0.4832  0.3772 -0.3853
14149TIP3   OH263861   3.869   5.187   5.125  0.0832  0.1997 -0.1353
14149TIP3    H163862   3.960   5.157   5.117 -0.1704 -0.3741 -1.0796
14149TIP3    H263863   3.821   5.109   5.152 -0.2881  0.2324 -0.6905
14150TIP3   OH263864   5.989   1.269   4.023  0.8705 -0.4940 -0.6402
14150TIP3    H163865   5.895   1.279   4.010  0.5362 -0.9430  1.1633
14150TIP3    H263866   6.007   1.179   3.996  0.8426 -0.3449 -1.1801
14151TIP3   OH263867   0.077   1.135  17.143  0.2348 -0.5018  0.0907
14151TIP3    H163868   0.140   1.193  17.187 -0.9212  0.9615 -0.1205
14151TIP3    H263869   0.050   1.183  17.065  0.0476 -1.8109 -0.6828
14152TIP3   OH263870   5.410   1.796  15.149  0.2858 -0.3607  0.4206
14152TIP3    H163871   5.477   1.739  15.112  1.7267  2.6854 -2.1693
14152TIP3    H263872   5.432   1.804  15.241  1.5099 -1.9590  0.3045
14153TIP3   OH263873   3.677   0.572   5.839  0.2698 -0.1728 -0.5643
14153TIP3    H163874   3.657   0.547   5.929  0.1214 -0.8644 -0.7763
14153TIP3    H263875   3.596   0.554   5.791  0.1256  0.8315 -0.7217
14154TIP3   OH263876   4.352   1.204  13.962 -0.0461  0.0537  0.5935
14154TIP3    H163877   4.410   1.148  13.911 -0.2392 -0.1609  0.6116
14154TIP3    H263878   4.264   1.186  13.928 -0.1294  0.2184  0.7150
14155TIP3   OH263879   1.542   4.174  14.650 -0.0124 -0.0384  0.1854
14155TIP3    H163880   1.508   4.104  14.706 -0.2707 -1.2751 -1.4327
14155TIP3    H263881   1.491   4.251  14.675 -0.5704 -0.7031  1.1866
14156TIP3   OH263882   6.787   2.316   0.727  0.1503  0.0926  0.0767
14156TIP3    H163883   6.805   2.308   0.820 -1.1926 -1.7741  0.2325
14156TIP3    H263884   6.821   2.235   0.689  0.2380  0.6145 -0.9891
14157TIP3   OH263885   2.862   6.619  16.630  0.3390  0.7507 -0.1266
14157TIP3    H163886   2.787   6.580  16.585  0.9810  0.0980 -0.6672
14157TIP3    H263887   2.828   6.649  16.714 -0.8432  1.7768 -0.9424
14158TIP3   OH263888   1.270   4.017   0.384 -0.1382 -0.3093  0.7807
14158TIP3    H163889   1.182   4.044   0.409 -0.3028 -0.2317  0.1333
14158TIP3    H263890   1.313   4.098   0.356 -0.4150 -0.5922 -0.5173
14159TIP3   OH263891   6.137   2.235   3.859  0.2880 -0.2906 -0.1222
14159TIP3    H163892   6.079   2.172   3.901  0.9771 -1.1839 -0.4755
14159TIP3    H263893   6.223   2.216   3.895  0.9943 -1.4312 -2.2758
14160TIP3   OH263894   5.732   5.265   3.755  0.0248 -0.7087 -0.6421
14160TIP3    H163895   5.694   5.352   3.765  2.4083  0.4279 -0.7302
14160TIP3    H263896   5.760   5.262   3.663 -0.0333 -1.5840 -0.6413
14161TIP3   OH263897   3.488   2.631  16.940  0.4467 -0.6267  0.0910
14161TIP3    H163898   3.476   2.666  16.851  0.2614  0.7334  0.6239
14161TIP3    H263899   3.583   2.623  16.949  0.5555  0.5577  0.2287
14162TIP3   OH263900   3.999   0.136   0.580  0.8506 -0.1165 -0.2647
14162TIP3    H163901   4.027   0.097   0.497  0.7274 -1.4094  0.2733
14162TIP3    H263902   3.904   0.129   0.579  0.8531 -0.2238  0.0255
14163TIP3   OH263903   0.986   4.367  15.152 -0.3620  0.0283 -0.2149
14163TIP3    H163904   1.074   4.330  15.167 -0.0672  0.6427 -0.3795
14163TIP3    H263905   0.990   4.453  15.193 -0.5947  0.4332 -1.0350
14164TIP3   OH263906   4.852   6.669   0.505  0.3013  0.3608  0.2444
14164TIP3    H163907   4.913   6.596   0.501 -0.6753 -0.4232 -0.8964
14164TIP3    H263908   4.787   6.651   0.436  0.4107  2.6364 -0.5399
14165TIP3   OH263909   1.336   1.844  16.379  0.0783  0.5786  0.5133
14165TIP3    H163910   1.310   1.752  16.368  1.2317  0.0355  1.9536
14165TIP3    H263911   1.356   1.874  16.291  2.0256 -1.3068  0.2437
14166TIP3   OH263912   2.993   3.042   5.638 -0.0054 -0.4722  0.0051
14166TIP3    H163913   2.984   2.955   5.677 -0.8310 -0.1990  0.4586
14166TIP3    H263914   3.079   3.041   5.597  0.9364 -0.7723  1.8537
14167TIP3   OH263915   2.270   3.872   3.385 -0.2250  0.0507 -0.5832
14167TIP3    H163916   2.326   3.804   3.346  0.8873  1.2881 -1.2413
14167TIP3    H263917   2.324   3.951   3.383 -1.4863  0.9647  0.1561
14168TIP3   OH263918   2.088   5.513   1.085  0.6423  0.5930 -0.6208
14168TIP3    H163919   2.075   5.462   1.165  3.2941 -1.6402 -1.4377
14168TIP3    H263920   2.179   5.543   1.090  1.3310 -0.7060 -3.2665
14169TIP3   OH263921   3.792   4.892   0.576 -0.3584  0.3185 -0.3292
14169TIP3    H163922   3.714   4.926   0.532 -1.2003 -0.3028  0.6580
14169TIP3    H263923   3.761   4.858   0.659  0.7977 -0.9079 -0.3519
14170TIP3   OH263924   2.679   5.441  16.138  0.6949 -0.1304  0.7946
14170TIP3    H163925   2.601   5.432  16.084  1.5588 -1.1955 -0.3143
14170TIP3    H263926   2.710   5.352  16.151  1.2046  0.2006  2.0410
14171TIP3   OH263927   3.246   2.638   4.033  0.5050 -0.1891  0.1986
14171TIP3    H163928   3.196   2.699   4.087 -2.6376 -1.0383 -1.5198
14171TIP3    H263929   3.261   2.562   4.089 -1.6254 -0.5495  0.3634
14172TIP3   OH263930   1.749   1.826  13.240 -0.0928  0.3783 -0.3956
14172TIP3    H163931   1.747   1.730  13.240  1.9717  0.2890 -0.2484
14172TIP3    H263932   1.733   1.850  13.148  0.3169 -0.1526 -0.6103
14173TIP3   OH263933   2.831   4.249  12.489 -0.3152 -0.5061 -0.1946
14173TIP3    H163934   2.866   4.239  12.401  0.8117 -0.0655  0.1825
14173TIP3    H263935   2.768   4.177  12.498 -2.5496  1.0286 -2.3093
14174TIP3   OH263936   0.870   1.562  11.820  0.2273  0.0745  0.3485
14174TIP3    H163937   0.849   1.472  11.842 -0.7641 -0.2126 -1.5923
14174TIP3    H263938   0.895   1.560  11.728  3.7308  1.2697  1.1024
14175TIP3   OH263939   3.154   5.371   5.736  0.0015 -0.2956  0.3162
14175TIP3    H163940   3.212   5.390   5.809  0.1130 -0.0492  0.1636
14175TIP3    H263941   3.212   5.356   5.662 -0.1010 -0.8144  0.3382
14176TIP3   OH263942   1.788   3.264  16.722  0.2206  0.1815 -0.0527
14176TIP3    H163943   1.878   3.254  16.753  0.5830 -0.0917 -1.1657
14176TIP3    H263944   1.736   3.271  16.802  1.0110 -1.5073  0.6629
14177TIP3   OH263945   5.451   3.955  15.661  0.2429 -0.0893  0.2025
14177TIP3    H163946   5.455   3.880  15.721 -0.9763 -0.9571 -0.7244
14177TIP3    H263947   5.383   3.930  15.598  0.6823  1.2856 -0.8542
14178TIP3   OH263948   0.453   1.471  11.405 -0.4284  0.2244  0.2639
14178TIP3    H163949   0.514   1.401  11.429  1.0667  1.7092  0.9791
14178TIP3    H263950   0.510   1.544  11.378 -1.9342  0.4396 -2.7678
14179TIP3   OH263951   6.722   0.866  10.699  0.1154 -0.0293 -0.9983
14179TIP3    H163952   6.661   0.829  10.763 -1.0479  0.5039 -1.7493
14179TIP3    H263953   6.666   0.892  10.626  1.0206  2.1319 -0.9930
14180TIP3   OH263954   6.147   0.306   3.288  0.1415  0.1713  0.4635
14180TIP3    H163955   6.178   0.343   3.206 -0.7489  0.0664  0.0640
14180TIP3    H263956   6.092   0.375   3.326 -1.0164 -0.4778  0.0164
14181TIP3   OH263957   1.966   6.687   0.372 -0.2529 -0.4501 -0.0511
14181TIP3    H163958   2.029   6.733   0.426 -0.5149 -0.2113  0.0536
14181TIP3    H263959   1.881   6.706   0.412 -0.4026 -0.6697 -0.2592
14182TIP3   OH263960   6.307   6.411   3.141  0.0510 -0.5187  0.4916
14182TIP3    H163961   6.255   6.487   3.115  1.4528  1.4065  2.8813
14182TIP3    H263962   6.243   6.352   3.181 -0.8348  0.0953  0.0440
14183TIP3   OH263963   5.038   4.882   0.973  0.3087 -0.0464  0.1150
14183TIP3    H163964   5.095   4.888   0.897  0.7360 -1.9679  0.2425
14183TIP3    H263965   4.950   4.870   0.936  0.4740 -0.6736 -0.0783
14184TIP3   OH263966   2.116   6.270  14.876  0.7203 -0.0916 -0.0137
14184TIP3    H163967   2.145   6.310  14.794 -0.1137 -1.6394 -1.1265
14184TIP3    H263968   2.190   6.217  14.905  1.0467  0.5243  0.3103
14185TIP3   OH263969   3.896   3.211   3.507 -0.0977 -0.4509 -0.7318
14185TIP3    H163970   3.825   3.186   3.448  0.6193 -1.7863 -1.0742
14185TIP3    H263971   3.864   3.188   3.594 -1.5839  2.4815 -0.3789
14186TIP3   OH263972   3.299   4.815   5.797  0.0451  0.0281  0.7759
14186TIP3    H163973   3.248   4.836   5.875 -2.3047 -0.5290 -0.5206
14186TIP3    H263974   3.294   4.720   5.790 -0.5692  0.1366 -0.5330
14187TIP3   OH263975   4.747   3.229   4.691  0.1813  0.0401  0.6977
14187TIP3    H163976   4.714   3.297   4.751 -0.5820  0.2125  0.0981
14187TIP3    H263977   4.676   3.215   4.629  0.7353 -0.5670  0.1819
14188TIP3   OH263978   5.457   5.771   3.898  0.6129 -0.1305 -0.4533
14188TIP3    H163979   5.412   5.855   3.885 -1.9977 -1.6465 -2.0954
14188TIP3    H263980   5.395   5.718   3.947  2.8093 -0.7283  1.8831
14189TIP3   OH263981   3.571   0.110  12.588  0.3110  0.3320  0.1070
14189TIP3    H163982   3.583   0.071  12.675  0.8469  1.8296  0.7500
14189TIP3    H263983   3.495   0.065  12.552  0.6477 -0.9913  0.9453
14190TIP3   OH263984   3.687   4.127   6.367 -0.4095  0.5578  0.3126
14190TIP3    H163985   3.635   4.133   6.447 -2.5058 -1.0766 -0.8305
14190TIP3    H263986   3.769   4.087   6.396 -0.4386  1.5339  1.8852
14191TIP3   OH263987   5.411   1.047  13.272 -0.5166 -0.0047 -0.2474
14191TIP3    H163988   5.442   1.112  13.335 -0.9416 -0.7749  0.7824
14191TIP3    H263989   5.369   1.099  13.203  0.4523  0.8784 -0.1916
14192TIP3   OH263990   6.261   5.050   5.770 -0.3897 -0.3008  0.1402
14192TIP3    H163991   6.295   4.995   5.840  0.6213  0.6644  0.4304
14192TIP3    H263992   6.166   5.050   5.783 -0.2793 -0.8163  0.9820
14193TIP3   OH263993   4.919   2.960  13.328  0.8232  0.7372  0.1980
14193TIP3    H163994   4.957   2.953  13.241  0.9138  0.9764  0.2178
14193TIP3    H263995   4.837   2.911  13.323  1.7511 -0.9564  0.5283
14194TIP3   OH263996   3.674   0.828   2.785 -0.2128  0.4430 -0.1698
14194TIP3    H163997   3.595   0.792   2.827 -0.2085 -0.0615 -0.5814
14194TIP3    H263998   3.642   0.863   2.702  0.1126 -0.4700 -0.6943
14195TIP3   OH263999   5.522   1.844  13.762  0.7558  0.1538 -0.4650
14195TIP3    H164000   5.484   1.757  13.776 -0.0128  0.2801 -1.6156
14195TIP3    H264001   5.602   1.844  13.815  1.2123 -1.5569 -1.0805
14196TIP3   OH264002   5.746   2.940   0.420 -0.2575 -0.5834 -0.5773
14196TIP3    H164003   5.762   2.944   0.326 -1.6232  0.0073 -0.8075
14196TIP3    H264004   5.820   2.891   0.455  1.5875  1.3196 -1.6253
14197TIP3   OH264005   3.077   3.677  16.997  0.3617  0.2860  0.0697
14197TIP3    H164006   3.154   3.726  17.027  0.8758  0.3008 -1.1928
14197TIP3    H264007   3.107   3.633  16.918 -0.7253 -0.3360 -0.0097
14198TIP3   OH264008   2.252   3.574  15.879 -0.4475  0.7151  0.2402
14198TIP3    H164009   2.196   3.644  15.913  0.4790  1.0251  1.1805
14198TIP3    H264010   2.292   3.611  15.801 -0.1414  1.1701  0.6034
14199TIP3   OH264011   4.707   4.370   4.630 -0.2807  0.3792  0.0204
14199TIP3    H164012   4.616   4.384   4.604 -0.4180 -0.9522 -0.3058
14199TIP3    H264013   4.757   4.384   4.550 -0.2132  0.8588  0.1417
14200TIP3   OH264014   0.986   5.426  16.482  0.6912 -0.0484  0.7014
14200TIP3    H164015   0.909   5.402  16.429  0.4298 -0.4193  1.2395
14200TIP3    H264016   1.006   5.348  16.532  0.9148  0.3121  1.1819
14201TIP3   OH264017   0.735   2.789   1.459 -0.1962 -0.3335  0.5202
14201TIP3    H164018   0.829   2.776   1.445 -0.6798 -2.6635 -1.2036
14201TIP3    H264019   0.721   2.882   1.443  1.4100 -0.4515 -2.1253
14202TIP3   OH264020   3.561   2.926  16.077 -0.1848 -0.2511  0.2220
14202TIP3    H164021   3.473   2.963  16.083 -0.3812 -0.2941 -1.7634
14202TIP3    H264022   3.618   3.003  16.067  0.0956 -0.1880  2.0877
14203TIP3   OH264023   3.738   1.342  15.766  0.1289 -0.0673  0.1902
14203TIP3    H164024   3.817   1.396  15.767 -0.9793  1.6283  0.0242
14203TIP3    H264025   3.679   1.385  15.828 -0.2588 -1.9988  1.2495
14204TIP3   OH264026   0.907   0.212   3.225 -0.1296 -0.2902 -0.5007
14204TIP3    H164027   0.959   0.254   3.156 -0.3145  2.9736  1.1064
14204TIP3    H264028   0.816   0.228   3.199 -0.1991  1.0855  0.4737
14205TIP3   OH264029   0.218   1.340  13.851  0.3080  0.1753  0.2288
14205TIP3    H164030   0.245   1.375  13.767  0.1219 -0.2945 -0.0306
14205TIP3    H264031   0.275   1.265  13.866 -0.4388 -0.4763 -0.0582
14206TIP3   OH264032   2.674   6.061  11.884  0.0107  0.5844  0.2226
14206TIP3    H164033   2.758   6.056  11.929 -0.6278  0.5171  1.4505
14206TIP3    H264034   2.614   6.011  11.939 -0.5226 -0.6593 -1.4120
14207TIP3   OH264035   0.108   2.771   4.327 -0.3005 -0.1395 -0.2196
14207TIP3    H164036   0.169   2.698   4.320 -0.5418 -0.2224 -2.7899
14207TIP3    H264037   0.148   2.842   4.276 -1.3280  0.5463 -0.1207
14208TIP3   OH264038   4.085   0.550   1.133  0.6571 -0.0984 -0.9383
14208TIP3    H164039   4.056   0.637   1.161 -0.7200 -0.5093 -1.0344
14208TIP3    H264040   4.127   0.513   1.211  0.2767  0.2355 -0.5666
14209TIP3   OH264041   4.651   5.952  11.875 -0.6475  0.2078 -0.2709
14209TIP3    H164042   4.630   6.045  11.869 -1.7023  0.2014  2.3033
14209TIP3    H264043   4.706   5.944  11.953 -0.9027 -1.3925 -0.2175
14210TIP3   OH264044   1.997   2.560  17.155 -0.0538  0.2085 -0.6412
14210TIP3    H164045   1.935   2.492  17.180 -0.9190  1.1150 -0.2644
14210TIP3    H264046   2.070   2.550  17.215 -0.6046  0.2070  0.0403
14211TIP3   OH264047   2.098   4.679   3.085  0.0260  0.6975 -0.4500
14211TIP3    H164048   2.061   4.719   3.164 -2.3192 -0.1956 -1.0232
14211TIP3    H264049   2.078   4.742   3.016 -1.5941 -0.3027 -0.9568
14212TIP3   OH264050   5.518   2.990  15.018  0.0174 -0.4477  0.1257
14212TIP3    H164051   5.560   2.904  15.019  0.4356 -0.2438  0.7769
14212TIP3    H264052   5.590   3.052  15.012 -0.0513 -0.0440  2.4822
14213TIP3   OH264053   2.979   5.790   6.483  0.2663 -0.3283  0.0974
14213TIP3    H164054   2.942   5.761   6.567  0.3403 -1.0301 -0.1026
14213TIP3    H264055   3.015   5.876   6.501 -2.5745  1.0007  0.0150
14214TIP3   OH264056   4.745   6.467   4.854 -0.1005  0.3845  0.1075
14214TIP3    H164057   4.719   6.545   4.804 -1.6889 -0.3511 -0.2823
14214TIP3    H264058   4.840   6.477   4.867  0.0407  1.4908 -1.4943
14215TIP3   OH264059   5.039   5.758  13.869 -0.1827 -0.7168 -0.2699
14215TIP3    H164060   4.951   5.793  13.882 -0.2380 -0.2348 -1.6725
14215TIP3    H264061   5.082   5.823  13.813  0.5342 -1.7080 -0.9086
14216TIP3   OH264062   2.317   1.062   0.178  0.8013  0.3766 -0.0264
14216TIP3    H164063   2.360   1.123   0.118 -1.5571  1.5405 -0.6397
14216TIP3    H264064   2.284   1.118   0.249  1.4700 -0.6745  1.1644
14217TIP3   OH264065   5.412   5.420  13.739  0.2274 -0.2717 -0.0365
14217TIP3    H164066   5.446   5.331  13.728  2.3170  0.5249 -0.3738
14217TIP3    H264067   5.428   5.463  13.655 -3.6974 -0.4111 -1.0311
14218TIP3   OH264068   2.392   4.632   0.612 -0.2584 -0.4470  0.1784
14218TIP3    H164069   2.390   4.684   0.531 -1.8886 -1.5543 -0.5404
14218TIP3    H264070   2.443   4.555   0.590  0.4087 -0.1403  0.6217
14219TIP3   OH264071   0.714   1.471   5.509  0.2744 -0.2439  0.5587
14219TIP3    H164072   0.647   1.537   5.488 -0.1764 -1.4580 -2.3118
14219TIP3    H264073   0.666   1.402   5.555 -0.0624 -0.2987  0.1297
14220TIP3   OH264074   3.799   2.746   0.940 -0.2298 -0.1159 -0.3163
14220TIP3    H164075   3.744   2.790   1.005  1.1603  1.0675  0.1161
14220TIP3    H264076   3.853   2.686   0.991  0.2376  0.1656 -0.4706
14221TIP3   OH264077   5.559   0.512   0.986  0.0364  0.1574 -0.1744
14221TIP3    H164078   5.646   0.479   0.966  0.3843  0.4446  0.8109
14221TIP3    H264079   5.536   0.567   0.911 -0.0572 -1.3186 -1.2881
14222TIP3   OH264080   1.858   5.271  10.551  0.0705  0.2166  0.1493
14222TIP3    H164081   1.768   5.253  10.523  1.0413 -1.0434 -2.4760
14222TIP3    H264082   1.898   5.313  10.475  2.0325 -0.2951  0.8584
14223TIP3   OH264083   2.454   2.654   4.759  0.1310  0.4785 -0.6609
14223TIP3    H164084   2.534   2.648   4.705 -1.0462 -1.0242 -2.3379
14223TIP3    H264085   2.423   2.564   4.767 -1.6230  1.0667 -0.3834
14224TIP3   OH264086   6.485   0.080  15.516  0.1903  0.1137  0.3440
14224TIP3    H164087   6.531   0.073  15.600 -0.7933 -1.1730  0.8144
14224TIP3    H264088   6.499  -0.005  15.474  0.4225  0.6448 -0.6636
14225TIP3   OH264089   2.355   5.085  11.664 -0.1195  0.4457  0.2472
14225TIP3    H164090   2.403   5.100  11.746 -1.9077  0.8591  1.2695
14225TIP3    H264091   2.325   4.994  11.670 -0.1734  0.4469  0.0113
14226TIP3   OH264092   6.528   6.503  16.955  0.1405 -0.5313 -0.6959
14226TIP3    H164093   6.599   6.456  16.910  1.0904  1.2205 -1.1292
14226TIP3    H264094   6.510   6.577  16.898 -1.6565 -0.6105 -0.2737
14227TIP3   OH264095   3.173   2.120  16.059  0.2256  0.4762 -0.0830
14227TIP3    H164096   3.142   2.208  16.038  0.0409  0.4961  0.2672
14227TIP3    H264097   3.094   2.072  16.083  0.1776 -0.0887 -1.2925
14228TIP3   OH264098   6.201   5.370  13.296  0.6875  0.2668 -0.2249
14228TIP3    H164099   6.290   5.338  13.279  1.0387  0.8217  0.4993
14228TIP3    H264100   6.183   5.345  13.386 -0.3102 -0.7526 -0.6798
14229TIP3   OH264101   0.890   4.045  16.641 -0.4188  0.7066 -0.1194
14229TIP3    H164102   0.900   4.099  16.719 -0.4617  1.6969 -0.7873
14229TIP3    H264103   0.963   4.071  16.584  0.5744 -1.1536  0.2250
14230TIP3   OH264104   0.427   6.723  13.199  0.0133  0.0962  0.1186
14230TIP3    H164105   0.341   6.694  13.229 -0.6704  1.5631 -0.3372
14230TIP3    H264106   0.435   6.812  13.232  0.7786  0.4623 -1.0028
14231TIP3   OH264107   3.518   2.812   4.209 -0.3004 -0.0144 -0.3919
14231TIP3    H164108   3.432   2.792   4.247  0.0188 -1.6629 -0.4501
14231TIP3    H264109   3.521   2.907   4.207 -0.2011  0.3269  4.1136
14232TIP3   OH264110   4.516   4.088  15.053  0.1262 -0.5367 -0.3753
14232TIP3    H164111   4.571   4.077  14.976 -0.2364  0.0018 -0.7183
14232TIP3    H264112   4.522   4.004  15.099  1.6521 -0.3138 -0.1218
14233TIP3   OH264113   4.127   0.767  10.895  0.5144 -0.2068  0.3914
14233TIP3    H164114   4.142   0.717  10.814  1.8590  0.7338  0.0136
14233TIP3    H264115   4.054   0.825  10.873 -0.2625 -1.1345  0.4407
14234TIP3   OH264116   0.264   4.163  11.261 -0.4212 -0.2239  0.7046
14234TIP3    H164117   0.295   4.139  11.173 -1.9087  2.9457 -0.8679
14234TIP3    H264118   0.194   4.100  11.279 -0.9032 -0.2204 -0.9639
14235TIP3   OH264119   4.055   6.633  13.893 -0.0539  0.2868  0.8985
14235TIP3    H164120   3.990   6.575  13.933  0.5886 -0.8854  0.3101
14235TIP3    H264121   4.013   6.664  13.813  0.2061 -0.7833  0.3135
14236TIP3   OH264122   3.858   2.629  13.437 -0.0754 -0.2413 -0.1714
14236TIP3    H164123   3.954   2.633  13.444 -0.0550 -0.4071 -0.3596
14236TIP3    H264124   3.832   2.571  13.508  0.1109 -1.6607 -1.2248
14237TIP3   OH264125   3.616   0.221   1.238  0.5107 -0.6424 -0.0360
14237TIP3    H164126   3.630   0.308   1.202 -3.3428 -0.1590 -0.8256
14237TIP3    H264127   3.593   0.167   1.161 -1.8325 -1.0960  0.8992
14238TIP3   OH264128   3.070   1.299  11.311  0.1692  0.1362 -0.7969
14238TIP3    H164129   3.073   1.210  11.278 -0.1591 -0.1580 -0.0486
14238TIP3    H264130   3.155   1.336  11.287  0.4419 -0.4859 -0.8087
14239TIP3   OH264131   1.720   1.148   5.116  0.3234 -0.1271 -0.0130
14239TIP3    H164132   1.696   1.226   5.067 -0.2104 -0.3924 -0.1853
14239TIP3    H264133   1.643   1.127   5.168  0.4727 -0.5150  0.0583
14240TIP3   OH264134   0.323   0.327   5.437  0.8606  0.2404 -0.0516
14240TIP3    H164135   0.276   0.248   5.467  0.0757  0.5192 -0.5208
14240TIP3    H264136   0.348   0.307   5.347  0.0400  0.7879 -0.4098
14241TIP3   OH264137   6.547   0.952   3.709  0.1728 -0.4683 -0.1845
14241TIP3    H164138   6.594   0.902   3.776 -1.2136 -0.7062  0.6564
14241TIP3    H264139   6.473   0.897   3.685  1.3266 -0.9495 -2.9123
14242TIP3   OH264140   0.482   0.418  10.966 -0.5819 -0.7900 -0.2126
14242TIP3    H164141   0.454   0.328  10.948 -0.2323 -0.8335 -0.5400
14242TIP3    H264142   0.574   0.421  10.940 -0.9869  0.0714 -1.6439
14243TIP3   OH264143   3.343   3.430   3.682 -0.2431 -0.3078 -0.4464
14243TIP3    H164144   3.295   3.459   3.760 -1.4636  0.2852 -1.3976
14243TIP3    H264145   3.370   3.511   3.639  0.9294 -0.6359 -0.3547
14244TIP3   OH264146   2.180   1.264  12.548 -0.5942  0.3288 -0.4835
14244TIP3    H164147   2.148   1.207  12.479  0.3972  0.3152 -0.9499
14244TIP3    H264148   2.171   1.353  12.512  1.9358  0.2349 -1.5750
14245TIP3   OH264149   3.027   5.317  15.350  0.3118 -0.3208 -0.2474
14245TIP3    H164150   2.976   5.272  15.417 -0.2585  0.7602  0.0536
14245TIP3    H264151   3.009   5.410  15.363  0.2427 -0.0721 -1.8586
14246TIP3   OH264152   2.927   1.027  15.163  0.0704 -0.0177 -0.2703
14246TIP3    H164153   2.986   1.028  15.238  1.5740 -2.8570 -1.2593
14246TIP3    H264154   2.845   0.992  15.197  0.0020  0.8394  0.4706
14247TIP3   OH264155   4.997   2.741   6.273  0.3508  0.2521 -0.4456
14247TIP3    H164156   5.022   2.651   6.251  1.3825  0.3487  0.2646
14247TIP3    H264157   4.902   2.737   6.284  0.3049 -0.6186 -1.0223
14248TIP3   OH264158   1.869   2.005   0.743  0.7910 -0.0577  0.0125
14248TIP3    H164159   1.842   1.919   0.775  0.4616 -0.3735 -1.0580
14248TIP3    H264160   1.923   1.986   0.666  1.3166  0.6737  0.1908
14249TIP3   OH264161   4.452   1.530  13.504 -0.4107 -0.0682 -1.0320
14249TIP3    H164162   4.489   1.502  13.587 -2.9213 -1.1066 -0.1612
14249TIP3    H264163   4.463   1.455  13.445  0.0772  0.1363 -1.2062
14250TIP3   OH264164   5.881   6.793   2.005 -0.4657 -0.6681 -0.4833
14250TIP3    H164165   5.884   6.826   2.094  1.6061 -1.2484 -0.2977
14250TIP3    H264166   5.959   6.829   1.963 -0.8900 -1.1969 -1.7694
14251TIP3   OH264167   2.668   2.127  12.749 -0.7284  0.0300  0.1737
14251TIP3    H164168   2.753   2.167  12.764 -0.9216  0.6649 -0.3869
14251TIP3    H264169   2.657   2.066  12.822  0.7011 -0.9073 -0.3670
14252TIP3   OH264170   5.883   0.020   2.895  0.0369 -0.2234 -0.1045
14252TIP3    H164171   5.789   0.007   2.881 -0.7977  2.1385  2.3614
14252TIP3    H264172   5.893   0.024   2.990  2.4723  0.6284 -0.3204
14253TIP3   OH264173   5.890   0.739  13.069  0.1910  0.4301 -0.1613
14253TIP3    H164174   5.911   0.703  12.983 -1.6492 -2.8659  0.5842
14253TIP3    H264175   5.970   0.727  13.120 -0.0610 -1.9922 -0.2207
14254TIP3   OH264176   3.788   6.238  12.941  0.0983 -0.3342  0.2048
14254TIP3    H164177   3.698   6.210  12.954 -0.1408  0.0396 -0.5895
14254TIP3    H264178   3.785   6.297  12.866  1.3045 -1.9540 -1.1917
14255TIP3   OH264179   6.292   4.564  14.528  0.2374 -0.1191  0.6950
14255TIP3    H164180   6.249   4.630  14.581  1.7778  0.1122  1.7453
14255TIP3    H264181   6.268   4.481  14.570  0.8940  0.0182  1.3713
14256TIP3   OH264182   0.192   1.132   3.076 -0.9556 -0.3603  0.0877
14256TIP3    H164183   0.252   1.094   3.012 -2.5506 -0.1038 -1.6401
14256TIP3    H264184   0.216   1.224   3.079 -1.1767 -0.2751 -0.5395
14257TIP3   OH264185   2.894   2.935  16.646 -0.4158 -0.2937  0.3260
14257TIP3    H164186   2.845   2.976  16.576  0.8056 -0.2062 -0.5096
14257TIP3    H264187   2.836   2.866  16.679 -1.6429  0.7196  0.3388
14258TIP3   OH264188   5.719   1.106   2.699  0.3497  0.5781  0.2190
14258TIP3    H164189   5.666   1.039   2.742  0.7889  1.0756  1.5672
14258TIP3    H264190   5.809   1.074   2.707  0.5955  1.4506  1.1524
14259TIP3   OH264191   5.426   0.131  12.062 -0.2837  0.3031 -0.2306
14259TIP3    H164192   5.437   0.063  11.995 -0.2392  0.1465 -0.0662
14259TIP3    H264193   5.375   0.199  12.019  1.1228  0.9476 -0.9496
14260TIP3   OH264194   0.316   1.380   4.265  0.4629 -0.1520 -0.1042
14260TIP3    H164195   0.292   1.318   4.333 -0.5836  0.3788  0.0224
14260TIP3    H264196   0.346   1.458   4.312 -0.8066  0.4296 -0.2203
14261TIP3   OH264197   4.161   4.160  14.214 -0.9361  0.3790 -0.3249
14261TIP3    H164198   4.159   4.067  14.196  0.3672  0.1897  0.3785
14261TIP3    H264199   4.246   4.175  14.256  0.5235  2.4669 -3.6477
14262TIP3   OH264200   5.618   2.327   1.522  1.3064  0.2324  0.4115
14262TIP3    H164201   5.563   2.404   1.536 -0.1101 -0.3880 -1.3893
14262TIP3    H264202   5.558   2.253   1.525  2.2632 -0.6000 -0.1444
14263TIP3   OH264203   4.286   4.820   1.284 -0.3732 -0.1973  0.3486
14263TIP3    H164204   4.326   4.758   1.345  1.3147 -0.4763 -0.9743
14263TIP3    H264205   4.192   4.811   1.299 -0.0834 -1.7954  1.4168
14264TIP3   OH264206   4.912   5.449   4.612  0.2597  0.2098 -0.6904
14264TIP3    H164207   4.985   5.438   4.673 -3.5201  0.9663  4.7978
14264TIP3    H264208   4.887   5.541   4.620 -2.7386 -0.5233 -0.0456
14265TIP3   OH264209   2.227   4.363  16.111  0.1843  0.3647 -0.0065
14265TIP3    H164210   2.319   4.382  16.094  0.7859  0.2429  2.5967
14265TIP3    H264211   2.217   4.381  16.205 -1.7934 -2.0890  0.3552
14266TIP3   OH264212   2.651   5.435  12.808  0.4032 -0.0382  0.2031
14266TIP3    H164213   2.574   5.386  12.779  1.3319 -1.0019 -0.7343
14266TIP3    H264214   2.620   5.488  12.881 -1.2415 -0.1050 -0.4024
14267TIP3   OH264215   1.797   5.771  13.334 -0.3977 -0.0626 -0.3400
14267TIP3    H164216   1.855   5.753  13.261 -0.2135 -0.8900  0.0021
14267TIP3    H264217   1.792   5.689  13.383 -1.0379  0.2850  0.2122
14268TIP3   OH264218   1.218   6.382   2.384 -0.0282  0.1064 -0.2058
14268TIP3    H164219   1.216   6.381   2.288 -1.8767 -0.4212 -0.1956
14268TIP3    H264220   1.126   6.378   2.410  0.5036 -2.1849  1.6250
14269TIP3   OH264221   0.281   6.130  16.867 -0.2294 -0.1354 -0.3677
14269TIP3    H164222   0.359   6.140  16.922  0.1224  1.4001 -1.0896
14269TIP3    H264223   0.258   6.219  16.843 -0.8182 -0.7221 -2.0943
14270TIP3   OH264224   5.022   3.728  13.823 -0.8478  0.6341  0.0100
14270TIP3    H164225   4.989   3.756  13.737 -0.2476  0.8066 -0.1691
14270TIP3    H264226   4.991   3.796  13.883  1.9146  2.6644 -0.6548
14271TIP3   OH264227   1.740   6.694  14.046 -0.2385 -0.4991  0.1927
14271TIP3    H164228   1.821   6.741  14.065  0.9524 -2.3479 -0.0478
14271TIP3    H264229   1.739   6.687  13.950  0.4625 -2.3126  0.2828
14272TIP3   OH264230   6.758   6.394  16.843  0.7799  0.1970  0.4898
14272TIP3    H164231   6.695   6.351  16.785 -0.7052 -0.3070  2.3656
14272TIP3    H264232   6.838   6.401  16.790 -0.7920  0.8385 -1.9796
14273TIP3   OH264233   3.176   2.848   1.174  0.5507 -0.0094  0.2109
14273TIP3    H164234   3.184   2.927   1.121  0.9042  1.7303  2.6922
14273TIP3    H264235   3.242   2.788   1.138  0.5431  0.9451 -1.4702
14274TIP3   OH264236   2.094   6.475   4.169  0.4116 -0.1935 -0.3868
14274TIP3    H164237   2.030   6.544   4.186  0.7414  0.1430 -0.4885
14274TIP3    H264238   2.041   6.396   4.157  0.0336  0.0251 -0.2019
14275TIP3   OH264239   3.464   5.433   4.996  0.2595  0.1532 -0.3828
14275TIP3    H164240   3.497   5.343   4.989 -0.9274 -0.2199 -1.5469
14275TIP3    H264241   3.460   5.465   4.906 -3.4162 -0.2266 -0.5321
14276TIP3   OH264242   3.823   5.127  16.814 -0.2856  0.0249 -0.1479
14276TIP3    H164243   3.759   5.087  16.755 -1.0867  0.5520  0.3340
14276TIP3    H264244   3.783   5.118  16.901 -0.0354  0.9955  0.0735
14277TIP3   OH264245   3.682   4.822  13.921 -0.2654 -0.4225  0.8406
14277TIP3    H164246   3.671   4.917  13.930 -0.0186 -0.3218  0.1195
14277TIP3    H264247   3.620   4.785  13.984 -0.3435  0.2180  1.1464
14278TIP3   OH264248   0.632   0.141  16.610  0.7016  0.2065 -0.3217
14278TIP3    H164249   0.541   0.152  16.585  0.1015 -1.0227  1.1737
14278TIP3    H264250   0.674   0.103  16.533 -0.7484 -2.0532 -0.0765
14279TIP3   OH264251   1.269   0.975  13.635  0.1321  0.3448 -0.4571
14279TIP3    H164252   1.288   0.943  13.547  0.2033 -1.3010  0.1192
14279TIP3    H264253   1.344   0.946  13.688 -0.5492  0.1200  0.4073
14280TIP3   OH264254   6.043   5.299   2.597  0.5887 -0.4160 -0.2011
14280TIP3    H164255   5.975   5.233   2.588 -0.1795  0.3203  0.0523
14280TIP3    H264256   6.063   5.325   2.508 -0.0267 -0.0836 -0.2475
14281TIP3   OH264257   5.013   2.676   4.491 -0.1741 -1.0472  0.0899
14281TIP3    H164258   5.068   2.599   4.477 -1.7348 -1.9656 -1.2889
14281TIP3    H264259   4.925   2.648   4.465 -0.8851  1.0390  0.0805
14282TIP3   OH264260   6.616   1.900   0.699 -0.1342  0.5365 -0.4273
14282TIP3    H164261   6.566   1.977   0.671 -2.6920 -1.0792 -0.7007
14282TIP3    H264262   6.591   1.888   0.790 -0.5966 -0.5108 -0.6749
14283TIP3   OH264263   6.552   3.901  16.660 -0.2904  0.2283  0.5589
14283TIP3    H164264   6.462   3.870  16.647 -0.5820  1.6723 -1.5167
14283TIP3    H264265   6.550   3.992  16.629  2.0434  0.0799 -0.2151
14284TIP3   OH264266   2.736   3.720   1.077  0.1219  0.7089 -0.3357
14284TIP3    H164267   2.644   3.725   1.053 -0.5568  0.7893  2.0565
14284TIP3    H264268   2.770   3.646   1.026 -1.9672 -1.0805  0.6746
14285TIP3   OH264269   5.432   0.130  11.712  0.0053  0.6212 -0.4119
14285TIP3    H164270   5.463   0.048  11.751 -1.2601 -0.9194 -2.4144
14285TIP3    H264271   5.342   0.138  11.742  0.3083  1.6651  0.2754
14286TIP3   OH264272   1.518   0.573  11.607 -0.3939 -0.4488 -0.2178
14286TIP3    H164273   1.490   0.488  11.572 -0.8676 -0.6678  0.6490
14286TIP3    H264274   1.495   0.636  11.539  1.8300 -1.2052 -1.7791
14287TIP3   OH264275   5.214   4.111   1.015  0.1247  0.4959 -0.3222
14287TIP3    H164276   5.177   4.199   1.025  1.6684  1.0770  0.7830
14287TIP3    H264277   5.308   4.126   1.002  0.2981 -0.9741 -1.0022
14288TIP3   OH264278   5.741   2.534  14.618 -0.4008  0.3855 -0.1910
14288TIP3    H164279   5.690   2.610  14.588 -1.6307 -0.9381 -1.6244
14288TIP3    H264280   5.703   2.511  14.702 -1.5190  0.0343 -0.7774
14289TIP3   OH264281   4.738   0.183   2.234 -0.0711  0.2006  0.3428
14289TIP3    H164282   4.657   0.224   2.265 -0.1503 -0.8483  1.6000
14289TIP3    H264283   4.808   0.224   2.285  0.0084 -0.0633  0.4520
14290TIP3   OH264284   5.727   3.318   0.771  0.8112  0.0100 -0.1554
14290TIP3    H164285   5.738   3.294   0.863 -0.9278 -1.2890 -0.2254
14290TIP3    H264286   5.643   3.364   0.768  0.9965  0.3178 -1.0452
14291TIP3   OH264287   4.280   6.676   3.230 -0.3213 -0.2983  0.3714
14291TIP3    H164288   4.231   6.695   3.310  0.1361 -1.0167  0.8293
14291TIP3    H264289   4.330   6.597   3.251  1.8272  0.9555  0.2791
14292TIP3   OH264290   4.321   4.799   0.547 -0.0374  0.6101 -0.2700
14292TIP3    H164291   4.281   4.717   0.517 -0.3511  0.3805  0.7469
14292TIP3    H264292   4.254   4.839   0.603  0.6522  0.8713  0.3740
14293TIP3   OH264293   0.192   1.927  12.202  0.3517 -0.6912 -0.5797
14293TIP3    H164294   0.269   1.959  12.154  0.3359  0.0717 -0.1224
14293TIP3    H264295   0.227   1.900  12.287  0.1844 -0.7698 -0.5365
14294TIP3   OH264296   5.994   5.757   3.503 -0.5354  0.0459 -0.5321
14294TIP3    H164297   6.021   5.673   3.541  2.2945  1.2917  0.4545
14294TIP3    H264298   6.019   5.751   3.411 -0.4474 -0.1991 -0.4937
14295TIP3   OH264299   6.175   5.071   5.482 -0.3115  0.3404  0.1430
14295TIP3    H164300   6.245   5.103   5.539 -1.3524  1.2655  0.9411
14295TIP3    H264301   6.132   5.003   5.534  0.6019 -0.9802 -0.7502
14296TIP3   OH264302   4.635   3.559   3.604 -0.1734 -0.2191  0.8697
14296TIP3    H164303   4.606   3.544   3.694 -2.0874 -2.2713 -0.0030
14296TIP3    H264304   4.555   3.564   3.553  0.8688 -1.9773 -1.1055
14297TIP3   OH264305   0.885   0.301   4.624 -0.1968  0.3353 -0.2607
14297TIP3    H164306   0.964   0.342   4.660 -0.9150  0.6140  1.0783
14297TIP3    H264307   0.917   0.228   4.571  0.9763  0.8238 -0.2532
14298TIP3   OH264308   4.204   6.183   5.224  0.3603  0.1732  0.1179
14298TIP3    H164309   4.117   6.179   5.263 -1.3829  0.9796 -3.3357
14298TIP3    H264310   4.211   6.102   5.174  1.1666  0.5766 -0.4449
14299TIP3   OH264311   1.731   6.742  12.422  0.1104  1.0336  0.5814
14299TIP3    H164312   1.810   6.724  12.370 -2.0721  0.6654 -2.9592
14299TIP3    H264313   1.717   6.836  12.411  0.2830  1.1971  1.6514
14300TIP3   OH264314   1.462   6.162   3.000 -0.2789  0.0247 -0.1828
14300TIP3    H164315   1.523   6.151   2.927 -0.4282 -0.1191 -0.2865
14300TIP3    H264316   1.468   6.255   3.022 -1.2931  0.3941 -1.3245
14301TIP3   OH264317   3.025   2.452   2.615 -0.6447 -0.2098 -0.5136
14301TIP3    H164318   2.937   2.418   2.604 -0.3195 -0.9847 -0.7719
14301TIP3    H264319   3.062   2.402   2.688  0.0489 -0.8464 -1.2891
14302TIP3   OH264320   4.228   4.574   0.795 -0.6035  0.8865  0.3043
14302TIP3    H164321   4.180   4.518   0.856  0.8384  0.3521  0.9892
14302TIP3    H264322   4.291   4.516   0.752  0.2101  1.7612  0.2718
14303TIP3   OH264323   0.592   3.565  14.002  0.5342  0.0365  0.1657
14303TIP3    H164324   0.497   3.559  13.994  0.4879  1.0218 -0.1656
14303TIP3    H264325   0.606   3.605  14.087  0.7371 -1.8309  1.0682
14304TIP3   OH264326   6.406   0.719  15.045 -0.3006 -0.5621  0.0333
14304TIP3    H164327   6.327   0.673  15.018 -0.0148  0.0251 -1.9117
14304TIP3    H264328   6.474   0.687  14.986  0.0392  1.8245 -0.9627
14305TIP3   OH264329   4.724   1.109  16.375 -0.0090  0.2933 -0.3456
14305TIP3    H164330   4.707   1.197  16.340  0.1877  0.6284  0.3777
14305TIP3    H264331   4.819   1.102  16.376 -0.0052  0.4332  0.4660
14306TIP3   OH264332   6.259   1.263  16.545 -0.5615 -0.4762 -0.4211
14306TIP3    H164333   6.242   1.352  16.579  2.1092 -0.7131  1.9896
14306TIP3    H264334   6.319   1.225  16.610 -1.3801 -3.9693 -1.5419
14307TIP3   OH264335   5.768   6.760   1.296  0.0743 -0.0055 -0.0568
14307TIP3    H164336   5.717   6.840   1.310 -1.1738 -0.7157 -0.3304
14307TIP3    H264337   5.708   6.702   1.248  0.9933 -1.0502  0.0238
14308TIP3   OH264338   2.493   3.855   1.359 -0.5737 -1.0911  0.1477
14308TIP3    H164339   2.420   3.798   1.335 -1.0471 -0.7902  0.8097
14308TIP3    H264340   2.460   3.944   1.343 -0.5434 -0.9329  0.9254
14309TIP3   OH264341   5.920   3.633  16.793 -0.7449  0.9208 -0.2150
14309TIP3    H164342   5.910   3.709  16.735 -0.9379  1.2019  0.1855
14309TIP3    H264343   5.894   3.558  16.739  0.7910  0.9640 -1.0687
14310TIP3   OH264344   1.909   1.606  14.536 -0.1914  0.3799 -0.1389
14310TIP3    H164345   1.934   1.571  14.450  0.5715  1.7729 -0.5267
14310TIP3    H264346   1.938   1.698  14.533 -0.7828  0.6373  1.3552
14311TIP3   OH264347   4.351   5.020   2.985  0.6573  0.5314 -0.0452
14311TIP3    H164348   4.348   5.029   3.080 -1.1459  1.8494 -0.1571
14311TIP3    H264349   4.264   4.988   2.961  0.2912  2.3277 -1.3792
14312TIP3   OH264350   2.308   6.087  12.895  0.3140  0.2626 -0.7375
14312TIP3    H164351   2.270   6.174  12.884  0.6150  0.5001  0.0253
14312TIP3    H264352   2.379   6.084  12.831  0.3761  0.6279 -0.6918
14313TIP3   OH264353   4.883   2.640  13.803  0.5105 -0.4150  0.2274
14313TIP3    H164354   4.848   2.664  13.889 -1.1608  0.8431 -0.7328
14313TIP3    H264355   4.890   2.545  13.806 -0.6849 -0.5034  1.3480
14314TIP3   OH264356   1.144   5.531  15.488  0.0362 -0.1953  0.2128
14314TIP3    H164357   1.207   5.475  15.443 -0.0063  1.4724 -2.1077
14314TIP3    H264358   1.174   5.532  15.579  1.4815 -1.9344 -0.1922
14315TIP3   OH264359   0.812   4.459   6.117  0.4507 -0.0781 -0.5610
14315TIP3    H164360   0.784   4.531   6.173  0.6979  0.4069 -1.0472
14315TIP3    H264361   0.894   4.489   6.078  1.0920 -1.0416  0.0081
14316TIP3   OH264362   6.178   3.675  11.650 -0.3021 -0.3659 -0.1709
14316TIP3    H164363   6.179   3.683  11.555 -0.3734  1.0655 -0.0734
14316TIP3    H264364   6.184   3.765  11.682  2.8939 -0.9409  1.2194
14317TIP3   OH264365   4.496   3.281  13.221 -0.3411 -0.4687 -0.0538
14317TIP3    H164366   4.585   3.304  13.248  0.2842 -2.1775 -0.5228
14317TIP3    H264367   4.456   3.244  13.300 -0.2030 -0.8715 -0.1722
14318TIP3   OH264368   5.813   3.355   5.567 -0.6592  0.4144  0.1758
14318TIP3    H164369   5.843   3.303   5.642 -0.6219 -0.8431 -0.6761
14318TIP3    H264370   5.892   3.370   5.515 -1.1753 -1.7994 -1.4058
14319TIP3   OH264371   3.253   3.296   4.503 -0.0990  0.0229  0.4432
14319TIP3    H164372   3.165   3.296   4.464 -0.0134 -0.9158  0.2278
14319TIP3    H264373   3.238   3.315   4.595 -0.4822  0.3507  0.3169
14320TIP3   OH264374   1.789   2.143   2.215 -0.1620 -0.3075 -0.8434
14320TIP3    H164375   1.784   2.229   2.257  0.5978 -0.8311  0.3715
14320TIP3    H264376   1.881   2.119   2.219 -0.3441 -1.1193 -1.2829
14321TIP3   OH264377   4.333   2.278   0.884 -0.4482 -0.3256  0.6820
14321TIP3    H164378   4.315   2.346   0.818  1.4312 -1.6599 -1.3815
14321TIP3    H264379   4.388   2.322   0.949 -2.9943  1.2402  1.9462
14322TIP3   OH264380   3.497   1.320  13.543  0.0248 -0.1845  0.3953
14322TIP3    H164381   3.430   1.378  13.507 -0.2976 -1.3070 -0.9172
14322TIP3    H264382   3.570   1.326  13.480  0.9225  0.5046  1.4524
14323TIP3   OH264383   6.172   1.807   6.037  0.1148 -0.0896 -0.5156
14323TIP3    H164384   6.123   1.798   6.119  0.0541  0.6047 -0.4698
14323TIP3    H264385   6.167   1.720   5.997 -1.2561 -0.0155 -0.5637
14324TIP3   OH264386   2.028   2.236   2.486  0.5451 -0.0923  0.6852
14324TIP3    H164387   2.113   2.238   2.530  0.9282  0.0722 -0.0359
14324TIP3    H264388   2.049   2.246   2.393 -0.3085  0.6834  0.5557
14325TIP3   OH264389   1.927   1.700  12.571 -0.5917 -0.1385 -0.0405
14325TIP3    H164390   1.859   1.665  12.628 -0.7317  0.7545  0.3663
14325TIP3    H264391   1.911   1.658  12.486 -1.1649 -0.5259  0.2525
14326TIP3   OH264392   3.752   1.142  15.969 -0.3318 -0.6508 -0.0099
14326TIP3    H164393   3.752   1.210  15.902  0.7122 -2.1976 -1.6652
14326TIP3    H264394   3.660   1.118  15.979 -0.4667 -0.6791 -1.2064
14327TIP3   OH264395   2.933   6.176  11.405 -0.0415 -0.0764  0.1295
14327TIP3    H164396   2.956   6.256  11.453 -1.7028  0.4723  0.0804
14327TIP3    H264397   2.857   6.201  11.353  1.0825 -0.9490 -2.0432
14328TIP3   OH264398   0.206   3.226   6.045  0.3788 -0.1354 -0.5205
14328TIP3    H164399   0.175   3.276   6.120  0.0381 -0.0833 -0.6930
14328TIP3    H264400   0.188   3.134   6.068  1.0309 -0.1815 -0.1917
14329TIP3   OH264401   6.633   5.806  12.151 -0.1664  0.2829 -0.5529
14329TIP3    H164402   6.541   5.802  12.126 -0.3342  1.3125 -0.1291
14329TIP3    H264403   6.663   5.715  12.146 -1.2948 -0.1147 -0.3608
14330TIP3   OH264404   2.303   3.553   0.190 -0.7783 -0.0062 -0.1143
14330TIP3    H164405   2.220   3.505   0.183 -0.0745 -1.1084 -1.4576
14330TIP3    H264406   2.346   3.512   0.265 -0.5138 -1.0118 -0.7845
14331TIP3   OH264407   5.867   5.912   2.042 -0.0523  0.0438 -0.5141
14331TIP3    H164408   5.830   5.906   2.129  3.0686  1.6664  1.1048
14331TIP3    H264409   5.896   5.822   2.022  0.6326 -0.0769  0.8872
14332TIP3   OH264410   0.543   3.913  12.513  0.3181  0.4152 -0.9865
14332TIP3    H164411   0.508   4.000  12.531  0.0268  0.3443 -1.2150
14332TIP3    H264412   0.483   3.875  12.449  0.1956 -0.1144 -0.5701
14333TIP3   OH264413   2.281   5.401  12.467  0.1787 -0.0449  0.2666
14333TIP3    H164414   2.249   5.313  12.445 -0.9407  0.7822 -1.6361
14333TIP3    H264415   2.376   5.395  12.458  0.6369 -2.0829  4.2540
14334TIP3   OH264416   4.711   4.998   4.344 -0.1725  0.0159 -0.3969
14334TIP3    H164417   4.620   4.981   4.369 -0.7912  0.4499 -2.1737
14334TIP3    H264418   4.760   4.924   4.381 -1.0813  0.2194  1.3217
14335TIP3   OH264419   3.848   4.002  14.435 -0.2619  0.1379 -0.7172
14335TIP3    H164420   3.867   3.912  14.408  1.1281 -0.4706  1.8510
14335TIP3    H264421   3.934   4.038  14.459 -1.0524  1.3386  0.4814
14336TIP3   OH264422   0.852   2.204   3.064  0.2168 -0.2290 -0.5650
14336TIP3    H164423   0.813   2.271   3.007 -1.0359  0.9351  1.5521
14336TIP3    H264424   0.946   2.206   3.043  0.4016  2.9792  0.1239
14337TIP3   OH264425   4.345   1.976   0.247 -0.3550  0.3097 -0.0457
14337TIP3    H164426   4.383   1.981   0.160  0.7405 -1.4919  0.2607
14337TIP3    H264427   4.419   1.992   0.307 -0.8468  0.3984  0.5537
14338TIP3   OH264428   1.313   4.211   6.243  0.2412  0.0391 -0.6201
14338TIP3    H164429   1.251   4.141   6.263  1.5948 -0.7721  1.0064
14338TIP3    H264430   1.260   4.291   6.243 -0.8907 -0.6899  0.1631
14339TIP3   OH264431   3.509   4.663  14.753 -0.2844  0.7837 -0.0703
14339TIP3    H164432   3.532   4.678  14.845 -0.5515 -1.5378  0.4416
14339TIP3    H264433   3.580   4.608  14.720 -1.3589 -0.3540 -0.5552
14340TIP3   OH264434   6.323   4.430   0.630  0.3894  0.2932  0.1765
14340TIP3    H164435   6.251   4.472   0.677 -0.4232 -0.6150 -0.2071
14340TIP3    H264436   6.331   4.481   0.549  1.9718  2.0281  1.3381
14341TIP3   OH264437   1.289   6.029  15.887  0.3808  0.2899 -0.1005
14341TIP3    H164438   1.254   6.115  15.911 -0.7647  0.0467 -0.7982
14341TIP3    H264439   1.317   6.039  15.796 -1.8544 -0.6294 -0.9542
14342TIP3   OH264440   6.025   3.506  12.989 -0.1329  0.0228 -0.1829
14342TIP3    H164441   6.081   3.428  12.988  1.2515  0.9967 -0.4911
14342TIP3    H264442   6.009   3.522  13.082  1.3134  0.5568  0.0003
14343TIP3   OH264443   3.416   4.407   2.146 -0.2441  0.1843  0.1095
14343TIP3    H164444   3.349   4.473   2.160 -1.6938 -0.6905 -2.1758
14343TIP3    H264445   3.402   4.343   2.216 -0.1828  1.2041  1.0830
14344TIP3   OH264446   2.529   2.987   2.241 -0.4505 -0.0246  0.4421
14344TIP3    H164447   2.470   2.917   2.212  0.5504 -0.6086 -0.2320
14344TIP3    H264448   2.616   2.957   2.217 -0.1286  2.4924 -2.0767
14345TIP3   OH264449   2.939   0.913  11.872  0.3328  0.5081  0.1281
14345TIP3    H164450   2.849   0.935  11.897  0.1101 -0.7445  0.4865
14345TIP3    H264451   2.965   0.984  11.813 -0.4399  1.5438  0.9941
14346TIP3   OH264452   2.109   4.469   0.419  0.1160  0.1200 -0.1421
14346TIP3    H164453   2.148   4.549   0.384 -0.3703 -0.3544 -1.8518
14346TIP3    H264454   2.182   4.425   0.463  0.7083  0.8598 -0.3502
14347TIP3   OH264455   0.168   3.185   0.626  0.1136 -0.4046 -0.2148
14347TIP3    H164456   0.175   3.224   0.539  0.3575  0.1945  0.0671
14347TIP3    H264457   0.075   3.163   0.634 -0.0888  0.3857 -0.2724
14348TIP3   OH264458   5.840   4.512  14.714  0.6556 -0.5555 -0.2864
14348TIP3    H164459   5.926   4.553  14.719 -0.8807  2.8908  1.5189
14348TIP3    H264460   5.839   4.452  14.789  1.1275  0.2978  0.4391
14349TIP3   OH264461   0.916   1.777  15.883 -0.0675  0.1464 -0.1572
14349TIP3    H164462   1.000   1.788  15.927 -0.0869  3.1780 -0.6787
14349TIP3    H264463   0.937   1.729  15.802  0.5895 -1.8360  1.1097
14350TIP3   OH264464   2.175   3.528   2.416 -0.0673  0.8922  0.3404
14350TIP3    H164465   2.144   3.599   2.361  0.2892  1.4494  0.8448
14350TIP3    H264466   2.131   3.542   2.500  0.5351  0.9359  0.6572
14351TIP3   OH264467   2.441   3.969   5.803 -0.4542  0.6561 -0.4706
14351TIP3    H164468   2.409   4.008   5.721  1.9969  1.0675 -1.3184
14351TIP3    H264469   2.468   4.043   5.856  1.8750  0.3239 -1.0676
14352TIP3   OH264470   3.936   2.873  13.731 -0.2456  0.1925  0.3699
14352TIP3    H164471   3.841   2.874  13.714 -0.2097  1.8036  0.1166
14352TIP3    H264472   3.968   2.800  13.678 -1.4134 -0.7773  0.9442
14353TIP3   OH264473   3.228   5.036   5.601 -0.1159 -0.2737  0.2526
14353TIP3    H164474   3.146   5.085   5.595  0.4019  0.6639  0.5915
14353TIP3    H264475   3.224   4.992   5.686 -0.3733 -0.4390  0.1567
14354TIP3   OH264476   1.582   0.095  15.213  0.6984  0.8622 -0.0574
14354TIP3    H164477   1.491   0.076  15.190  1.0854  0.2834 -1.1729
14354TIP3    H264478   1.591   0.065  15.303 -0.7392  2.7392  0.7832
14355TIP3   OH264479   2.903   0.031   4.709 -0.1494 -0.0613 -0.0806
14355TIP3    H164480   2.902   0.015   4.615 -1.1779  0.0974 -0.1036
14355TIP3    H264481   2.812   0.051   4.732  0.1662  0.3894  0.8607
14356TIP3   OH264482   2.877   4.697  14.320  0.0779  0.1028  0.4070
14356TIP3    H164483   2.893   4.760  14.251  2.2431 -0.4906  0.2696
14356TIP3    H264484   2.817   4.633  14.282 -0.8972  1.2075  0.0339
14357TIP3   OH264485   0.319   0.239   1.102 -0.0205  0.3324 -0.9048
14357TIP3    H164486   0.302   0.195   1.186  0.9709  1.1928 -0.2217
14357TIP3    H264487   0.275   0.184   1.037 -1.1263 -0.1575  0.2138
14358TIP3   OH264488   0.629   1.705  16.971  0.2360 -0.0646 -0.0089
14358TIP3    H164489   0.539   1.736  16.955 -0.1941 -1.3676 -0.2371
14358TIP3    H264490   0.649   1.651  16.894  2.0682  1.9488 -1.0592
14359TIP3   OH264491   0.557   2.420  13.345 -0.5561  0.0995  0.3366
14359TIP3    H164492   0.619   2.493  13.335 -0.4967  0.1138  0.7921
14359TIP3    H264493   0.497   2.430  13.271 -0.2681  0.3353  0.1296
14360TIP3   OH264494   6.200   3.597   3.666  0.3919  0.9818  0.3728
14360TIP3    H164495   6.238   3.514   3.694 -2.8748 -1.9894 -2.9797
14360TIP3    H264496   6.257   3.626   3.594  1.1542  1.3593  1.1084
14361TIP3   OH264497   5.110   0.365   5.376  0.5323  0.2921 -0.1285
14361TIP3    H164498   5.169   0.301   5.414 -1.9750 -1.2894  1.3706
14361TIP3    H264499   5.072   0.411   5.451 -0.3001  1.1007 -1.0168
14362TIP3   OH264500   1.476   4.443  13.417 -0.5320  0.0863 -0.2406
14362TIP3    H164501   1.414   4.372  13.399 -0.3766  0.3813 -2.0491
14362TIP3    H264502   1.542   4.436  13.349  0.1982  1.1833  0.3207
14363TIP3   OH264503   2.814   0.321  11.604  0.1500  0.1970 -0.0573
14363TIP3    H164504   2.722   0.345  11.592  0.3403  0.7514 -0.4413
14363TIP3    H264505   2.844   0.294  11.517 -0.2488 -2.1873  0.4891
14364TIP3   OH264506   4.310   0.380  16.190  0.5916  0.2641  1.0352
14364TIP3    H164507   4.259   0.300  16.188  0.5516  0.2979 -0.0022
14364TIP3    H264508   4.245   0.450  16.193  0.6264  0.2692  1.9834
14365TIP3   OH264509   2.398   6.573   2.766 -0.5070 -0.2712 -0.7503
14365TIP3    H164510   2.366   6.514   2.697  0.2376 -0.3235 -1.0618
14365TIP3    H264511   2.479   6.532   2.797 -1.4179 -0.8636  0.9847
14366TIP3   OH264512   3.210   5.954  17.192 -0.0026 -0.3048 -0.3514
14366TIP3    H164513   3.259   5.897  17.133  1.4533 -0.2921  0.7701
14366TIP3    H264514   3.274   6.021  17.219 -0.6191 -0.2800  1.1642
14367TIP3   OH264515   0.980   0.332  15.490  0.7453  0.2599 -0.1929
14367TIP3    H164516   0.921   0.354  15.418  1.4079  1.1954 -0.4697
14367TIP3    H264517   1.045   0.274  15.451  0.9087  0.4938 -0.2705
14368TIP3   OH264518   2.432   3.526  10.851 -0.1784 -0.7867  0.2868
14368TIP3    H164519   2.424   3.532  10.946 -1.5231 -0.3307  0.1678
14368TIP3    H264520   2.519   3.489  10.837  0.5570  0.2831  1.6615
14369TIP3   OH264521   4.676   3.833  11.461 -0.0077  0.2236  0.1031
14369TIP3    H164522   4.699   3.823  11.368 -1.1579 -1.2118 -0.0749
14369TIP3    H264523   4.580   3.841  11.460 -0.1030 -0.6785  1.2269
14370TIP3   OH264524   3.425   2.032   4.941 -0.8932 -0.1115 -0.3929
14370TIP3    H164525   3.463   2.109   4.899  0.7582 -0.1167  1.0162
14370TIP3    H264526   3.461   1.958   4.892 -1.1453 -0.0514 -0.6751
14371TIP3   OH264527   4.941   6.381   3.220  0.2058  0.3659  0.3382
14371TIP3    H164528   5.036   6.377   3.216  0.1386 -1.7902 -0.6624
14371TIP3    H264529   4.913   6.388   3.129 -0.6038  2.1415  0.6901
14372TIP3   OH264530   6.621   5.645  10.548 -0.2719 -0.3370 -0.3019
14372TIP3    H164531   6.559   5.701  10.594  1.3853  0.7174  0.7467
14372TIP3    H264532   6.667   5.703  10.487  0.7531 -0.7419  0.0523
14373TIP3   OH264533   0.428   1.377   2.661  0.4289  0.4966  0.3602
14373TIP3    H164534   0.366   1.447   2.642  0.5081  1.1632  2.2963
14373TIP3    H264535   0.427   1.322   2.583 -1.7637  1.0860 -0.0978
14374TIP3   OH264536   6.167   3.693  13.210 -0.0226 -0.2082  0.2222
14374TIP3    H164537   6.234   3.675  13.276  0.9931 -1.2058 -1.0325
14374TIP3    H264538   6.215   3.734  13.138 -1.2732  1.7756  0.4560
14375TIP3   OH264539   2.085   5.713   5.991 -0.5911 -0.5217  0.0791
14375TIP3    H164540   2.149   5.706   5.920  1.1943  0.2476  1.5348
14375TIP3    H264541   2.083   5.807   6.012 -2.0343 -0.5667  0.2250
14376TIP3   OH264542   1.211   4.698   1.367 -0.1073 -0.3076  0.2714
14376TIP3    H164543   1.278   4.689   1.435  1.4073  0.2691 -1.0805
14376TIP3    H264544   1.245   4.765   1.308 -2.7863  1.4045  0.5280
14377TIP3   OH264545   3.134   5.431   1.740  0.1709  0.2638 -0.1007
14377TIP3    H164546   3.149   5.519   1.773  1.0092 -0.3412  1.1663
14377TIP3    H264547   3.042   5.432   1.712  0.4323  1.8064 -1.0442
14378TIP3   OH264548   6.499   0.295  16.576 -0.0650  0.3130  1.0013
14378TIP3    H164549   6.478   0.258  16.662  1.9227  0.6375  1.6694
14378TIP3    H264550   6.498   0.390  16.590  2.6635  0.3619  1.3645
14379TIP3   OH264551   2.417   5.473  10.923  0.1543 -0.7629  0.0491
14379TIP3    H164552   2.340   5.480  10.866 -1.1537 -0.8423  1.7439
14379TIP3    H264553   2.450   5.563  10.929  0.4840 -0.7956 -1.0313
14380TIP3   OH264554   2.910   3.730  15.308  0.1281 -0.0552 -0.8164
14380TIP3    H164555   2.856   3.664  15.352  0.0850  0.4732 -0.0637
14380TIP3    H264556   2.876   3.814  15.340  1.7786  0.2859  0.1757
14381TIP3   OH264557   1.108   1.153  11.360  0.5249 -0.1172  0.4543
14381TIP3    H164558   1.159   1.151  11.279  0.6616  0.1772  0.5331
14381TIP3    H264559   1.017   1.148  11.331  0.6115 -1.5717  0.3570
14382TIP3   OH264560   0.359   0.897   1.225  0.3030  0.1377 -0.2727
14382TIP3    H164561   0.291   0.831   1.226 -1.6297  1.9764 -1.6067
14382TIP3    H264562   0.411   0.877   1.147 -0.5284  0.4105 -0.9075
14383TIP3   OH264563   2.408   4.905  11.337  0.4541 -0.0830  0.1700
14383TIP3    H164564   2.483   4.963  11.322  0.3807 -0.5583 -2.3725
14383TIP3    H264565   2.334   4.964  11.350  0.2813  0.5035 -2.8587
14384TIP3   OH264566   3.759   1.794  16.862  0.4202 -0.2732 -0.1619
14384TIP3    H164567   3.751   1.839  16.946 -0.4272  1.9235 -1.3307
14384TIP3    H264568   3.673   1.753  16.849  0.1470  0.3743 -0.4553
14385TIP3   OH264569   5.593   0.657  10.445 -0.1741 -0.0026  0.3696
14385TIP3    H164570   5.663   0.720  10.464 -0.5352  0.6173 -0.2930
14385TIP3    H264571   5.513   0.700  10.475 -0.4355 -0.0908 -0.1852
14386TIP3   OH264572   6.476   4.905  15.952 -0.3069 -0.1292  0.2361
14386TIP3    H164573   6.523   4.858  16.021 -2.0661  0.9484  2.3047
14386TIP3    H264574   6.502   4.996  15.963 -1.7156  0.2767  0.5022
14387TIP3   OH264575   4.475   0.016  12.307  0.3298  0.6115 -0.1979
14387TIP3    H164576   4.405   0.080  12.316 -0.7928 -0.6370  0.2430
14387TIP3    H264577   4.556   0.068  12.308 -0.5338  1.9819  0.4498
14388TIP3   OH264578   4.591   0.513   2.174 -0.3964 -0.3156 -0.0108
14388TIP3    H164579   4.558   0.444   2.116 -1.4394 -0.7720  1.0846
14388TIP3    H264580   4.585   0.593   2.121 -0.0824 -0.9038 -0.9683
14389TIP3   OH264581   5.277   0.290  17.092  0.3208 -0.0640 -0.1619
14389TIP3    H164582   5.276   0.280  16.996 -0.3117 -1.1174 -0.0654
14389TIP3    H264583   5.272   0.384  17.106 -1.4908  0.0418 -1.1661
14390TIP3   OH264584   3.706   1.628  12.430 -0.0086  0.3150 -0.3491
14390TIP3    H164585   3.752   1.571  12.370 -1.0117  0.8627 -1.7056
14390TIP3    H264586   3.746   1.714  12.417 -0.9517  0.6633 -1.0826
14391TIP3   OH264587   6.728   3.038   3.708 -0.9313  0.4632  0.7405
14391TIP3    H164588   6.785   3.113   3.726  1.3610 -1.3143  1.3746
14391TIP3    H264589   6.657   3.047   3.771 -0.4603  1.8641  1.1090
14392TIP3   OH264590   1.466   2.067  16.439  0.3522 -0.6037 -0.6291
14392TIP3    H164591   1.554   2.055  16.403  0.6536  1.1686 -0.5839
14392TIP3    H264592   1.421   1.985  16.419  1.8778 -1.3978 -1.0224
14393TIP3   OH264593   2.832   6.727   5.930  0.0570 -0.0161  0.7017
14393TIP3    H164594   2.909   6.677   5.960  0.3464 -0.1781 -0.2914
14393TIP3    H264595   2.797   6.675   5.858 -1.0484  0.0150  1.2011
14394TIP3   OH264596   2.263   0.134  13.171  0.2121  0.3579  0.5597
14394TIP3    H164597   2.179   0.168  13.200 -0.0084 -0.6776  1.1885
14394TIP3    H264598   2.244   0.045  13.142  0.7981  0.6844 -0.9038
14395TIP3   OH264599   2.368   6.407   2.545  0.2505  0.1792 -0.6661
14395TIP3    H164600   2.295   6.424   2.486  0.2928  2.7605 -0.1067
14395TIP3    H264601   2.446   6.424   2.493  0.4275 -0.7891 -0.7460
14396TIP3   OH264602   1.459   6.448   2.503  0.4223 -0.1117 -0.2360
14396TIP3    H164603   1.379   6.409   2.467  0.9450 -2.8857  1.3892
14396TIP3    H264604   1.516   6.461   2.427 -1.1127  0.9860 -1.2814
14397TIP3   OH264605   0.291   2.651   5.280 -0.6693 -0.2447  0.4686
14397TIP3    H164606   0.339   2.734   5.282 -0.2731 -0.4621 -0.0730
14397TIP3    H264607   0.342   2.592   5.336 -0.3861 -0.4317  0.0133
14398TIP3   OH264608   0.088   3.532  11.560  0.0771  0.4369 -0.1355
14398TIP3    H164609   0.084   3.626  11.543 -0.0737  0.1888 -1.6208
14398TIP3    H264610  -0.001   3.501  11.546  0.4836 -0.1891 -1.4311
14399TIP3   OH264611   0.952   4.439  14.688 -0.1249  0.0629  0.2025
14399TIP3    H164612   0.882   4.443  14.754 -1.2030 -0.4875 -0.8624
14399TIP3    H264613   0.989   4.351  14.698  1.1452  0.7147  1.4608
14400TIP3   OH264614   2.862   4.308   5.690  0.1979  0.1203 -0.0000
14400TIP3    H164615   2.950   4.289   5.658  0.9005  1.2608  1.1647
14400TIP3    H264616   2.876   4.357   5.771 -1.4992 -1.3544  1.2615
14401TIP3   OH264617   5.028   1.294   4.877  0.3270 -0.1858  0.1604
14401TIP3    H164618   4.953   1.312   4.820  0.6094 -1.7728 -0.7711
14401TIP3    H264619   4.991   1.247   4.951  0.3418 -0.7472 -0.1786
14402TIP3   OH264620   4.679   4.558  15.826  0.0351  0.0600 -0.3463
14402TIP3    H164621   4.644   4.525  15.743  0.9986 -1.6105 -0.1359
14402TIP3    H264622   4.766   4.520  15.832 -0.7769 -1.7015  2.4079
14403TIP3   OH264623   3.167   5.802  13.108 -0.4117 -0.0845 -0.4339
14403TIP3    H164624   3.149   5.732  13.171  0.0626 -0.1914 -0.4164
14403TIP3    H264625   3.234   5.855  13.150 -1.2124  0.7542 -0.1736
14404TIP3   OH264626   2.027   3.856  12.104  0.0981 -0.3047 -0.1306
14404TIP3    H164627   1.967   3.874  12.177  0.3517  0.1836 -0.0381
14404TIP3    H264628   2.003   3.768  12.075 -0.5234 -0.2010  0.0407
14405TIP3   OH264629   5.782   2.649  15.315  0.4071  0.0995  0.0816
14405TIP3    H164630   5.735   2.567  15.303  1.9148 -0.5810 -1.5969
14405TIP3    H264631   5.775   2.693  15.230  2.2879  0.2071 -0.0683
14406TIP3   OH264632   6.227   2.764  15.513 -0.1094  0.2388  0.4956
14406TIP3    H164633   6.136   2.737  15.498  0.1101 -0.0197 -0.4367
14406TIP3    H264634   6.272   2.744  15.431  0.6749  0.8782  0.7528
14407TIP3   OH264635   2.367   6.326   2.143  0.0503 -0.3573 -0.3307
14407TIP3    H164636   2.324   6.260   2.198 -0.6869 -0.4553 -1.0045
14407TIP3    H264637   2.419   6.377   2.204 -1.1497 -0.1256  0.5480
14408TIP3   OH264638   1.584   2.961   2.353 -0.2207  0.3407  0.2159
14408TIP3    H164639   1.498   2.994   2.381 -1.2746 -1.1083 -1.1235
14408TIP3    H264640   1.610   2.901   2.424 -0.2218  0.9283  0.7180
14409TIP3   OH264641   6.765   1.128   5.902 -0.6636  0.0543 -0.0222
14409TIP3    H164642   6.823   1.199   5.930  0.4046 -0.7476 -0.1404
14409TIP3    H264643   6.678   1.169   5.897 -0.7605  0.5772  3.3060
14410TIP3   OH264644   4.771   0.126  11.899 -0.0635 -0.1756 -0.2236
14410TIP3    H164645   4.762   0.122  11.994  0.0533  2.6278  0.0116
14410TIP3    H264646   4.684   0.103  11.866 -0.1542 -1.0010  0.5671
14411TIP3   OH264647   2.348   6.311   0.080 -0.2794  0.4622 -0.4828
14411TIP3    H164648   2.312   6.356   0.157 -1.1833 -0.0895 -0.5714
14411TIP3    H264649   2.274   6.307   0.019 -0.8536 -2.8487  0.2513
14412TIP3   OH264650   3.911   0.704  12.025  0.0062  0.3707 -0.5914
14412TIP3    H164651   3.965   0.781  12.043 -0.5173  1.1537 -2.2027
14412TIP3    H264652   3.916   0.693  11.930 -0.5809 -1.1156 -0.4808
14413TIP3   OH264653   3.438   1.467  14.216 -0.1818 -0.5720 -0.2334
14413TIP3    H164654   3.393   1.474  14.301  1.0298  2.7612  0.2874
14413TIP3    H264655   3.368   1.449  14.153 -1.1409 -2.9513  1.3551
14414TIP3   OH264656   3.081   0.204  17.189  0.5809  0.1718 -0.0311
14414TIP3    H164657   3.096   0.154  17.269  1.4137 -1.2584 -1.0285
14414TIP3    H264658   3.155   0.266  17.186  0.5909  0.1763  0.2562
14415TIP3   OH264659   1.485   3.731   5.051  0.0723 -0.0225 -0.3388
14415TIP3    H164660   1.563   3.771   5.090  0.1755 -0.0692 -0.4971
14415TIP3    H264661   1.517   3.656   5.002  0.2097  1.1376 -2.1348
14416TIP3   OH264662   4.178   5.640  16.646 -0.7138 -0.2680  0.2382
14416TIP3    H164663   4.134   5.725  16.635  0.2149 -0.0025 -1.8962
14416TIP3    H264664   4.249   5.642  16.582  1.1496 -1.5141  2.1484
14417TIP3   OH264665   5.936   2.801   0.584  0.9271  0.4523 -0.1561
14417TIP3    H164666   5.913   2.729   0.525  1.2341  0.5601 -0.4032
14417TIP3    H264667   6.002   2.764   0.642  1.0309  0.5148 -0.2355
14418TIP3   OH264668   3.593   4.430   3.078 -0.6802  0.0398  0.1373
14418TIP3    H164669   3.534   4.443   3.003  0.5701  0.7234 -0.7818
14418TIP3    H264670   3.595   4.516   3.121 -0.2865  0.0534  0.0952
14419TIP3   OH264671   0.026   4.861   5.534  0.2212 -0.0262  0.4058
14419TIP3    H164672   0.049   4.771   5.556  1.0331  0.5561  2.2270
14419TIP3    H264673   0.045   4.869   5.441 -0.9084 -2.0080 -0.0518
14420TIP3   OH264674   0.343   4.537   2.350 -0.0319 -0.1740  0.3243
14420TIP3    H164675   0.253   4.555   2.379 -0.6851 -0.8149 -1.2101
14420TIP3    H264676   0.337   4.529   2.255  1.7585  0.2827  0.1359
14421TIP3   OH264677   3.674   2.209  15.582  0.0976  0.3097  0.6534
14421TIP3    H164678   3.652   2.268  15.509 -1.0899  0.4971  1.1456
14421TIP3    H264679   3.658   2.260  15.661  0.4588 -0.2042  1.0709
14422TIP3   OH264680   2.235   1.217   1.132 -0.6306  0.2823  0.5623
14422TIP3    H164681   2.319   1.247   1.168 -0.6206 -0.0452  0.8109
14422TIP3    H264682   2.257   1.188   1.043 -0.5852  0.7208  0.4274
14423TIP3   OH264683   1.068   2.903   4.772 -0.5016 -0.6753 -0.7045
14423TIP3    H164684   1.157   2.936   4.756 -1.9537  2.8706 -2.4649
14423TIP3    H264685   1.080   2.808   4.780  3.5822 -0.2671  0.7047
14424TIP3   OH264686   0.360   4.759   2.548  0.0280 -0.3010 -0.5656
14424TIP3    H164687   0.283   4.749   2.491 -0.4920 -0.7119  0.1788
14424TIP3    H264688   0.373   4.672   2.585 -0.8358  0.3586  1.4104
14425TIP3   OH264689   4.033   6.518   3.828  0.0306  0.4937  0.2608
14425TIP3    H164690   4.085   6.441   3.808  0.4175  0.1274  2.5021
14425TIP3    H264691   3.961   6.515   3.765  1.1861 -0.4937 -1.0713
14426TIP3   OH264692   5.242   4.450  14.596 -0.8305  0.1694 -0.0854
14426TIP3    H164693   5.230   4.532  14.644 -0.0118  1.4410 -1.9546
14426TIP3    H264694   5.157   4.432  14.557 -1.2251 -0.3230  0.9751
14427TIP3   OH264695   0.359   6.309  12.422  0.3579 -0.7350  0.1466
14427TIP3    H164696   0.444   6.319  12.379 -0.1017  0.3362 -0.5640
14427TIP3    H264697   0.379   6.299  12.515  1.2242  0.7784  0.1484
14428TIP3   OH264698   5.092   3.242   2.834  0.3884  0.1733 -0.3080
14428TIP3    H164699   5.136   3.276   2.756 -0.8976  1.4812 -0.4910
14428TIP3    H264700   5.099   3.312   2.898  1.8221 -1.0485  0.9629
14429TIP3   OH264701   0.461   4.917  15.111 -0.3431  0.9564  0.2200
14429TIP3    H164702   0.554   4.910  15.094 -0.6812 -0.0932 -1.4007
14429TIP3    H264703   0.445   4.857  15.184  0.2614  1.2493  0.5954
14430TIP3   OH264704   5.183   1.827   3.095  0.2569 -0.2927  0.3556
14430TIP3    H164705   5.152   1.742   3.066 -0.9558 -0.2596  1.4733
14430TIP3    H264706   5.110   1.887   3.078  0.7956  0.3700  0.3153
14431TIP3   OH264707   2.505   3.285   5.648  0.6879  0.1665 -0.2964
14431TIP3    H164708   2.488   3.316   5.737  0.8851  0.1926 -0.2688
14431TIP3    H264709   2.600   3.279   5.641  0.8204  2.2845 -1.2195
14432TIP3   OH264710   1.485   6.252  13.893 -0.0118 -0.2156 -0.7455
14432TIP3    H164711   1.530   6.201  13.826  2.1801  0.9484 -0.2440
14432TIP3    H264712   1.509   6.342  13.875  0.8179  0.1298  1.6703
14433TIP3   OH264713   0.672   0.620   5.568 -0.0988  0.9291 -0.2117
14433TIP3    H164714   0.622   0.625   5.486 -0.0312  0.0789 -0.3101
14433TIP3    H264715   0.692   0.711   5.589  2.1530  1.0697 -2.5274
14434TIP3   OH264716   5.461   5.084  15.045  0.2294  0.3758  0.1883
14434TIP3    H164717   5.535   5.070  15.104  0.2712  1.0473  0.3090
14434TIP3    H264718   5.446   5.178  15.048 -1.0488  0.1771  0.6780
14435TIP3   OH264719   1.731   1.196  16.826 -0.0421  0.1277  0.3453
14435TIP3    H164720   1.709   1.104  16.813  0.1453 -0.0154  0.9894
14435TIP3    H264721   1.781   1.220  16.748 -1.4099  0.1233 -0.5621
14436TIP3   OH264722   4.165   6.315  13.992  0.5579 -0.7324  0.5367
14436TIP3    H164723   4.166   6.404  13.958 -1.0870 -0.9190 -0.0780
14436TIP3    H264724   4.108   6.320  14.069 -0.6387 -1.4870 -0.2728
14437TIP3   OH264725   0.070   2.123  15.275 -0.1904  0.0487 -0.2953
14437TIP3    H164726   0.038   2.063  15.207 -1.1612 -0.3160  0.4577
14437TIP3    H264727   0.109   2.065  15.341  0.5993  0.3914 -0.4418
14438TIP3   OH264728   0.515   2.403   3.918 -0.7716  0.0126 -0.1311
14438TIP3    H164729   0.552   2.465   3.856  0.6664 -1.0840 -0.4211
14438TIP3    H264730   0.536   2.317   3.882 -3.8745 -0.7275 -0.4347
14439TIP3   OH264731   6.761   5.202   4.068  0.2307  0.4613  0.0313
14439TIP3    H164732   6.765   5.138   3.997 -0.4238  1.4655 -0.9576
14439TIP3    H264733   6.801   5.281   4.031  0.5945  0.7785  1.0603
14440TIP3   OH264734   0.550   0.646   2.291  0.0736  0.4296  0.0932
14440TIP3    H164735   0.475   0.666   2.234  0.0871  1.2270  0.3377
14440TIP3    H264736   0.531   0.559   2.326 -0.4181  0.3475 -0.3508
14441TIP3   OH264737   1.431   2.620   0.990  0.1063  0.0108 -0.5417
14441TIP3    H164738   1.364   2.553   0.975 -0.2001 -0.0185  0.8388
14441TIP3    H264739   1.386   2.689   1.039  0.5138  1.0775 -1.6245
14442TIP3   OH264740   3.023   1.055  17.181  0.0581  0.1102 -0.1443
14442TIP3    H164741   2.928   1.061  17.170 -0.2150  1.1849  2.1808
14442TIP3    H264742   3.037   1.071  17.274  2.4523 -1.2920 -0.1962
14443TIP3   OH264743   2.353   1.325  15.216 -0.0867  0.0297 -0.2213
14443TIP3    H164744   2.341   1.365  15.302 -0.8698  0.7871 -0.6671
14443TIP3    H264745   2.448   1.325  15.203 -0.0051  0.6862  0.2898
14444TIP3   OH264746   6.084   6.397   3.809  0.0428  0.0282  0.3209
14444TIP3    H164747   6.101   6.303   3.822  2.2337  0.2887 -0.2629
14444TIP3    H264748   6.070   6.431   3.897  2.0379 -0.4105  0.8748
14445TIP3   OH264749   4.393   3.464   4.094 -0.3332 -0.0343 -0.3923
14445TIP3    H164750   4.465   3.439   4.153  1.0352  0.1303 -1.9279
14445TIP3    H264751   4.348   3.534   4.141  1.1261  0.5469  0.2126
14446TIP3   OH264752   3.323   6.302  16.624  0.4771 -0.7926  0.1322
14446TIP3    H164753   3.383   6.318  16.697 -0.9478  0.3600  1.1370
14446TIP3    H264754   3.309   6.388  16.585 -1.2451 -0.8263  0.5638
14447TIP3   OH264755   3.851   5.584   1.677  0.3985 -0.7441 -0.4607
14447TIP3    H164756   3.863   5.489   1.677 -0.0579 -0.8227  0.9263
14447TIP3    H264757   3.839   5.606   1.769 -1.7173  0.3763 -0.9508
14448TIP3   OH264758   1.926   6.400   1.398 -0.4621  0.3326  0.4339
14448TIP3    H164759   1.976   6.404   1.316 -1.8676 -0.5296 -0.5168
14448TIP3    H264760   1.987   6.364   1.462  0.3986  0.1618 -0.4571
14449TIP3   OH264761   4.729   0.823  11.354 -0.1748  0.8571 -0.3708
14449TIP3    H164762   4.633   0.826  11.352 -0.2070  0.1884 -0.1844
14449TIP3    H264763   4.755   0.844  11.264 -0.5514 -0.2528 -0.7536
14450TIP3   OH264764   5.390   1.205  16.244 -0.4411  0.1886 -0.0349
14450TIP3    H164765   5.473   1.199  16.291 -0.4127 -0.6524 -0.1671
14450TIP3    H264766   5.413   1.243  16.159 -0.0927 -0.4885 -0.2568
14451TIP3   OH264767   5.120   4.800  17.012  0.0766 -0.2287 -0.3072
14451TIP3    H164768   5.169   4.778  17.091  1.9499  2.5346 -0.5665
14451TIP3    H264769   5.043   4.847  17.044  0.3618  0.1033 -0.1128
14452TIP3   OH264770   6.162   4.647  14.302 -0.0574  0.7331 -0.0611
14452TIP3    H164771   6.213   4.612  14.375 -1.4307 -0.3812  0.4094
14452TIP3    H264772   6.227   4.672  14.237  1.0920 -1.8514 -0.0301
14453TIP3   OH264773   1.435   1.125  16.555 -0.5145  0.6191  0.5757
14453TIP3    H164774   1.381   1.070  16.499 -0.4978  0.1967  0.9610
14453TIP3    H264775   1.419   1.091  16.643  0.2301  0.6074  0.7140
14454TIP3   OH264776   1.388   1.789  14.748  0.6209 -0.9643 -0.1352
14454TIP3    H164777   1.464   1.845  14.736  0.2610 -0.4538 -0.0668
14454TIP3    H264778   1.357   1.770  14.659  0.8589 -1.2175 -0.1640
14455TIP3   OH264779   5.474   0.832   6.245 -0.0538  0.1012 -0.3943
14455TIP3    H164780   5.498   0.865   6.331  1.2788  1.0719 -1.1003
14455TIP3    H264781   5.421   0.754   6.263 -0.9962  1.0770  1.2934
14456TIP3   OH264782   5.535   2.873  11.641 -0.2509  0.8134  0.1986
14456TIP3    H164783   5.503   2.800  11.589 -0.7630 -0.8625  2.6666
14456TIP3    H264784   5.478   2.946  11.618 -0.5561  0.1120 -1.4044
14457TIP3   OH264785   2.473   6.565   6.042 -0.2352 -0.2480  0.0389
14457TIP3    H164786   2.464   6.639   6.102  1.1683 -0.4797  0.5805
14457TIP3    H264787   2.555   6.522   6.069 -1.0826 -2.0931 -0.1456
14458TIP3   OH264788   1.377   0.745  14.492 -0.5851  0.9150  0.2831
14458TIP3    H164789   1.297   0.755  14.543 -0.6743  0.4060  0.2515
14458TIP3    H264790   1.377   0.653  14.466 -0.0259  0.9280  0.2258
14459TIP3   OH264791   1.330   0.599  13.958  0.3645  0.1808  0.1729
14459TIP3    H164792   1.372   0.562  14.036 -2.8485 -2.2618  0.9668
14459TIP3    H264793   1.283   0.675  13.990  0.9624  0.5941  0.0866
14460TIP3   OH264794   4.599   2.425   0.541  0.2291  0.2569  0.7221
14460TIP3    H164795   4.641   2.459   0.620 -1.3862  1.3365  1.1744
14460TIP3    H264796   4.648   2.465   0.469  0.1830  1.2558  1.2294
14461TIP3   OH264797   6.134   1.748  16.230 -0.2749 -0.1651 -0.5880
14461TIP3    H164798   6.119   1.806  16.304 -0.0718 -2.9631  1.7852
14461TIP3    H264799   6.229   1.744  16.222 -0.1369 -2.3326  1.2183
14462TIP3   OH264800   5.492   4.844  15.484 -0.4209 -0.1171  0.4933
14462TIP3    H164801   5.509   4.759  15.445 -0.1317 -1.1598  2.7429
14462TIP3    H264802   5.505   4.906  15.413 -1.2069 -1.9613 -1.3583
14463TIP3   OH264803   3.551   1.745   5.865 -0.3439 -0.3270 -0.3084
14463TIP3    H164804   3.593   1.669   5.906  1.1742 -0.3046 -1.7310
14463TIP3    H264805   3.478   1.707   5.815 -1.7706 -0.4255  1.7160
14464TIP3   OH264806   4.938   2.473   5.171 -0.3748  0.5155  0.2953
14464TIP3    H164807   4.907   2.417   5.242 -1.4065  0.1198 -0.4615
14464TIP3    H264808   4.900   2.559   5.190  0.2395  0.6875  0.8007
14465TIP3   OH264809   4.639   5.983  14.358  0.1804 -0.9382 -1.1889
14465TIP3    H164810   4.643   6.042  14.433  0.9426  0.1276 -2.0542
14465TIP3    H264811   4.688   5.905  14.386  0.4286 -0.5669 -0.5759
14466TIP3   OH264812   6.280   3.201   4.995 -1.0358  0.1513  0.2547
14466TIP3    H164813   6.293   3.295   5.007 -2.3089  0.2175  1.3945
14466TIP3    H264814   6.365   3.168   4.967 -0.7278  1.7213 -0.7548
14467TIP3   OH264815   4.588   3.170   5.576  0.4579  0.3970  0.1008
14467TIP3    H164816   4.512   3.112   5.577  2.2178 -2.1186 -1.0319
14467TIP3    H264817   4.605   3.186   5.484  1.6072  0.4776  0.3091
14468TIP3   OH264818   5.951   2.929  13.294  0.2707  0.3116 -0.4621
14468TIP3    H164819   5.993   2.888  13.369 -1.4556  0.4491  0.6228
14468TIP3    H264820   5.982   3.020  13.296  1.4680 -0.0701 -0.8852
14469TIP3   OH264821   3.722   2.877  16.954 -0.5070 -0.1742  0.0207
14469TIP3    H164822   3.751   2.786  16.947  1.6539  0.4245  0.4679
14469TIP3    H264823   3.721   2.895  17.048  0.0368  0.5238 -0.0917
14470TIP3   OH264824   1.593   4.139  16.287  0.0132  0.0784  0.7989
14470TIP3    H164825   1.650   4.063  16.275 -0.8611 -0.8415  2.1188
14470TIP3    H264826   1.646   4.214  16.262  0.8076 -0.9807 -0.8262
14471TIP3   OH264827   4.735   0.890  14.822  0.5633  0.1186  0.0422
14471TIP3    H164828   4.655   0.838  14.834  0.8436 -0.6899 -1.3603
14471TIP3    H264829   4.718   0.971  14.870 -0.6124 -0.5246  0.7794
14472TIP3   OH264830   0.748   2.594   5.946  0.6597 -0.0805  0.0386
14472TIP3    H164831   0.822   2.568   6.001 -0.2677 -0.4428  1.1518
14472TIP3    H264832   0.675   2.543   5.979 -0.1465  0.4159 -0.9213
14473TIP3   OH264833   5.583   5.411  16.992  0.5209  0.9152 -0.4641
14473TIP3    H164834   5.674   5.397  16.964  0.9791  0.9635  0.9081
14473TIP3    H264835   5.552   5.325  17.019 -0.6670  0.4465 -3.1280
14474TIP3   OH264836   2.426   6.489  13.418  0.0705  0.4131  0.5556
14474TIP3    H164837   2.496   6.520  13.476  0.1229  0.5396  0.4264
14474TIP3    H264838   2.379   6.568  13.393 -2.3950  0.0385  3.4930
14475TIP3   OH264839   2.750   3.862   0.419 -0.4986 -0.5580 -0.3550
14475TIP3    H164840   2.715   3.869   0.330  2.5364 -0.7193 -1.6729
14475TIP3    H264841   2.703   3.788   0.457 -1.0614 -1.2240 -2.2272
14476TIP3   OH264842   3.983   4.265  11.706 -0.0308  0.7148  0.1244
14476TIP3    H164843   3.939   4.311  11.778  1.8659  0.9693  1.1883
14476TIP3    H264844   4.075   4.263  11.732  0.5491 -0.1097 -1.8393
14477TIP3   OH264845   4.431   0.157  12.572  0.2587  0.7103  0.4661
14477TIP3    H164846   4.419   0.237  12.521 -2.2708 -0.1468 -0.4177
14477TIP3    H264847   4.390   0.176  12.656  1.8130  1.1223  1.1570
14478TIP3   OH264848   2.930   2.846  12.898 -0.6267 -0.4356 -0.5443
14478TIP3    H164849   2.849   2.865  12.851  0.4271  1.3601 -1.7723
14478TIP3    H264850   2.977   2.784  12.842  0.1731  0.9119 -1.4197
14479TIP3   OH264851   3.719   0.985  15.476 -0.3273 -0.8462  0.4991
14479TIP3    H164852   3.756   0.902  15.445  2.2298 -0.1566  1.4738
14479TIP3    H264853   3.683   0.964  15.563  0.5630 -0.9081  0.8643
14480TIP3   OH264854   2.355   4.890  12.513 -0.2654 -0.2506 -0.0260
14480TIP3    H164855   2.404   4.930  12.585  3.1783 -3.5056 -0.2364
14480TIP3    H264856   2.266   4.882  12.546  0.3450  1.6694  2.3642
14481TIP3   OH264857   3.762   0.233  11.212  0.1250 -0.0830  0.0577
14481TIP3    H164858   3.846   0.216  11.255 -0.2419  0.2899  0.9382
14481TIP3    H264859   3.736   0.319  11.243 -0.6917 -0.2843 -0.0393
14482TIP3   OH264860   2.857   5.155  15.519  0.1980  0.4126  0.3970
14482TIP3    H164861   2.883   5.064  15.527 -0.2813  0.0343 -1.7652
14482TIP3    H264862   2.763   5.151  15.502  0.0973  1.3484  0.6814
14483TIP3   OH264863   3.772   0.657   3.205  0.2024  0.3797 -0.6526
14483TIP3    H164864   3.747   0.746   3.230 -0.2261  0.3338 -0.9063
14483TIP3    H264865   3.713   0.601   3.255  0.1216  0.2556 -0.8848
14484TIP3   OH264866   2.133   2.785   2.731  0.4871 -0.0804 -0.6729
14484TIP3    H164867   2.167   2.862   2.777  0.4112  0.1108 -0.9366
14484TIP3    H264868   2.122   2.813   2.641  0.1801 -0.3133 -0.7116
14485TIP3   OH264869   4.542   4.469   1.762 -0.5107  0.1748 -0.2588
14485TIP3    H164870   4.552   4.562   1.780 -1.3913  0.5371 -1.4992
14485TIP3    H264871   4.624   4.444   1.718 -1.4995  1.1748 -2.8833
14486TIP3   OH264872   5.944   5.541  14.503  0.2151 -0.1380 -0.2877
14486TIP3    H164873   6.002   5.550  14.579  1.1162  0.6733 -1.0462
14486TIP3    H264874   5.988   5.476  14.448  0.8611  1.0799 -1.2494
14487TIP3   OH264875   1.175   0.092   0.361 -0.1101 -0.0885 -0.1439
14487TIP3    H164876   1.166   0.164   0.423 -0.3524 -1.0576  0.9892
14487TIP3    H264877   1.241   0.034   0.399 -1.6518 -1.6971  0.2582
14488TIP3   OH264878   5.518   3.690  15.426  0.2449 -0.4113  0.0255
14488TIP3    H164879   5.439   3.685  15.481  0.7958 -2.3095  0.7211
14488TIP3    H264880   5.485   3.682  15.336 -0.3511 -2.1255  0.3431
14489TIP3   OH264881   1.400   1.781  13.043 -0.2911 -0.6697 -0.3896
14489TIP3    H164882   1.412   1.875  13.031  0.3289 -0.4964  1.2975
14489TIP3    H264883   1.473   1.741  12.996 -1.7027 -0.4963 -2.9213
14490TIP3   OH264884   5.660   0.193  15.080  0.4182 -0.1247 -0.3687
14490TIP3    H164885   5.587   0.252  15.101 -0.1120 -0.2569 -1.7336
14490TIP3    H264886   5.679   0.148  15.162 -0.6624  0.3229  0.1483
14491TIP3   OH264887   5.361   5.998  13.597 -0.5909  0.7770 -0.7151
14491TIP3    H164888   5.289   6.017  13.657  0.4314  2.6136  0.0286
14491TIP3    H264889   5.414   5.933  13.643  0.1385  2.1024  0.4279
14492TIP3   OH264890   0.917   4.967  16.714  0.2903  0.0920 -0.7268
14492TIP3    H164891   0.872   4.897  16.665  0.5907 -0.0403 -0.8154
14492TIP3    H264892   0.934   4.929  16.800 -1.4234  0.7641 -0.0344
14493TIP3   OH264893   0.774   0.160   2.243 -0.0651  0.1084  0.2288
14493TIP3    H164894   0.784   0.245   2.200 -1.0612 -0.4987 -1.3109
14493TIP3    H264895   0.862   0.122   2.242  0.0048  0.2570 -1.0291
14494TIP3   OH264896   1.687   6.147  15.900  0.2534 -0.2559 -0.4610
14494TIP3    H164897   1.718   6.118  15.814  1.1316  1.8405 -0.9351
14494TIP3    H264898   1.642   6.072  15.937 -1.9840 -0.6436 -3.6193
14495TIP3   OH264899   2.545   5.389  16.449  0.0773  0.3546 -0.1250
14495TIP3    H164900   2.558   5.311  16.395  1.7636  0.6951 -0.2695
14495TIP3    H264901   2.519   5.457  16.387  3.8042  1.2319 -0.9644
14496TIP3   OH264902   1.602   0.463  14.858 -0.4725  0.1571 -0.0142
14496TIP3    H164903   1.611   0.554  14.829  0.6699  0.1223  0.1788
14496TIP3    H264904   1.594   0.469  14.953  1.5561 -0.0146  0.2120
14497TIP3   OH264905   5.466   5.964   5.795 -0.1244 -0.6241  0.2662
14497TIP3    H164906   5.373   5.949   5.778 -0.1190  0.0916 -0.4466
14497TIP3    H264907   5.492   6.032   5.733  0.1172  1.5507  2.6025
14498TIP3   OH264908   6.601   4.320   3.936  0.2144  0.1179  0.0839
14498TIP3    H164909   6.674   4.382   3.930 -0.1400  0.5944  0.6055
14498TIP3    H264910   6.608   4.283   4.024 -1.4053  1.7474  0.9647
14499TIP3   OH264911   4.862   2.191   5.219 -0.2077 -0.1007 -0.6179
14499TIP3    H164912   4.820   2.106   5.206  0.6712 -0.5214 -0.7897
14499TIP3    H264913   4.932   2.193   5.154 -0.9124  1.2309 -1.3685
14500TIP3   OH264914   1.307   0.390   2.365  0.0104 -0.5100 -0.0766
14500TIP3    H164915   1.390   0.347   2.343  0.0866 -0.8081  0.7493
14500TIP3    H264916   1.333   0.478   2.395 -0.2097  0.5039 -2.6239
14501TIP3   OH264917   5.093   4.431   1.322 -0.1289  0.2225 -0.0908
14501TIP3    H164918   5.001   4.417   1.343 -0.0910  1.7270  1.3481
14501TIP3    H264919   5.114   4.515   1.364  1.9773 -0.2449 -0.1107
14502TIP3   OH264920   0.784   4.204  14.403  0.2249  0.1586  0.0238
14502TIP3    H164921   0.820   4.143  14.467  2.2234  0.4056 -0.7856
14502TIP3    H264922   0.689   4.191  14.407  0.2873  0.0862  2.9003
14503TIP3   OH264923   5.501   1.650  16.996 -0.3969 -0.2016  0.5629
14503TIP3    H164924   5.561   1.576  17.006 -1.7192 -1.3370  0.5623
14503TIP3    H264925   5.496   1.690  17.083 -1.0539 -1.2742  1.0434
14504TIP3   OH264926   5.060   1.967   4.559  0.6480 -0.1235 -0.0412
14504TIP3    H164927   4.982   1.994   4.607  1.4781 -0.7044  1.6989
14504TIP3    H264928   5.062   2.024   4.482 -1.0289  0.4476  0.3089
14505TIP3   OH264929   3.376   0.321   0.018 -0.6357  0.0046  0.1978
14505TIP3    H164930   3.415   0.275   0.092  0.7267 -0.1524 -0.5750
14505TIP3    H264931   3.392   0.414   0.037 -1.2548  0.0318  0.6092
14506TIP3   OH264932   5.774   5.906  15.210 -0.1258  0.1631 -0.3355
14506TIP3    H164933   5.725   5.969  15.156 -0.9092 -0.1494 -0.0034
14506TIP3    H264934   5.860   5.901  15.168  0.2136  2.0244  0.0741
14507TIP3   OH264935   2.537   6.386   3.903  0.3487 -0.4870 -0.4732
14507TIP3    H164936   2.569   6.375   3.814  1.3302 -2.1556  0.0475
14507TIP3    H264937   2.443   6.365   3.897  0.4872 -0.9815 -1.0513
14508TIP3   OH264938   6.192   1.348  13.030  0.0617 -0.4094 -0.1413
14508TIP3    H164939   6.096   1.343  13.023  0.0234 -0.9448  0.6849
14508TIP3    H264940   6.218   1.402  12.956 -0.8734 -0.3613 -0.4503
14509TIP3   OH264941   6.660   3.546  17.054  0.0856 -0.4270  0.2294
14509TIP3    H164942   6.584   3.564  17.109 -0.1051 -0.2131 -0.1027
14509TIP3    H264943   6.656   3.611  16.984  0.6419 -0.3339  0.2753
14510TIP3   OH264944   2.367   0.981  12.442 -0.2819  0.0999  0.1921
14510TIP3    H164945   2.328   0.906  12.397 -0.0352 -0.2969  0.6327
14510TIP3    H264946   2.365   0.958  12.535 -0.1297  0.6065  0.3286
14511TIP3   OH264947   5.697   1.318  15.238  0.3409 -0.0531  0.1227
14511TIP3    H164948   5.659   1.246  15.188  1.1924 -0.4829  0.0680
14511TIP3    H264949   5.628   1.384  15.243  0.2249 -0.0074 -1.5914
14512TIP3   OH264950   6.537   0.048  12.087 -0.0093 -0.3013  0.5946
14512TIP3    H164951   6.626   0.056  12.121 -0.0352 -0.2452  0.6477
14512TIP3    H264952   6.507  -0.038  12.117 -0.0139 -0.2734  0.6689
14513TIP3   OH264953   4.419   1.279   2.210  0.0643 -0.8578 -0.1026
14513TIP3    H164954   4.408   1.186   2.228  0.7550 -0.7715  0.8962
14513TIP3    H264955   4.513   1.295   2.222  0.1908 -0.2963 -1.6357
14514TIP3   OH264956   5.116   5.029  13.697 -0.1150 -0.3861 -0.5567
14514TIP3    H164957   5.039   5.063  13.743 -1.0538 -1.2898 -1.4190
14514TIP3    H264958   5.111   5.069  13.610  1.0951  0.5182 -0.2422
14515TIP3   OH264959   4.670   1.130   2.927  0.4258 -0.3061 -0.1211
14515TIP3    H164960   4.745   1.092   2.881 -0.4808 -1.5411 -0.6281
14515TIP3    H264961   4.625   1.055   2.965 -0.5191  0.4325  0.2546
14516TIP3   OH264962   1.181   3.142   1.052  0.3184 -0.3891  0.3870
14516TIP3    H164963   1.137   3.099   1.125  1.1592 -0.9106  0.5916
14516TIP3    H264964   1.138   3.107   0.974  0.6337 -1.2100  0.5699
14517TIP3   OH264965   0.768   2.837   4.135 -0.3275  0.5180  0.0505
14517TIP3    H164966   0.788   2.753   4.175  1.0583  1.3393  1.1891
14517TIP3    H264967   0.733   2.815   4.049 -0.0393 -1.2115  0.3378
14518TIP3   OH264968   5.636   5.249  13.839 -0.8463  0.5065  0.6996
14518TIP3    H164969   5.681   5.277  13.760 -0.1050  1.7183  1.5114
14518TIP3    H264970   5.640   5.153  13.837 -0.0660  0.5492 -0.2851
14519TIP3   OH264971   6.390   6.069   4.466 -0.2112  0.0819  0.7281
14519TIP3    H164972   6.357   6.097   4.551  0.1041 -1.9173  1.5734
14519TIP3    H264973   6.314   6.029   4.423 -0.5315  1.6577 -0.2361
14520TIP3   OH264974   1.997   3.553  16.731  0.4519  0.2431 -0.0637
14520TIP3    H164975   2.039   3.473  16.763  1.9946  1.3048  0.7149
14520TIP3    H264976   1.990   3.541  16.637  1.8362 -0.3285 -0.1208
14521TIP3   OH264977   1.631   5.734   2.483 -0.0250 -0.5041 -0.4657
14521TIP3    H164978   1.697   5.770   2.544  0.7510 -1.1339 -0.9120
14521TIP3    H264979   1.648   5.780   2.401 -0.1779 -0.6411 -0.5727
14522TIP3   OH264980   5.855   6.188   0.965  0.0800  0.3581  0.0879
14522TIP3    H164981   5.860   6.277   0.999  1.9661 -0.0148  0.9328
14522TIP3    H264982   5.822   6.136   1.038  0.1830  0.1757  0.0037
14523TIP3   OH264983   0.454   2.901  16.347  0.1386  0.2915 -0.5111
14523TIP3    H164984   0.451   2.829  16.409  1.6034  0.4648 -0.2045
14523TIP3    H264985   0.425   2.977  16.397 -2.0178 -0.1330 -0.9988
14524TIP3   OH264986   4.235   1.398   4.606  0.4045 -0.8619  0.4006
14524TIP3    H164987   4.144   1.428   4.614 -0.3563 -2.2024 -1.9909
14524TIP3    H264988   4.267   1.394   4.696 -1.1485  1.7440  1.1685
14525TIP3   OH264989   2.412   0.343   5.040 -0.1106 -0.1071  0.6529
14525TIP3    H164990   2.482   0.374   5.098 -0.2318  0.6169  0.4210
14525TIP3    H264991   2.333   0.385   5.073 -0.4427 -0.9439  0.9253
14526TIP3   OH264992   3.959   6.102  12.305 -0.1766  0.0204 -0.1342
14526TIP3    H164993   3.935   6.189  12.337 -2.6522 -0.5907 -0.1066
14526TIP3    H264994   3.983   6.116  12.213  3.1809  1.1992  0.7654
14527TIP3   OH264995   4.502   4.599  12.878 -0.2654 -0.2486 -0.1485
14527TIP3    H164996   4.439   4.553  12.933 -0.4226 -0.0911 -0.1944
14527TIP3    H264997   4.481   4.570  12.789 -0.4125 -0.0383 -0.1853
14528TIP3   OH264998   3.011   5.820  16.864 -0.0400  0.1991 -0.1914
14528TIP3    H164999   2.985   5.745  16.917 -2.4974  0.9260 -0.2228
14528TIP3    H265000   3.028   5.784  16.777  0.9435 -0.5843  0.3162
14529TIP3   OH265001   3.274   5.669  14.217 -0.2644 -0.7111 -0.0118
14529TIP3    H165002   3.222   5.711  14.148 -0.2774 -0.4854  0.1349
14529TIP3    H265003   3.332   5.738  14.249  0.4781 -1.0913 -0.5169
14530TIP3   OH265004   2.980   2.606   2.068  0.8258  0.1380  0.1526
14530TIP3    H165005   2.904   2.664   2.062  0.9285  0.3353  0.7107
14530TIP3    H265006   3.055   2.662   2.047  0.6851 -0.5020 -2.5214
14531TIP3   OH265007   6.221   4.969  13.371  0.1306  0.2167 -0.1729
14531TIP3    H165008   6.134   5.007  13.380  0.0980  0.3208 -0.8252
14531TIP3    H265009   6.252   4.955  13.460 -0.2189  0.9503  0.0676
14532TIP3   OH265010   2.367   0.637   6.123 -0.7155  0.5345 -0.1960
14532TIP3    H165011   2.355   0.542   6.117  2.3128  0.0032  0.3182
14532TIP3    H265012   2.375   0.654   6.217 -0.1056  1.1008 -0.3445
14533TIP3   OH265013   4.063   3.547   2.248 -0.8533 -0.1410 -0.3781
14533TIP3    H165014   4.075   3.574   2.157 -1.5291  2.2509  0.1675
14533TIP3    H265015   4.138   3.585   2.295 -2.2958  1.7047  0.5682
14534TIP3   OH265016   0.265   0.956   2.306 -0.0429 -0.7729  0.4090
14534TIP3    H165017   0.203   0.891   2.272 -0.0278 -0.9009  0.6267
14534TIP3    H265018   0.303   0.995   2.228 -1.4672  0.3440  0.2324
14535TIP3   OH265019   4.649   4.206   4.112  0.8202  0.0594 -0.3609
14535TIP3    H165020   4.717   4.182   4.175  1.9743  2.4758 -0.5825
14535TIP3    H265021   4.662   4.146   4.039 -0.0435 -2.2767  1.2922
14536TIP3   OH265022   3.873   1.484  12.268 -0.8569 -0.3027  0.2029
14536TIP3    H165023   3.845   1.439  12.188 -1.2547 -0.0567  0.1996
14536TIP3    H265024   3.951   1.437  12.296 -0.7618 -0.4449 -0.2843
14537TIP3   OH265025   1.552   0.027   1.075  0.5035 -0.5827 -0.2549
14537TIP3    H165026   1.644   0.004   1.080  0.1032 -2.2584  0.0749
14537TIP3    H265027   1.508  -0.053   1.046 -1.0419 -0.3834  1.3050
14538TIP3   OH265028   3.922   1.226  14.473  0.3985  0.0661 -0.5452
14538TIP3    H165029   3.962   1.302  14.514 -0.2377 -0.8202  1.9278
14538TIP3    H265030   3.993   1.163  14.466  0.3863  0.0092 -0.1890
14539TIP3   OH265031   3.792   1.308  11.014  0.0123  0.3097 -0.0217
14539TIP3    H165032   3.757   1.289  11.101  0.7951  0.2203  0.2769
14539TIP3    H265033   3.841   1.389  11.024  0.4165  0.1026 -0.2960
14540TIP3   OH265034   4.839   1.633  10.909  0.3294 -0.2321 -0.1709
14540TIP3    H165035   4.813   1.569  10.842  0.2208 -0.5807  0.2001
14540TIP3    H265036   4.780   1.707  10.896 -0.3416 -0.7036  0.1686
14541TIP3   OH265037   1.124   0.848  16.913  0.0027 -0.2022 -0.0072
14541TIP3    H165038   1.138   0.934  16.953 -1.1306  0.4452 -0.9301
14541TIP3    H265039   1.190   0.792  16.953  0.7330  1.0819  0.6591
14542TIP3   OH265040   2.943   1.665  15.362 -0.7005  0.6533  0.1278
14542TIP3    H165041   2.887   1.598  15.401  0.2734 -1.8279 -2.4056
14542TIP3    H265042   3.022   1.664  15.416 -0.5878 -0.4616 -0.0367
14543TIP3   OH265043   4.149   5.570  14.346 -0.4444 -0.2874  0.8265
14543TIP3    H165044   4.120   5.633  14.412 -2.7316  0.7153 -0.9971
14543TIP3    H265045   4.152   5.486  14.392 -3.6048  0.0577  1.8787
14544TIP3   OH265046   2.457   2.329  14.702 -0.8935 -0.0063 -0.2608
14544TIP3    H165047   2.412   2.359  14.623  0.6672  0.5317 -0.9811
14544TIP3    H265048   2.472   2.235  14.687  0.5487  0.3441 -1.2267
14545TIP3   OH265049   4.433   3.794   0.937 -0.1086 -0.3234 -0.1746
14545TIP3    H165050   4.373   3.863   0.966  2.1769  1.4393  0.6488
14545TIP3    H265051   4.433   3.801   0.841  0.4325  1.1765 -0.0881
14546TIP3   OH265052   3.322   0.573  15.958  0.0881 -0.1224 -0.0105
14546TIP3    H165053   3.310   0.505  15.892  2.0988  0.3721 -0.9607
14546TIP3    H265054   3.269   0.545  16.032  0.1753 -2.2719 -0.7070
14547TIP3   OH265055   2.715   3.007  15.337 -0.0225 -0.3313 -0.2701
14547TIP3    H165056   2.751   2.945  15.399  1.8019 -1.5596 -2.4227
14547TIP3    H265057   2.624   3.020  15.366  0.6223 -1.1118  2.3531
14548TIP3   OH265058   0.634   4.039   3.210 -0.4625  0.2405  0.3908
14548TIP3    H165059   0.649   4.129   3.179 -0.0425  0.1366  0.2945
14548TIP3    H265060   0.668   4.038   3.299  1.7471 -0.4621 -0.4072
14549TIP3   OH265061   3.398   1.764   3.318  0.1706  0.6652  0.0869
14549TIP3    H165062   3.422   1.751   3.410  0.2914  0.3177  0.0051
14549TIP3    H265063   3.455   1.705   3.270 -2.5438 -2.1615  0.0477
14550TIP3   OH265064   3.871   2.003  13.924 -0.5494  0.2714  0.1557
14550TIP3    H165065   3.919   2.045  13.996 -0.9177 -0.3854  0.8018
14550TIP3    H265066   3.795   1.962  13.967 -1.3473  0.7471 -0.7574
14551TIP3   OH265067   1.240   3.798   4.289  0.3382 -0.1081 -0.4438
14551TIP3    H165068   1.181   3.753   4.229 -0.7406  1.3601 -0.5609
14551TIP3    H265069   1.310   3.833   4.234  0.0186  0.1743 -0.6735
14552TIP3   OH265070   2.544   1.194   1.577  0.4017  0.4020 -0.1343
14552TIP3    H165071   2.546   1.109   1.533 -0.9357  0.7811 -0.9759
14552TIP3    H265072   2.624   1.196   1.629  0.0077 -1.7718  0.6497
14553TIP3   OH265073   1.395   4.497   0.073 -0.8842  0.5597 -0.1081
14553TIP3    H165074   1.490   4.510   0.078 -0.5798 -1.6306  1.1889
14553TIP3    H265075   1.378   4.482  -0.020  0.1587  0.3699 -0.2869
14554TIP3   OH265076   3.149   6.585  16.647 -0.1036 -0.3556  0.2953
14554TIP3    H165077   3.060   6.606  16.675  0.4276  3.0639 -0.1104
14554TIP3    H265078   3.205   6.634  16.708  1.3876 -0.4778 -0.9240
14555TIP3   OH265079   2.572   1.956  12.984  0.0418 -0.4772 -0.1261
14555TIP3    H165080   2.538   1.939  13.072  0.7087  0.0034  0.2350
14555TIP3    H265081   2.599   1.870  12.952  3.3634 -0.2616  1.6818
14556TIP3   OH265082   4.927   1.908  15.125 -0.3423 -0.0701 -0.4227
14556TIP3    H165083   4.916   1.842  15.193  0.6885 -0.7926 -0.9317
14556TIP3    H265084   5.002   1.961  15.155 -0.3895  0.1073 -0.6152
14557TIP3   OH265085   1.556   1.460  15.370  0.4392 -0.0879  0.2265
14557TIP3    H165086   1.629   1.460  15.308  0.0016  0.0646 -0.2978
14557TIP3    H265087   1.500   1.388  15.340 -1.2452  1.7611 -1.3528
14558TIP3   OH265088   2.704   6.428   0.969 -0.1572 -0.1131 -0.4263
14558TIP3    H165089   2.744   6.475   0.896 -1.7865  2.7504  0.3623
14558TIP3    H265090   2.749   6.463   1.047 -1.0688 -0.2046  0.1553
14559TIP3   OH265091   6.314   5.146  12.038 -0.4612 -0.3559  0.3731
14559TIP3    H165092   6.402   5.108  12.039 -0.9635 -1.5692  0.3372
14559TIP3    H265093   6.324   5.233  12.076  0.9976  0.1005 -0.9445
14560TIP3   OH265094   5.305   6.091   4.696 -0.1546 -0.0593 -0.4153
14560TIP3    H165095   5.252   6.019   4.663  0.4247 -0.1830 -1.0933
14560TIP3    H265096   5.294   6.087   4.791 -0.6575 -0.6195 -0.4906
14561TIP3   OH265097   6.518   1.580   4.006 -0.2368  0.4776  0.1609
14561TIP3    H165098   6.428   1.603   3.984  0.1504  1.1756 -0.7338
14561TIP3    H265099   6.537   1.502   3.955 -0.4551  0.1073  0.6414
14562TIP3   OH265100   1.066   2.475   5.042 -0.0146  0.3621  0.1662
14562TIP3    H165101   0.972   2.464   5.027  0.1125  0.1586 -0.4915
14562TIP3    H265102   1.098   2.518   4.963  0.7470 -1.1566 -0.3929
14563TIP3   OH265103   4.285   2.527  15.555  0.1038 -0.9637 -0.0861
14563TIP3    H165104   4.245   2.513  15.469  1.3352  0.7319 -0.9869
14563TIP3    H265105   4.220   2.576  15.604  0.2771  0.0859 -0.8721
14564TIP3   OH265106   0.639   4.016   2.767 -0.4049  0.1166  0.2483
14564TIP3    H165107   0.557   4.053   2.735 -0.3539  0.4719  0.5287
14564TIP3    H265108   0.695   4.091   2.785 -0.0826 -0.1162  0.2358
14565TIP3   OH265109   0.517   3.778   2.773 -0.0207 -0.0607  0.2426
14565TIP3    H165110   0.450   3.828   2.820 -0.0196 -0.4937  0.7098
14565TIP3    H265111   0.584   3.843   2.753  1.2153 -0.2779  3.1291
14566TIP3   OH265112   3.822   4.932  15.235  0.0951  0.5395 -0.2069
14566TIP3    H165113   3.798   4.991  15.164  0.5016  1.1937  0.1914
14566TIP3    H265114   3.767   4.959  15.309  0.3391  0.4844 -0.0014
14567TIP3   OH265115   2.311   0.427   1.274 -0.2650  0.8127  1.0149
14567TIP3    H165116   2.375   0.482   1.228  0.6075  1.6058  3.0788
14567TIP3    H265117   2.227   0.469   1.256 -0.2772 -0.1209 -1.5578
14568TIP3   OH265118   6.074   6.032   1.902  0.0641 -0.0813  0.3560
14568TIP3    H165119   6.004   6.003   1.961  0.4866 -1.2879  0.2972
14568TIP3    H265120   6.150   5.979   1.926  0.7474  0.6656 -0.0972
14569TIP3   OH265121   4.193   3.841  12.888 -0.2951  0.0298  0.0505
14569TIP3    H165122   4.160   3.929  12.867 -0.1595 -0.3292 -1.8955
14569TIP3    H265123   4.114   3.789  12.902 -0.3822  0.3908  0.9483
14570TIP3   OH265124   0.721   1.568  14.737  0.2908  0.0213  0.3953
14570TIP3    H165125   0.666   1.590  14.813  0.1480 -0.8801  0.5735
14570TIP3    H265126   0.782   1.502  14.771 -1.8651 -2.9007 -0.9595
14571TIP3   OH265127   2.975   0.055  12.910 -0.2797 -0.2432  0.1383
14571TIP3    H165128   2.986   0.149  12.901 -0.8075 -0.2746 -0.9430
14571TIP3    H265129   2.971   0.022  12.820 -0.2930 -1.2716  0.5004
14572TIP3   OH265130   1.376   1.676   4.553 -0.0402 -0.3403 -0.7014
14572TIP3    H165131   1.464   1.698   4.581 -0.6287  2.6246 -0.8708
14572TIP3    H265132   1.345   1.613   4.619  1.2060  0.7332  0.9943
14573TIP3   OH265133   4.880   1.225  16.019  1.1111 -0.3377 -0.4446
14573TIP3    H165134   4.904   1.270  15.938  0.7796 -1.4287 -1.1755
14573TIP3    H265135   4.890   1.132  15.999 -3.1632 -0.9772 -0.7401
14574TIP3   OH265136   5.037   2.529   5.482 -0.4419 -0.3593 -0.0134
14574TIP3    H165137   4.965   2.587   5.508 -0.7076  0.0494 -1.5555
14574TIP3    H265138   4.998   2.442   5.478 -0.7259 -0.2186 -0.3476
14575TIP3   OH265139   1.434   4.456  10.828 -0.0913  0.2469 -0.4627
14575TIP3    H165140   1.509   4.428  10.776  0.2109  1.1039 -0.4916
14575TIP3    H265141   1.442   4.551  10.834 -0.3023  0.2024  0.8616
14576TIP3   OH265142   4.684   5.838   6.311 -0.9061  0.0320  0.7148
14576TIP3    H165143   4.713   5.748   6.322 -2.2010 -0.2443  2.2428
14576TIP3    H265144   4.763   5.886   6.285 -0.7093 -1.9325 -2.8831
14577TIP3   OH265145   4.585   3.053  13.484  0.1110 -0.0683 -0.2217
14577TIP3    H165146   4.600   2.985  13.419  1.8292 -2.0639  2.0639
14577TIP3    H265147   4.656   3.116  13.470  0.9856 -0.9322  0.1892
14578TIP3   OH265148   3.479   4.857   5.222 -0.1442 -0.3885 -0.0158
14578TIP3    H165149   3.425   4.935   5.240  0.3511  0.1629 -0.8380
14578TIP3    H265150   3.462   4.837   5.130  1.7318  0.3703 -0.5742
14579TIP3   OH265151   5.315   4.019   3.255  0.2431 -0.2293 -0.1368
14579TIP3    H165152   5.314   4.113   3.237 -2.2501 -0.0747  0.3345
14579TIP3    H265153   5.298   3.978   3.171  0.9124 -0.2457 -0.2679
14580TIP3   OH265154   0.551   5.732   2.132  0.0085 -0.5551  0.0264
14580TIP3    H165155   0.632   5.680   2.125 -0.2352 -0.8367 -1.0047
14580TIP3    H265156   0.483   5.674   2.097 -0.5699 -0.1667  0.4918
14581TIP3   OH265157   2.762   6.072   4.182 -0.2411  0.1092  0.0122
14581TIP3    H165158   2.689   6.027   4.138  0.9372  1.1049 -3.3363
14581TIP3    H265159   2.743   6.166   4.168  0.0537  0.5001  2.0523
14582TIP3   OH265160   2.251   1.295  11.824  0.0955 -0.0403 -0.3366
14582TIP3    H165161   2.257   1.220  11.765  0.5414 -1.2024  1.1203
14582TIP3    H265162   2.298   1.365  11.779  0.3574 -0.8622 -1.3822
14583TIP3   OH265163   1.120   3.660  13.736 -0.2280 -0.0400  0.4346
14583TIP3    H165164   1.037   3.706  13.724  0.8949  2.3485  1.2158
14583TIP3    H265165   1.184   3.729  13.750  2.0411 -1.7710 -0.6905
14584TIP3   OH265166   0.576   2.341  14.447 -0.8116 -0.0065  0.3859
14584TIP3    H165167   0.596   2.394  14.370 -0.7295 -0.1540  0.3060
14584TIP3    H265168   0.497   2.381  14.484  0.2352  1.2420  1.3378
14585TIP3   OH265169   0.181   0.574  15.465 -0.3324 -0.4474  0.3276
14585TIP3    H165170   0.206   0.483  15.455 -0.7892 -0.3733 -2.5309
14585TIP3    H265171   0.101   0.583  15.412 -0.5239  1.5208  0.8560
14586TIP3   OH265172   6.765   3.987  17.008 -0.1821 -0.0196 -0.6110
14586TIP3    H165173   6.713   4.051  17.056 -0.0875 -0.2827 -0.1504
14586TIP3    H265174   6.829   4.039  16.960  0.0642  0.2204 -0.0305
14587TIP3   OH265175   3.178   4.380  12.436  1.0490  0.3905  0.3780
14587TIP3    H165176   3.210   4.347  12.520 -2.4733 -0.3049  1.6089
14587TIP3    H265177   3.162   4.473  12.450  1.5025  0.5101  0.1142
14588TIP3   OH265178   3.622   2.670   0.747  0.3364 -0.0140 -0.1918
14588TIP3    H165179   3.592   2.760   0.731  1.3339  0.6008  1.1706
14588TIP3    H265180   3.686   2.679   0.818 -0.0123 -1.8817  0.4081
14589TIP3   OH265181   2.182   0.926   6.342 -0.0446 -0.2691  0.1364
14589TIP3    H165182   2.135   0.860   6.394  1.6025 -0.9004  0.8970
14589TIP3    H265183   2.175   0.894   6.252 -0.1771 -0.9059  0.3680
14590TIP3   OH265184   6.700   1.981   4.603  0.6679  0.7308 -0.1922
14590TIP3    H165185   6.624   2.035   4.624 -1.2430 -0.7777 -2.5705
14590TIP3    H265186   6.744   2.027   4.532  1.7073  1.3125  0.7939
14591TIP3   OH265187   0.537   5.596  15.937 -0.5469 -0.1192 -0.4677
14591TIP3    H165188   0.554   5.534  15.866 -1.5472  0.1539 -0.9644
14591TIP3    H265189   0.467   5.555  15.988 -0.3805  0.0544 -0.1018
14592TIP3   OH265190   2.920   1.627   1.036  0.7265  0.0253  0.6451
14592TIP3    H165191   2.873   1.580   1.105 -0.2543 -1.4693 -0.9635
14592TIP3    H265192   2.894   1.718   1.047 -0.6785 -0.4294  1.2768
14593TIP3   OH265193   4.013   4.138   4.642 -0.4802 -0.2790  0.1242
14593TIP3    H165194   4.014   4.230   4.669 -1.4696 -0.8596  2.3312
14593TIP3    H265195   3.935   4.130   4.587 -1.8412 -0.2656  1.9581
14594TIP3   OH265196   4.349   6.728  17.087 -0.2662 -0.7890  0.6113
14594TIP3    H165197   4.340   6.783  17.009  0.0350  0.5989  1.5259
14594TIP3    H265198   4.278   6.757  17.145  0.3753 -0.8248  1.4258
14595TIP3   OH265199   2.507   2.535  13.740 -0.2047 -0.2889  0.5655
14595TIP3    H165200   2.513   2.623  13.703 -1.9077 -0.7265 -0.8985
14595TIP3    H265201   2.573   2.484  13.693 -3.2762 -1.2043 -3.3401
14596TIP3   OH265202   6.403   0.557  13.701  0.0879  0.3968  0.2003
14596TIP3    H165203   6.484   0.606  13.719  0.3816 -0.5909  1.7044
14596TIP3    H265204   6.398   0.492  13.771 -1.9401  0.3285  0.0421
14597TIP3   OH265205   2.990   4.589   5.208  0.6060 -0.1834 -0.1620
14597TIP3    H165206   3.018   4.669   5.252 -1.3387 -0.2311  1.2936
14597TIP3    H265207   2.898   4.579   5.232  0.7560 -2.8132 -0.3698
14598TIP3   OH265208   1.377   4.261   5.568  0.3342 -0.1025  0.1995
14598TIP3    H165209   1.386   4.324   5.640  0.4995 -2.5048  2.4508
14598TIP3    H265210   1.466   4.251   5.534  0.4307  0.3437  0.3160
14599TIP3   OH265211   6.599   2.331  16.759  0.5408  0.3549  0.1485
14599TIP3    H165212   6.515   2.366  16.789  0.6670  2.1431 -1.4225
14599TIP3    H265213   6.576   2.269  16.690  0.5029  2.3064 -1.6841
14600TIP3   OH265214   3.718   5.948  15.584 -0.5578  0.1145  0.2936
14600TIP3    H165215   3.672   6.026  15.553  0.9887  0.0836 -2.4115
14600TIP3    H265216   3.794   5.983  15.632 -0.6075  0.2466  0.2769
14601TIP3   OH265217   3.645   4.663  16.239 -0.2078  0.2637 -0.5058
14601TIP3    H165218   3.554   4.642  16.217 -0.2467 -0.1133 -0.0147
14601TIP3    H265219   3.687   4.679  16.155  0.1050 -2.9933 -1.1277
14602TIP3   OH265220   4.528   6.399  14.000 -0.1084 -0.4421  0.1632
14602TIP3    H165221   4.480   6.452  14.064 -0.6209  0.2671 -0.7901
14602TIP3    H265222   4.619   6.402  14.030  0.3225  2.8660 -1.0285
14603TIP3   OH265223   1.072   4.486   2.739 -0.0341 -0.2109  0.4222
14603TIP3    H165224   1.048   4.500   2.831 -0.4948 -1.3264  0.4836
14603TIP3    H265225   1.034   4.401   2.717  0.4571 -0.1579 -0.6749
14604TIP3   OH265226   1.395   5.014   4.003 -0.0058 -0.0152  0.1121
14604TIP3    H165227   1.486   5.039   3.988  0.6648 -0.7401  2.5989
14604TIP3    H265228   1.370   4.969   3.922  0.9291  2.4524 -1.6954
14605TIP3   OH265229   3.228   6.209  11.859  1.0046  0.1705 -0.0897
14605TIP3    H165230   3.163   6.148  11.823  1.0840 -0.2724  0.5047
14605TIP3    H265231   3.306   6.195  11.805  1.3580 -1.0258  0.7082
14606TIP3   OH265232   0.479   1.119   3.347  0.3714 -0.6035 -0.2668
14606TIP3    H165233   0.476   1.064   3.269  0.3247 -1.7705  0.5422
14606TIP3    H265234   0.451   1.205   3.316 -1.6400 -1.5173 -1.1457
14607TIP3   OH265235   1.514   4.171  11.669  0.3566  0.2230 -0.0555
14607TIP3    H165236   1.450   4.162  11.739  0.8121  0.1243  0.3526
14607TIP3    H265237   1.585   4.112  11.693 -0.7004 -2.0474 -2.0444
14608TIP3   OH265238   0.275   6.488  14.215 -0.6824  0.0968 -0.4523
14608TIP3    H165239   0.180   6.484  14.227 -0.7099 -0.0813 -0.7059
14608TIP3    H265240   0.308   6.534  14.292 -0.8630 -0.8244  0.1907
14609TIP3   OH265241   6.663   0.831  15.728  0.4111 -0.0224  1.1337
14609TIP3    H165242   6.592   0.890  15.754  0.1478  0.4505 -0.5301
14609TIP3    H265243   6.694   0.866  15.645  1.2196 -1.4211  0.8143
14610TIP3   OH265244   5.278   6.051   1.322  0.2269 -0.1902 -0.2055
14610TIP3    H165245   5.227   6.109   1.265 -0.0045  0.5646  0.7379
14610TIP3    H265246   5.231   5.968   1.318 -0.9661  0.4188  0.4521
14611TIP3   OH265247   1.730   4.340  14.389 -0.1576  0.5736 -0.1617
14611TIP3    H165248   1.668   4.267  14.379 -0.3673  0.6956  0.2318
14611TIP3    H265249   1.677   4.418  14.374 -0.3302  0.7320  1.1645
14612TIP3   OH265250   6.781   1.131  14.969 -0.7379 -0.4678  0.2697
14612TIP3    H165251   6.709   1.184  14.934 -0.5994  0.7410  1.6949
14612TIP3    H265252   6.740   1.048  14.993 -1.0866 -0.8265 -1.4307
14613TIP3   OH265253   5.651   1.187   5.435  0.2854 -0.0461 -0.3926
14613TIP3    H165254   5.602   1.262   5.400  0.1695 -0.0377 -0.2117
14613TIP3    H265255   5.664   1.130   5.359  1.1718  0.5758 -0.7344
14614TIP3   OH265256   0.847   1.214  11.248  0.1874  0.2710  0.3333
14614TIP3    H165257   0.781   1.271  11.287  0.5179  0.2972  0.8667
14614TIP3    H265258   0.910   1.275  11.209 -0.2818  0.2397 -0.4760
14615TIP3   OH265259   2.489   6.732  12.811 -0.0108  0.0509  0.0949
14615TIP3    H165260   2.473   6.683  12.730  2.0301 -1.5766  0.5678
14615TIP3    H265261   2.471   6.669  12.881 -1.5692  1.3866  0.9340
14616TIP3   OH265262   3.318   6.229  15.282 -0.6654 -0.1136 -0.0863
14616TIP3    H165263   3.307   6.260  15.372 -3.6820  1.8911 -1.0059
14616TIP3    H265264   3.347   6.306  15.233  0.3281 -1.0232 -0.9889
14617TIP3   OH265265   5.992   5.173   1.733  0.0680 -0.2788 -0.2946
14617TIP3    H165266   6.070   5.184   1.680  0.1226  2.6108  0.2166
14617TIP3    H265267   6.009   5.223   1.812 -1.7558 -0.7547  0.4647
14618TIP3   OH265268   1.327   3.764   5.939  0.3536  0.0804  0.1990
14618TIP3    H165269   1.341   3.767   6.034  2.6699  0.6025 -0.1117
14618TIP3    H265270   1.378   3.838   5.904  0.8417 -1.0355 -1.5819
14619TIP3   OH265271   2.812   3.697  11.309  0.6089 -0.3344  0.1722
14619TIP3    H165272   2.790   3.748  11.387 -1.3748  0.9533 -1.1512
14619TIP3    H265273   2.871   3.753  11.259 -0.2107 -0.0327 -0.4750
14620TIP3   OH265274   1.513   3.819  16.438  0.1438  0.1517  1.0744
14620TIP3    H165275   1.517   3.798  16.345  0.9236  0.3723  1.0480
14620TIP3    H265276   1.434   3.775  16.470  0.3804 -0.6965  0.5068
14621TIP3   OH265277   4.357   2.678   1.119  0.3127 -0.0239 -0.2262
14621TIP3    H165278   4.391   2.688   1.208 -0.5834 -0.8297  0.2210
14621TIP3    H265279   4.268   2.712   1.123 -0.4418 -1.8729 -0.2892
14622TIP3   OH265280   0.539   6.503   4.011  0.7614  0.1684 -0.4062
14622TIP3    H165281   0.558   6.480   4.102 -0.4552 -0.7176 -0.3592
14622TIP3    H265282   0.573   6.430   3.960 -1.0017 -0.6697 -0.4382
14623TIP3   OH265283   1.418   2.153   3.534  0.6501  0.3579  0.0046
14623TIP3    H165284   1.434   2.234   3.485  2.5350 -0.1302 -0.3077
14623TIP3    H265285   1.489   2.150   3.599  2.4759 -2.3551 -1.8636
14624TIP3   OH265286   0.970   5.172   5.233  0.2541 -0.3477 -0.2168
14624TIP3    H165287   0.910   5.113   5.278 -0.0564  1.3647  1.7387
14624TIP3    H265288   1.057   5.133   5.245  0.2566  0.3486  2.4474
14625TIP3   OH265289   2.207   2.819  13.114 -0.2738 -0.3853 -0.1916
14625TIP3    H165290   2.200   2.764  13.035 -1.2671 -1.0150  0.3127
14625TIP3    H265291   2.122   2.808  13.158 -0.9665  2.4836 -0.6517
14626TIP3   OH265292   3.767   4.455   6.882  0.1642 -0.0683  0.2661
14626TIP3    H165293   3.862   4.456   6.881  0.3133 -2.8666  1.2625
14626TIP3    H265294   3.743   4.499   6.964  0.5518  0.8795 -0.1170
14627TIP3   OH265295   0.102   2.810   1.027 -0.1385 -0.2839 -0.2701
14627TIP3    H165296   0.142   2.887   0.987 -1.4106 -0.0740 -1.2064
14627TIP3    H265297   0.127   2.814   1.119  1.4330  0.1749 -0.6936
14628TIP3   OH265298   1.449   4.980   0.542  0.2570 -1.0805  0.1565
14628TIP3    H165299   1.403   5.061   0.563  1.4223 -0.0558 -1.0723
14628TIP3    H265300   1.450   4.931   0.624  0.2127  0.5007  1.1355
14629TIP3   OH265301   5.602   2.482  12.455 -0.1276  0.8693  0.0643
14629TIP3    H165302   5.639   2.396  12.475  1.0649  1.1295 -0.8854
14629TIP3    H265303   5.529   2.491  12.516  0.2467 -0.4536  0.7638
14630TIP3   OH265304   3.068   0.371   4.280  0.2166  0.0831 -0.4501
14630TIP3    H165305   3.105   0.319   4.210  0.0916 -0.0143 -0.4436
14630TIP3    H265306   3.097   0.328   4.360  0.4148  0.2322 -0.4385
14631TIP3   OH265307   6.772   6.133   5.853 -0.4176 -0.3145  0.1704
14631TIP3    H165308   6.719   6.075   5.908 -1.7950  1.7871  1.1765
14631TIP3    H265309   6.852   6.148   5.904 -1.4127  1.1100  1.4113
14632TIP3   OH265310   4.412   4.040   3.873  0.1203  0.4564 -0.1385
14632TIP3    H165311   4.485   4.049   3.811  1.1226 -2.7443  0.3556
14632TIP3    H265312   4.445   3.978   3.939 -2.9495 -0.9314  0.2375
14633TIP3   OH265313   2.056   5.894  11.890 -0.6014  0.2492  0.7155
14633TIP3    H165314   2.081   5.819  11.835 -2.1275  1.4301 -1.7628
14633TIP3    H265315   2.132   5.952  11.887 -1.1970  1.0240 -1.6247
14634TIP3   OH265316   6.661   5.515  14.363 -0.2065  0.0437  0.7316
14634TIP3    H165317   6.752   5.485  14.355 -0.4851 -0.4744 -0.7196
14634TIP3    H265318   6.625   5.460  14.434  0.6490  0.4038  1.4671
14635TIP3   OH265319   5.181   3.094  11.226 -0.1143 -0.0870  0.4702
14635TIP3    H165320   5.249   3.129  11.284  0.0179  1.0182 -0.3207
14635TIP3    H265321   5.168   3.163  11.161 -0.2731 -1.2954 -0.8066
14636TIP3   OH265322   0.625   4.570  14.803  0.2676 -0.4469 -0.3531
14636TIP3    H165323   0.539   4.530  14.814 -0.4360  1.6106  3.3878
14636TIP3    H265324   0.686   4.511  14.847  0.4031 -0.7708 -0.9677
14637TIP3   OH265325   5.889   3.395  12.027 -0.0753  0.2271  0.3361
14637TIP3    H165326   5.913   3.441  11.947  2.0642  1.2683  1.5057
14637TIP3    H265327   5.829   3.455  12.072  0.2249  0.4951  0.3847
14638TIP3   OH265328   0.329   0.389  13.282 -0.0837 -0.1179  0.0632
14638TIP3    H165329   0.279   0.378  13.201 -1.0001  0.3027  0.5552
14638TIP3    H265330   0.333   0.484  13.295  0.9869 -0.1379 -0.0435
14639TIP3   OH265331   3.287   3.045  12.419 -0.1694  0.2238  0.7756
14639TIP3    H165332   3.365   3.000  12.452 -0.2130  0.3568  1.0637
14639TIP3    H265333   3.222   2.976  12.408  0.3618 -0.0832 -0.6382
14640TIP3   OH265334   1.673   0.707  13.253 -0.5184  0.0526  0.2212
14640TIP3    H165335   1.636   0.762  13.322  1.7754  2.0223  0.0160
14640TIP3    H265336   1.615   0.720  13.178 -1.2481  0.4295  0.8421
14641TIP3   OH265337   2.163   1.319   5.705  0.0561  0.3869  0.6865
14641TIP3    H165338   2.186   1.383   5.638  1.4804  2.7172  3.1982
14641TIP3    H265339   2.245   1.301   5.751 -1.1119  0.2138  2.8397
14642TIP3   OH265340   5.136   6.330  12.098 -0.0604 -0.2722 -0.1835
14642TIP3    H165341   5.180   6.389  12.037  1.0246  0.1181  0.9235
14642TIP3    H265342   5.087   6.387  12.157 -4.0130 -0.7601 -2.6834
14643TIP3   OH265343   5.580   5.731   4.869 -0.1692 -0.0091 -0.4972
14643TIP3    H165344   5.646   5.775   4.815 -0.4933  0.7327 -0.3072
14643TIP3    H265345   5.622   5.650   4.898  1.2880  1.2349  1.0076
14644TIP3   OH265346   2.455   0.610  13.848  0.0480 -0.0715 -0.4860
14644TIP3    H165347   2.530   0.656  13.887 -0.3599  0.7786 -0.6929
14644TIP3    H265348   2.479   0.599  13.756 -0.4100  0.8920 -0.7227
14645TIP3   OH265349   4.799   0.622  13.193  0.8472  0.0109 -0.3758
14645TIP3    H165350   4.865   0.618  13.124  0.5322  0.7902 -0.7420
14645TIP3    H265351   4.777   0.715  13.200  1.3949  0.0540  1.2989
14646TIP3   OH265352   5.951   4.663   2.974 -0.3380 -0.0307  0.0103
14646TIP3    H165353   5.860   4.693   2.988 -0.7096 -1.5581  1.1124
14646TIP3    H265354   5.944   4.568   2.970  1.1640 -0.1324 -0.5117
14647TIP3   OH265355   0.526   2.451   1.621  0.6378 -0.4484 -0.3811
14647TIP3    H165356   0.498   2.370   1.663  0.2082 -0.5148 -0.7928
14647TIP3    H265357   0.535   2.429   1.528 -0.9641  0.3463 -0.7513
14648TIP3   OH265358   1.857   1.751  17.041  0.2741 -0.1685 -0.3117
14648TIP3    H165359   1.890   1.672  17.084  1.5235  0.8718  0.7484
14648TIP3    H265360   1.779   1.722  16.994  0.6869 -2.0172  0.0572
14649TIP3   OH265361   6.235   3.244  10.530 -0.4388 -0.2122  0.0084
14649TIP3    H165362   6.277   3.164  10.561 -0.1536  0.1143  0.4720
14649TIP3    H265363   6.141   3.223  10.533 -0.3305 -0.9434 -1.0395
14650TIP3   OH265364   3.417   5.918   6.192 -0.1202  0.2329  0.1117
14650TIP3    H165365   3.373   5.992   6.233  1.4912  0.1546  2.1393
14650TIP3    H265366   3.388   5.842   6.243  0.0120 -0.2271 -0.4861
14651TIP3   OH265367   2.472   4.947   3.086 -0.0773  0.0249  0.7106
14651TIP3    H165368   2.459   4.979   2.996 -0.3691  0.0675  0.7667
14651TIP3    H265369   2.407   4.877   3.095  1.2825 -1.3540  0.2116
14652TIP3   OH265370   4.826   3.809   6.259  0.1896  0.0180 -0.3210
14652TIP3    H165371   4.797   3.720   6.243 -0.2181  0.0604  0.1466
14652TIP3    H265372   4.756   3.848   6.312 -0.0723  0.8930 -1.2761
14653TIP3   OH265373   4.271   4.326  11.783 -0.8726 -0.4189  0.2323
14653TIP3    H165374   4.293   4.307  11.875 -0.5102 -0.2268  0.1895
14653TIP3    H265375   4.353   4.309  11.736 -1.1707 -0.9093 -0.1106
14654TIP3   OH265376   5.970   4.705   0.735  0.4805  0.6606 -0.4040
14654TIP3    H165377   5.881   4.731   0.759  0.3490  0.6365 -0.8485
14654TIP3    H265378   6.016   4.787   0.718 -0.1230  0.6288 -2.4695
14655TIP3   OH265379   4.577   3.078  14.314  0.1214  0.7142  0.2498
14655TIP3    H165380   4.635   3.115  14.248 -0.5351  0.7904 -0.3007
14655TIP3    H265381   4.500   3.136  14.314 -0.8606 -0.5294 -0.5216
14656TIP3   OH265382   3.742   4.832  11.410  0.1779  0.3927 -0.0973
14656TIP3    H165383   3.792   4.754  11.385 -2.4446 -0.9458 -1.6662
14656TIP3    H265384   3.782   4.904  11.361  0.7396 -0.5707 -1.0994
14657TIP3   OH265385   1.801   4.803   1.304  0.2813 -0.4122 -0.0744
14657TIP3    H165386   1.770   4.721   1.342 -1.0575  0.0466 -0.1209
14657TIP3    H265387   1.826   4.780   1.214 -1.1064 -0.5785 -0.4363
14658TIP3   OH265388   4.813   2.476  16.595  0.1197 -0.5422  0.3977
14658TIP3    H165389   4.772   2.491  16.680 -0.4482  0.0216  0.0403
14658TIP3    H265390   4.867   2.554  16.580  2.0773 -1.6662  1.2564
14659TIP3   OH265391   0.664   3.282  10.967  0.3449  1.0520 -0.3454
14659TIP3    H165392   0.641   3.324  10.883 -0.5250 -0.7296 -1.0385
14659TIP3    H265393   0.581   3.254  11.003  0.9597 -1.1995 -0.5408
14660TIP3   OH265394   1.730   0.120   4.625  0.1051  0.1620 -0.0247
14660TIP3    H165395   1.783   0.063   4.571  1.4378  0.2951  1.0986
14660TIP3    H265396   1.741   0.207   4.587  1.1210  0.2728  0.5028
14661TIP3   OH265397   5.838   4.804   3.734 -0.0929 -0.2960 -0.6741
14661TIP3    H165398   5.810   4.752   3.809  0.3629  0.8134  0.2802
14661TIP3    H265399   5.933   4.789   3.729  0.0656  0.5351 -0.3049
14662TIP3   OH265400   5.180   3.244  14.005 -0.3574 -0.1019  0.0105
14662TIP3    H165401   5.270   3.220  13.980 -0.1276  0.5673  0.1705
14662TIP3    H265402   5.144   3.164  14.043 -0.3675 -0.8402 -1.4993
14663TIP3   OH265403   3.162   6.046  15.470  1.0232  0.5399  0.2773
14663TIP3    H165404   3.072   6.016  15.457  0.8818  0.8192  0.5792
14663TIP3    H265405   3.214   5.992  15.412  0.7770 -0.2944  0.8213
14664TIP3   OH265406   1.654   5.040   2.728 -0.4578  0.0620  0.2737
14664TIP3    H165407   1.657   4.955   2.685 -1.2787 -0.5057  1.2893
14664TIP3    H265408   1.562   5.067   2.721 -0.3866  0.4401  0.7563
14665TIP3   OH265409   6.313   6.287  10.391 -0.1204  0.0391 -0.0383
14665TIP3    H165410   6.255   6.338  10.446  0.7633  1.5071 -0.4137
14665TIP3    H265411   6.356   6.226  10.451  0.3794  1.2063  0.8286
14666TIP3   OH265412   5.487   5.064  12.102 -0.4669  0.2874 -0.2080
14666TIP3    H165413   5.483   4.978  12.059  1.3142  0.5491 -0.9972
14666TIP3    H265414   5.447   5.124  12.039 -1.8050  0.0565  0.3862
14667TIP3   OH265415   3.055   2.126  12.773  0.8460  0.1557  0.0997
14667TIP3    H165416   3.020   2.134  12.684  1.0140 -1.4491 -0.1358
14667TIP3    H265417   3.091   2.038  12.777  0.2556 -0.0470  1.9653
14668TIP3   OH265418   2.837   6.502   1.185 -0.4804  0.2065 -0.2734
14668TIP3    H165419   2.929   6.524   1.168 -0.1413 -0.3520  0.7687
14668TIP3    H265420   2.805   6.573   1.241  0.2214 -1.1404  1.9379
14669TIP3   OH265421   3.804   3.614   5.450  0.1709  0.5122  0.4337
14669TIP3    H165422   3.894   3.638   5.473 -0.0539 -0.8169  3.1306
14669TIP3    H265423   3.750   3.677   5.497 -0.3068 -0.7774  1.6770
14670TIP3   OH265424   2.106   0.666   5.727 -0.4170  0.5871 -0.6735
14670TIP3    H165425   2.080   0.603   5.794  1.0876  0.6849  0.0589
14670TIP3    H265426   2.035   0.665   5.664 -0.2209 -2.2860 -1.0018
14671TIP3   OH265427   2.094   5.379   1.327  0.8135 -0.9205  0.0323
14671TIP3    H165428   2.086   5.456   1.384 -2.8135 -0.9199 -0.2547
14671TIP3    H265429   2.090   5.305   1.387  0.2229 -0.8978  0.0245
14672TIP3   OH265430   2.653   3.063  15.713 -0.1475  0.5788 -0.2870
14672TIP3    H165431   2.600   3.055  15.634  0.5808  0.5464 -0.7788
14672TIP3    H265432   2.608   3.130  15.765  0.0593  1.5399 -1.3061
14673TIP3   OH265433   0.277   4.205  16.342 -0.4781 -0.1841 -0.2375
14673TIP3    H165434   0.254   4.245  16.259 -0.0276 -0.3691 -0.4543
14673TIP3    H265435   0.317   4.121  16.319 -2.9685 -1.6207  0.2501
14674TIP3   OH265436   2.657   4.166  17.073 -0.0284 -0.3683 -0.4106
14674TIP3    H165437   2.681   4.185  16.982  4.2322  0.9408  0.7641
14674TIP3    H265438   2.592   4.233  17.095 -0.4256 -0.1118 -2.2004
14675TIP3   OH265439   6.192   3.628   2.172 -0.3351  0.5447  0.1401
14675TIP3    H165440   6.279   3.589   2.166 -0.6163 -0.2082  0.7284
14675TIP3    H265441   6.161   3.605   2.260 -1.3422  0.3315 -0.2518
14676TIP3   OH265442   1.041   6.639   5.056  0.5782 -0.0050  0.4262
14676TIP3    H165443   1.031   6.696   4.980 -0.0560 -2.3589 -1.3780
14676TIP3    H265444   1.100   6.687   5.114  0.8497  2.0342 -1.3817
14677TIP3   OH265445   0.784   3.381  13.312 -0.4180  0.6810 -0.5716
14677TIP3    H165446   0.705   3.431  13.332 -1.2711 -0.6545 -0.5053
14677TIP3    H265447   0.765   3.340  13.228  0.7611  1.4139 -1.2284
14678TIP3   OH265448   5.822   0.627   6.277  0.0230  0.2952 -0.0670
14678TIP3    H165449   5.820   0.536   6.305  0.6924  0.6400  1.1518
14678TIP3    H265450   5.912   0.655   6.292 -0.4909  1.5359  0.8273
14679TIP3   OH265451   5.050   1.562  15.622  0.0370  0.0826 -0.0385
14679TIP3    H165452   4.990   1.634  15.644  0.6475  0.7637 -0.5562
14679TIP3    H265453   5.133   1.587  15.662  0.4125 -0.0498 -0.7334
14680TIP3   OH265454   0.142   2.218  16.208  0.3468 -0.2752  0.0904
14680TIP3    H165455   0.226   2.231  16.252  1.3509  0.1139 -1.8094
14680TIP3    H265456   0.153   2.260  16.123 -2.0222  0.3677  0.0180
14681TIP3   OH265457   0.279   4.493  12.162 -0.2340  0.2316 -0.0186
14681TIP3    H165458   0.325   4.476  12.080 -0.2246 -1.1459  0.2484
14681TIP3    H265459   0.340   4.545  12.214  1.4055 -2.1056  0.5956
14682TIP3   OH265460   3.837   1.369   0.678 -0.1255 -0.5373 -0.5133
14682TIP3    H165461   3.801   1.330   0.758 -1.0901  4.1000  1.6435
14682TIP3    H265462   3.761   1.383   0.622 -0.3850  1.3143  0.2586
14683TIP3   OH265463   5.562   1.696  12.484 -0.1503  0.3950 -0.1253
14683TIP3    H165464   5.640   1.719  12.434  1.3667 -1.0874  1.4201
14683TIP3    H265465   5.591   1.692  12.575 -2.6308  2.2332  0.8683
14684TIP3   OH265466   5.036   0.489  12.664 -0.0270  0.1605 -0.3956
14684TIP3    H165467   5.050   0.452  12.751  0.2392  0.9245 -0.1026
14684TIP3    H265468   5.029   0.583  12.679 -1.5963  0.1797 -0.9998
14685TIP3   OH265469   0.351   3.175   2.772 -0.3159 -0.2542 -0.4270
14685TIP3    H165470   0.275   3.233   2.781  0.9520  1.1640  2.2735
14685TIP3    H265471   0.426   3.232   2.785  1.1806 -1.9160 -1.3769
14686TIP3   OH265472   5.465   0.890   3.590  0.7041 -0.0268 -0.0273
14686TIP3    H165473   5.480   0.813   3.645 -2.1411 -0.4517  0.2916
14686TIP3    H265474   5.483   0.860   3.501 -1.0375 -1.3305  0.0155
14687TIP3   OH265475   3.067   6.348  12.233 -0.7347 -0.6054 -0.4147
14687TIP3    H165476   2.975   6.331  12.215 -0.8175  0.6971 -1.4381
14687TIP3    H265477   3.114   6.298  12.166 -0.6489 -1.8508  0.5609
14688TIP3   OH265478   3.926   6.342   3.565  0.3727 -0.1067 -0.2224
14688TIP3    H165479   4.002   6.352   3.621  1.6351 -0.1447 -1.8584
14688TIP3    H265480   3.861   6.402   3.602  2.0838  1.9059 -0.2558
14689TIP3   OH265481   3.162   2.435  13.834 -0.1711 -0.1249 -0.0524
14689TIP3    H165482   3.085   2.425  13.778 -1.3562  0.4060  1.4035
14689TIP3    H265483   3.194   2.522  13.815 -0.9123  0.2755  0.4698
14690TIP3   OH265484   2.958   3.294   5.155  0.0862  0.2911  0.2514
14690TIP3    H165485   2.879   3.262   5.112  1.9904 -1.6166 -2.0969
14690TIP3    H265486   2.928   3.320   5.242 -2.8654 -1.7313  0.0099
14691TIP3   OH265487   6.058   0.664  14.286  0.5332  0.2598  0.3171
14691TIP3    H165488   6.120   0.592  14.298 -0.9203 -1.0111  0.4702
14691TIP3    H265489   6.056   0.678  14.191 -2.9310 -3.5365 -0.4684
14692TIP3   OH265490   2.424   5.001  15.068 -0.1152 -0.0186  0.1330
14692TIP3    H165491   2.503   5.027  15.114  1.3926 -0.5979 -1.9812
14692TIP3    H265492   2.409   4.910  15.094 -0.4667  0.2636  0.9707
14693TIP3   OH265493   6.462   2.391  13.664 -0.3093 -0.3417  0.4694
14693TIP3    H165494   6.436   2.337  13.739  1.3056 -2.6750 -0.5024
14693TIP3    H265495   6.555   2.409  13.679  0.2320 -1.4588 -1.2219
14694TIP3   OH265496   3.676   0.452   4.939  0.6479 -0.1225  0.4394
14694TIP3    H165497   3.586   0.421   4.945 -0.0315  1.6607  0.2775
14694TIP3    H265498   3.695   0.455   4.845  0.1058  1.4009  0.3382
14695TIP3   OH265499   0.162   2.697  13.092  0.0128 -0.1027  0.3373
14695TIP3    H165500   0.141   2.757  13.021  1.5519 -1.5910 -1.4937
14695TIP3    H265501   0.080   2.652  13.111 -0.1420 -0.7354 -1.6207
14696TIP3   OH265502   6.349   2.597  14.465 -0.7619  0.8446 -0.2126
14696TIP3    H165503   6.356   2.590  14.560 -2.5903 -2.2699 -0.1865
14696TIP3    H265504   6.295   2.523  14.438 -0.2770  1.5480 -3.7355
14697TIP3   OH265505   5.096   0.455   1.288 -0.0496  0.1957 -0.0802
14697TIP3    H165506   5.072   0.373   1.331 -1.5950  0.1080 -1.0379
14697TIP3    H265507   5.144   0.428   1.210 -1.6664  0.0739 -1.0966
14698TIP3   OH265508   2.757   5.538  14.316  0.2500  0.4783  0.2149
14698TIP3    H165509   2.667   5.560  14.292  1.1114  1.2523 -2.7786
14698TIP3    H265510   2.794   5.501  14.236  3.1478  2.0150  0.7231
14699TIP3   OH265511   3.078   2.246   4.141  0.0653 -0.2864  0.1663
14699TIP3    H165512   3.157   2.241   4.193  1.0940  0.2271 -1.2859
14699TIP3    H265513   3.049   2.155   4.131  0.5490 -0.4879  0.5829
14700TIP3   OH265514   2.150   3.720   6.526  0.2581 -0.5976  0.5144
14700TIP3    H165515   2.146   3.812   6.552 -1.5399 -0.7694  0.9821
14700TIP3    H265516   2.188   3.675   6.601  2.0557 -0.1420 -0.0830
14701TIP3   OH265517   2.504   2.383  16.618  0.3979 -0.0319  0.2386
14701TIP3    H165518   2.561   2.398  16.693 -0.0674  1.8082  0.2747
14701TIP3    H265519   2.422   2.351  16.657 -0.2201  1.9353  0.6828
14702TIP3   OH265520   2.784   4.832   2.030 -0.5256 -0.4052  0.0174
14702TIP3    H165521   2.841   4.765   2.069  1.3740  1.2196  0.1575
14702TIP3    H265522   2.714   4.843   2.094 -0.3089 -1.5211  0.4771
14703TIP3   OH265523   6.364   5.934  15.094  0.2278 -0.4386 -0.4085
14703TIP3    H165524   6.391   6.025  15.106  0.8643 -0.8874  2.0916
14703TIP3    H265525   6.436   5.882  15.131 -0.1769 -1.9793 -1.6515
14704TIP3   OH265526   0.505   4.381  17.098 -0.3263  0.4978  0.7596
14704TIP3    H165527   0.572   4.432  17.144 -0.3744  1.5528 -0.2794
14704TIP3    H265528   0.466   4.444  17.037 -0.3422 -0.8169 -0.6373
14705TIP3   OH265529   1.982   3.747   2.879 -0.4756 -1.0299  0.4379
14705TIP3    H165530   2.046   3.812   2.907 -0.8519 -0.7092  0.5684
14705TIP3    H265531   1.957   3.700   2.958 -1.2457 -0.3870  0.5926
14706TIP3   OH265532   5.623   5.800   5.149 -0.3832  0.3050  0.0219
14706TIP3    H165533   5.648   5.760   5.066 -0.3866 -1.3353  0.7815
14706TIP3    H265534   5.534   5.768   5.166 -0.1053  0.0245  1.0095
14707TIP3   OH265535   2.726   3.291  15.160  0.1302 -0.2884  0.2919
14707TIP3    H165536   2.754   3.382  15.149 -1.6253  0.2546 -0.0963
14707TIP3    H265537   2.772   3.242  15.092  1.1864  0.2834  0.5887
14708TIP3   OH265538   3.921   5.287  12.104 -0.0924 -0.2084 -0.2707
14708TIP3    H165539   3.886   5.311  12.018 -0.9797 -0.6696 -0.0546
14708TIP3    H265540   3.844   5.280  12.160  0.5633  1.1885  0.8682
14709TIP3   OH265541   0.366   4.166   2.245 -0.0046 -0.0920 -0.1459
14709TIP3    H165542   0.296   4.213   2.290  1.5502  1.9351  0.3452
14709TIP3    H265543   0.433   4.154   2.313  1.5279  1.1709 -1.3474
14710TIP3   OH265544   2.184   4.405  14.468  0.3627  0.5516 -0.1743
14710TIP3    H165545   2.144   4.395  14.554  0.5657  0.3338 -0.1039
14710TIP3    H265546   2.251   4.473  14.481 -0.8473  1.8569 -0.5945
14711TIP3   OH265547   3.419   4.874   3.334  0.1718  0.4636 -0.0401
14711TIP3    H165548   3.369   4.872   3.416 -0.2454 -2.6176 -0.2332
14711TIP3    H265549   3.384   4.949   3.286 -2.0662  0.2827  1.1823
14712TIP3   OH265550   4.480   0.957  11.945  0.8664  0.4530  0.1595
14712TIP3    H165551   4.527   1.009  12.009  1.1807  1.6855 -1.0168
14712TIP3    H265552   4.420   1.019  11.903  1.5950  0.0331 -1.6201
14713TIP3   OH265553   0.616   1.724   1.964  0.0394  0.3222  0.5643
14713TIP3    H165554   0.689   1.761   2.013  0.1035 -0.3945  1.0242
14713TIP3    H265555   0.646   1.723   1.873  1.9597 -2.9294  1.0855
14714TIP3   OH265556   3.553   2.120   0.272  0.0478  0.2547 -0.2811
14714TIP3    H165557   3.644   2.093   0.279  0.3924  0.9529 -1.7005
14714TIP3    H265558   3.508   2.071   0.340  1.4292 -0.3261  0.2450
14715TIP3   OH265559   0.210   4.801  12.151  0.2033 -0.1368  0.1757
14715TIP3    H165560   0.142   4.734  12.140  0.2128 -0.3196  1.1829
14715TIP3    H265561   0.272   4.762  12.211  1.7193 -0.3467 -1.4398
14716TIP3   OH265562   2.173   5.701   0.673  0.0630 -0.2239 -0.1555
14716TIP3    H165563   2.178   5.619   0.722  1.3218 -0.4655 -0.6436
14716TIP3    H265564   2.177   5.674   0.581 -0.9911  0.3078 -0.3750
14717TIP3   OH265565   2.454   2.319  12.197  0.0383 -0.2537  0.0242
14717TIP3    H165566   2.444   2.225  12.208  0.0675 -0.1032  1.6427
14717TIP3    H265567   2.366   2.350  12.172 -0.5182 -0.4980  1.5204
14718TIP3   OH265568   0.832   5.437  16.034  0.1889 -0.1670 -0.5117
14718TIP3    H165569   0.810   5.528  16.052 -0.2046 -0.4260  0.3732
14718TIP3    H265570   0.798   5.422  15.945 -0.1153  0.4333 -0.5044
14719TIP3   OH265571   1.238   4.238  13.704 -0.3750 -0.4441  0.6588
14719TIP3    H165572   1.287   4.319  13.719  1.0387 -1.3681  1.1655
14719TIP3    H265573   1.304   4.169  13.705 -1.5411 -1.6124  0.1379
14720TIP3   OH265574   2.186   1.492  15.050  0.3804  0.5769  0.2490
14720TIP3    H165575   2.279   1.473  15.035  0.3896  0.5887  0.2886
14720TIP3    H265576   2.163   1.438  15.126  0.0109 -0.4513 -0.5596
14721TIP3   OH265577   6.233   2.483  13.081  0.1006 -0.2509  0.4817
14721TIP3    H165578   6.301   2.498  13.147 -1.4676 -0.3812  2.2137
14721TIP3    H265579   6.214   2.390  13.086  1.3031 -0.6596 -1.5968
14722TIP3   OH265580   6.656   1.067  16.067  0.3443  0.3728  0.3469
14722TIP3    H165581   6.567   1.034  16.053  0.4604  0.2899 -0.2336
14722TIP3    H265582   6.712   1.005  16.021  0.6775  0.5954  0.4474
14723TIP3   OH265583   0.738   0.972   3.282 -0.0650 -0.4851 -0.0730
14723TIP3    H165584   0.816   0.962   3.226  0.4070 -0.6666  0.5990
14723TIP3    H265585   0.665   0.978   3.220  0.5488  0.4346 -0.7421
14724TIP3   OH265586   3.922   2.582   1.115 -0.1264 -0.0884  0.8840
14724TIP3    H165587   3.976   2.508   1.088 -1.4511 -0.3923 -1.1205
14724TIP3    H265588   3.875   2.552   1.193  1.3940 -0.3445  1.7403
14725TIP3   OH265589   3.836   2.197   1.484  0.6629 -0.4391  0.1210
14725TIP3    H165590   3.922   2.220   1.447  0.6867 -0.2709  0.2778
14725TIP3    H265591   3.855   2.170   1.573  0.4631  0.4135  0.4361
14726TIP3   OH265592   2.244   3.260   6.181 -0.1259 -0.3285 -0.2885
14726TIP3    H165593   2.169   3.303   6.223  0.0486 -1.8152  1.6926
14726TIP3    H265594   2.208   3.179   6.145  0.5093 -1.1534  0.8538
14727TIP3   OH265595   4.530   0.680  11.140 -0.3689  0.3971  0.1514
14727TIP3    H165596   4.468   0.661  11.210 -1.2694 -1.9793 -1.1367
14727TIP3    H265597   4.571   0.595  11.121 -0.0522  0.9695 -2.0517
14728TIP3   OH265598   4.632   6.217   2.538  0.2182 -0.4111  0.4019
14728TIP3    H165599   4.663   6.284   2.599  0.0485  0.4256 -0.3985
14728TIP3    H265600   4.598   6.148   2.594  1.1484 -0.1964  1.2618
14729TIP3   OH265601   3.687   2.309  11.761  0.2679  0.1034 -0.7251
14729TIP3    H165602   3.776   2.280  11.743  1.6635  2.7281  1.1273
14729TIP3    H265603   3.668   2.374  11.693  0.3610  0.5541 -0.3315
14730TIP3   OH265604   2.706   6.052  17.072  0.2483 -0.3277 -0.1182
14730TIP3    H165605   2.715   5.967  17.028 -0.9109 -1.1744  1.1944
14730TIP3    H265606   2.791   6.065  17.115  0.9280 -0.1214 -1.4746
14731TIP3   OH265607   2.110   4.942  14.243 -0.3911  0.1871 -0.3170
14731TIP3    H165608   2.024   4.974  14.269  0.0864  0.7292  0.6438
14731TIP3    H265609   2.162   4.944  14.323  0.0347 -1.8261 -0.4827
14732TIP3   OH265610   3.998   4.959   0.434  0.4674  0.0207  0.4646
14732TIP3    H165611   3.947   5.026   0.389  1.7067 -1.0618 -2.7996
14732TIP3    H265612   3.938   4.923   0.500 -2.4744 -0.0817 -2.0469
14733TIP3   OH265613   2.708   5.426   6.795 -0.5010 -0.6398  0.3047
14733TIP3    H165614   2.749   5.506   6.762 -0.2130 -0.9616 -0.1327
14733TIP3    H265615   2.649   5.456   6.864 -0.1117 -0.0888  0.4064
14734TIP3   OH265616   4.510   2.118   1.138 -0.1026 -0.1598 -0.3986
14734TIP3    H165617   4.524   2.211   1.122 -0.4461  0.1396  0.9709
14734TIP3    H265618   4.415   2.108   1.142 -0.0724 -0.6032 -0.6666
14735TIP3   OH265619   3.501   3.171   0.212 -0.1420  0.2699 -0.4065
14735TIP3    H165620   3.412   3.184   0.243  0.5607  1.2355  1.3327
14735TIP3    H265621   3.526   3.085   0.245 -0.8730 -0.6344 -2.1035
14736TIP3   OH265622   0.463   3.180   3.320  0.4732  0.4531 -0.4500
14736TIP3    H165623   0.512   3.101   3.296 -1.8840 -1.2038 -0.1721
14736TIP3    H265624   0.504   3.250   3.270  1.7999 -1.1858 -1.7790
14737TIP3   OH265625   5.577   2.723   4.335  0.0148  0.1305  0.2992
14737TIP3    H165626   5.489   2.686   4.329 -0.5180  1.5255 -1.1474
14737TIP3    H265627   5.634   2.647   4.349 -1.4782 -0.7134  2.4266
14738TIP3   OH265628   0.509   4.840   0.338  0.0605 -0.1689  0.4114
14738TIP3    H165629   0.421   4.873   0.320 -0.2109 -1.7160 -1.3302
14738TIP3    H265630   0.519   4.848   0.433 -1.7230  0.5429  0.5725
14739TIP3   OH265631   6.433   3.110   5.743  0.5861 -0.1047 -0.2366
14739TIP3    H165632   6.358   3.139   5.690  1.6714  1.3063 -1.0668
14739TIP3    H265633   6.502   3.092   5.680  1.3616 -0.1178  0.5954
14740TIP3   OH265634   5.145   3.358  13.378  0.5208 -0.8693 -0.0989
14740TIP3    H165635   5.224   3.361  13.323  0.1570 -1.5506 -0.6780
14740TIP3    H265636   5.116   3.267  13.373 -0.9550 -0.3855 -0.8119
14741TIP3   OH265637   4.949   1.771  16.110  0.4874 -0.1492  0.7368
14741TIP3    H165638   4.906   1.853  16.133  1.1462  0.9706 -1.7544
14741TIP3    H265639   5.031   1.773  16.159 -0.8158 -0.8601  3.1080
14742TIP3   OH265640   3.822   1.758   6.074  0.2378 -0.1288 -0.0154
14742TIP3    H165641   3.914   1.774   6.055  0.1644  0.2851 -0.0179
14742TIP3    H265642   3.817   1.663   6.086  1.1632  0.0820  2.6011
14743TIP3   OH265643   3.130   3.033  12.998  0.1737  0.5245 -0.2292
14743TIP3    H165644   3.067   2.966  12.970  0.9520 -0.1635 -0.3733
14743TIP3    H265645   3.081   3.115  12.996 -1.4956 -0.3030  2.1653
14744TIP3   OH265646   6.171   2.448   0.931  0.5469  0.5827  0.4393
14744TIP3    H165647   6.097   2.403   0.971  0.8561 -0.1593  0.1743
14744TIP3    H265648   6.243   2.437   0.994 -0.0986  3.2247  1.8179
14745TIP3   OH265649   5.261   6.465   3.633 -0.3592 -0.6513  0.8390
14745TIP3    H165650   5.177   6.497   3.600  0.4809  0.0299 -0.7328
14745TIP3    H265651   5.325   6.496   3.570  0.9651 -2.1171  1.3976
14746TIP3   OH265652   3.933   0.182  15.095  0.0083 -0.5796  0.4037
14746TIP3    H165653   3.885   0.122  15.153 -0.2147 -1.4081 -0.6124
14746TIP3    H265654   3.966   0.126  15.024  0.4839  0.3729 -0.1435
14747TIP3   OH265655   0.147   3.704   3.107  0.1285 -0.3661 -0.1758
14747TIP3    H165656   0.135   3.609   3.110 -1.0781 -0.2976 -1.5475
14747TIP3    H265657   0.226   3.720   3.159  0.4308 -2.1304 -0.0246
14748TIP3   OH265658   2.095   1.092  10.908 -0.0457 -0.5829  0.4959
14748TIP3    H165659   2.000   1.105  10.905 -0.1657 -1.5540 -0.5643
14748TIP3    H265660   2.124   1.143  10.984 -1.3046  0.3954  0.3480
14749TIP3   OH265661   0.078   6.754  11.417  0.7135  0.7202  0.0782
14749TIP3    H165662   0.032   6.832  11.447  0.0910  0.6218 -0.5963
14749TIP3    H265663   0.146   6.787  11.358  0.9328  0.8048  0.3792
14750TIP3   OH265664   6.563   4.384   1.465 -0.2565  0.3857 -0.8177
14750TIP3    H165665   6.507   4.431   1.527  1.4176  0.0041  1.0509
14750TIP3    H265666   6.645   4.433   1.465  0.1233 -0.2273 -1.9784
14751TIP3   OH265667   0.818   0.954  16.926  0.1227 -0.3001 -0.1612
14751TIP3    H165668   0.763   1.018  16.881  1.8947  1.2820 -0.2171
14751TIP3    H265669   0.803   0.971  17.019  1.5675  1.1947 -0.1503
14752TIP3   OH265670   0.622   1.512   0.453  0.1017 -0.2555  0.1140
14752TIP3    H165671   0.565   1.462   0.394 -0.1346 -2.9415  2.4128
14752TIP3    H265672   0.710   1.500   0.418 -0.2071 -0.3302 -0.6544
14753TIP3   OH265673   1.080   3.481   0.658 -0.2580 -0.0574  1.0558
14753TIP3    H165674   1.087   3.574   0.637 -1.0496 -0.1860  0.1756
14753TIP3    H265675   1.042   3.441   0.580 -0.5585 -1.0154  1.6699
14754TIP3   OH265676   3.694   6.607   4.463 -0.9814 -0.6725 -0.5686
14754TIP3    H165677   3.637   6.531   4.457 -0.7125 -0.9279  0.0794
14754TIP3    H265678   3.759   6.594   4.394  0.7678 -2.4848  1.2790
14755TIP3   OH265679   6.476   1.014  16.354  0.1528 -0.2234  0.5107
14755TIP3    H165680   6.544   0.948  16.344 -0.9091 -1.3004  0.0106
14755TIP3    H265681   6.419   0.979  16.423 -0.1635  0.4120  0.5786
14756TIP3   OH265682   3.187   4.318  11.329 -0.6026 -0.1028 -0.1257
14756TIP3    H165683   3.258   4.346  11.271  1.7636  0.9787  3.0313
14756TIP3    H265684   3.107   4.333  11.278  1.2071  1.6705 -2.6980
14757TIP3   OH265685   3.964   5.591  12.439 -0.6274 -0.7014 -0.4819
14757TIP3    H165686   3.905   5.537  12.386 -0.6494  0.2465 -1.4440
14757TIP3    H265687   4.052   5.568  12.408 -0.6119 -0.5074 -0.5817
14758TIP3   OH265688   4.634   5.212  14.607  0.7061 -0.0288  0.4656
14758TIP3    H165689   4.607   5.210  14.516 -1.0987 -0.3549  0.9601
14758TIP3    H265690   4.678   5.297  14.618  1.9811 -0.4741 -0.9376
14759TIP3   OH265691   5.403   4.250   6.138  0.5203 -0.2159  0.1058
14759TIP3    H165692   5.410   4.339   6.173  1.5820  0.1017 -0.8567
14759TIP3    H265693   5.381   4.263   6.045  1.0685 -0.9426 -0.1317
14760TIP3   OH265694   1.115   6.538  14.715  0.1636  0.1428  0.7108
14760TIP3    H165695   1.157   6.617  14.681 -0.7879  0.8737  1.1427
14760TIP3    H265696   1.184   6.492  14.763  1.1306 -0.1363 -0.9025
14761TIP3   OH265697   3.079   0.899  14.499  0.7626  0.6401  0.0343
14761TIP3    H165698   3.103   0.938  14.583 -0.4563  1.7861 -0.1047
14761TIP3    H265699   3.012   0.958  14.464 -1.5346 -1.8437 -0.0127
14762TIP3   OH265700   0.385   5.343  13.220 -0.0410  0.6466  0.1503
14762TIP3    H165701   0.308   5.301  13.181 -0.2004 -0.7417  1.8100
14762TIP3    H265702   0.431   5.271  13.264  0.7460  1.8978  1.4432
14763TIP3   OH265703   1.213   4.069   1.620 -0.1546 -0.1966  0.9074
14763TIP3    H165704   1.132   4.018   1.627  0.1115 -0.5943  1.1761
14763TIP3    H265705   1.280   4.012   1.658  0.2241  0.1897  0.8266
14764TIP3   OH265706   3.865   5.188  12.781  0.2109 -0.1521 -0.2988
14764TIP3    H165707   3.899   5.243  12.711 -0.5917  0.7307 -0.0160
14764TIP3    H265708   3.823   5.115  12.735  1.1067 -0.4440 -0.6788
14765TIP3   OH265709   5.996   5.621   1.588  0.3500  0.3553 -0.2694
14765TIP3    H165710   6.055   5.566   1.537  0.5505  0.4564 -0.1510
14765TIP3    H265711   5.925   5.563   1.615  0.6445  0.1185 -0.0066
14766TIP3   OH265712   5.489   5.128   3.503  0.2668 -0.7274  0.0682
14766TIP3    H165713   5.554   5.068   3.539  0.2229 -1.0321 -0.3537
14766TIP3    H265714   5.421   5.072   3.468 -0.2476 -0.4085  0.5344
14767TIP3   OH265715   6.085   2.254   5.426  0.0249  0.3371 -0.8280
14767TIP3    H165716   6.043   2.176   5.462 -0.3392  1.0924  0.4343
14767TIP3    H265717   6.130   2.223   5.347 -0.4281 -1.0611 -0.5576
14768TIP3   OH265718   3.457   3.901   0.032  0.0044  0.5248 -0.6086
14768TIP3    H165719   3.474   3.995   0.034 -0.7954  0.6624  0.6856
14768TIP3    H265720   3.425   3.880   0.120 -1.6101 -0.6025 -1.4063
14769TIP3   OH265721   0.170   2.239  16.650  0.4869 -0.2094 -0.0305
14769TIP3    H165722   0.132   2.260  16.564  1.5257  0.9346 -0.2501
14769TIP3    H265723   0.155   2.146  16.661 -1.4827  0.0072 -0.5293
14770TIP3   OH265724   4.658   3.528   5.204 -0.0678  0.6128 -0.1953
14770TIP3    H165725   4.640   3.622   5.203  2.3981  1.1564 -1.2383
14770TIP3    H265726   4.731   3.518   5.265 -0.7078 -0.7379  0.3942
14771TIP3   OH265727   0.865   3.500   0.049  0.5693 -0.2841 -0.3519
14771TIP3    H165728   0.914   3.573   0.087  2.2680 -0.3461 -2.2643
14771TIP3    H265729   0.775   3.531   0.045  1.5096  2.5027 -2.7545
14772TIP3   OH265730   4.439   4.230  16.627 -0.0352  0.3279 -0.5880
14772TIP3    H165731   4.438   4.143  16.586  1.8990  0.9376 -2.1159
14772TIP3    H265732   4.442   4.291  16.553  0.2816  1.6290  0.4651
14773TIP3   OH265733   6.412   2.970   3.484  0.1066 -0.1799  0.3796
14773TIP3    H165734   6.474   2.898   3.474 -2.1382 -2.2075  0.0331
14773TIP3    H265735   6.355   2.942   3.556 -1.5405  0.6581 -0.5466
14774TIP3   OH265736   4.426   3.823  16.145  0.3194  0.0350  0.3930
14774TIP3    H165737   4.513   3.786  16.152 -0.2895 -1.5056  0.2296
14774TIP3    H265738   4.377   3.783  16.217 -0.6885 -0.4671 -0.5354
14775TIP3   OH265739   0.441   4.359   6.411  0.3493  0.7074 -0.1497
14775TIP3    H165740   0.404   4.384   6.327 -0.7710 -0.8377 -0.1815
14775TIP3    H265741   0.498   4.284   6.391 -1.8147 -1.2900  0.6537
14776TIP3   OH265742   2.609   6.417  16.128  0.5889 -0.2900 -0.3834
14776TIP3    H165743   2.615   6.482  16.058 -2.4320  1.1624  0.5125
14776TIP3    H265744   2.586   6.336  16.084  2.1125 -0.2205 -1.3395
14777TIP3   OH265745   4.232   3.941  14.038 -0.5128 -0.2551  0.2050
14777TIP3    H165746   4.267   4.009  13.980  4.2757  0.5271  3.4402
14777TIP3    H265747   4.262   3.859  13.999  0.9077  0.1130  0.4843
14778TIP3   OH265748   2.795   3.407   1.392  0.5634 -0.2769  0.3474
14778TIP3    H165749   2.749   3.471   1.446  0.5358  0.2005 -0.2303
14778TIP3    H265750   2.853   3.460   1.337 -0.2555 -0.6502 -0.9127
14779TIP3   OH265751   4.080   2.540   1.641  0.0903 -0.0042  0.7766
14779TIP3    H165752   4.045   2.513   1.726 -4.4984  0.3894 -0.7263
14779TIP3    H265753   4.101   2.632   1.651 -2.1074  0.5051  1.1174
14780TIP3   OH265754   1.166   3.424  14.872 -0.2110 -0.7361 -0.4711
14780TIP3    H165755   1.172   3.392  14.782 -0.4477 -0.3319 -0.6291
14780TIP3    H265756   1.096   3.371  14.911  0.0996 -1.1257 -0.4294
14781TIP3   OH265757   6.560   3.157  15.152 -0.3547 -0.6054 -0.1538
14781TIP3    H165758   6.501   3.108  15.093  0.0259  0.3354 -1.3665
14781TIP3    H265759   6.633   3.182  15.096  0.1953  0.0256  0.8285
14782TIP3   OH265760   0.495   5.806   0.064 -0.0132  0.0566 -0.1409
14782TIP3    H165761   0.463   5.757  -0.012  0.6140 -0.2358 -0.2197
14782TIP3    H265762   0.433   5.784   0.134 -0.1211 -0.3232 -0.3539
14783TIP3   OH265763   2.718   1.004   3.836  0.0633  0.1272  0.3188
14783TIP3    H165764   2.701   1.057   3.759 -0.0181 -0.8827 -0.3745
14783TIP3    H265765   2.690   1.059   3.910  2.3845  2.0935 -0.1318
14784TIP3   OH265766   2.973   0.690  11.615 -0.6273 -0.0852 -0.2201
14784TIP3    H165767   3.047   0.640  11.582  1.7497  2.6495  0.5989
14784TIP3    H265768   2.979   0.684  11.710 -0.9190  0.8819 -0.1264
14785TIP3   OH265769   3.619   1.266   3.091 -0.1885 -0.1724  0.4864
14785TIP3    H165770   3.643   1.181   3.054  2.3532  0.8786 -0.5233
14785TIP3    H265771   3.586   1.245   3.178  0.7565 -2.1941  0.4343
14786TIP3   OH265772   2.901   5.411   3.460 -1.2066 -0.7790 -0.0105
14786TIP3    H165773   2.890   5.329   3.411 -0.4553 -1.6281  1.1588
14786TIP3    H265774   2.830   5.467   3.430 -0.7405 -1.2319 -2.0643
14787TIP3   OH265775   0.080   5.088  12.821  0.2196 -0.2375 -0.0817
14787TIP3    H165776   0.036   5.064  12.902 -0.5272  0.5887 -0.2312
14787TIP3    H265777   0.041   5.172  12.797  1.2974  0.1115 -0.6529
14788TIP3   OH265778   3.314   2.456  16.474 -0.2044  0.1138  0.0108
14788TIP3    H165779   3.255   2.392  16.515  1.5751 -2.6324 -1.3833
14788TIP3    H265780   3.370   2.486  16.544 -1.5237  0.7620  0.8333
14789TIP3   OH265781   5.879   0.573   4.940 -0.9855  0.2538 -0.4371
14789TIP3    H165782   5.852   0.661   4.965 -1.2075  0.4361 -1.3091
14789TIP3    H265783   5.806   0.517   4.969 -0.4332  0.2157  0.9753
14790TIP3   OH265784   0.837   2.925  14.064 -0.6237 -0.1438 -0.2957
14790TIP3    H165785   0.879   2.961  14.142 -0.7960 -0.5360 -0.0215
14790TIP3    H265786   0.793   3.000  14.023  0.4787  0.3102 -0.6827
14791TIP3   OH265787   6.466   4.979   4.828 -0.0845  0.0663  0.3025
14791TIP3    H165788   6.468   4.904   4.888 -2.2605 -0.7163 -0.4813
14791TIP3    H265789   6.411   5.044   4.872 -0.3423  0.1363 -0.1132
14792TIP3   OH265790   1.253   3.600  15.219  0.4820  0.2584 -0.7710
14792TIP3    H165791   1.287   3.589  15.130  1.4813 -0.3068 -0.3386
14792TIP3    H265792   1.327   3.633  15.270 -0.6965  2.9169 -0.6016
14793TIP3   OH265793   6.603   0.338  16.882  0.0480 -0.1260 -0.0550
14793TIP3    H165794   6.627   0.375  16.967  1.2177 -0.8088 -0.0736
14793TIP3    H265795   6.521   0.291  16.898  1.0837 -1.6178  1.0917
14794TIP3   OH265796   0.042   6.675  13.575  0.3617 -0.5925 -0.0825
14794TIP3    H165797   0.118   6.733  13.570 -0.7360  0.8341 -1.1785
14794TIP3    H265798   0.053   6.614  13.501 -0.3361  0.6708 -1.2768
14795TIP3   OH265799   2.212   5.806   5.544 -0.4104 -0.2426  0.0366
14795TIP3    H165800   2.260   5.736   5.500 -1.3982 -0.8041 -0.1692
14795TIP3    H265801   2.121   5.794   5.516 -0.6978  0.7137  0.5295
14796TIP3   OH265802   0.020   6.493  15.990 -0.0047 -0.6654 -0.2643
14796TIP3    H165803  -0.015   6.552  16.058  0.5174 -1.1324  0.4284
14796TIP3    H265804  -0.023   6.521  15.910  1.0656  1.4207 -0.1797
14797TIP3   OH265805   2.570   4.362  16.332  0.3539  0.5341  0.0152
14797TIP3    H165806   2.617   4.442  16.355 -0.3725  0.8490  0.4362
14797TIP3    H265807   2.478   4.383  16.348  0.2931 -0.9744  1.9322
14798TIP3   OH265808   0.683   4.272  12.224 -0.2927  0.2272 -0.3203
14798TIP3    H165809   0.660   4.338  12.158 -2.6011 -0.0868  0.0918
14798TIP3    H265810   0.710   4.324  12.301 -0.9943  0.6771 -0.3684
14799TIP3   OH265811   2.018   0.023  15.212  0.2266  0.3260  0.3022
14799TIP3    H165812   1.927   0.046  15.191  0.6764  1.5275 -0.4304
14799TIP3    H265813   2.066   0.040  15.131  0.8142 -2.3026  0.0034
14800TIP3   OH265814   4.761   3.941  12.509  0.3978  0.0423 -0.2994
14800TIP3    H165815   4.772   3.910  12.599 -0.0006  2.1184  0.5214
14800TIP3    H265816   4.671   3.976  12.507 -0.0155 -1.0208 -1.8626
14801TIP3   OH265817   3.703   4.430   2.129 -0.2053  0.0239 -0.0298
14801TIP3    H165818   3.613   4.411   2.154  0.4242 -0.6844  1.9223
14801TIP3    H265819   3.754   4.356   2.164  1.0117 -0.2238 -2.1472
14802TIP3   OH265820   5.171   4.221   2.325  0.1892 -0.1259 -0.2519
14802TIP3    H165821   5.255   4.264   2.310 -0.7156  1.4114 -1.1613
14802TIP3    H265822   5.134   4.266   2.401 -1.2199  1.4855 -1.8318
14803TIP3   OH265823   1.066   6.055  16.065 -0.0738  0.2268  0.2763
14803TIP3    H165824   1.116   6.005  16.001 -1.2018  2.0921 -2.2282
14803TIP3    H265825   1.115   6.045  16.146  0.7865 -3.2306 -0.5137
14804TIP3   OH265826   2.402   2.201  11.781 -0.1479  0.4518  0.2813
14804TIP3    H165827   2.314   2.234  11.801 -0.3297  0.2550 -0.1811
14804TIP3    H265828   2.444   2.192  11.867 -0.8924 -0.3050  0.5778
14805TIP3   OH265829   5.772   6.771  16.474  0.2394 -0.5117 -0.4944
14805TIP3    H165830   5.781   6.754  16.380 -0.2199  2.8203 -1.2584
14805TIP3    H265831   5.859   6.755  16.509  0.5639 -1.2806 -1.5777
14806TIP3   OH265832   1.673   3.046   3.520 -0.6375 -0.5407 -0.2031
14806TIP3    H165833   1.678   3.005   3.606 -0.9464  0.2757  0.2121
14806TIP3    H265834   1.670   3.140   3.538 -0.6686 -0.3603 -1.1049
14807TIP3   OH265835   0.485   5.283  13.712  1.0549  0.1971  0.4218
14807TIP3    H165836   0.497   5.229  13.634  0.9795  1.5454 -0.5551
14807TIP3    H265837   0.399   5.258  13.746 -0.4954  1.9072 -1.8925
14808TIP3   OH265838   3.366   2.262   4.039 -0.2068  0.0262  0.4137
14808TIP3    H165839   3.407   2.264   3.953 -0.7232 -0.6691  0.1492
14808TIP3    H265840   3.391   2.178   4.076  0.9080  0.7603  1.3968
14809TIP3   OH265841   3.462   6.652  13.519 -0.1901  0.3842 -0.2189
14809TIP3    H165842   3.421   6.568  13.497  0.2072  0.0931  0.1603
14809TIP3    H265843   3.491   6.687  13.434  1.7742 -0.9612 -0.1650
14810TIP3   OH265844   2.813   0.992  12.247  0.5323 -0.5985 -0.1790
14810TIP3    H165845   2.747   1.023  12.308 -1.3669 -3.7152 -0.3799
14810TIP3    H265846   2.786   1.029  12.162 -1.0344 -1.7494 -0.2441
14811TIP3   OH265847   2.463   5.638   2.287  0.6376 -0.1336  0.0827
14811TIP3    H165848   2.537   5.579   2.277  1.2929  0.7790 -0.6510
14811TIP3    H265849   2.469   5.697   2.212  0.9708  1.9015  1.6415
14812TIP3   OH265850   0.071   6.432  12.843 -0.4521 -0.3045  0.4708
14812TIP3    H165851   0.090   6.340  12.825  0.9921 -0.0888  0.7743
14812TIP3    H265852   0.126   6.481  12.781 -1.1384  0.3605  0.3708
14813TIP3   OH265853   2.036   4.680   2.659 -0.4361 -0.0354 -0.5089
14813TIP3    H165854   2.043   4.586   2.674  0.9879  0.2252  0.6956
14813TIP3    H265855   2.029   4.689   2.564 -1.4551 -1.3822 -0.5837
14814TIP3   OH265856   4.269   4.175  14.982  0.6110 -0.0286 -0.3903
14814TIP3    H165857   4.277   4.208  14.893  1.0269  0.8612 -0.0317
14814TIP3    H265858   4.357   4.147  15.005  0.1065 -2.3181 -1.0136
14815TIP3   OH265859   6.259   2.129   1.243  0.2695 -0.3018  0.3047
14815TIP3    H165860   6.216   2.067   1.302 -0.7470 -0.3904 -0.5126
14815TIP3    H265861   6.227   2.106   1.156 -1.6200  2.5129  0.1343
14816TIP3   OH265862   1.212   2.572   0.798  0.4144 -0.2733 -0.2955
14816TIP3    H165863   1.225   2.649   0.744  1.8362 -0.6097 -0.4860
14816TIP3    H265864   1.240   2.499   0.743  0.7492 -0.7354  0.4615
14817TIP3   OH265865   3.060   0.618   5.700  0.0161 -0.1047  0.8711
14817TIP3    H165866   3.071   0.708   5.670 -0.2647 -0.0895  0.8097
14817TIP3    H265867   3.070   0.623   5.796  0.3317 -0.0628  0.8385
14818TIP3   OH265868   4.284   0.820  12.415 -0.6522  0.6732 -0.1669
14818TIP3    H165869   4.255   0.816  12.324  0.1824  2.2691 -0.5377
14818TIP3    H265870   4.248   0.902  12.449 -1.4050 -0.1484  1.1353
14819TIP3   OH265871   5.304   1.600   5.853 -0.5100  0.1605  0.2901
14819TIP3    H165872   5.331   1.524   5.801 -0.4378 -0.6441  1.4751
14819TIP3    H265873   5.212   1.613   5.831 -0.9759 -1.2708  1.2430
14820TIP3   OH265874   4.836   4.257   4.946  0.1929 -0.7230  0.3547
14820TIP3    H165875   4.800   4.346   4.948  0.6525 -0.5385  0.5802
14820TIP3    H265876   4.768   4.203   4.987  0.3312 -0.3176  1.1356
14821TIP3   OH265877   6.528   0.345   4.689 -0.0900  0.4203 -0.9314
14821TIP3    H165878   6.586   0.359   4.764 -2.2078 -0.9440  1.1327
14821TIP3    H265879   6.533   0.426   4.639  0.5321  1.8990  1.3701
14822TIP3   OH265880   3.200   5.259   6.668  0.3566 -0.3606 -0.4888
14822TIP3    H165881   3.246   5.292   6.745  0.5132 -2.0482  0.2020
14822TIP3    H265882   3.110   5.247   6.697  0.5204 -1.4670 -0.3812
14823TIP3   OH265883   1.786   5.377  14.728  0.3872 -0.4505  0.0499
14823TIP3    H165884   1.715   5.318  14.757  0.9897 -1.1370  0.1730
14823TIP3    H265885   1.757   5.409  14.643 -1.8887  2.3609  1.7027
14824TIP3   OH265886   2.352   6.599  16.480 -0.4149  0.0446 -0.3994
14824TIP3    H165887   2.315   6.685  16.459 -3.6770 -1.2422 -0.5323
14824TIP3    H265888   2.317   6.579  16.567  2.5841 -0.0857  0.9148
14825TIP3   OH265889   2.244   3.010  16.587 -0.6455  0.4285  0.1183
14825TIP3    H165890   2.210   3.029  16.500  0.6405  1.1322 -0.2621
14825TIP3    H265891   2.223   3.089  16.638  0.5300  0.9470 -0.1702
14826TIP3   OH265892   0.278   0.916  13.648  0.6929 -0.5753  0.2982
14826TIP3    H165893   0.362   0.885  13.684  0.7992  1.3108  1.8834
14826TIP3    H265894   0.302   0.960  13.566  1.5661  1.2746  1.4639
14827TIP3   OH265895   0.235   4.204   3.876 -0.2323 -0.7456 -0.0649
14827TIP3    H165896   0.191   4.276   3.833  1.2801  0.7087  0.6954
14827TIP3    H265897   0.264   4.147   3.805  1.3737  1.1023 -0.9902
14828TIP3   OH265898   5.333   6.682  13.591  0.1552 -1.0764  0.2144
14828TIP3    H165899   5.313   6.678  13.684  0.0074  0.0160  0.2394
14828TIP3    H265900   5.277   6.752  13.557  3.6559  2.0139  0.2446
14829TIP3   OH265901   0.577   4.178   1.737  0.0221  0.2140 -0.6646
14829TIP3    H165902   0.498   4.220   1.773  0.0876 -1.7364  2.1227
14829TIP3    H265903   0.591   4.102   1.794  2.3479 -1.0974 -2.8037
14830TIP3   OH265904   5.516   4.358  15.670  0.0804 -0.1255 -0.7948
14830TIP3    H165905   5.528   4.435  15.725  1.0995 -1.0663  0.3781
14830TIP3    H265906   5.533   4.284  15.729 -3.0437 -1.3631 -1.2744
14831TIP3   OH265907   1.749   4.408  11.500 -0.1881 -0.3531 -0.0020
14831TIP3    H165908   1.742   4.503  11.493  0.9423 -0.3868 -2.5356
14831TIP3    H265909   1.742   4.391  11.594  0.7919  2.3146  0.6514
14832TIP3   OH265910   5.188   1.284   5.807  0.3665  0.4189 -0.4310
14832TIP3    H165911   5.264   1.238   5.773 -0.3824 -0.6704 -0.6835
14832TIP3    H265912   5.129   1.214   5.837  1.0921  1.2457  3.4393
14833TIP3   OH265913   0.125   2.257  13.012  0.0767  0.0064  0.2413
14833TIP3    H165914   0.166   2.250  13.098  1.1504 -2.8504 -0.3670
14833TIP3    H265915   0.033   2.234  13.027 -0.1075  1.0886  0.8296
14834TIP3   OH265916   0.763   5.989   5.428  0.0081 -0.1076  0.2263
14834TIP3    H165917   0.695   6.050   5.399 -1.2784 -2.0965 -1.2316
14834TIP3    H265918   0.831   5.995   5.362  0.2233  0.2754  0.4820
14835TIP3   OH265919   0.430   1.261   0.659  0.3045  0.3903 -0.5695
14835TIP3    H165920   0.522   1.266   0.632  0.5505  0.0714  0.1785
14835TIP3    H265921   0.425   1.181   0.712 -0.0763  1.1856  0.6288
14836TIP3   OH265922   1.176   1.090   4.329  0.2666 -0.3408 -0.4735
14836TIP3    H165923   1.148   1.062   4.242 -0.9824  3.4778 -1.5217
14836TIP3    H265924   1.271   1.092   4.325  0.4365 -3.4084 -0.4753
14837TIP3   OH265925   4.068   6.537  11.044 -0.6455  0.1781  0.8203
14837TIP3    H165926   4.010   6.508  10.974  0.5284 -2.1321  0.7129
14837TIP3    H265927   4.022   6.515  11.124 -0.1682 -1.2501  0.7346
14838TIP3   OH265928   3.999   5.651  11.489  0.0369  0.2407 -0.3513
14838TIP3    H165929   4.093   5.635  11.497  0.0591 -0.7789 -2.2429
14838TIP3    H265930   3.992   5.723  11.427 -0.4371 -0.1215 -0.7212
14839TIP3   OH265931   6.269   0.953  16.819 -0.1163 -0.2103  0.1017
14839TIP3    H165932   6.228   0.873  16.852 -0.1522 -0.1582  0.1828
14839TIP3    H265933   6.362   0.932  16.816 -0.2824 -0.8478 -1.4840
14840TIP3   OH265934   0.092   0.725  14.579  0.2769  0.1161 -0.1380
14840TIP3    H165935   0.087   0.763  14.491  0.8654  2.2702  0.7091
14840TIP3    H265936   0.003   0.696  14.598 -0.2436  1.2847 -0.7429
14841TIP3   OH265937   1.683   3.617  11.497 -0.1459 -0.0899  0.0228
14841TIP3    H165938   1.634   3.551  11.547 -1.3336  0.4440 -0.3963
14841TIP3    H265939   1.616   3.676  11.463  0.6040 -0.3686 -2.1190
14842TIP3   OH265940   5.402   4.929  13.703 -0.6550  0.3612  0.1121
14842TIP3    H165941   5.426   4.868  13.633 -0.0673  0.5796  0.1205
14842TIP3    H265942   5.315   4.960  13.679 -0.3582  0.6174 -0.6501
14843TIP3   OH265943   2.533   1.227  13.452 -0.0037 -0.0405  0.3899
14843TIP3    H165944   2.482   1.308  13.462 -0.8744 -0.5406  0.1655
14843TIP3    H265945   2.589   1.244  13.376 -0.3720  0.2704  0.1787
14844TIP3   OH265946   1.169   4.203  12.664 -0.2183 -0.3002 -0.8088
14844TIP3    H165947   1.127   4.258  12.597 -3.1741 -1.2453  0.0955
14844TIP3    H265948   1.227   4.263  12.711 -0.7668  1.2139 -1.9710
14845TIP3   OH265949   6.536   1.948   1.472 -0.6718 -0.4175 -0.1865
14845TIP3    H165950   6.484   1.911   1.543 -1.1675  0.4796 -0.0650
14845TIP3    H265951   6.504   2.038   1.463  3.7872  1.8389  2.9276
14846TIP3   OH265952   1.851   1.109  14.082 -0.1755  0.3704  0.2689
14846TIP3    H165953   1.855   1.027  14.033 -0.4140 -0.9656  2.3870
14846TIP3    H265954   1.913   1.098  14.154 -1.4672  1.3338  1.5898
14847TIP3   OH265955   1.953   2.521   4.062  0.4178 -0.6512  0.5318
14847TIP3    H165956   1.942   2.518   4.157  0.0381 -0.6045  0.4926
14847TIP3    H265957   1.951   2.429   4.036 -0.6227 -0.6180  0.4524
14848TIP3   OH265958   0.967   1.318   2.355  0.1915  0.3823 -0.2421
14848TIP3    H165959   0.903   1.255   2.391  0.5517 -0.5828 -1.2284
14848TIP3    H265960   0.916   1.397   2.339 -0.4348  0.1105  0.3536
14849TIP3   OH265961   3.654   4.163   1.568 -0.1224 -0.3137  0.2068
14849TIP3    H165962   3.665   4.077   1.527 -0.3955 -0.9656  1.4408
14849TIP3    H265963   3.559   4.175   1.572 -0.0801  0.1456 -0.1631
14850TIP3   OH265964   1.378   5.551  11.209  0.2112  0.1861 -0.3121
14850TIP3    H165965   1.473   5.561  11.218 -0.0392  1.5661  1.3442
14850TIP3    H265966   1.367   5.465  11.167  2.1426 -0.9134  1.2238
14851TIP3   OH265967   3.381   1.993  15.359  0.1184 -0.5899  0.5532
14851TIP3    H165968   3.433   1.980  15.280  1.3282  2.8600  0.5956
14851TIP3    H265969   3.421   1.935  15.424  0.3480 -2.0460 -0.8541
14852TIP3   OH265970   0.850   3.809  14.401 -0.3876  0.1851  0.5503
14852TIP3    H165971   0.930   3.862  14.409  0.3837 -1.1337  2.3034
14852TIP3    H265972   0.868   3.749  14.329 -0.7325  1.3883 -0.5638
14853TIP3   OH265973   6.531   1.472  12.533 -0.0912  0.5497  0.4367
14853TIP3    H165974   6.598   1.461  12.465 -0.7023  0.5019 -0.1662
14853TIP3    H265975   6.497   1.383  12.548  0.7348  0.4000  1.5390
14854TIP3   OH265976   5.741   4.973  16.570  0.1711 -0.5034  0.5956
14854TIP3    H165977   5.785   4.992  16.487 -1.9998 -0.3614 -0.5961
14854TIP3    H265978   5.672   5.039  16.575 -1.2882 -2.0318  1.2925
14855TIP3   OH265979   1.624   5.242   5.911  0.4330  0.4805 -0.2661
14855TIP3    H165980   1.652   5.208   5.995  0.9141  0.3717 -0.4646
14855TIP3    H265981   1.561   5.311   5.932 -1.4608 -1.2806  0.1233
14856TIP3   OH265982   1.769   1.772   0.893  0.4210  0.5633 -0.5382
14856TIP3    H165983   1.749   1.725   0.813  1.2385  1.9175 -1.5826
14856TIP3    H265984   1.714   1.731   0.960 -0.5175 -0.3824 -1.8483
14857TIP3   OH265985   5.880   6.719  14.756 -0.4739 -0.4272 -0.2996
14857TIP3    H165986   5.915   6.757  14.837 -0.3005  0.1225 -0.6299
14857TIP3    H265987   5.892   6.625  14.767  0.1533 -0.3137  0.0371
14858TIP3   OH265988   0.771   0.911   3.831  0.7823 -0.2507  0.4067
14858TIP3    H165989   0.823   0.991   3.839  1.7750 -0.8269 -0.1664
14858TIP3    H265990   0.701   0.935   3.769  2.4933 -0.4910 -1.7466
14859TIP3   OH265991   2.234   4.499   5.797 -0.7436  0.4026 -0.1895
14859TIP3    H165992   2.227   4.465   5.886  0.6668 -1.9635 -0.8680
14859TIP3    H265993   2.144   4.497   5.763 -1.4016  2.0011  1.3366
14860TIP3   OH265994   0.328   5.297  16.044 -0.5315 -0.3006 -0.0964
14860TIP3    H165995   0.276   5.365  16.087 -0.0092 -0.7412  1.2646
14860TIP3    H265996   0.286   5.287  15.958 -2.3691 -0.2724  0.7359
14861TIP3   OH265997   2.106   0.257   0.175  0.1332 -0.5372  0.0234
14861TIP3    H165998   2.156   0.238   0.255 -0.2827 -0.6576  0.2551
14861TIP3    H265999   2.170   0.245   0.104  0.3361 -1.0693  0.2877
14862TIP3   OH266000   2.794   1.255   1.309  0.1397  0.2239 -0.5441
14862TIP3    H166001   2.878   1.285   1.272 -0.2243  1.5361 -0.3592
14862TIP3    H266002   2.818   1.181   1.364  0.9577 -0.4963 -1.8157
14863TIP3   OH266003   4.702   4.343   5.472  0.0764  0.4072  0.2667
14863TIP3    H166004   4.649   4.320   5.548 -0.2035 -3.3125 -0.8648
14863TIP3    H266005   4.649   4.406   5.424 -1.3489  0.0896  1.3614
14864TIP3   OH266006   2.239   5.185  11.308  0.4615 -0.0092 -0.7660
14864TIP3    H166007   2.244   5.226  11.394  0.8413  0.9933 -1.2510
14864TIP3    H266008   2.303   5.233  11.255 -1.1011  0.6611 -2.1231
14865TIP3   OH266009   1.932   3.512  11.450  0.7012  0.3702  0.1899
14865TIP3    H166010   1.972   3.508  11.537 -0.4766 -0.6272  0.7188
14865TIP3    H266011   1.839   3.527  11.467  0.1387 -1.6216 -0.7680
14866TIP3   OH266012   1.191   2.053  16.959  0.1426  0.3111 -0.2680
14866TIP3    H166013   1.101   2.059  16.925 -0.0391 -1.3025 -0.1644
14866TIP3    H266014   1.213   2.143  16.984 -1.8180  0.6044  0.6470
14867TIP3   OH266015   1.571   5.611   3.240  0.2258 -0.0196  0.0846
14867TIP3    H166016   1.628   5.682   3.210  0.3485 -0.2241 -0.1779
14867TIP3    H266017   1.583   5.542   3.174 -1.8871  0.6998 -1.1799
14868TIP3   OH266018   3.558   3.375  11.473  0.2946  0.0985  0.1877
14868TIP3    H166019   3.643   3.330  11.466 -0.7092 -1.8702 -0.1957
14868TIP3    H266020   3.548   3.420  11.389 -0.0656 -1.6685 -0.7655
14869TIP3   OH266021   4.568   1.946   0.082 -0.6723 -0.0410  0.6718
14869TIP3    H166022   4.597   1.918   0.169 -0.3584 -0.7520  0.3418
14869TIP3    H266023   4.645   1.936   0.027 -1.0851 -0.3441  0.1430
14870TIP3   OH266024   1.880   3.533   5.038 -0.7548 -0.4205  0.2617
14870TIP3    H166025   1.963   3.495   5.066 -0.6939 -0.0110  0.6532
14870TIP3    H266026   1.834   3.554   5.119 -1.1829 -0.5132  0.0488
14871TIP3   OH266027   1.295   2.194  11.245  0.2790 -0.5346  0.3022
14871TIP3    H166028   1.218   2.231  11.201 -0.7978  0.3534  2.7752
14871TIP3    H266029   1.339   2.143  11.177 -2.1172 -0.5290 -1.3811
14872TIP3   OH266030   0.962   4.236   6.143  0.1759 -0.0303 -0.5657
14872TIP3    H166031   0.875   4.275   6.153  0.4020  0.1710  0.6721
14872TIP3    H266032   1.021   4.297   6.186  0.4991 -1.8720  1.7647
14873TIP3   OH266033   6.583   4.783   4.654 -0.2611 -0.1063 -0.2353
14873TIP3    H166034   6.513   4.846   4.635  0.5969  0.7519 -0.6483
14873TIP3    H266035   6.609   4.804   4.744  0.8296  0.9647 -0.7714
14874TIP3   OH266036   1.212   4.274   0.869  0.0301 -0.3302  0.1365
14874TIP3    H166037   1.248   4.231   0.947  0.7024 -1.3990 -0.7340
14874TIP3    H266038   1.151   4.210   0.833  0.2306 -0.1215 -0.5767
14875TIP3   OH266039   4.653   0.916  16.549 -0.3181  0.0288  0.1785
14875TIP3    H166040   4.627   0.976  16.480  0.1548  0.4911  0.3951
14875TIP3    H266041   4.687   0.839  16.503  0.5288  0.5660 -0.1179
14876TIP3   OH266042   1.509   6.043   2.303 -0.7594  0.2016 -0.6913
14876TIP3    H166043   1.563   5.992   2.243 -0.5638  0.4838 -0.7542
14876TIP3    H266044   1.464   6.107   2.248 -0.0450  0.9255 -0.4603
14877TIP3   OH266045   4.625   2.768   1.924 -0.5772  0.8318 -0.0589
14877TIP3    H166046   4.565   2.818   1.868  0.9189  2.1810 -0.5457
14877TIP3    H266047   4.568   2.722   1.985 -2.1410  1.3209 -1.0869
14878TIP3   OH266048   1.133   2.447   6.036 -0.4300  0.2087 -0.2922
14878TIP3    H166049   1.178   2.480   6.114  0.7191 -2.6227  0.3849
14878TIP3    H266050   1.044   2.431   6.065 -0.9225  2.2315 -0.5470
14879TIP3   OH266051   5.714   1.960  11.332 -0.3633 -0.2877  0.0746
14879TIP3    H166052   5.693   1.965  11.239 -1.2446  0.6199  0.3080
14879TIP3    H266053   5.632   1.935  11.374  0.1203 -1.0672  0.5754
14880TIP3   OH266054   3.632   5.335   3.218 -0.6701 -0.0580 -0.2691
14880TIP3    H166055   3.565   5.298   3.160 -0.6981 -1.0935  0.4020
14880TIP3    H266056   3.633   5.277   3.294  1.6467 -0.6653 -0.6612
14881TIP3   OH266057   0.738   3.485  14.380  0.3850  0.4981  0.0965
14881TIP3    H166058   0.806   3.444  14.434 -1.2756 -2.0510  0.4317
14881TIP3    H266059   0.786   3.532  14.312  2.4979 -1.0520  0.4245
14882TIP3   OH266060   6.441   0.032  16.013 -0.2821  0.3037 -0.5554
14882TIP3    H166061   6.381   0.101  15.984  0.2433  1.1653  0.3828
14882TIP3    H266062   6.407  -0.047  15.971 -2.5429  0.6159  0.5088
14883TIP3   OH266063   2.514   0.414   4.201 -0.8012  0.3168  0.4452
14883TIP3    H166064   2.443   0.478   4.198  0.3971  1.6777 -0.1432
14883TIP3    H266065   2.581   0.450   4.143  0.5570 -0.6861  1.3202
14884TIP3   OH266066   6.454   2.143   5.373  0.0282 -0.2076  0.7955
14884TIP3    H166067   6.389   2.190   5.321  0.7512 -0.3119 -0.2268
14884TIP3    H266068   6.501   2.212   5.420 -0.3180 -0.0736  0.9462
14885TIP3   OH266069   2.703   3.209   1.245  0.3250  0.0688 -0.5823
14885TIP3    H166070   2.611   3.233   1.234  0.3603  0.9438  0.7442
14885TIP3    H266071   2.743   3.286   1.286  0.9175 -1.4630  1.9287
14886TIP3   OH266072   3.190   0.548   0.688  0.1537  0.3135  0.3147
14886TIP3    H166073   3.266   0.602   0.666  1.0583 -0.4102  1.5341
14886TIP3    H266074   3.203   0.467   0.639  0.7022 -0.1825  1.2310
14887TIP3   OH266075   5.157   6.716   3.272 -0.1006  0.3675  0.1278
14887TIP3    H166076   5.073   6.729   3.317 -0.3455  2.9580 -0.8895
14887TIP3    H266077   5.132   6.688   3.184  0.1066  1.0154 -0.1368
14888TIP3   OH266078   6.293   6.800   1.348  0.1910  0.2677  0.1190
14888TIP3    H166079   6.237   6.747   1.406  0.8303 -1.8407 -1.0802
14888TIP3    H266080   6.252   6.886   1.348 -1.4602 -0.4438  1.4509
14889TIP3   OH266081   0.481   0.888  12.292 -0.7433  0.3129 -0.5012
14889TIP3    H166082   0.549   0.872  12.226 -0.1717  1.6335 -0.2681
14889TIP3    H266083   0.441   0.803  12.307  0.9240 -0.5133 -0.5833
14890TIP3   OH266084   0.661   2.450  14.203  0.1582 -0.2196 -0.4887
14890TIP3    H166085   0.718   2.526  14.190  1.4348 -1.0394  0.0712
14890TIP3    H266086   0.591   2.461  14.139  0.0534  1.6589 -0.1159
14891TIP3   OH266087   2.974   2.053  13.383  0.8026 -0.3062 -0.0089
14891TIP3    H166088   2.930   2.051  13.298  1.5375  1.6693 -0.4864
14891TIP3    H266089   3.027   1.973  13.384 -0.3006 -1.0730 -0.7826
14892TIP3   OH266090   2.243   3.676  16.682 -0.3187 -0.3610 -0.3436
14892TIP3    H166091   2.159   3.630  16.672 -1.0185  1.0341 -1.3167
14892TIP3    H266092   2.227   3.762  16.644  1.6786 -0.1752 -0.8620
14893TIP3   OH266093   1.427   3.605  13.825 -0.3149 -0.0306  0.2823
14893TIP3    H166094   1.383   3.690  13.825 -0.5391 -0.1172 -1.1058
14893TIP3    H266095   1.363   3.544  13.862 -0.0068  0.4556  1.6576
14894TIP3   OH266096   4.827   2.601   3.906 -0.2061  0.0771 -0.0341
14894TIP3    H166097   4.792   2.548   3.978  2.2923 -0.7818  0.6428
14894TIP3    H266098   4.801   2.554   3.827 -0.9644 -0.2587  0.4031
14895TIP3   OH266099   5.628   6.535   1.560 -0.4771  0.9223  0.2957
14895TIP3    H166100   5.603   6.626   1.576 -0.3172  0.8189  1.1665
14895TIP3    H266101   5.692   6.515   1.629  0.2534  0.4639 -0.4921
14896TIP3   OH266102   4.349   0.538   4.263  0.0375 -0.0322  0.0009
14896TIP3    H166103   4.260   0.509   4.283 -1.2536 -0.7218 -5.3752
14896TIP3    H266104   4.405   0.469   4.299 -1.7912 -1.0009  1.1216
14897TIP3   OH266105   4.173   4.298   0.615 -0.0953 -0.0864  0.4151
14897TIP3    H166106   4.210   4.246   0.686 -0.7511 -0.2054  0.6838
14897TIP3    H266107   4.207   4.259   0.535  0.6466  0.0437  0.6660
14898TIP3   OH266108   6.350   4.138  12.158 -0.3979  0.0695  0.5183
14898TIP3    H166109   6.412   4.211  12.162 -0.6679  0.3572 -0.2767
14898TIP3    H266110   6.385   4.072  12.218 -0.4773  1.0968  1.7341
14899TIP3   OH266111   0.449   2.804   0.853 -0.5032 -0.1339  0.1178
14899TIP3    H166112   0.483   2.890   0.878  0.5188 -0.7925  1.0604
14899TIP3    H266113   0.358   2.821   0.828 -0.2486  1.2551  0.0356
14900TIP3   OH266114   3.661   5.102   6.133  0.6835 -0.2745  0.3758
14900TIP3    H166115   3.714   5.025   6.118  2.0908  0.8558 -0.7676
14900TIP3    H266116   3.723   5.170   6.158 -0.6316  0.2633  2.4405
14901TIP3   OH266117   0.419   4.753   4.626 -0.0859 -0.6950 -0.2059
14901TIP3    H166118   0.413   4.833   4.574  0.9827  0.7917  1.8239
14901TIP3    H266119   0.493   4.768   4.684 -0.9663 -2.4224  1.4640
14902TIP3   OH266120   5.504   4.251   3.770 -0.1371 -0.0008 -0.1765
14902TIP3    H166121   5.497   4.253   3.865  1.5923 -0.8532  0.0219
14902TIP3    H266122   5.414   4.257   3.738 -0.6728  1.3320  1.4678
14903TIP3   OH266123   4.178   3.220   4.849 -0.1257  0.0718 -0.3823
14903TIP3    H166124   4.241   3.153   4.877  0.2396  0.4526 -0.2882
14903TIP3    H266125   4.179   3.285   4.919  1.5496  1.5562 -1.6944
14904TIP3   OH266126   4.818   0.619  14.076  0.2878  0.2802  0.1112
14904TIP3    H166127   4.845   0.528  14.065  0.2402  0.2355  0.3442
14904TIP3    H266128   4.832   0.637  14.169 -0.2482  0.3294  0.1887
14905TIP3   OH266129   4.420   0.813   0.167  0.5285  0.5135  0.8522
14905TIP3    H166130   4.373   0.895   0.178 -2.6243 -1.1129  0.6871
14905TIP3    H266131   4.428   0.802   0.072 -2.1223 -0.8128  0.6818
14906TIP3   OH266132   6.276   5.118  15.222 -0.4522 -0.2387  0.0105
14906TIP3    H166133   6.302   5.040  15.270  1.6582  0.0710 -0.5412
14906TIP3    H266134   6.286   5.189  15.285 -0.5754 -0.1925 -0.0220
14907TIP3   OH266135   2.329   0.202   3.539  0.0834  0.2019  0.7853
14907TIP3    H166136   2.346   0.251   3.620  0.4959 -1.4221  1.7174
14907TIP3    H266137   2.305   0.270   3.475 -0.6544  1.4903  2.3531
14908TIP3   OH266138   2.448   0.603   0.891  0.1721 -0.7209 -0.5035
14908TIP3    H166139   2.375   0.570   0.839 -0.0797 -0.4967 -0.2894
14908TIP3    H266140   2.524   0.596   0.832 -0.1197 -0.4312 -0.9130
14909TIP3   OH266141   0.131   5.792  17.035 -0.8604 -0.1129 -0.4506
14909TIP3    H166142   0.171   5.706  17.031 -0.3195  0.1414 -0.6306
14909TIP3    H266143   0.036   5.775  17.032 -0.7673 -0.6068 -2.8591
14910TIP3   OH266144   0.998   2.151  12.556 -0.7708 -0.3241  0.6233
14910TIP3    H166145   0.962   2.220  12.611 -0.7655 -0.6611  1.0520
14910TIP3    H266146   0.944   2.152  12.477 -1.4873 -0.5688  1.0979
14911TIP3   OH266147   0.373   0.084   1.376 -0.5720  0.5892 -0.1224
14911TIP3    H166148   0.465   0.059   1.380 -0.4509  1.2090  2.3786
14911TIP3    H266149   0.326   0.001   1.371  0.0694  0.2695 -1.7031
14912TIP3   OH266150   5.280   2.793   6.615  0.3211  0.4687 -0.5598
14912TIP3    H166151   5.353   2.738   6.588 -1.5513 -1.4135 -2.0411
14912TIP3    H266152   5.238   2.820   6.534 -2.5062 -1.1936  0.2345
14913TIP3   OH266153   3.844   5.399  11.871  0.2064 -0.4749  0.1696
14913TIP3    H166154   3.789   5.477  11.862 -0.2570 -0.4839  2.4074
14913TIP3    H266155   3.860   5.370  11.781  0.6895  2.3763 -0.7457
14914TIP3   OH266156   0.553   1.095  15.597  0.0911  0.5393 -0.2193
14914TIP3    H166157   0.564   1.109  15.691  0.4005 -2.4823  0.2868
14914TIP3    H266158   0.631   1.134  15.557  1.9099 -1.4382  1.2102
14915TIP3   OH266159   0.278   6.469  16.987 -0.1561  0.3090 -0.7987
14915TIP3    H166160   0.211   6.464  16.920 -1.7567  0.4575  0.7265
14915TIP3    H266161   0.300   6.562  16.992 -0.3569  0.3579 -0.8203
14916TIP3   OH266162   5.641   4.660   5.471 -0.4275  0.2693 -0.1723
14916TIP3    H166163   5.635   4.748   5.435 -0.1629  0.8676  1.1907
14916TIP3    H266164   5.561   4.617   5.441 -0.9959  1.2539 -0.1274
14917TIP3   OH266165   0.328   4.996  14.363  0.1898 -0.0687 -0.0197
14917TIP3    H166166   0.321   4.990  14.268  1.8469 -3.4229 -0.0834
14917TIP3    H266167   0.250   4.951  14.396  0.1662  0.1327  0.2046
14918TIP3   OH266168   5.377   3.411   3.221 -0.0155  0.3693  0.1067
14918TIP3    H166169   5.301   3.464   3.197  1.1560  1.7175 -0.8117
14918TIP3    H266170   5.380   3.414   3.316 -0.0360  1.8927  0.0759
14919TIP3   OH266171   5.760   4.225   3.638 -0.1538 -0.4348 -0.4370
14919TIP3    H166172   5.777   4.134   3.611  0.0837 -0.7434  0.7141
14919TIP3    H266173   5.664   4.230   3.644 -0.1702 -0.5930 -0.5541
14920TIP3   OH266174   3.563   2.819   4.537 -0.6477  0.0167 -0.4536
14920TIP3    H166175   3.549   2.741   4.485 -0.5002 -1.1845  1.2228
14920TIP3    H266176   3.556   2.789   4.628 -0.4752  1.9244  0.2417
14921TIP3   OH266177   3.996   5.898   0.528  0.3760  0.1892 -0.0584
14921TIP3    H166178   4.072   5.954   0.545  1.8829 -1.4639 -1.0069
14921TIP3    H266179   3.987   5.846   0.607  0.0042  0.6446  0.1972
14922TIP3   OH266180   3.997   1.662   0.699 -0.0312 -0.0468  0.8464
14922TIP3    H166181   4.055   1.588   0.682  0.3996  0.5098 -0.2377
14922TIP3    H266182   3.926   1.651   0.636 -0.9540 -0.5480  1.9536
14923TIP3   OH266183   5.090   5.505  11.780  0.0663  0.4174  0.1559
14923TIP3    H166184   5.030   5.485  11.708  0.0477  0.0198  0.2769
14923TIP3    H266185   5.152   5.567  11.743 -2.4917  3.7664  0.9831
14924TIP3   OH266186   1.388   2.196   4.465 -0.4259 -0.4737  0.7399
14924TIP3    H166187   1.369   2.211   4.372  0.0031  0.2560  0.7564
14924TIP3    H266188   1.302   2.200   4.508 -0.4563  1.1090  0.6062
14925TIP3   OH266189   1.439   6.573  12.898 -0.1329  0.4447 -0.6269
14925TIP3    H166190   1.508   6.630  12.866  1.2262 -1.1324 -0.6382
14925TIP3    H266191   1.451   6.572  12.993  1.0417 -1.1799 -0.7432
14926TIP3   OH266192   6.016   1.700  15.787 -0.8391 -0.1411  0.2342
14926TIP3    H166193   6.086   1.637  15.803  0.1147  0.4767 -1.2668
14926TIP3    H266194   5.945   1.648  15.749 -0.1728 -0.3655 -0.7163
14927TIP3   OH266195   6.675   0.905   5.346  0.0986  0.2475 -0.2928
14927TIP3    H166196   6.667   0.870   5.257 -1.0968  1.4804 -0.7096
14927TIP3    H266197   6.603   0.864   5.394  0.2815  0.1646 -0.0874
14928TIP3   OH266198   0.917   2.264   1.724  0.1083  0.0897  0.4157
14928TIP3    H166199   0.925   2.298   1.635 -3.3542 -1.3159 -0.5962
14928TIP3    H266200   0.892   2.340   1.776 -1.2450  0.3198 -0.5295
14929TIP3   OH266201   0.117   2.929  14.282  0.1173 -0.3845 -0.0989
14929TIP3    H166202   0.035   2.947  14.329  1.0798  2.1164  0.8011
14929TIP3    H266203   0.133   3.009  14.232  2.4269 -0.4472  0.4392
14930TIP3   OH266204   0.307   3.579   1.163 -0.7089  0.2895  0.4014
14930TIP3    H166205   0.255   3.499   1.159  0.3623 -0.3956 -1.6339
14930TIP3    H266206   0.398   3.548   1.167 -0.2898  1.3911 -0.2273
14931TIP3   OH266207   4.098   1.395   1.607 -0.2046  0.5157 -0.2889
14931TIP3    H166208   4.185   1.402   1.567 -0.0812  3.9979  0.2189
14931TIP3    H266209   4.037   1.416   1.536 -0.7474 -2.0780 -0.6862
14932TIP3   OH266210   6.028   0.990   0.981  0.4054  0.3482  0.0641
14932TIP3    H166211   5.970   0.977   0.906 -0.5737  1.2702  0.6263
14932TIP3    H266212   5.970   1.020   1.051  1.3341 -0.2824  1.1318
14933TIP3   OH266213   0.936   1.409   2.852 -0.5106 -0.1052 -0.0119
14933TIP3    H166214   0.866   1.390   2.790 -1.4845  1.4289  0.5342
14933TIP3    H266215   0.951   1.327   2.898 -2.8556 -0.2002  0.7068
14934TIP3   OH266216   5.331   3.877   1.777 -0.0969  0.1239 -0.0865
14934TIP3    H166217   5.371   3.955   1.817 -1.8071  1.6849 -1.2370
14934TIP3    H266218   5.286   3.911   1.700 -1.2627 -1.9867 -0.4054
14935TIP3   OH266219   2.915   5.947   6.851 -0.8745 -0.2708  0.1602
14935TIP3    H166220   2.852   6.018   6.863 -2.1764 -1.4785  0.8419
14935TIP3    H266221   2.982   5.962   6.918  0.1575  1.5668 -1.1860
14936TIP3   OH266222   0.797   2.621   4.722  0.2478 -0.4760  0.0843
14936TIP3    H166223   0.749   2.704   4.716 -1.0747 -1.3073 -2.6824
14936TIP3    H266224   0.734   2.555   4.692  1.1779 -2.5902  2.3945
14937TIP3   OH266225   1.573   6.514  16.787  0.0456 -0.0692 -0.1855
14937TIP3    H166226   1.667   6.505  16.774  0.1494 -1.1041  1.0602
14937TIP3    H266227   1.534   6.452  16.725  0.0560  1.6147 -1.9658
14938TIP3   OH266228   6.413   5.606  17.021  0.4792 -0.4254  0.1429
14938TIP3    H166229   6.444   5.516  17.029  1.1653 -0.3249 -1.1271
14938TIP3    H266230   6.428   5.629  16.929 -2.3427  0.0146 -0.2962
14939TIP3   OH266231   0.898   0.113  10.528  0.2420 -0.1273  0.8482
14939TIP3    H166232   0.857   0.185  10.481  1.1798  1.0756  1.8266
14939TIP3    H266233   0.827   0.048  10.538 -0.1231 -0.2089 -1.6729
14940TIP3   OH266234   1.895   3.926  12.681 -0.1117  0.2427 -0.3946
14940TIP3    H166235   1.805   3.958  12.677 -0.8201 -1.5416  0.1806
14940TIP3    H266236   1.948   4.005  12.682 -1.6048  1.3340 -1.7963
14941TIP3   OH266237   0.689   1.195  15.386  0.1751  0.2186  0.7865
14941TIP3    H166238   0.609   1.209  15.335 -0.5617  0.8620  2.0647
14941TIP3    H266239   0.745   1.144  15.328 -1.2472 -0.4607 -0.0678
14942TIP3   OH266240   1.764   4.317  14.725  0.1122 -0.1392 -0.3760
14942TIP3    H166241   1.682   4.290  14.683  0.7550  0.7247 -2.2980
14942TIP3    H266242   1.740   4.332  14.816 -1.6331 -0.9145 -0.6540
14943TIP3   OH266243   6.441   1.856   4.259  0.3893  0.1457  0.0460
14943TIP3    H166244   6.505   1.804   4.211  0.9015  0.2824  0.5727
14943TIP3    H266245   6.453   1.945   4.226  0.2350  0.1130 -0.0999
14944TIP3   OH266246   3.970   1.902  16.192 -0.6355  0.0508  0.3266
14944TIP3    H166247   3.927   1.980  16.158 -0.9222  0.1547  0.9134
14944TIP3    H266248   4.062   1.928  16.202 -0.6196  0.1293 -0.0272
14945TIP3   OH266249   2.898   5.717  16.582 -0.2091  0.3218  0.0276
14945TIP3    H166250   2.901   5.664  16.502  0.1600  2.0558 -1.1707
14945TIP3    H266251   2.805   5.740  16.592 -0.0462  1.5178 -0.9319
14946TIP3   OH266252   6.543   6.259   0.744  0.9020  0.4547 -0.3057
14946TIP3    H166253   6.583   6.298   0.822  1.6168  1.8928 -1.3465
14946TIP3    H266254   6.451   6.286   0.748  0.8119  0.0735  0.3052
14947TIP3   OH266255   4.864   6.474   2.550 -0.4311  0.1076 -0.3600
14947TIP3    H166256   4.827   6.545   2.498  1.1537  0.4433 -1.1163
14947TIP3    H266257   4.901   6.414   2.486  1.2974  0.3708  0.3147
14948TIP3   OH266258   0.583   1.726  11.473 -0.1748  0.7194  0.2828
14948TIP3    H166259   0.673   1.738  11.501  0.0139  0.6738 -0.2883
14948TIP3    H266260   0.576   1.774  11.391  0.0446 -1.3028 -0.9958
14949TIP3   OH266261   6.121   0.820   1.706  0.2113 -0.3463 -0.1551
14949TIP3    H166262   6.165   0.833   1.622  1.1789 -1.7310  0.1052
14949TIP3    H266263   6.079   0.734   1.698 -0.5168 -0.0661  0.4441
14950TIP3   OH266264   3.689   5.758  11.033 -0.2962  0.1654  0.4183
14950TIP3    H166265   3.766   5.793  11.079 -0.1035 -2.4670  2.2785
14950TIP3    H266266   3.671   5.823  10.965  2.2596  1.9296  1.2722
14951TIP3   OH266267   2.223   0.564   4.432  0.1650  0.4942 -0.6077
14951TIP3    H166268   2.167   0.522   4.498  2.6293  1.8351  2.5930
14951TIP3    H266269   2.266   0.636   4.479  2.7809  0.9981 -3.4738
14952TIP3   OH266270   2.874   5.534  13.350  0.3162 -0.2013 -0.2579
14952TIP3    H166271   2.819   5.604  13.386 -2.3973 -0.7769 -2.9156
14952TIP3    H266272   2.817   5.457  13.350  2.2402 -1.6924 -0.2137
14953TIP3   OH266273   0.344   5.044   3.662 -0.1099  0.2283 -0.4519
14953TIP3    H166274   0.335   5.045   3.757 -1.7175  0.1991 -0.5822
14953TIP3    H266275   0.407   4.974   3.645 -0.8764 -0.7339  0.5349
14954TIP3   OH266276   2.441   5.307   5.822  0.6584  0.1559 -0.0018
14954TIP3    H166277   2.454   5.266   5.736  1.9237 -2.0969  1.1926
14954TIP3    H266278   2.373   5.255   5.864 -1.5331  2.5471 -0.3343
14955TIP3   OH266279   6.579   1.701  15.049 -0.1439  0.0269 -0.5131
14955TIP3    H166280   6.554   1.756  14.974  0.1522 -1.2101 -1.5580
14955TIP3    H266281   6.630   1.630  15.010 -0.3916 -0.9065  0.8111
14956TIP3   OH266282   0.651   6.555  13.199 -0.6329 -1.2267  0.4198
14956TIP3    H166283   0.689   6.583  13.283  0.7738 -0.2922 -0.4790
14956TIP3    H266284   0.566   6.599  13.195 -0.8540 -1.5280  1.4780
14957TIP3   OH266285   6.599   1.906  17.045  0.2241 -0.1635 -0.0228
14957TIP3    H166286   6.523   1.954  17.013  0.5730 -0.0563 -0.7126
14957TIP3    H266287   6.601   1.923  17.139 -0.5334 -0.0734 -0.0166
14958TIP3   OH266288   2.914   2.550  17.192 -0.3575  0.3429 -0.1406
14958TIP3    H166289   2.970   2.583  17.263  0.3218 -0.5583 -0.2297
14958TIP3    H266290   2.936   2.604  17.117  1.1913 -0.6423 -0.4450
14959TIP3   OH266291   4.051   2.745  16.775 -0.3902 -0.1536  0.3402
14959TIP3    H166292   4.085   2.830  16.804 -1.8510  0.8759 -0.8057
14959TIP3    H266293   4.061   2.746  16.680  0.8954 -1.9147  0.4049
14960TIP3   OH266294   0.932   6.000  12.059  0.4115 -0.4655  0.5585
14960TIP3    H166295   0.971   6.085  12.036  0.6420 -0.6466  0.2778
14960TIP3    H266296   0.932   6.000  12.155  0.2894 -0.0954  0.5642
14961TIP3   OH266297   2.568   6.495   3.399 -0.0705 -0.5421 -0.4075
14961TIP3    H166298   2.580   6.553   3.324 -0.6202 -1.6054 -1.3473
14961TIP3    H266299   2.508   6.543   3.457  0.7344  0.4871 -0.4055
14962TIP3   OH266300   4.214   5.482   3.162 -0.1092 -0.2130  0.3894
14962TIP3    H166301   4.155   5.409   3.184 -0.1351 -0.4558 -0.4551
14962TIP3    H266302   4.199   5.546   3.232  0.9308 -1.5718  1.9254
14963TIP3   OH266303   5.502   3.497   1.150 -0.3455  0.0014 -0.0536
14963TIP3    H166304   5.419   3.534   1.181 -0.8403 -1.5963  0.6101
14963TIP3    H266305   5.540   3.455   1.227  0.6375 -0.0775 -0.5707
14964TIP3   OH266306   3.255   1.660   2.539  0.1836  0.1063  0.3632
14964TIP3    H166307   3.323   1.612   2.585  0.3349  0.2653  0.3069
14964TIP3    H266308   3.228   1.728   2.601  1.2301  1.0807 -0.2246
14965TIP3   OH266309   3.895   3.094   3.990 -0.0998 -0.1777 -0.0766
14965TIP3    H166310   3.883   3.162   4.057 -0.7454 -0.2639 -0.0927
14965TIP3    H266311   3.860   3.015   4.031 -0.4213 -0.2484 -0.4822
14966TIP3   OH266312   2.659   2.583   5.287  0.2332  0.0791  0.1772
14966TIP3    H166313   2.680   2.630   5.367 -1.8207 -2.2366  2.2544
14966TIP3    H266314   2.616   2.649   5.231  0.9263  1.5476  1.3035
14967TIP3   OH266315   0.332   3.146  15.306  0.3034 -0.0259 -0.2149
14967TIP3    H166316   0.313   3.107  15.220 -0.1356  2.1311 -1.1848
14967TIP3    H266317   0.418   3.112  15.330 -0.2204 -1.8423 -0.7748
14968TIP3   OH266318   5.934   3.356   1.113 -0.8129 -0.0460 -0.5598
14968TIP3    H166319   5.884   3.372   1.192  0.4297 -0.6422  0.3891
14968TIP3    H266320   5.995   3.429   1.107 -1.0549  0.1183 -1.1005
14969TIP3   OH266321   2.358   5.492  13.351  0.5197  0.4506 -0.6489
14969TIP3    H166322   2.287   5.483  13.287  0.7274  0.7371 -0.9268
14969TIP3    H266323   2.315   5.520  13.432  0.1603 -0.6885 -0.4312
14970TIP3   OH266324   4.216   3.711   0.122 -0.1302 -0.4807 -0.0434
14970TIP3    H166325   4.295   3.760   0.099 -0.5452  0.2174  0.0016
14970TIP3    H266326   4.214   3.638   0.059 -1.7351  1.8938 -3.0001
14971TIP3   OH266327   4.614   1.341   3.236  0.8378  0.3227  0.1492
14971TIP3    H166328   4.624   1.430   3.269 -0.5607  0.2672  0.7998
14971TIP3    H266329   4.536   1.345   3.181  0.5952 -0.5485  0.4190
14972TIP3   OH266330   6.163   4.282  11.993  0.7676 -0.2779  0.7422
14972TIP3    H166331   6.100   4.352  12.010 -1.5476 -2.0939  0.1417
14972TIP3    H266332   6.212   4.273  12.074  1.0689  1.9205  0.8636
14973TIP3   OH266333   0.555   0.558  11.362 -0.6090 -0.3761 -0.8228
14973TIP3    H166334   0.526   0.503  11.435 -0.7123  0.5813 -0.1111
14973TIP3    H266335   0.651   0.560  11.371 -0.6648  0.3315 -0.2436
14974TIP3   OH266336   1.312   5.300   5.161  0.0435 -0.0015 -0.1431
14974TIP3    H166337   1.269   5.218   5.137 -0.2977  0.2233 -0.3056
14974TIP3    H266338   1.383   5.310   5.098  0.0367 -0.1356 -0.1715
14975TIP3   OH266339   5.198   0.571  16.289  0.1190  0.0551  0.4870
14975TIP3    H166340   5.144   0.595  16.213  1.7924  0.6588 -0.5659
14975TIP3    H266341   5.159   0.620  16.361  0.4124  2.0797 -0.6464
14976TIP3   OH266342   3.760   6.225  14.627 -0.1827 -0.5021 -0.1289
14976TIP3    H166343   3.683   6.201  14.678  1.2865 -1.9557  1.5651
14976TIP3    H266344   3.832   6.224  14.691  1.4437 -0.4967 -1.8839
14977TIP3   OH266345   4.525   4.389   6.188  0.2698 -0.1132 -0.4625
14977TIP3    H166346   4.541   4.300   6.218 -0.9490 -0.4272 -0.6683
14977TIP3    H266347   4.603   4.413   6.138  0.4827 -1.1732 -0.6503
14978TIP3   OH266348   2.390   5.095   2.496 -0.0765 -0.0001 -0.0779
14978TIP3    H166349   2.340   5.166   2.535 -0.1162  0.3602 -0.7784
14978TIP3    H266350   2.467   5.137   2.459 -0.0002 -0.3458 -0.3204
14979TIP3   OH266351   1.762   1.413  16.217  0.5912  0.1115 -0.4443
14979TIP3    H166352   1.750   1.319  16.210  0.9369  0.0008  0.3114
14979TIP3    H266353   1.835   1.424  16.278  0.5611  0.8643 -0.5267
14980TIP3   OH266354   0.489   3.815   0.006 -0.6788  0.2367 -0.6349
14980TIP3    H166355   0.454   3.864   0.080  2.7190  0.8114  0.7689
14980TIP3    H266356   0.467   3.869  -0.071 -1.1618  1.5032  0.3547
14981TIP3   OH266357   1.779   2.970   5.374 -0.3188  0.3747  0.0587
14981TIP3    H166358   1.780   2.881   5.339 -0.9194 -0.5498  2.2328
14981TIP3    H266359   1.866   3.005   5.352 -0.5678 -0.2017 -2.0487
14982TIP3   OH266360   3.500   4.955  10.318  0.2071 -0.1592 -0.1991
14982TIP3    H166361   3.450   4.932  10.396 -0.3437  0.3263 -0.4056
14982TIP3    H266362   3.583   4.988  10.353 -0.8187  2.0846  0.3249
14983TIP3   OH266363   5.358   0.118  16.540  0.1563 -0.0858 -0.0079
14983TIP3    H166364   5.447   0.135  16.572  0.3206 -1.3704  0.2749
14983TIP3    H266365   5.305   0.114  16.620 -0.4209  1.9637 -0.2421
14984TIP3   OH266366   3.062   5.191   3.309 -0.1541 -0.1847  1.0410
14984TIP3    H166367   3.005   5.118   3.284  0.8896 -0.6446 -0.0777
14984TIP3    H266368   3.064   5.188   3.405 -1.5584 -0.4854  1.0843
14985TIP3   OH266369   3.337   3.701  11.897 -0.0581  0.6974  0.0325
14985TIP3    H166370   3.340   3.631  11.962 -2.0838  0.1315 -0.3865
14985TIP3    H266371   3.374   3.661  11.817  1.6210  1.1164  0.5713
14986TIP3   OH266372   5.586   3.456   1.397  0.3216 -0.1216  0.5263
14986TIP3    H166373   5.556   3.382   1.451  0.2404  1.0672  2.1780
14986TIP3    H266374   5.653   3.499   1.450  1.0609  0.4485 -0.8263
14987TIP3   OH266375   2.479   3.775   0.378 -0.1208 -0.4581  0.2713
14987TIP3    H166376   2.400   3.814   0.342 -1.3886 -1.3496  1.9495
14987TIP3    H266377   2.532   3.752   0.301 -1.3929  0.3278 -0.8749
14988TIP3   OH266378   3.115   0.319   5.663 -0.6483  0.3533  0.3133
14988TIP3    H166379   3.073   0.247   5.711 -3.3829  0.7146 -1.3048
14988TIP3    H266380   3.091   0.397   5.713 -0.1858  0.4218  0.4373
14989TIP3   OH266381   2.866   1.840   5.302  0.1180 -0.5232  0.2520
14989TIP3    H166382   2.957   1.816   5.320 -0.1913 -1.7163  0.3397
14989TIP3    H266383   2.847   1.910   5.365  1.2026  0.3073 -0.3115
14990TIP3   OH266384   4.516   1.784  15.009 -0.4336 -0.1965  0.2073
14990TIP3    H166385   4.522   1.868  15.053 -1.5260  0.6307 -1.1283
14990TIP3    H266386   4.576   1.727  15.057 -1.1453  0.7837  2.3662
14991TIP3   OH266387   5.758   5.548   0.415 -0.2482 -0.1463 -0.1550
14991TIP3    H166388   5.759   5.551   0.319  0.4694  0.2953 -0.1413
14991TIP3    H266389   5.809   5.624   0.442 -0.1148 -0.4810  0.5739
14992TIP3   OH266390   5.903   1.362  12.970  0.5682  0.4413  0.1255
14992TIP3    H166391   5.843   1.334  13.039  0.7893  1.1368  0.6118
14992TIP3    H266392   5.847   1.400  12.902  0.5126  2.5256  1.2557
14993TIP3   OH266393   2.481   0.303  13.165  0.1056 -0.5102  0.3722
14993TIP3    H166394   2.559   0.248  13.162  0.1101 -0.4793 -1.5116
14993TIP3    H266395   2.408   0.241  13.164  0.1201 -0.5281 -0.0931
14994TIP3   OH266396   2.280   3.406  16.086 -0.1187 -0.6702 -0.1582
14994TIP3    H166397   2.369   3.439  16.083  0.9940 -3.3795  0.0664
14994TIP3    H266398   2.239   3.439  16.006  0.6256  1.6396  0.3351
14995TIP3   OH266399   3.759   1.493   6.189 -0.6151 -0.0646  0.3545
14995TIP3    H166400   3.829   1.524   6.246  0.0564 -1.7065  0.4865
14995TIP3    H266401   3.728   1.412   6.231 -1.0492 -0.5665 -0.8776
14996TIP3   OH266402   1.047   6.044   5.356 -0.4165  0.3667 -0.4189
14996TIP3    H166403   1.140   6.043   5.332 -0.4767  1.9331 -0.8132
14996TIP3    H266404   1.005   5.989   5.291  0.0786  0.6540 -0.9894
14997TIP3   OH266405   5.707   6.177  14.315 -0.4737 -1.2286 -0.0309
14997TIP3    H166406   5.787   6.184  14.261 -0.2517 -0.6875  0.3630
14997TIP3    H266407   5.643   6.231  14.269  0.4092  1.2468  1.4852
14998TIP3   OH266408   4.859   3.705  16.097  0.3131 -0.0118 -0.4991
14998TIP3    H166409   4.815   3.701  16.012 -1.2250  0.4589  0.2354
14998TIP3    H266410   4.832   3.625  16.141 -0.0111  0.3860  0.0399
14999TIP3   OH266411   5.461   5.390   1.405  0.3853  0.2002  0.3896
14999TIP3    H166412   5.511   5.452   1.353 -0.2654  0.4987  0.1118
14999TIP3    H266413   5.418   5.333   1.341 -0.5608  0.6826  0.5821
15000TIP3   OH266414   0.970   5.372   3.372  0.0036 -0.3477  0.2284
15000TIP3    H166415   0.949   5.310   3.301 -0.9039  0.9727 -0.7016
15000TIP3    H266416   0.897   5.433   3.372  1.8489  1.9806 -0.3192
15001TIP3   OH266417   3.661   5.761   2.281 -0.1176  1.0816 -0.4056
15001TIP3    H166418   3.662   5.668   2.304  1.3084  0.8089 -1.4692
15001TIP3    H266419   3.593   5.769   2.214 -0.4568  0.8770 -0.0916
15002TIP3   OH266420   4.160   0.716   2.154 -0.2138 -0.2292  0.6440
15002TIP3    H166421   4.114   0.765   2.222 -1.5500 -2.8720  1.7911
15002TIP3    H266422   4.252   0.717   2.182 -0.1086  1.8147  0.4185
15003TIP3   OH266423   4.290   6.014  16.712  0.2548  0.1458  0.0351
15003TIP3    H166424   4.306   5.945  16.776  2.1189 -0.2420 -0.7932
15003TIP3    H266425   4.201   5.998  16.681  0.2263 -1.1529  0.7307
15004TIP3   OH266426   2.998   6.753  16.963  0.5721 -0.8533 -0.0489
15004TIP3    H166427   3.074   6.764  17.020 -0.5625 -0.2569  1.3971
15004TIP3    H266428   2.966   6.664  16.982  0.3068 -0.7274  0.0958
15005TIP3   OH266429   4.932   5.917   1.472  0.1159 -0.0201 -0.6511
15005TIP3    H166430   4.990   5.843   1.454  1.9181  1.0646  0.3931
15005TIP3    H266431   4.929   5.921   1.568 -0.3713  0.9402 -0.7012
15006TIP3   OH266432   2.402   5.991   2.518  0.0061  0.0612  0.4314
15006TIP3    H166433   2.417   6.060   2.584  1.9197  0.7031 -0.5893
15006TIP3    H266434   2.466   5.923   2.541  1.9902  1.0758 -1.7234
15007TIP3   OH266435   0.141   5.848   1.394  0.0709 -0.9711 -0.5084
15007TIP3    H166436   0.147   5.779   1.460  2.0122 -1.9116 -1.5930
15007TIP3    H266437   0.205   5.913   1.421 -0.5597 -0.3794 -0.4058
15008TIP3   OH266438   6.598   5.914   3.087  0.2904 -0.1687  0.2111
15008TIP3    H166439   6.678   5.946   3.046  1.9945 -0.1216  3.3310
15008TIP3    H266440   6.614   5.821   3.105  1.5150  0.6429  4.4734
15009TIP3   OH266441   1.549   1.890  12.121  0.0504 -0.4971 -0.4255
15009TIP3    H166442   1.478   1.947  12.152 -0.0044 -1.8240  2.1902
15009TIP3    H266443   1.624   1.948  12.110 -0.8250  0.5653 -0.9690
15010TIP3   OH266444   6.564   5.502  13.293 -0.0031 -0.1545 -0.3849
15010TIP3    H166445   6.578   5.524  13.385  1.4190  1.1727 -0.8710
15010TIP3    H266446   6.469   5.494  13.284 -0.1929  0.1337  1.0919
15011TIP3   OH266447   2.282   5.822  15.576  0.1894  0.0531 -0.6500
15011TIP3    H166448   2.229   5.850  15.501 -0.4604  2.4745  0.6086
15011TIP3    H266449   2.306   5.904  15.620  1.1825 -1.2507  1.3652
15012TIP3   OH266450   0.626   3.445  14.741  0.1371  0.1307 -0.2384
15012TIP3    H166451   0.544   3.464  14.695 -0.4497  1.1823  1.1571
15012TIP3    H266452   0.640   3.352  14.726 -2.1514 -0.4341  0.7184
15013TIP3   OH266453   0.556   3.336  16.061  0.5358 -0.5417  0.0478
15013TIP3    H166454   0.479   3.295  16.021 -0.5825  0.4091  1.1554
15013TIP3    H266455   0.520   3.394  16.128  2.1839  0.5115  0.0706
15014TIP3   OH266456   5.675   3.533  14.534 -0.3056  0.8985 -0.1536
15014TIP3    H166457   5.712   3.574  14.456 -0.8611  0.1270 -0.8427
15014TIP3    H266458   5.599   3.484  14.502 -0.5331  0.5445  0.8690
15015TIP3   OH266459   5.259   4.700   4.487  0.4026 -0.0868 -0.2069
15015TIP3    H166460   5.331   4.696   4.424 -0.8337  0.0961 -1.6979
15015TIP3    H266461   5.286   4.643   4.558  1.9961 -0.0564 -0.7610
15016TIP3   OH266462   0.706   6.049   1.685 -1.0812 -0.0458  0.2424
15016TIP3    H166463   0.621   6.008   1.697 -0.9595 -0.5926 -0.7018
15016TIP3    H266464   0.769   5.985   1.719 -0.9913 -0.0589  0.0575
15017TIP3   OH266465   1.255   6.442  11.054  0.5285 -0.2960 -0.2776
15017TIP3    H166466   1.252   6.427  10.959 -0.3724  0.2033 -0.3359
15017TIP3    H266467   1.337   6.489  11.067 -0.7426  2.3915 -1.2525
15018TIP3   OH266468   5.271   1.566   3.410  0.2459  0.0675  0.0118
15018TIP3    H166469   5.336   1.591   3.343  0.4203  0.3705  0.2922
15018TIP3    H266470   5.322   1.514   3.473  0.2129  0.2968  0.2264
15019TIP3   OH266471   4.836   0.922  15.983 -0.3576 -0.1682 -0.4411
15019TIP3    H166472   4.795   0.903  16.068  0.9583  0.9848  0.4972
15019TIP3    H266473   4.926   0.890  15.992  1.4798  4.4930  0.6299
15020TIP3   OH266474   4.407   4.483  10.980  0.4287 -0.1137  0.0732
15020TIP3    H166475   4.326   4.433  10.964  0.4681  0.4484 -2.2956
15020TIP3    H266476   4.472   4.416  11.002  0.3565 -1.2068 -2.5608
15021TIP3   OH266477   4.108   5.898   2.368 -0.2484 -0.1471 -0.2580
15021TIP3    H166478   4.034   5.881   2.426 -0.1173 -0.8577 -0.2880
15021TIP3    H266479   4.070   5.934   2.289 -0.3194  2.3274  0.8200
15022TIP3   OH266480   3.590   1.361   0.265 -0.1920 -0.4128 -0.0094
15022TIP3    H166481   3.523   1.429   0.275 -0.5274 -0.6020 -0.8608
15022TIP3    H266482   3.661   1.404   0.217 -1.2481 -1.1378 -2.4157
15023TIP3   OH266483   4.709   0.900  16.205 -0.5674 -0.0089  0.3028
15023TIP3    H166484   4.729   0.985  16.243  1.6187 -0.0355 -0.6075
15023TIP3    H266485   4.735   0.836  16.272  0.1848  0.0185  0.0525
15024TIP3   OH266486   3.676   3.256  16.607  0.1598 -0.3808 -0.9958
15024TIP3    H166487   3.741   3.321  16.633 -0.6039  0.7573 -1.8069
15024TIP3    H266488   3.723   3.173  16.606  0.9336 -0.0133  0.9791
15025TIP3   OH266489   1.220   4.323   2.987  0.2390  0.1084 -0.0594
15025TIP3    H166490   1.299   4.372   3.005 -0.8916  2.5659 -1.3133
15025TIP3    H266491   1.233   4.286   2.900  0.2378 -0.0294 -0.0025
15026TIP3   OH266492   6.745   1.073   4.467 -0.4034 -0.2322  0.1045
15026TIP3    H166493   6.674   1.112   4.417  1.1223  0.6206 -1.4925
15026TIP3    H266494   6.799   1.028   4.402 -0.0242 -1.7694  1.4144
15027TIP3   OH266495   2.948   1.661   3.892 -0.2010  0.4513  0.5415
15027TIP3    H166496   3.028   1.705   3.918  0.2365 -0.4342  0.7375
15027TIP3    H266497   2.977   1.592   3.832 -0.7733 -0.0786  0.8553
15028TIP3   OH266498   2.870   0.090   4.449 -0.0493  0.0843  0.3219
15028TIP3    H166499   2.867   0.075   4.355  1.6112  1.9700 -0.0798
15028TIP3    H266500   2.962   0.111   4.468 -0.5007  0.5640  2.2329
15029TIP3   OH266501   1.223   2.675  16.789 -0.4758 -0.0397  0.2190
15029TIP3    H166502   1.180   2.697  16.872 -1.3015  0.5822 -0.3609
15029TIP3    H266503   1.165   2.710  16.722 -0.0620 -0.9671 -0.6473
15030TIP3   OH266504   4.894   0.529  16.495 -0.3279  0.0783 -0.4077
15030TIP3    H166505   4.961   0.471  16.534  2.2642  1.9313 -1.7733
15030TIP3    H266506   4.820   0.471  16.478  0.4472 -1.9042  2.1766
15031TIP3   OH266507   3.877   4.234   0.080  0.3203 -0.0841  0.4629
15031TIP3    H166508   3.825   4.167   0.036  0.5866 -0.1685  0.2712
15031TIP3    H266509   3.943   4.260   0.015  1.1942 -0.7487  1.0538
15032TIP3   OH266510   6.211   3.934   1.206 -0.1368  0.4915  0.0130
15032TIP3    H166511   6.157   3.858   1.228 -0.1834  0.3194 -0.6628
15032TIP3    H266512   6.297   3.913   1.243  0.4731 -0.9200 -1.9917
15033TIP3   OH266513   0.647   2.905  15.638  0.2733  0.0766 -0.1194
15033TIP3    H166514   0.714   2.837  15.626  0.6372  0.1297  1.3979
15033TIP3    H266515   0.604   2.882  15.721  0.2095  1.5275  0.2812
15034TIP3   OH266516   5.896   5.462  12.057  0.5382  0.3598  0.2728
15034TIP3    H166517   5.859   5.422  11.978 -0.2002  0.0926  0.7560
15034TIP3    H266518   5.913   5.389  12.116  1.0335  0.5676  0.3955
15035TIP3   OH266519   5.173   5.516   5.043 -0.0484 -0.6823 -0.3288
15035TIP3    H166520   5.124   5.583   4.994  0.3734 -0.1897 -0.0954
15035TIP3    H266521   5.118   5.495   5.118  0.6229  0.8182  0.6431
15036TIP3   OH266522   4.972   3.910  12.335  0.1770  0.1189 -0.4024
15036TIP3    H166523   4.882   3.922  12.366  0.3449  0.1185  0.0892
15036TIP3    H266524   5.007   3.998  12.329  0.1712  0.1135 -0.5131
15037TIP3   OH266525   1.852   5.173   4.727  0.3053 -0.3781 -0.3103
15037TIP3    H166526   1.810   5.195   4.810  1.7802  1.5483  0.0072
15037TIP3    H266527   1.820   5.086   4.706 -1.4488 -0.2125  1.3935
15038TIP3   OH266528   3.131   4.472  16.783 -0.4569  0.1068  0.2522
15038TIP3    H166529   3.058   4.413  16.805 -0.8484  0.2032 -0.7577
15038TIP3    H266530   3.119   4.546  16.843  0.6392 -1.2423  2.2587
15039TIP3   OH266531   1.171   5.621   0.298 -0.2917 -0.1332  0.3475
15039TIP3    H166532   1.190   5.622   0.391 -0.1565 -1.4024  0.3572
15039TIP3    H266533   1.077   5.640   0.292 -0.4612 -0.7789  0.8082
15040TIP3   OH266534   3.416   2.353  13.714 -0.3952 -0.2447 -0.9401
15040TIP3    H166535   3.345   2.326  13.772 -0.3479 -0.6626 -1.0751
15040TIP3    H266536   3.479   2.395  13.772  0.6017 -2.4510 -0.3323
15041TIP3   OH266537   0.110   2.217   4.504  0.2112 -0.4157 -0.1602
15041TIP3    H166538   0.107   2.305   4.540  2.3807 -0.0515 -0.7339
15041TIP3    H266539   0.189   2.178   4.542  0.3006 -1.4455 -1.3356
15042TIP3   OH266540   6.583   0.858   4.149  0.0205 -0.0459  0.1750
15042TIP3    H166541   6.555   0.773   4.116 -0.6976  0.3154 -0.1647
15042TIP3    H266542   6.502   0.901   4.177  0.4869  0.0768  1.4381
15043TIP3   OH266543   6.000   2.336  11.450 -0.1549  0.4199  0.4429
15043TIP3    H166544   5.983   2.381  11.367  1.4238 -1.0551 -0.7403
15043TIP3    H266545   5.922   2.281  11.464  0.7367 -1.5035 -1.6198
15044TIP3   OH266546   6.718   3.085   0.593  0.0371  0.1791  0.5802
15044TIP3    H166547   6.722   3.001   0.639  0.4268  0.1534  0.4966
15044TIP3    H266548   6.680   3.063   0.507 -0.8516  0.2537  0.9420
15045TIP3   OH266549   3.055   3.869   2.110 -0.3519  0.1000 -0.2136
15045TIP3    H166550   3.092   3.801   2.167  0.2464 -0.0873 -0.8107
15045TIP3    H266551   2.968   3.836   2.087 -0.4777  0.0346  0.3430
15046TIP3   OH266552   0.953   1.625  11.062 -0.3643  0.0842 -0.6166
15046TIP3    H166553   0.872   1.657  11.023 -0.2363 -0.9126 -1.7734
15046TIP3    H266554   1.022   1.654  11.002  0.0320  0.0433 -0.1872
15047TIP3   OH266555   6.611   2.516  12.034 -0.8066 -0.4534  0.1238
15047TIP3    H166556   6.599   2.435  11.985 -1.2555 -1.0093  1.1307
15047TIP3    H266557   6.622   2.583  11.966 -0.9971 -1.2602 -0.7273
15048TIP3   OH266558   4.001   6.344  15.930 -0.5093  0.2034  0.0402
15048TIP3    H166559   4.059   6.378  15.863  1.0119  0.0414  1.2165
15048TIP3    H266560   3.918   6.388  15.914 -0.2107  0.1418 -1.9353
15049TIP3   OH266561   1.166   1.216   0.751  0.3972 -0.6923  0.5596
15049TIP3    H166562   1.174   1.238   0.844 -0.3232  0.6793  0.3224
15049TIP3    H266563   1.113   1.286   0.714  0.6707 -1.2137 -0.8974
15050TIP3   OH266564   6.470   6.349   4.406  0.5614 -0.6245  0.1029
15050TIP3    H166565   6.527   6.410   4.360 -0.2754  1.6091  1.8679
15050TIP3    H266566   6.490   6.263   4.368  1.5361  0.7587 -2.7125
15051TIP3   OH266567   2.595   4.468   0.819 -0.7813 -0.1783  0.4823
15051TIP3    H166568   2.564   4.446   0.731 -1.0684  0.2754  0.4641
15051TIP3    H266569   2.687   4.491   0.807 -1.0963  0.9395  0.1185
15052TIP3   OH266570   6.140   1.397   5.574 -0.2660 -0.3325 -0.0402
15052TIP3    H166571   6.188   1.325   5.615  1.9816 -0.6350 -2.8725
15052TIP3    H266572   6.088   1.354   5.505 -0.3138  0.5444 -0.5681
15053TIP3   OH266573   3.167   3.708   1.638 -0.2048  0.9033 -0.0616
15053TIP3    H166574   3.215   3.643   1.688 -0.6868  0.5082 -0.1016
15053TIP3    H266575   3.076   3.679   1.643 -0.3463  1.2453 -0.5842
15054TIP3   OH266576   5.754   5.168  12.117  0.6847  0.1818  0.1483
15054TIP3    H166577   5.807   5.119  12.054  0.9316 -1.0581  1.2911
15054TIP3    H266578   5.672   5.119  12.122  0.9095 -0.0837  1.2680
15055TIP3   OH266579   4.391   3.234  15.370 -0.0530 -0.0507 -0.1628
15055TIP3    H166580   4.324   3.255  15.305  0.0041  0.5270 -0.0444
15055TIP3    H266581   4.431   3.319  15.391  1.3394 -0.4868 -0.9023
15056TIP3   OH266582   4.506   5.271   2.094 -0.4466 -0.1079  0.7522
15056TIP3    H166583   4.526   5.364   2.083 -3.3313  0.3304 -2.1698
15056TIP3    H266584   4.556   5.228   2.025 -2.0098 -0.1897 -0.3657
15057TIP3   OH266585   4.181   2.044   2.979  0.3148  0.7208 -0.6091
15057TIP3    H166586   4.203   2.125   2.934  0.2336  1.7379  1.0954
15057TIP3    H266587   4.181   2.067   3.072  2.2806 -1.6942  0.0953
15058TIP3   OH266588   2.744   6.456  12.404  0.4767 -0.4809 -0.1503
15058TIP3    H166589   2.785   6.509  12.473 -1.1287  1.0039 -0.2807
15058TIP3    H266590   2.656   6.493  12.394  0.5177 -0.8852 -2.7163
15059TIP3   OH266591   4.790   1.069  15.691 -0.1478  0.1478  0.2336
15059TIP3    H166592   4.717   1.040  15.637  0.8823 -0.5476 -0.8290
15059TIP3    H266593   4.790   1.008  15.766  0.1508 -0.7033 -0.4441
15060TIP3   OH266594   3.577   3.834  14.112 -0.1975 -0.0594  0.7063
15060TIP3    H166595   3.612   3.839  14.023 -0.4185  1.8768  0.6848
15060TIP3    H266596   3.574   3.925  14.142  1.2970 -0.7529  3.2673
15061TIP3   OH266597   0.260   0.856   5.256  0.7613 -0.1092  0.4565
15061TIP3    H166598   0.325   0.912   5.299  0.3240 -1.0342  2.4190
15061TIP3    H266599   0.239   0.790   5.321 -1.1246 -0.6534 -0.6476
15062TIP3   OH266600   1.877   0.693   2.299  0.0062 -0.3501 -0.3508
15062TIP3    H166601   1.893   0.751   2.225  1.3303 -1.5970 -1.0924
15062TIP3    H266602   1.783   0.675   2.296  0.0433 -0.4236 -1.7621
15063TIP3   OH266603   2.177   2.748   0.292  0.1623 -0.4019  0.0785
15063TIP3    H166604   2.150   2.792   0.212 -0.2911  1.3653  1.1363
15063TIP3    H266605   2.127   2.666   0.294  0.1300 -0.4305 -1.3692
15064TIP3   OH266606   0.435   5.927  11.713  0.1377 -0.4000  0.1353
15064TIP3    H166607   0.351   5.947  11.754  1.7429  2.4901  2.3577
15064TIP3    H266608   0.426   5.961  11.623 -1.0610 -0.1891  0.3108
15065TIP3   OH266609   4.109   4.394  15.470 -0.7922 -0.5247 -0.1278
15065TIP3    H166610   4.177   4.444  15.515 -1.3139  0.5268 -0.4741
15065TIP3    H266611   4.156   4.345  15.402 -0.2290 -0.7915  0.4449
15066TIP3   OH266612   1.320   2.901  14.185 -0.3721 -0.2514 -0.2237
15066TIP3    H166613   1.272   2.821  14.164 -2.2141  0.6273  0.4054
15066TIP3    H266614   1.277   2.969  14.133  0.6064  0.4730 -0.1112
15067TIP3   OH266615   2.405   3.262  10.537 -0.2488  0.2545 -0.2351
15067TIP3    H166616   2.355   3.300  10.465 -0.8681  0.6918  0.4246
15067TIP3    H266617   2.494   3.297  10.525 -0.0982 -0.4577 -1.3523
15068TIP3   OH266618   0.061   2.872   2.591 -0.5807  0.0440  0.1157
15068TIP3    H166619   0.062   2.928   2.669 -0.4277 -0.5913  0.5755
15068TIP3    H266620   0.148   2.883   2.553 -0.5178  0.0491  0.2595
15069TIP3   OH266621   2.588   5.007   1.424 -0.6790  0.0966  0.1525
15069TIP3    H166622   2.607   4.917   1.398  0.5431  1.0576 -2.7551
15069TIP3    H266623   2.641   5.021   1.502 -0.1440 -1.4199  0.0893
15070TIP3   OH266624   5.130   0.409  16.795  0.0831  0.4625 -0.0153
15070TIP3    H166625   5.039   0.414  16.825  0.2607  0.3532  0.5624
15070TIP3    H266626   5.125   0.369  16.708 -0.4818  1.1632 -0.3079
15071TIP3   OH266627   3.554   2.077   0.859  0.3303 -0.0354  1.0771
15071TIP3    H166628   3.545   2.090   0.954  1.8799 -0.7467  1.3551
15071TIP3    H266629   3.522   1.988   0.844  0.7446 -0.1767  1.0384
15072TIP3   OH266630   3.555   6.105  12.756 -0.1473  0.6893 -0.7071
15072TIP3    H166631   3.493   6.146  12.696 -1.9395 -0.5961  0.1746
15072TIP3    H266632   3.513   6.110  12.842 -0.3618 -2.5968 -0.4831
15073TIP3   OH266633   0.710   0.522   2.770  0.2091  0.8426  0.5633
15073TIP3    H166634   0.804   0.539   2.776  0.8145 -1.5021 -1.0214
15073TIP3    H266635   0.683   0.562   2.688  0.1335  0.3092  0.3237
15074TIP3   OH266636   4.044   0.851   1.753 -0.0539  0.0475  0.0200
15074TIP3    H166637   4.052   0.932   1.702 -0.9836 -0.0828 -0.3612
15074TIP3    H266638   4.003   0.789   1.693 -0.4526 -0.3440  0.6740
15075TIP3   OH266639   2.425   1.637   0.189  0.2735 -0.4274 -0.3413
15075TIP3    H166640   2.461   1.671   0.107 -0.1657 -1.7381 -1.1118
15075TIP3    H266641   2.391   1.714   0.235 -0.7612  0.1713 -2.0361
15076TIP3   OH266642   5.428   5.461  11.611  0.0112 -0.2776  0.0335
15076TIP3    H166643   5.510   5.506  11.627  0.5226 -1.0174 -0.4223
15076TIP3    H266644   5.391   5.504  11.533  0.6627 -0.8459 -0.6053
15077TIP3   OH266645   5.875   2.856   2.757  1.1120  0.1439 -0.1710
15077TIP3    H166646   5.960   2.824   2.788  1.9278  0.3132 -2.0316
15077TIP3    H266647   5.841   2.909   2.829  1.2294 -2.1978  1.7290
15078TIP3   OH266648   1.088   6.123   5.820  0.2579 -0.0162  0.2385
15078TIP3    H166649   1.109   6.071   5.898  1.2339 -0.6868 -0.4428
15078TIP3    H266650   1.165   6.115   5.765 -1.5773 -2.2918 -2.2551
15079TIP3   OH266651   2.381   1.470   3.769 -1.1237 -0.1639 -0.1405
15079TIP3    H166652   2.419   1.558   3.766 -0.3845 -0.4814 -0.4557
15079TIP3    H266653   2.400   1.439   3.857  1.8230 -1.3380 -1.0462
15080TIP3   OH266654   2.900   6.096  10.613 -0.4747 -0.4612 -0.3643
15080TIP3    H166655   2.811   6.064  10.597 -0.3813 -0.1820 -1.5222
15080TIP3    H266656   2.914   6.082  10.707 -2.0527  0.2859  0.0179
15081TIP3   OH266657   2.723   1.883   0.859  0.8325 -0.1409 -0.0340
15081TIP3    H166658   2.662   1.814   0.886 -0.3623  0.8372 -0.1099
15081TIP3    H266659   2.726   1.943   0.933  1.0888  0.2159 -0.3291
15082TIP3   OH266660   3.124   1.586  11.389  0.1212 -0.1422 -0.2362
15082TIP3    H166661   3.193   1.649  11.412  0.4958 -0.6155 -0.0385
15082TIP3    H266662   3.091   1.616  11.305 -0.7616  1.2077  0.5377
15083TIP3   OH266663   5.989   1.350  11.292 -0.4994  0.1873 -0.5136
15083TIP3    H166664   5.933   1.295  11.238  0.2685 -0.2888 -0.8469
15083TIP3    H266665   5.938   1.429  11.307 -1.5530 -0.5240 -0.1938
15084TIP3   OH266666   0.084   3.880  12.509  0.2845  0.0325 -0.9349
15084TIP3    H166667   0.111   3.797  12.469  2.1319 -0.7215  1.5876
15084TIP3    H266668   0.119   3.948  12.451  1.2833 -0.9712 -1.5488
15085TIP3   OH266669   6.119   3.147  16.959 -0.2661  0.2353 -0.1913
15085TIP3    H166670   6.028   3.150  16.989 -1.1552 -1.5376 -2.3946
15085TIP3    H266671   6.164   3.094  17.025 -1.5152 -1.2773 -0.5023
15086TIP3   OH266672   2.781   3.278  11.268 -0.1281 -0.5678  0.3669
15086TIP3    H166673   2.836   3.315  11.337 -2.1409  1.8137  0.8381
15086TIP3    H266674   2.802   3.331  11.191 -1.9956  0.7263  0.6776
15087TIP3   OH266675   1.734   1.802  11.278  0.5758 -0.5228  0.1251
15087TIP3    H166676   1.823   1.786  11.311  0.7777  1.2448  0.5707
15087TIP3    H266677   1.747   1.817  11.184  1.0976  1.7477  0.5017
15088TIP3   OH266678   2.772   1.362   3.751 -0.4055  0.0814 -0.1729
15088TIP3    H166679   2.746   1.336   3.839 -0.3142  1.5811  0.3254
15088TIP3    H266680   2.733   1.296   3.694 -1.0077 -0.5518  0.9423
15089TIP3   OH266681   5.776   2.973   4.812 -0.5223 -0.0093 -0.2810
15089TIP3    H166682   5.831   2.961   4.735  0.9034 -0.5385  0.7571
15089TIP3    H266683   5.690   2.941   4.786 -0.2684  0.5067 -1.8571
15090TIP3   OH266684   3.523   0.414  13.306 -0.1095 -0.3769 -0.1214
15090TIP3    H166685   3.434   0.434  13.279  0.3882  1.5469 -0.5069
15090TIP3    H266686   3.551   0.344  13.248 -0.0815  1.6744 -2.7842
15091TIP3   OH266687   3.788   1.553   1.137 -0.8330 -1.0630 -0.1315
15091TIP3    H166688   3.765   1.591   1.221 -0.2528 -1.2551  0.1197
15091TIP3    H266689   3.817   1.627   1.083 -1.7672 -0.8550 -0.3684
15092TIP3   OH266690   3.845   0.234  11.779 -0.3795 -0.4135  0.2842
15092TIP3    H166691   3.784   0.194  11.841 -1.0904 -0.1765 -0.2558
15092TIP3    H266692   3.821   0.197  11.695 -1.1054  1.2157 -0.2426
15093TIP3   OH266693   1.661   3.860  16.164  0.3015  0.1015 -0.2166
15093TIP3    H166694   1.602   3.807  16.111 -0.1759 -0.1839  0.5745
15093TIP3    H266695   1.722   3.798  16.203 -0.0937  0.1555  0.5033
15094TIP3   OH266696   2.726   2.000  11.435 -0.0748 -0.1071  0.1315
15094TIP3    H166697   2.814   1.973  11.408 -0.6896 -0.5812 -1.4576
15094TIP3    H266698   2.670   1.926  11.414 -1.2986  1.2232 -1.4857
15095TIP3   OH266699   2.945   3.034  12.349 -0.0672  0.0981  0.6353
15095TIP3    H166700   2.974   2.997  12.433 -0.4525 -1.4179  0.1194
15095TIP3    H266701   3.020   3.025  12.291 -0.4132 -0.6215  0.2874
15096TIP3   OH266702   4.381   1.244   1.162 -0.0372 -0.7597  0.4021
15096TIP3    H166703   4.439   1.267   1.234  3.2899  0.7572 -2.4442
15096TIP3    H266704   4.425   1.172   1.117 -0.0927  0.5649 -1.9905
15097TIP3   OH266705   2.872   2.711   0.377 -0.3402  0.7882 -0.4437
15097TIP3    H166706   2.918   2.795   0.388 -1.5466  1.2478  1.6168
15097TIP3    H266707   2.780   2.735   0.366 -0.5129 -0.2430 -1.4664
15098TIP3   OH266708   0.368   5.421  16.795 -0.4761 -0.3249 -0.1325
15098TIP3    H166709   0.377   5.326  16.791 -0.9521 -0.3376 -1.6234
15098TIP3    H266710   0.458   5.453  16.800 -0.3536 -0.8611  2.1012
15099TIP3   OH266711   2.174   2.336   0.020  0.0913  0.2919 -0.1793
15099TIP3    H166712   2.100   2.276   0.007 -2.0286  2.4464  1.0002
15099TIP3    H266713   2.226   2.296   0.090  0.7034 -1.7829 -1.7419
15100TIP3   OH266714   5.322   5.353   2.360 -0.1432 -0.7160  0.1398
15100TIP3    H166715   5.355   5.263   2.360  3.0213  0.3212  0.8069
15100TIP3    H266716   5.377   5.399   2.423 -0.6679  2.0272 -1.2308
15101TIP3   OH266717   0.094   3.030  13.877  0.1050  0.4062  0.1702
15101TIP3    H166718   0.144   3.097  13.830 -1.2525  2.2555  1.2267
15101TIP3    H266719   0.007   3.034  13.838  0.1890 -1.4147 -0.3268
15102TIP3   OH266720   5.053   3.220   1.884  0.3879 -0.1476 -0.3201
15102TIP3    H166721   4.965   3.187   1.903  0.6237 -0.1053  0.9414
15102TIP3    H266722   5.096   3.224   1.969  1.2112  1.0253 -0.7681
15103TIP3   OH266723   0.168   4.181  11.858 -0.4550  0.0972 -0.8773
15103TIP3    H166724   0.121   4.244  11.805 -1.7391 -0.4441 -0.4203
15103TIP3    H266725   0.251   4.224  11.880 -0.5777  0.9258 -1.9923
15104TIP3   OH266726   4.253   0.667  13.952  0.3181  0.2081  0.5425
15104TIP3    H166727   4.238   0.626  14.037 -0.5517  0.0930  0.3489
15104TIP3    H266728   4.177   0.724  13.940 -0.8427 -1.6006 -1.2126
15105TIP3   OH266729   0.710   5.076   2.117 -0.1584 -0.3576 -0.7584
15105TIP3    H166730   0.664   5.027   2.184 -2.4031  0.2399 -1.7627
15105TIP3    H266731   0.765   5.011   2.073  1.2188 -0.7936  1.4351
15106TIP3   OH266732   1.993   2.108   0.033  0.0159  0.5730  0.3387
15106TIP3    H166733   2.036   2.023   0.045 -0.8578 -0.3755 -2.3335
15106TIP3    H266734   1.900   2.089   0.048 -0.0693  1.3096  0.7608
15107TIP3   OH266735   2.008   5.232   2.480 -0.1086  0.1905 -0.4900
15107TIP3    H166736   2.042   5.238   2.391  0.4389 -0.4442 -0.3243
15107TIP3    H266737   1.916   5.209   2.469 -0.3421  1.2592 -0.9164
15108TIP3   OH266738   1.953   6.176  15.937  0.2753  0.3481 -0.0914
15108TIP3    H166739   1.966   6.110  16.005  0.7758  0.3838 -0.1469
15108TIP3    H266740   1.860   6.170  15.915  0.7957 -2.3444 -2.1512
15109TIP3   OH266741   1.272   4.663   3.948 -0.0132 -0.3453  0.1215
15109TIP3    H166742   1.367   4.659   3.935  0.1856 -0.1310  1.3671
15109TIP3    H266743   1.237   4.684   3.862  1.0642 -0.5640 -0.3854
15110TIP3   OH266744   1.581   4.540  13.966 -0.2445 -0.0756  0.2064
15110TIP3    H166745   1.548   4.469  13.910  0.6350 -1.3914  1.2988
15110TIP3    H266746   1.652   4.500  14.016 -0.6643  1.1962  1.9047
15111TIP3   OH266747   4.601   3.086  11.794 -0.3120 -0.5187 -0.0321
15111TIP3    H166748   4.600   3.036  11.876 -1.4896 -1.8261 -0.8026
15111TIP3    H266749   4.555   3.168  11.816 -1.6389 -1.3305  0.3768
15112TIP3   OH266750   5.383   2.627  15.632 -0.1620 -0.1357 -0.2113
15112TIP3    H166751   5.292   2.621  15.662 -0.0850  2.4670  0.7613
15112TIP3    H266752   5.378   2.607  15.538 -1.5677 -0.9410  0.0055
15113TIP3   OH266753   4.548   1.704  14.740 -0.0698  0.7070  0.4474
15113TIP3    H166754   4.639   1.690  14.714 -0.0083 -0.3543  1.1620
15113TIP3    H266755   4.553   1.757  14.819 -0.1237  1.4359 -0.0312
15114TIP3   OH266756   3.978   4.880  13.106  0.2814  0.7868 -0.0956
15114TIP3    H166757   3.903   4.926  13.144  0.1297  0.6420 -0.2202
15114TIP3    H266758   4.053   4.908  13.159  0.1772  1.1114 -0.1165
15115TIP3   OH266759   2.856   5.604   2.868 -0.2279 -0.0122  0.2016
15115TIP3    H166760   2.788   5.639   2.925 -1.2900 -1.4263 -0.1390
15115TIP3    H266761   2.896   5.681   2.829  0.9922  1.0456  3.2862
15116TIP3   OH266762   4.060   5.005   3.325 -0.0955  0.3427  0.1844
15116TIP3    H166763   3.997   4.947   3.282  0.4004  0.0269 -0.1331
15116TIP3    H266764   4.049   4.988   3.418 -1.1203  0.9680  0.1954
15117TIP3   OH266765   3.889   3.628  16.799 -0.0862 -0.1228  0.2830
15117TIP3    H166766   3.869   3.612  16.892 -1.9549 -1.0618 -0.2307
15117TIP3    H266767   3.949   3.558  16.775 -0.1087 -0.2584  0.6154
15118TIP3   OH266768   0.977   4.195   4.491 -0.3801 -0.2924  0.1172
15118TIP3    H166769   1.040   4.127   4.469  1.3586  0.6002  2.0546
15118TIP3    H266770   0.921   4.156   4.559  1.3251  0.4549  2.0574
15119TIP3   OH266771   0.159   6.589   0.676 -0.0994 -0.2403 -0.1728
15119TIP3    H166772   0.224   6.655   0.701 -0.5867 -0.6529  2.3791
15119TIP3    H266773   0.109   6.631   0.605 -0.2083  2.0647  1.1776
15120TIP3   OH266774   6.799   6.622  13.242  0.4464  0.2563  0.5239
15120TIP3    H166775   6.870   6.562  13.220 -0.7953  0.0117 -3.4537
15120TIP3    H266776   6.724   6.565  13.261 -0.3926  0.3888 -2.0176
15121TIP3   OH266777   5.562   3.833   2.722  0.0376 -0.0790 -0.0227
15121TIP3    H166778   5.529   3.767   2.661  0.6455  1.3423 -1.9958
15121TIP3    H266779   5.600   3.783   2.794 -0.4420 -1.8367 -0.9453
15122TIP3   OH266780   6.470   1.312   4.642 -0.1784 -0.5417 -0.0610
15122TIP3    H166781   6.428   1.261   4.712  2.4047  0.2921  2.2504
15122TIP3    H266782   6.555   1.338   4.678  0.0295  2.5833 -2.3812
15123TIP3   OH266783   3.326   3.510   1.749 -0.4168 -0.1224 -0.0851
15123TIP3    H166784   3.388   3.447   1.712 -1.8669 -1.2211 -0.7170
15123TIP3    H266785   3.362   3.531   1.836  2.1736  1.2546 -1.3828
15124TIP3   OH266786   0.855   5.731  11.265  0.0524  0.1973  0.1150
15124TIP3    H166787   0.771   5.765  11.295 -0.7343 -1.6002  0.0783
15124TIP3    H266788   0.836   5.694  11.178  0.5856 -1.2340  0.5791
15125TIP3   OH266789   1.781   3.633  14.725  0.1516  0.3591  0.6499
15125TIP3    H166790   1.841   3.704  14.749  0.6934 -0.3386  1.4498
15125TIP3    H266791   1.702   3.651  14.776  0.0576  0.7240  0.3779
15126TIP3   OH266792   3.768   3.164  12.082  0.5488  0.0861 -0.5805
15126TIP3    H166793   3.717   3.087  12.057 -0.3252  0.9880 -1.7670
15126TIP3    H266794   3.854   3.150  12.043  0.6655 -0.6611 -0.0685
15127TIP3   OH266795   1.823   4.338   5.138 -0.5041  0.2392 -0.0681
15127TIP3    H166796   1.748   4.287   5.110 -0.2634  0.0820 -0.4319
15127TIP3    H266797   1.791   4.428   5.141 -0.9052  0.0845  0.4946
15128TIP3   OH266798   0.615   5.507   2.718  0.7340 -0.5143  0.3411
15128TIP3    H166799   0.685   5.564   2.685  1.4783 -0.4514  1.9399
15128TIP3    H266800   0.630   5.423   2.676  1.7338 -0.4771  0.5986
15129TIP3   OH266801   5.047   1.327   1.385  0.5309  0.0529 -0.1017
15129TIP3    H166802   5.089   1.390   1.326 -1.1944  0.6015 -0.8027
15129TIP3    H266803   5.007   1.263   1.326 -1.6488  0.8742  0.3793
15130TIP3   OH266804   1.521   2.948  16.618 -0.1509  0.5026 -0.5133
15130TIP3    H166805   1.615   2.961  16.633 -0.0456 -0.4963 -0.2405
15130TIP3    H266806   1.493   2.893  16.690 -1.0881  1.2695 -0.2664
15131TIP3   OH266807   1.226   3.181  17.083  0.3519  0.3969  0.8571
15131TIP3    H166808   1.137   3.147  17.091  0.2679  0.2319 -0.4537
15131TIP3    H266809   1.282   3.104  17.088  0.2841  0.2635 -0.1899
15132TIP3   OH266810   0.583   0.597  15.546  0.5566  0.0585 -0.0541
15132TIP3    H166811   0.610   0.532  15.611 -0.6122  1.2486  1.7094
15132TIP3    H266812   0.653   0.662  15.546 -0.1635  0.8478  1.1832
15133TIP3   OH266813   6.055   4.361   1.053 -0.0083  0.7083 -0.8080
15133TIP3    H166814   6.151   4.353   1.052  0.0163  0.3689  1.1541
15133TIP3    H266815   6.039   4.454   1.038  0.8411  1.5132  2.4954
15134TIP3   OH266816   4.365   2.128  15.958 -0.0983  0.0617  0.0471
15134TIP3    H166817   4.298   2.152  16.022 -1.3661 -1.4144 -0.6784
15134TIP3    H266818   4.325   2.147  15.874  0.2880 -1.0644 -0.4051
15135TIP3   OH266819   2.514   0.705  14.747  0.5795  0.1282  0.1176
15135TIP3    H166820   2.516   0.758  14.667  1.8565 -0.6248 -0.3772
15135TIP3    H266821   2.421   0.697  14.767  0.2761  1.0736 -0.7908
15136TIP3   OH266822   2.897   3.649   2.039 -0.5135 -0.1957 -0.5128
15136TIP3    H166823   2.822   3.690   1.996 -0.9792 -1.5239 -1.0230
15136TIP3    H266824   2.858   3.600   2.112 -0.2423 -1.3414 -1.1110
15137TIP3   OH266825   2.681   0.728  11.594 -0.3346  0.1960 -0.3533
15137TIP3    H166826   2.770   0.753  11.618  0.4867 -3.7904  1.6266
15137TIP3    H266827   2.630   0.743  11.674 -0.6726 -0.6093 -0.4087
15138TIP3   OH266828   3.306   4.855   6.565  0.8538  0.7051 -1.1637
15138TIP3    H166829   3.355   4.866   6.646 -1.9546 -2.7150  1.3347
15138TIP3    H266830   3.258   4.937   6.554  0.3793  0.8494  1.3899
15139TIP3   OH266831   0.797   4.326  15.993  0.2538 -0.8573  0.0841
15139TIP3    H166832   0.782   4.239  16.029 -0.5458 -0.6320  0.3292
15139TIP3    H266833   0.804   4.382  16.070  1.7626 -0.8360 -0.0386
15140TIP3   OH266834   0.809   2.165   3.747 -0.5917  0.2328  0.0108
15140TIP3    H166835   0.716   2.147   3.735 -0.7577  0.6238  0.6828
15140TIP3    H266836   0.850   2.079   3.746 -1.0282  0.0160  0.2899
15141TIP3   OH266837   1.735   0.107  13.229  0.4684 -0.0464  0.3616
15141TIP3    H166838   1.818   0.068  13.201  0.1307  0.5559 -1.6245
15141TIP3    H266839   1.679   0.033  13.249  0.9547 -0.5018  0.0664
15142TIP3   OH266840   6.010   5.350   1.933 -0.0770  0.1433 -0.4410
15142TIP3    H166841   6.101   5.371   1.909 -0.8688  1.4937 -2.5222
15142TIP3    H266842   5.959   5.423   1.899 -1.9958 -0.6706  0.5522
15143TIP3   OH266843   6.104   0.072   4.272  0.4494  0.0525  0.4397
15143TIP3    H166844   6.018   0.071   4.231 -0.2137 -3.1253  1.6707
15143TIP3    H266845   6.161   0.027   4.209  0.2634 -1.4464  1.3056
15144TIP3   OH266846   3.763   1.087  12.722  0.2432  0.2450  0.5539
15144TIP3    H166847   3.689   1.059  12.667 -0.2562 -2.6744  2.4652
15144TIP3    H266848   3.769   1.181  12.708 -1.1883 -0.0019 -2.7884
15145TIP3   OH266849   5.433   4.577   4.300  0.2561  0.5193 -0.8455
15145TIP3    H166850   5.360   4.602   4.244  2.1389  1.9789 -2.8652
15145TIP3    H266851   5.493   4.652   4.295  2.4230 -1.0920 -0.3377
15146TIP3   OH266852   1.393   0.862  14.853 -0.3418  0.2543  0.5404
15146TIP3    H166853   1.353   0.784  14.891  0.0120 -0.4782 -0.5157
15146TIP3    H266854   1.485   0.856  14.877  0.3007 -1.2297 -1.8388
15147TIP3   OH266855   4.450   0.378  11.298  0.0776 -0.5809  0.6011
15147TIP3    H166856   4.542   0.360  11.277 -0.0666 -1.1457  0.4268
15147TIP3    H266857   4.416   0.294  11.329 -0.9966 -1.0394 -1.5901
15148TIP3   OH266858   0.664   0.063   1.362  0.4333 -0.2299 -0.0923
15148TIP3    H166859   0.715   0.055   1.442 -0.8956  1.0768  0.9314
15148TIP3    H266860   0.727   0.046   1.292  2.0789  0.4372  1.1509
15149TIP3   OH266861   0.269   1.222  14.337  0.1090  0.1599  0.5202
15149TIP3    H166862   0.249   1.233  14.244  0.0290 -0.1615  0.4993
15149TIP3    H266863   0.295   1.310  14.366  2.8783 -0.2385 -0.4590
15150TIP3   OH266864   1.752   0.500  16.401 -0.5911  0.6657 -0.0499
15150TIP3    H166865   1.799   0.494  16.484  2.7436 -0.4794 -1.8734
15150TIP3    H266866   1.756   0.412  16.364  1.4574  1.8856 -3.1028
15151TIP3   OH266867   3.648   0.076  11.503  0.4233 -0.1198 -0.0462
15151TIP3    H166868   3.728   0.030  11.528 -1.2229 -2.6871  0.8324
15151TIP3    H266869   3.622   0.037  11.419 -2.3246 -2.9311  1.8616
15152TIP3   OH266870   0.639   6.494  14.658 -0.0467 -0.3479  0.5838
15152TIP3    H166871   0.730   6.520  14.643 -0.5366  0.3582 -1.5506
15152TIP3    H266872   0.645   6.420  14.719  2.0701 -1.1227 -0.4549
15153TIP3   OH266873   3.342   2.830   0.410 -0.2666 -0.2826  0.4559
15153TIP3    H166874   3.362   2.736   0.409 -1.6820 -0.6129  0.9086
15153TIP3    H266875   3.289   2.844   0.331  0.9827  0.4092 -0.2950
15154TIP3   OH266876   4.491   2.615   4.599 -0.2366  0.0943 -0.8210
15154TIP3    H166877   4.491   2.523   4.627  0.9210  0.1705 -0.5355
15154TIP3    H266878   4.583   2.636   4.586 -0.5208  1.1153 -1.2505
15155TIP3   OH266879   2.741   0.384   4.378  0.0514  0.1845  0.7836
15155TIP3    H166880   2.668   0.375   4.317  0.0838 -1.4146  0.9281
15155TIP3    H266881   2.819   0.390   4.323 -0.0045 -0.2695  0.6549
15156TIP3   OH266882   2.683   6.489   5.815 -0.2253 -0.3440 -0.5414
15156TIP3    H166883   2.609   6.504   5.873 -1.1457  2.4035 -2.2179
15156TIP3    H266884   2.703   6.396   5.825 -2.1934 -0.6203  1.8927
15157TIP3   OH266885   4.851   5.819   1.131  0.7428  0.3302  0.0556
15157TIP3    H166886   4.849   5.913   1.151 -1.8676  0.5066 -0.5740
15157TIP3    H266887   4.845   5.777   1.217 -0.9363  0.8600  0.2415
15158TIP3   OH266888   1.113   1.615  15.063 -0.0608 -0.7012 -0.2821
15158TIP3    H166889   1.178   1.603  15.131  0.5249  0.7554 -0.5561
15158TIP3    H266890   1.152   1.576  14.985 -0.6164 -2.1146  0.0982
15159TIP3   OH266891   2.885   4.218   3.562 -0.7730 -0.2697  0.4302
15159TIP3    H166892   2.928   4.175   3.488 -1.3581  0.9389 -0.6686
15159TIP3    H266893   2.957   4.244   3.619 -0.1091  0.5134 -0.7069
15160TIP3   OH266894   5.562   4.664   2.010  0.1817 -0.0186  0.5161
15160TIP3    H166895   5.626   4.610   1.964  0.4318 -1.0307  1.9655
15160TIP3    H266896   5.513   4.709   1.941  0.8827 -1.0521 -0.6859
15161TIP3   OH266897   6.493   3.379  13.978 -0.4161  0.1392  0.0887
15161TIP3    H166898   6.505   3.310  14.043  0.7893  0.3778  0.1452
15161TIP3    H266899   6.568   3.370  13.919 -0.9407  0.5835 -0.6676
15162TIP3   OH266900   6.505   2.608   5.799 -0.0065  0.2286 -0.2602
15162TIP3    H166901   6.480   2.643   5.713  1.2588  0.2222 -0.6467
15162TIP3    H266902   6.600   2.603   5.796 -0.0539 -2.0934  0.2355
15163TIP3   OH266903   0.425   4.000  14.580  0.2854 -0.1007 -0.2845
15163TIP3    H166904   0.435   4.035  14.492  0.4391  0.8893  0.1067
15163TIP3    H266905   0.486   3.926  14.585  0.2830 -0.1518 -0.9943
15164TIP3   OH266906   5.474   2.653   4.954  0.4641  0.1632  0.0624
15164TIP3    H166907   5.550   2.637   5.010  2.1579  1.9317 -1.5620
15164TIP3    H266908   5.508   2.708   4.883 -2.1991  0.3969 -1.1525
15165TIP3   OH266909   1.678   3.167  13.534  0.8315 -0.0049 -0.1872
15165TIP3    H166910   1.621   3.236  13.567  1.5383  0.1829  0.6858
15165TIP3    H266911   1.670   3.173  13.439 -0.7467 -0.1207 -0.0931
15166TIP3   OH266912   5.749   2.978   5.105 -0.7778 -0.5392  0.5831
15166TIP3    H166913   5.741   2.970   5.010  0.5587  1.0990  0.2873
15166TIP3    H266914   5.663   3.007   5.134 -0.2937  2.5522 -0.6474
15167TIP3   OH266915   5.846   6.459   1.011 -0.7844 -0.0073 -0.2466
15167TIP3    H166916   5.769   6.466   1.069 -0.2659  0.2371  0.4316
15167TIP3    H266917   5.920   6.456   1.071 -0.2964 -0.9832 -0.8663
15168TIP3   OH266918   6.458   0.353  10.727  0.0573 -0.6009 -0.2424
15168TIP3    H166919   6.387   0.415  10.709 -0.6051 -1.0431  0.6969
15168TIP3    H266920   6.469   0.304  10.646 -0.8199 -0.6016 -0.3767
15169TIP3   OH266921   2.953   6.145   4.864 -0.3980 -0.3917 -0.5243
15169TIP3    H166922   2.904   6.173   4.941 -0.1811 -1.5510  0.0633
15169TIP3    H266923   3.018   6.213   4.850  0.5888 -0.9084  1.2837
15170TIP3   OH266924   6.739   0.391  15.551  0.4926  0.5653  0.1980
15170TIP3    H166925   6.778   0.452  15.613 -2.0874  1.8649  0.6720
15170TIP3    H266926   6.676   0.341  15.602  1.5169 -1.5574 -0.5004
15171TIP3   OH266927   0.094   3.438   3.106  0.6770  0.3358  0.4827
15171TIP3    H166928   0.120   3.372   3.170 -0.2343 -0.6644 -0.1219
15171TIP3    H266929  -0.001   3.444   3.116  0.7562  1.6621  0.6015
15172TIP3   OH266930   1.155   0.293  11.310  0.0478 -0.1822  0.1335
15172TIP3    H166931   1.237   0.326  11.274  0.3217 -0.1385  0.7942
15172TIP3    H266932   1.172   0.201  11.327 -0.1274 -0.2346  0.0304
15173TIP3   OH266933   4.556   3.254   3.539  0.3825  0.5997  0.5247
15173TIP3    H166934   4.528   3.333   3.494  0.1857  0.9282  1.2078
15173TIP3    H266935   4.643   3.236   3.504  0.5458  1.2779  0.5650
15174TIP3   OH266936   5.290   0.596  10.978 -0.0078 -0.7181  0.8792
15174TIP3    H166937   5.377   0.556  10.973  1.3023  1.6996  2.3593
15174TIP3    H266938   5.244   0.563  10.901  2.5777 -1.2606 -0.5443
15175TIP3   OH266939   3.997   3.539  14.902 -0.2353  0.0114  0.4584
15175TIP3    H166940   3.950   3.571  14.824 -0.8190 -1.6070  0.1133
15175TIP3    H266941   3.960   3.591  14.974 -1.8882 -0.5217  0.0498
15176TIP3   OH266942   4.429   0.530   4.580  0.0926  0.5845 -0.2172
15176TIP3    H166943   4.434   0.621   4.553  3.0501  0.4951 -0.2926
15176TIP3    H266944   4.447   0.480   4.500 -0.5469 -0.0373  0.0142
15177TIP3   OH266945   1.831   3.668  12.663 -0.4486  0.3105 -0.2478
15177TIP3    H166946   1.831   3.762  12.681  1.4760  0.3699 -0.3329
15177TIP3    H266947   1.898   3.656  12.596 -0.1419 -1.2007  0.2812
15178TIP3   OH266948   4.864   4.607  16.318 -0.0230 -0.2537  0.2584
15178TIP3    H166949   4.789   4.653  16.354 -0.5523  0.3634 -1.5237
15178TIP3    H266950   4.939   4.663  16.338 -0.6375  1.4088 -1.7503
15179TIP3   OH266951   3.681   6.801  13.675 -0.2145 -0.0082  0.2125
15179TIP3    H166952   3.640   6.880  13.641  1.2097  0.9944  0.7388
15179TIP3    H266953   3.627   6.775  13.749  0.9353  2.2226  1.9227
15180TIP3   OH266954   0.553   6.048  12.061 -0.4757 -0.2275 -0.1233
15180TIP3    H166955   0.631   5.992  12.064  1.0188  1.7061 -0.4555
15180TIP3    H266956   0.582   6.131  12.100 -2.6506  0.2864  0.5465
15181TIP3   OH266957   0.467   0.043  14.085 -0.0141  0.5773 -0.0279
15181TIP3    H166958   0.526  -0.021  14.046 -0.3624  0.4832 -0.4195
15181TIP3    H266959   0.524   0.106  14.129  0.4536  1.1545 -1.3991
15182TIP3   OH266960   6.414   6.202  16.404 -0.4220 -0.2439 -0.3122
15182TIP3    H166961   6.321   6.179  16.412 -0.0211 -2.2414 -0.6996
15182TIP3    H266962   6.433   6.252  16.483 -1.8917  0.4790 -0.3727
15183TIP3   OH266963   2.554   1.806   3.486  0.3886 -0.0903  0.3940
15183TIP3    H166964   2.467   1.768   3.492  0.2390 -0.1693 -1.6363
15183TIP3    H266965   2.604   1.764   3.556 -1.1725 -0.0834  1.5391
15184TIP3   OH266966   5.892   5.022   5.053  0.5612 -0.1877 -0.1148
15184TIP3    H166967   5.886   5.015   5.149  1.0713  0.4796 -0.0301
15184TIP3    H266968   5.801   5.039   5.026  0.5466  0.5500  0.3417
15185TIP3   OH266969   2.266   6.123   3.201  0.4878 -0.0082  0.0390
15185TIP3    H166970   2.272   6.209   3.159 -0.4480 -1.2169 -2.8017
15185TIP3    H266971   2.193   6.132   3.262 -0.7156  0.7840 -1.4407
15186TIP3   OH266972   1.534   0.948  16.975  0.5933 -0.0388 -0.0726
15186TIP3    H166973   1.487   0.870  16.947 -2.1599  0.5678  2.3506
15186TIP3    H266974   1.622   0.916  16.998  0.1276 -2.0395 -0.9012
15187TIP3   OH266975   1.453   1.303   4.776  0.1259 -0.1084 -0.7682
15187TIP3    H166976   1.411   1.275   4.858  1.1467  0.4009 -0.0536
15187TIP3    H266977   1.507   1.228   4.750 -1.6241 -1.0010 -2.0143
15188TIP3   OH266978   5.125   3.951  14.990  0.1412 -0.5263 -0.0260
15188TIP3    H166979   5.105   4.039  15.023 -1.5684 -0.9251  0.1024
15188TIP3    H266980   5.190   3.966  14.921 -0.1101  0.8420 -0.0107
15189TIP3   OH266981   0.748   5.894  14.584 -0.7191 -0.9583 -0.2437
15189TIP3    H166982   0.775   5.925  14.670 -0.4680 -3.1785  0.5501
15189TIP3    H266983   0.754   5.971  14.528  0.0910  0.3208  1.4961
15190TIP3   OH266984   6.423   3.579   1.371  0.5299  0.4481 -0.3263
15190TIP3    H166985   6.329   3.565   1.361  0.3156  1.5690 -0.1037
15190TIP3    H266986   6.447   3.531   1.450  0.0700  0.4296 -0.1969
15191TIP3   OH266987   4.305   2.219  15.654 -0.6021  0.8288 -0.5247
15191TIP3    H166988   4.340   2.266  15.579 -2.9807  0.4538 -1.9617
15191TIP3    H266989   4.229   2.172  15.620 -0.8251 -0.6442  1.7888
15192TIP3   OH266990   0.996   0.040  12.110 -0.0979  0.3023 -0.1643
15192TIP3    H166991   1.009   0.119  12.057 -1.0780  0.8359  0.3752
15192TIP3    H266992   0.943   0.069  12.184 -0.3713 -0.8429  0.1054
15193TIP3   OH266993   5.318   4.829   5.645  0.2557  0.1827  0.5987
15193TIP3    H166994   5.280   4.847   5.559 -1.1332 -1.5769  0.7655
15193TIP3    H266995   5.252   4.860   5.707 -0.4935 -1.8650  0.9148
15194TIP3   OH266996   1.385   5.529  13.925  0.3432  0.1487  0.2053
15194TIP3    H166997   1.344   5.549  14.009 -0.1141  0.3952 -0.0694
15194TIP3    H266998   1.391   5.433  13.924 -1.5708 -0.0122 -0.3430
15195TIP3   OH266999   6.101   1.178   5.054 -0.0369 -0.0291  0.3617
15195TIP3    H167000   6.170   1.242   5.073  0.6532 -0.8561  0.6974
15195TIP3    H267001   6.138   1.123   4.984  0.2389 -1.3726  1.5291
15196TIP3   OH267002   5.342   6.269  12.236 -0.3051 -0.3040  0.4759
15196TIP3    H167003   5.287   6.295  12.163  0.0019  0.3308  0.4656
15196TIP3    H267004   5.321   6.176  12.250 -1.5112 -0.0307  0.5994
15197TIP3   OH267005   1.600   0.388   2.305 -0.1284 -0.5300 -0.0190
15197TIP3    H167006   1.662   0.356   2.240  0.7359 -0.1023  0.5803
15197TIP3    H267007   1.604   0.483   2.299  0.3160 -0.4755  0.9790
15198TIP3   OH267008   5.846   4.159  15.596 -0.2203  0.1617  0.0472
15198TIP3    H167009   5.927   4.142  15.548 -0.5950  0.1704 -0.5964
15198TIP3    H267010   5.845   4.093  15.665  0.3544  0.1875  0.0833
15199TIP3   OH267011   2.738   1.437  12.593 -0.0643 -0.9398 -0.0016
15199TIP3    H167012   2.755   1.411  12.683 -1.4801 -0.8147  0.3227
15199TIP3    H267013   2.677   1.371  12.560 -0.6384 -0.2275 -0.4139
15200TIP3   OH267014   4.668   0.132   4.360  0.3668  0.3679  0.7314
15200TIP3    H167015   4.590   0.079   4.347 -0.4796  1.2259  2.0644
15200TIP3    H267016   4.735   0.089   4.307 -0.7766 -0.8820  0.2355
15201TIP3   OH267017   1.821   3.242  12.763  0.0458 -0.2503  0.3601
15201TIP3    H167018   1.886   3.269  12.829 -2.1247  2.9224  1.4352
15201TIP3    H267019   1.819   3.146  12.770  2.3865 -0.2656  2.4012
15202TIP3   OH267020   6.227   6.557   1.470  0.3214  0.1163 -0.7356
15202TIP3    H167021   6.160   6.523   1.529  0.5078  1.0907  0.0521
15202TIP3    H267022   6.309   6.548   1.518  0.6888 -0.4998 -1.4573
15203TIP3   OH267023   4.160   2.897   4.522 -0.1957  0.0921 -0.1804
15203TIP3    H167024   4.113   2.971   4.483 -0.7306 -1.1605 -2.0357
15203TIP3    H267025   4.092   2.840   4.556  0.1776  0.0686  0.5391
15204TIP3   OH267026   6.016   1.040  16.696 -0.4045 -0.3454  0.0143
15204TIP3    H167027   6.000   1.118  16.749  0.4104 -0.3498  0.2690
15204TIP3    H267028   6.106   1.015  16.714 -0.4429 -0.9659 -0.5711
15205TIP3   OH267029   4.117   1.764  11.427 -0.0249 -0.5146  1.1913
15205TIP3    H167030   4.135   1.730  11.340 -1.0345 -2.2321  1.6040
15205TIP3    H267031   4.021   1.763  11.434 -0.3328  3.8919  0.7301
15206TIP3   OH267032   1.192   4.817  16.892 -0.8152 -0.6290 -0.0398
15206TIP3    H167033   1.120   4.754  16.889 -0.6064 -0.8319 -2.3534
15206TIP3    H267034   1.210   4.838  16.801  1.3748  0.2245  0.5172
15207TIP3   OH267035   3.615   2.790   5.836 -0.0557 -0.3462  0.0267
15207TIP3    H167036   3.532   2.800   5.881  0.2903 -0.0885  0.6185
15207TIP3    H267037   3.668   2.735   5.894 -0.1520 -1.3693 -0.8145
15208TIP3   OH267038   2.780   4.428   2.594  0.1179 -0.1498  0.1638
15208TIP3    H167039   2.695   4.384   2.592 -0.3401  0.6339  1.4738
15208TIP3    H267040   2.842   4.359   2.619  0.1197 -1.0246 -1.9636
15209TIP3   OH267041   1.847   3.882   2.648  0.5476  0.3495  0.2468
15209TIP3    H167042   1.914   3.903   2.583  0.4578  1.6356  0.5372
15209TIP3    H267043   1.897   3.851   2.724  0.7101 -0.1979 -0.0760
15210TIP3   OH267044   3.150   0.543   4.806  0.3614 -0.2207 -0.1494
15210TIP3    H167045   3.238   0.563   4.774  1.2522 -1.4475  1.4293
15210TIP3    H267046   3.112   0.629   4.826  1.4369  0.2978 -0.2360
15211TIP3   OH267047   0.035   4.913   5.250 -0.6298  0.1467 -0.3029
15211TIP3    H167048  -0.034   4.847   5.259  0.2449 -0.9598 -1.3597
15211TIP3    H267049   0.059   4.910   5.157  1.2877  0.0287  0.1618
15212TIP3   OH267050   4.389   3.941   2.545  0.3451  0.0423 -0.5884
15212TIP3    H167051   4.309   3.951   2.598  0.7262  0.9321 -0.1677
15212TIP3    H267052   4.359   3.949   2.455 -0.1795 -0.5807 -0.4756
15213TIP3   OH267053   5.646   4.731  14.534 -0.6417 -0.1302 -0.4941
15213TIP3    H167054   5.592   4.676  14.477 -1.0921 -0.0183 -0.1771
15213TIP3    H267055   5.643   4.688  14.619  0.5959 -0.6797 -0.7079
15214TIP3   OH267056   6.362   2.269  11.106 -0.0236  0.0900 -0.0223
15214TIP3    H167057   6.369   2.289  11.013  2.2159 -0.7257 -0.0836
15214TIP3    H267058   6.338   2.176  11.110  0.6603 -0.0818  0.2010
15215TIP3   OH267059   1.324   3.323  10.833 -0.3916 -0.2699 -0.3877
15215TIP3    H167060   1.332   3.386  10.761 -0.7599 -2.0328 -2.0374
15215TIP3    H267061   1.392   3.258  10.816 -1.0920 -1.2180  0.3152
15216TIP3   OH267062   5.769   2.446  13.890 -0.1129 -0.2138  0.3030
15216TIP3    H167063   5.782   2.412  13.978 -3.5074  0.8584  1.3496
15216TIP3    H267064   5.724   2.377  13.842  0.3968 -0.2380 -0.1586
15217TIP3   OH267065   6.076   3.150   1.958 -0.4148  0.2230  0.4854
15217TIP3    H167066   6.129   3.097   1.898  0.3677  0.2677  1.1207
15217TIP3    H267067   6.026   3.208   1.901  0.1277  0.0935 -0.1374
15218TIP3   OH267068   0.277   1.082   0.470  0.5903  0.4622  0.1524
15218TIP3    H167069   0.220   1.144   0.515 -0.2022 -0.4325  0.4237
15218TIP3    H267070   0.272   1.002   0.523 -0.3855 -0.6310 -1.5001
15219TIP3   OH267071   3.355   4.781  13.428 -0.1926  0.4118  0.0228
15219TIP3    H167072   3.270   4.738  13.433 -0.2079  0.3677 -0.5453
15219TIP3    H267073   3.402   4.751  13.505 -0.4440 -0.1054 -0.0257
15220TIP3   OH267074   2.430   4.761   2.452  0.0739 -0.5523 -0.3233
15220TIP3    H167075   2.355   4.749   2.393 -0.2046 -1.3147  0.1751
15220TIP3    H267076   2.457   4.673   2.475 -0.4848 -0.2884  1.5203
15221TIP3   OH267077   6.691   4.806   3.097  0.0322 -0.4537  0.1600
15221TIP3    H167078   6.769   4.789   3.151  0.4903 -3.1065 -1.1469
15221TIP3    H267079   6.703   4.750   3.020 -2.5240  0.1214 -0.7448
15222TIP3   OH267080   0.016   3.558  14.847  0.6056  0.1863  0.1270
15222TIP3    H167081   0.007   3.469  14.813 -1.2105  0.2649  0.3527
15222TIP3    H267082   0.007   3.550  14.942  0.3977  0.6189  0.1480
15223TIP3   OH267083   4.877   1.101   4.558  0.0493  0.6626  0.3681
15223TIP3    H167084   4.966   1.066   4.550 -0.2460 -0.0207 -0.0213
15223TIP3    H267085   4.882   1.187   4.517  0.9963  1.5038  2.1139
15224TIP3   OH267086   2.315   3.183  11.494 -0.0245  0.3291 -0.0225
15224TIP3    H167087   2.386   3.136  11.538  1.3199  1.1443 -1.2219
15224TIP3    H267088   2.241   3.176  11.554  0.1561 -3.0328 -0.0243
15225TIP3   OH267089   2.863   1.033  16.665 -0.7631 -0.1141 -0.1353
15225TIP3    H167090   2.869   1.125  16.691 -1.1388 -0.1791  0.2011
15225TIP3    H267091   2.860   1.035  16.570 -0.1382  0.1800 -0.1536
15226TIP3   OH267092   0.064   5.107   1.208  0.6964 -0.5611 -0.1498
15226TIP3    H167093   0.040   5.097   1.300 -2.3106 -2.2815 -0.9795
15226TIP3    H267094   0.127   5.037   1.192  1.2498 -0.2427  0.5823
15227TIP3   OH267095   6.737   1.780   1.773  0.3201  0.3801  0.1861
15227TIP3    H167096   6.818   1.829   1.787  1.4239 -1.6854  1.4822
15227TIP3    H267097   6.708   1.755   1.861 -0.4019 -0.9412 -0.3939
15228TIP3   OH267098   4.366   2.473   4.401 -0.1831 -0.5431  0.1807
15228TIP3    H167099   4.445   2.420   4.389  1.4385  1.7001  0.4065
15228TIP3    H267100   4.396   2.552   4.445 -2.7945 -0.1266  1.4174
15229TIP3   OH267101   0.248   4.558   3.423 -0.0238 -0.3433 -0.2842
15229TIP3    H167102   0.302   4.502   3.367  1.5173  0.3398  0.4327
15229TIP3    H267103   0.305   4.579   3.497 -0.9384  1.2451  0.0141
15230TIP3   OH267104   3.588   3.387  15.455 -0.6017 -0.3699 -0.2805
15230TIP3    H167105   3.610   3.465  15.505  2.2124 -1.7094  0.7751
15230TIP3    H267106   3.616   3.407  15.366 -0.5087  0.0585 -0.1557
15231TIP3   OH267107   4.439   5.494   5.326 -0.2488  0.0759 -0.3162
15231TIP3    H167108   4.382   5.524   5.396  0.6125 -1.2701  1.0249
15231TIP3    H267109   4.381   5.446   5.267 -0.6595 -0.5305  0.5618
15232TIP3   OH267110   5.773   0.756   1.320  0.0444  0.2728 -0.1519
15232TIP3    H167111   5.777   0.799   1.235 -0.5902  0.1395 -0.2498
15232TIP3    H267112   5.744   0.825   1.380  0.8061  0.4528  0.0222
15233TIP3   OH267113   4.842   3.754  13.303 -0.9656 -0.6798  0.6758
15233TIP3    H167114   4.819   3.767  13.211 -0.1136  2.3066  0.7718
15233TIP3    H267115   4.886   3.669  13.305 -0.1091 -0.3915 -1.8787
15234TIP3   OH267116   0.540   5.500   0.607  1.2513 -0.0751 -0.1531
15234TIP3    H167117   0.586   5.471   0.528  1.5887 -0.4023  0.1574
15234TIP3    H267118   0.570   5.440   0.676  1.0839  0.3019  0.2568
15235TIP3   OH267119   4.833   4.598   0.816 -0.2520  0.5626  0.1186
15235TIP3    H167120   4.841   4.551   0.733  2.8598 -0.6617  0.9659
15235TIP3    H267121   4.763   4.552   0.863 -0.2109 -0.4781 -0.7915
15236TIP3   OH267122   3.102   0.833   6.369  0.4110 -0.7377  0.0776
15236TIP3    H167123   3.056   0.903   6.323 -0.7494 -0.5475  1.4713
15236TIP3    H267124   3.049   0.755   6.354  0.8110 -0.9808 -0.0939
15237TIP3   OH267125   1.730   1.908  16.375  0.1098  0.5670 -0.1563
15237TIP3    H167126   1.724   1.813  16.367 -0.1663  0.4589  1.1214
15237TIP3    H267127   1.809   1.932  16.327 -0.2137 -0.2068 -1.1185
15238TIP3   OH267128   2.565   5.103   3.319  0.3759 -0.0294  0.0131
15238TIP3    H167129   2.477   5.137   3.339  0.4596  0.2772 -0.1279
15238TIP3    H267130   2.549   5.032   3.257  0.3094  1.0409 -1.2633
15239TIP3   OH267131   2.746   2.016   5.097 -0.7378  0.1243 -0.0252
15239TIP3    H167132   2.795   1.989   5.174 -0.1635 -0.1344 -0.4718
15239TIP3    H267133   2.666   2.055   5.132 -0.7181 -0.4548  0.6788
15240TIP3   OH267134   1.391   5.310  13.333 -0.0051 -0.3095 -0.0875
15240TIP3    H167135   1.365   5.251  13.403 -1.9350 -0.6292 -1.0059
15240TIP3    H267136   1.309   5.344  13.298  0.8554 -0.2575 -2.2520
15241TIP3   OH267137   2.263   5.537  15.601 -0.1107 -0.0707 -0.2707
15241TIP3    H167138   2.358   5.530  15.614  0.2918  0.5086 -2.5355
15241TIP3    H267139   2.243   5.628  15.620 -0.1206 -0.0772 -0.2514
15242TIP3   OH267140   4.987   6.622   4.516 -0.5088 -0.0602  0.2704
15242TIP3    H167141   5.081   6.624   4.532  0.0878  1.4502 -2.7177
15242TIP3    H267142   4.975   6.552   4.452 -0.8361  1.7148 -1.7463
15243TIP3   OH267143   2.477   5.365   3.217  0.5535 -0.1943  0.5983
15243TIP3    H167144   2.433   5.284   3.190 -1.2582  0.6991  0.6658
15243TIP3    H267145   2.539   5.383   3.146  0.5036 -1.2824  0.2594
15244TIP3   OH267146   3.588   4.905   0.242 -0.5337  0.0896 -0.1357
15244TIP3    H167147   3.505   4.899   0.195 -1.0981  0.8375  0.7366
15244TIP3    H267148   3.563   4.917   0.333  0.5466 -0.6043  0.2643
15245TIP3   OH267149   4.488   4.160   1.970  0.7172 -0.2675 -0.2237
15245TIP3    H167150   4.451   4.224   2.030  0.2509 -0.4615 -0.3006
15245TIP3    H267151   4.559   4.118   2.019  0.5250 -0.2271  0.0886
15246TIP3   OH267152   1.642   6.363   2.062 -0.5137 -0.1379 -0.1323
15246TIP3    H167153   1.584   6.304   2.013 -1.2331 -0.3587  0.9619
15246TIP3    H267154   1.703   6.305   2.108 -0.2244  0.0466 -0.2784
15247TIP3   OH267155   6.326   3.516   4.510  0.1024 -0.2614 -0.1640
15247TIP3    H167156   6.406   3.491   4.465  0.8808 -0.4531  1.2465
15247TIP3    H267157   6.271   3.438   4.510  0.2381 -0.3557 -0.4568
15248TIP3   OH267158   5.962   2.913  15.435 -0.5416 -0.0867 -0.0995
15248TIP3    H167159   5.889   2.909  15.373 -1.8812  1.1277  1.3258
15248TIP3    H267160   5.920   2.920  15.521  1.2692 -0.9730  0.9050
15249TIP3   OH267161   5.098   6.115   3.435  0.1855 -0.6202  0.4507
15249TIP3    H167162   5.028   6.088   3.495 -1.5721  0.8468 -0.8284
15249TIP3    H267163   5.096   6.211   3.439  1.4796 -0.5422 -0.3737
15250TIP3   OH267164   5.960   4.561   3.327 -0.3408 -0.6612  0.3810
15250TIP3    H167165   5.923   4.637   3.371  0.7311 -0.5134  1.0664
15250TIP3    H267166   5.983   4.501   3.398  1.6649 -0.3047  0.0975
15251TIP3   OH267167   1.294   3.211   4.559  0.0959 -0.3117  0.1465
15251TIP3    H167168   1.250   3.287   4.595  1.0234 -0.5190  1.7852
15251TIP3    H267169   1.290   3.224   4.464 -0.4350  1.3777  0.3678
15252TIP3   OH267170   2.516   0.789  11.797  0.1724  0.1651 -0.1877
15252TIP3    H167171   2.463   0.841  11.857  1.5810  0.4177  0.8843
15252TIP3    H267172   2.538   0.710  11.846  0.5986 -0.0388 -0.6942
15253TIP3   OH267173   3.719   4.743  16.485 -0.2624 -0.3114 -0.1592
15253TIP3    H167174   3.660   4.708  16.551 -0.7641  0.2611 -0.2876
15253TIP3    H267175   3.681   4.715  16.401  1.2351 -2.4060 -0.2247
15254TIP3   OH267176   6.017   4.695  15.019 -0.0901  0.1962 -0.0053
15254TIP3    H167177   5.962   4.710  14.942  1.2041  0.6722 -0.8794
15254TIP3    H267178   6.014   4.777  15.068 -1.2093 -0.2301  0.6668
15255TIP3   OH267179   3.676   1.434   5.637  0.2383  0.2404 -0.4038
15255TIP3    H167180   3.647   1.481   5.560 -0.6890  0.1553 -0.1180
15255TIP3    H267181   3.674   1.499   5.707 -1.6188 -0.3350  0.1164
15256TIP3   OH267182   6.357   4.179  13.993  0.2721  0.1506  0.0658
15256TIP3    H167183   6.309   4.249  14.036  0.1281 -0.3785  0.7878
15256TIP3    H267184   6.449   4.207  13.996  0.1021  0.8441 -0.7099
15257TIP3   OH267185   5.414   6.294  13.779  0.1946  0.9240 -0.7504
15257TIP3    H167186   5.503   6.324  13.757  0.8815 -0.1899  0.4197
15257TIP3    H267187   5.413   6.202  13.753  0.0455  0.3982  0.9908
15258TIP3   OH267188   1.014   5.340   0.917  0.4999 -0.0792 -0.0199
15258TIP3    H167189   0.934   5.292   0.939  0.1720  0.3825 -0.1751
15258TIP3    H267190   0.987   5.432   0.918  1.2723  0.1531  0.9404
15259TIP3   OH267191   1.744   6.156  11.843  0.7551  0.1729  0.1808
15259TIP3    H167192   1.703   6.236  11.876  1.0469  0.3040  0.2225
15259TIP3    H267193   1.671   6.106  11.805  0.6227  0.5923 -0.1154
15260TIP3   OH267194   6.688   1.579  14.499 -0.4102 -0.9995 -0.3959
15260TIP3    H167195   6.756   1.585  14.431  0.4051  0.5766  0.4911
15260TIP3    H267196   6.632   1.655  14.484 -0.1361 -0.5432  0.7362
15261TIP3   OH267197   4.262   2.226  13.667  0.3515  0.1285 -0.0131
15261TIP3    H167198   4.199   2.154  13.662  0.1084  0.3607 -0.3826
15261TIP3    H267199   4.327   2.206  13.600  0.2505  0.2850 -0.1575
15262TIP3   OH267200   1.862   0.793  16.347  0.4336 -0.1783 -0.0673
15262TIP3    H167201   1.804   0.749  16.284 -0.5992  0.1694  0.6049
15262TIP3    H267202   1.825   0.770  16.433 -0.0838  1.8843  0.3149
15263TIP3   OH267203   6.135   4.408  11.044 -0.0717 -0.2995 -0.0336
15263TIP3    H167204   6.099   4.320  11.034  0.5386 -0.6248  0.5521
15263TIP3    H267205   6.201   4.414  10.974  0.2778 -0.5195  0.2722
15264TIP3   OH267206   3.827   2.626  16.880  0.7044 -0.4862 -0.3175
15264TIP3    H167207   3.922   2.641  16.885  0.5243  0.3082  0.9408
15264TIP3    H267208   3.810   2.617  16.786  2.1129 -1.2846 -0.5394
15265TIP3   OH267209   6.007   3.529   2.000  0.2530  0.3703 -0.6194
15265TIP3    H167210   6.065   3.574   2.061 -2.2458  2.3317  0.4740
15265TIP3    H267211   5.947   3.480   2.057  0.3095 -0.9946 -1.6872
15266TIP3   OH267212   0.899   5.178  11.707 -0.1360 -0.3446  0.4393
15266TIP3    H167213   0.808   5.155  11.688  0.5943 -1.9854 -1.5097
15266TIP3    H267214   0.922   5.242  11.640 -0.0323  0.6172  1.3685
15267TIP3   OH267215   2.875   0.140  13.623  0.2869  0.2161  0.3041
15267TIP3    H167216   2.871   0.233  13.600 -1.7934 -0.3120 -1.8580
15267TIP3    H267217   2.953   0.107  13.578  0.8740  0.8184  0.8485
15268TIP3   OH267218   4.139   0.559  14.635  0.6990  0.8774 -0.3254
15268TIP3    H167219   4.140   0.492  14.567  0.0115  1.5474 -1.0278
15268TIP3    H267220   4.196   0.525  14.704 -1.2338 -1.3867  0.2807
15269TIP3   OH267221   2.953   6.189   5.390  0.2695 -0.0026  0.4399
15269TIP3    H167222   2.904   6.265   5.422  2.1620  0.7692  1.7575
15269TIP3    H267223   3.045   6.216   5.396  0.9399 -1.8432 -0.6156
15270TIP3   OH267224   3.153   5.292   1.413 -0.0770  0.3242  0.1451
15270TIP3    H167225   3.080   5.341   1.377 -1.1268 -1.6189 -0.4685
15270TIP3    H267226   3.133   5.284   1.507  0.3582  1.4381  0.3526
15271TIP3   OH267227   4.646   4.889   2.657 -0.0678  0.0213  0.1008
15271TIP3    H167228   4.646   4.796   2.680 -0.1905  0.1659  0.6954
15271TIP3    H267229   4.559   4.920   2.682 -0.4630  0.0326 -1.2093
15272TIP3   OH267230   5.977   6.429  13.622  0.2622 -0.2251  0.3221
15272TIP3    H167231   5.992   6.375  13.700  1.5301  0.7375  0.7901
15272TIP3    H267232   5.924   6.502  13.653  0.9041  0.2443  0.3498
15273TIP3   OH267233   6.124   3.831  11.422 -0.3195  0.3661 -0.2548
15273TIP3    H167234   6.204   3.862  11.380  0.9881 -1.0727  1.0253
15273TIP3    H267235   6.080   3.778  11.355  0.2107  0.5183 -0.7239
15274TIP3   OH267236   4.078   1.477  12.608 -0.0794  0.2277 -0.6722
15274TIP3    H167237   4.155   1.451  12.659 -1.1666  0.4714  1.2051
15274TIP3    H267238   4.069   1.571  12.626 -0.6434  0.2601 -1.1249
15275TIP3   OH267239   2.500   3.105  15.514  0.1733 -0.1383  0.1065
15275TIP3    H167240   2.493   3.195  15.483  1.7932 -0.1701 -0.4294
15275TIP3    H267241   2.410   3.080  15.534 -0.5186  1.0257 -1.3699
15276TIP3   OH267242   3.634   5.871   0.422  0.4146 -0.0204 -0.5976
15276TIP3    H167243   3.556   5.874   0.366  0.4747  1.3844 -0.6524
15276TIP3    H267244   3.707   5.877   0.360  0.5072  0.3901 -0.4566
15277TIP3   OH267245   3.298   2.546  13.533  0.1074  0.5887  0.5508
15277TIP3    H167246   3.335   2.486  13.598 -0.6190  0.6249  1.0085
15277TIP3    H267247   3.251   2.611  13.585 -2.3352 -0.5972 -0.0373
15278TIP3   OH267248   6.490   3.855   1.337 -0.1331  0.4136  0.2170
15278TIP3    H167249   6.448   3.782   1.292 -2.3333  1.2584  0.7707
15278TIP3    H267250   6.584   3.839   1.327 -0.5447 -1.0900 -1.9030
15279TIP3   OH267251   1.807   1.308  10.627  0.6057  0.2203  0.0038
15279TIP3    H167252   1.790   1.402  10.623 -1.9484 -0.2094 -1.3894
15279TIP3    H267253   1.746   1.276  10.694  0.2419 -0.6312 -0.7185
15280TIP3   OH267254   3.298   0.809  12.492 -0.2678  0.2695  0.1532
15280TIP3    H167255   3.233   0.871  12.459  0.9977  2.1244  0.9127
15280TIP3    H267256   3.342   0.776  12.414  0.2617  1.8035 -0.2479
15281TIP3   OH267257   5.420   4.014  16.824  0.2312  0.0916  0.4989
15281TIP3    H167258   5.367   3.935  16.837  1.3156 -1.1456 -1.9022
15281TIP3    H267259   5.369   4.069  16.765  0.7772 -0.2656 -0.3300
15282TIP3   OH267260   1.496   1.465  14.087  0.2275 -0.2465  0.3285
15282TIP3    H167261   1.440   1.543  14.089 -0.1037 -0.4850  1.4145
15282TIP3    H267262   1.447   1.400  14.037 -0.0188 -0.1320  0.4210
15283TIP3   OH267263   3.959   3.162  15.242  0.1599 -0.3869  0.1273
15283TIP3    H167264   3.885   3.102  15.247 -0.8806  0.6923 -1.5522
15283TIP3    H267265   3.939   3.219  15.168  0.8993  2.3304  1.8759
15284TIP3   OH267266   5.319   4.127  14.555  0.2672  0.0183  0.4302
15284TIP3    H167267   5.352   4.212  14.585  4.3019 -0.1781 -2.5421
15284TIP3    H267268   5.274   4.147  14.472  0.0457 -0.5980  0.3962
15285TIP3   OH267269   2.859   4.393  12.717 -0.2773 -0.0223 -0.1648
15285TIP3    H167270   2.847   4.354  12.630 -0.6693  0.4979 -0.3458
15285TIP3    H267271   2.947   4.432  12.715  0.2986 -1.2413  0.1598
15286TIP3   OH267272   0.245   1.947   4.236  0.1654 -0.8324 -0.8477
15286TIP3    H167273   0.241   1.947   4.331 -0.1799 -1.3751 -0.8538
15286TIP3    H267274   0.165   1.993   4.209  1.3946  1.4121 -0.8731
15287TIP3   OH267275   4.250   1.975  13.233  0.1387  0.3175 -0.7935
15287TIP3    H167276   4.156   1.962  13.241  0.3936 -1.3169 -0.0051
15287TIP3    H267277   4.285   1.888  13.212  1.5564  0.6767 -0.0910
15288TIP3   OH267278   1.519   5.152   4.279 -0.2360 -0.9057  0.3592
15288TIP3    H167279   1.454   5.222   4.274  0.7549 -0.0246 -0.8913
15288TIP3    H267280   1.495   5.103   4.357 -1.8282 -0.0484  0.4590
15289TIP3   OH267281   0.501   3.214   4.352 -0.2288 -0.2699 -0.9638
15289TIP3    H167282   0.581   3.250   4.390 -0.4029  0.1184 -0.9558
15289TIP3    H267283   0.450   3.291   4.326 -1.0070 -0.4834 -0.1332
15290TIP3   OH267284   1.061   4.175  13.141  0.4236  0.1466  0.3285
15290TIP3    H167285   1.111   4.117  13.083  1.4255  0.8458  0.4763
15290TIP3    H267286   1.080   4.263  13.110 -1.3601  0.4179 -0.1053
15291TIP3   OH267287   4.558   4.340  11.176 -0.0213 -0.6683  0.2281
15291TIP3    H167288   4.484   4.289  11.209 -0.4330  0.2068  0.7094
15291TIP3    H267289   4.590   4.388  11.252 -0.9874  1.4050 -0.5990
15292TIP3   OH267290   3.937   0.662   2.679  0.2826  0.0147 -0.3592
15292TIP3    H167291   3.933   0.742   2.732 -0.3537  0.1463 -0.6024
15292TIP3    H267292   3.848   0.649   2.648 -0.0922 -1.8629  1.2836
15293TIP3   OH267293   6.767   1.292  11.730 -0.0820  0.0812 -0.4277
15293TIP3    H167294   6.840   1.350  11.705 -0.6491  1.1405  0.2748
15293TIP3    H267295   6.718   1.343  11.795 -2.6922  0.3017 -2.4150
15294TIP3   OH267296   5.449   1.150   0.948 -0.1569  0.4262  0.5389
15294TIP3    H167297   5.420   1.146   1.039 -1.8907  0.0071  0.0070
15294TIP3    H267298   5.375   1.117   0.897  1.3837 -0.9974 -0.9260
15295TIP3   OH267299   2.860   0.327  10.973 -0.1985 -0.1949  0.4898
15295TIP3    H167300   2.881   0.245  11.018  1.7341  0.2099  0.4191
15295TIP3    H267301   2.817   0.299  10.892 -1.0796 -1.0458  1.2233
15296TIP3   OH267302   1.257   6.657   2.381  0.1236 -0.0253  0.1425
15296TIP3    H167303   1.221   6.569   2.385  0.8609 -0.4641 -1.9512
15296TIP3    H267304   1.180   6.714   2.394 -0.6181 -0.9543 -0.0384
15297TIP3   OH267305   5.025   5.097  12.799 -0.2175 -0.3234 -0.1119
15297TIP3    H167306   5.051   5.035  12.730 -0.8776 -1.1102  0.3339
15297TIP3    H267307   4.940   5.130  12.770 -0.7340 -1.0335  0.5497
15298TIP3   OH267308   3.422   2.991   3.293  0.2762 -0.0185  0.3342
15298TIP3    H167309   3.492   2.948   3.245 -0.6410  1.0940 -2.2065
15298TIP3    H267310   3.346   2.934   3.281 -0.6755  1.5746 -2.1428
15299TIP3   OH267311   5.189   1.667   2.776  0.0457 -0.0219 -0.3413
15299TIP3    H167312   5.130   1.593   2.785  0.5479 -0.6938 -2.1587
15299TIP3    H267313   5.226   1.659   2.687  2.4046  0.6951  0.4823
15300TIP3   OH267314   0.910   6.057  14.228 -0.0579 -0.4689 -0.0917
15300TIP3    H167315   0.829   6.090  14.269 -1.3165 -0.0586 -2.6726
15300TIP3    H267316   0.885   5.973  14.189  0.4004  0.1726 -1.8687
15301TIP3   OH267317   6.477   4.983   3.165  0.0314  0.1410 -0.1915
15301TIP3    H167318   6.396   4.958   3.211 -0.3984  1.1372 -0.3868
15301TIP3    H267319   6.525   4.900   3.156 -1.4530 -0.6804 -1.0533
15302TIP3   OH267320   0.822   3.691   1.829 -0.0849  0.2050 -0.3325
15302TIP3    H167321   0.744   3.648   1.793 -0.0895 -0.7902  0.8181
15302TIP3    H267322   0.791   3.736   1.907  0.5471 -0.5247  0.3574
15303TIP3   OH267323   2.573   4.310  10.915 -0.0389  0.4465 -0.0163
15303TIP3    H167324   2.534   4.395  10.894 -1.3434  0.0083  0.4816
15303TIP3    H267325   2.581   4.310  11.011  1.5520  0.6571 -0.1319
15304TIP3   OH267326   0.657   3.570   2.899 -0.8310 -0.0974  0.2145
15304TIP3    H167327   0.619   3.646   2.855 -1.0416 -0.5318 -0.3657
15304TIP3    H267328   0.751   3.588   2.901 -0.9122  0.3233  0.3724
15305TIP3   OH267329   1.314   4.456  13.847 -0.4234 -0.6575  0.3648
15305TIP3    H167330   1.280   4.421  13.929 -0.0825 -1.0529  0.3368
15305TIP3    H267331   1.307   4.551  13.857  1.5701 -0.6033  1.7082
15306TIP3   OH267332   3.863   3.816  15.715 -0.5949  0.8437 -0.4830
15306TIP3    H167333   3.888   3.802  15.807 -1.0599 -0.3092 -0.5245
15306TIP3    H267334   3.938   3.786  15.665 -1.4184 -1.2525 -0.5555
15307TIP3   OH267335   1.858   3.162   4.651 -0.1865 -0.7185  0.4207
15307TIP3    H167336   1.779   3.109   4.664 -0.8892  0.3568  0.6738
15307TIP3    H267337   1.877   3.197   4.738 -0.3648  0.2940  0.0662
15308TIP3   OH267338   4.512   1.798  13.476 -0.3561  0.2379  0.1217
15308TIP3    H167339   4.558   1.798  13.560 -2.1241 -1.3633  1.1824
15308TIP3    H267340   4.473   1.711  13.471 -0.7985  0.5194 -2.0993
15309TIP3   OH267341   0.960   2.278  10.890  0.4353 -0.6663 -0.5315
15309TIP3    H167342   0.876   2.315  10.916  0.8361  0.2733 -0.5642
15309TIP3    H267343   0.955   2.274  10.794  0.2375 -1.0792 -0.5066
15310TIP3   OH267344   5.422   6.237   0.437 -0.3334  0.3214  0.4672
15310TIP3    H167345   5.436   6.324   0.473 -0.0357 -0.0824  1.3455
15310TIP3    H267346   5.486   6.182   0.481 -0.9952 -0.4790  0.4526
15311TIP3   OH267347   5.579   1.195   4.979 -0.7432 -0.3097 -0.6665
15311TIP3    H167348   5.633   1.272   4.996 -2.1731  0.3635  1.1550
15311TIP3    H267349   5.575   1.188   4.884  0.6679  0.9417 -0.8481
15312TIP3   OH267350   3.554   1.573   3.210 -0.2579 -0.5600 -0.2696
15312TIP3    H167351   3.502   1.545   3.135 -0.2443  0.3328 -0.6289
15312TIP3    H267352   3.524   1.518   3.282 -0.8204 -0.9025 -0.7555
15313TIP3   OH267353   4.298   0.528   1.838  0.5832  0.0815 -0.5261
15313TIP3    H167354   4.216   0.548   1.883 -0.1753 -1.8803 -0.9340
15313TIP3    H267355   4.343   0.613   1.830 -1.6391  1.3101 -0.7859
15314TIP3   OH267356   2.728   3.124   6.467 -0.2143 -0.0122 -0.4491
15314TIP3    H167357   2.784   3.046   6.463  0.5267  0.5390 -1.1851
15314TIP3    H267358   2.652   3.096   6.518  0.8515 -0.7013  0.8224
15315TIP3   OH267359   6.597   4.497  14.313  0.0980  0.2297 -0.3336
15315TIP3    H167360   6.664   4.532  14.254 -0.6615  0.8611 -0.8473
15315TIP3    H267361   6.627   4.521  14.401  0.8077  0.0343 -0.5193
15316TIP3   OH267362   5.337   5.445   2.915  0.2496  0.2191  0.4887
15316TIP3    H167363   5.266   5.466   2.855  1.4393  1.1271 -0.6659
15316TIP3    H267364   5.365   5.357   2.888  1.8236  1.2365 -1.4398
15317TIP3   OH267365   2.505   1.335   1.195  0.0315 -0.0725  0.5354
15317TIP3    H167366   2.592   1.298   1.211  0.3598  0.6167  0.3992
15317TIP3    H267367   2.508   1.365   1.104  0.2192  1.4232  1.0074
15318TIP3   OH267368   2.213   2.761  14.982  0.6494 -0.2682 -0.0166
15318TIP3    H167369   2.219   2.854  15.004 -1.9013 -0.0639  0.1901
15318TIP3    H267370   2.272   2.718  15.043  0.5791  1.0857  1.0756
15319TIP3   OH267371   6.287   6.198   3.714 -0.0726 -0.0731 -0.1562
15319TIP3    H167372   6.251   6.132   3.654 -0.6490 -0.5222  0.6663
15319TIP3    H267373   6.357   6.241   3.664 -1.6333  0.7350 -1.7777
15320TIP3   OH267374   6.062   6.762  16.511  0.4520 -0.1944  0.2973
15320TIP3    H167375   6.118   6.840  16.507 -1.2814  1.2298  1.6975
15320TIP3    H267376   6.117   6.695  16.552  1.0135  1.3373  2.2246
15321TIP3   OH267377   0.203   6.228  11.636  0.4063 -0.1022  0.1180
15321TIP3    H167378   0.160   6.163  11.691 -0.0294  0.7122  0.7679
15321TIP3    H267379   0.226   6.299  11.696 -0.2516  0.8986 -0.7674
15322TIP3   OH267380   2.373   2.475  12.471 -0.4008 -0.3849  0.0327
15322TIP3    H167381   2.444   2.528  12.506 -1.8245  0.5477  1.6877
15322TIP3    H267382   2.341   2.523  12.395  1.0622 -1.1054 -1.0768
15323TIP3   OH267383   4.870   4.179  17.011  0.8219  0.0629  0.1377
15323TIP3    H167384   4.896   4.132  16.932 -0.3624 -2.0865  0.9416
15323TIP3    H267385   4.877   4.114  17.081 -0.7847  1.1222  1.3452
15324TIP3   OH267386   5.411   3.162  16.800  0.6007  0.2461 -0.0758
15324TIP3    H167387   5.477   3.095  16.816  0.0439 -0.4533 -0.5981
15324TIP3    H267388   5.430   3.231  16.864  1.1445 -0.4394  0.5222
15325TIP3   OH267389   2.745   6.217   5.656  0.7418  0.0221  0.3029
15325TIP3    H167390   2.829   6.182   5.687  0.2443  0.4806  2.3676
15325TIP3    H267391   2.768   6.294   5.604  1.7227 -1.8897 -2.3106
15326TIP3   OH267392   3.862   4.898   6.102 -0.2897 -0.1509 -0.3611
15326TIP3    H167393   3.955   4.916   6.117 -0.4424  0.0881  0.3576
15326TIP3    H267394   3.851   4.908   6.007 -0.2691  3.2975 -0.1455
15327TIP3   OH267395   1.270   0.068  12.351 -0.4348 -0.3251  0.0953
15327TIP3    H167396   1.293   0.134  12.417 -2.0335 -0.0270  0.4092
15327TIP3    H267397   1.334   0.080  12.281  0.5903  0.1376  1.0819
15328TIP3   OH267398   4.479   6.342  14.843  0.1097 -0.1091 -0.1385
15328TIP3    H167399   4.566   6.380  14.852  0.5751 -1.2485  0.3863
15328TIP3    H267400   4.420   6.409  14.876  0.7101  1.0159 -1.3107
15329TIP3   OH267401   3.367   5.601   5.211  0.0119  0.1561  0.1413
15329TIP3    H167402   3.451   5.555   5.225  0.1216  0.3117 -0.0176
15329TIP3    H267403   3.340   5.575   5.123  1.0299  1.9129 -0.7456
15330TIP3   OH267404   1.350   0.705  17.016 -0.0787  0.0281 -0.1610
15330TIP3    H167405   1.442   0.695  17.043 -0.6619 -1.2453  1.5742
15330TIP3    H267406   1.300   0.690  17.097 -1.8212  1.0115 -0.9972
15331TIP3   OH267407   0.672   0.701   4.010  0.4024  0.0813 -0.2244
15331TIP3    H167408   0.679   0.732   4.100 -0.1427 -0.2792 -0.0519
15331TIP3    H267409   0.726   0.761   3.959  0.3672  0.5432  0.2812
15332TIP3   OH267410   2.837   1.354   5.922 -0.3812  0.1572 -0.1524
15332TIP3    H167411   2.843   1.447   5.900 -1.2072  0.6255  1.4276
15332TIP3    H267412   2.889   1.345   6.002 -1.1799 -0.4912  0.3129
15333TIP3   OH267413   5.178   3.928   4.618 -0.0748 -0.2908 -0.4150
15333TIP3    H167414   5.258   3.891   4.579 -0.5269 -1.0632 -0.6361
15333TIP3    H267415   5.176   3.891   4.707  1.4889  2.2506  0.8092
15334TIP3   OH267416   1.419   3.231  14.719 -0.0326 -0.2237  0.8347
15334TIP3    H167417   1.416   3.187  14.804  0.8659 -1.8245  0.0906
15334TIP3    H267418   1.509   3.263  14.712 -0.2469  0.3650  0.6922
15335TIP3   OH267419   3.909   2.824   3.306 -0.3668  0.1439  0.3843
15335TIP3    H167420   3.922   2.825   3.401  0.1775 -0.6556  0.3253
15335TIP3    H267421   3.992   2.855   3.270 -0.0718 -0.8878  0.1354
15336TIP3   OH267422   0.781   3.790  16.135  0.3277 -0.2048 -0.5645
15336TIP3    H167423   0.718   3.780  16.064  1.2148  0.5159 -1.4871
15336TIP3    H267424   0.783   3.884  16.152  1.3759 -0.1721 -0.7776
15337TIP3   OH267425   3.169   5.480   2.633  0.2042 -0.4693  0.0334
15337TIP3    H167426   3.209   5.562   2.662  0.0394 -0.5145  0.3965
15337TIP3    H267427   3.109   5.457   2.703 -0.4370 -0.4195 -0.4887
15338TIP3   OH267428   6.136   5.779  14.612  0.0411  0.2934  0.2148
15338TIP3    H167429   6.178   5.746  14.532  1.1991  0.0958  0.8797
15338TIP3    H267430   6.194   5.849  14.642 -1.3889  1.6929 -0.1331
15339TIP3   OH267431   5.718   5.217  12.373  0.4992 -0.5889  0.0552
15339TIP3    H167432   5.645   5.270  12.344  0.7519 -0.7223 -0.8486
15339TIP3    H267433   5.769   5.200  12.294  2.7161  1.3016  0.9480
15340TIP3   OH267434   2.421   5.332  14.235 -0.2165 -0.9792 -1.0203
15340TIP3    H167435   2.389   5.258  14.287  0.1927  0.1812  0.9614
15340TIP3    H267436   2.503   5.300  14.197 -0.8229 -2.0488 -1.4926
15341TIP3   OH267437   5.453   5.067   5.527 -0.3586  0.8535  0.2637
15341TIP3    H167438   5.391   5.126   5.572 -1.0499 -1.1912  2.1989
15341TIP3    H267439   5.467   4.996   5.590 -2.4034 -2.9860 -3.1760
15342TIP3   OH267440   5.016   0.118   1.299  0.1250  0.0870 -0.2039
15342TIP3    H167441   5.056   0.037   1.330 -3.4429 -0.8555  2.5743
15342TIP3    H267442   4.958   0.091   1.229 -0.1847  0.4457 -0.0855
15343TIP3   OH267443   1.226   1.476  13.065 -0.3996  0.6919  0.6092
15343TIP3    H167444   1.231   1.443  13.155 -1.8770  1.9268  1.1873
15343TIP3    H267445   1.187   1.404  13.016  2.1550 -0.7429  0.4712
15344TIP3   OH267446   2.090   2.325   3.704 -0.5099  0.1183 -0.1363
15344TIP3    H167447   2.053   2.249   3.658 -0.9800  2.8086 -4.8409
15344TIP3    H267448   2.179   2.332   3.670 -0.2579  1.3082  0.7080
15345TIP3   OH267449   5.371   1.412  12.844  0.1003  0.8374  0.5258
15345TIP3    H167450   5.433   1.353  12.801 -0.3317  1.1908 -0.6258
15345TIP3    H267451   5.332   1.359  12.914  1.8654  0.6880  1.4569
15346TIP3   OH267452   4.808   3.950   4.284  0.6350  0.7388  0.1504
15346TIP3    H167453   4.815   3.976   4.376 -0.1251 -0.8299  0.6797
15346TIP3    H267454   4.888   3.902   4.266  0.3380  0.1747  0.3052
15347TIP3   OH267455   2.100   3.438  11.975  0.2602  0.1427 -0.2507
15347TIP3    H167456   2.162   3.506  12.001  0.2477 -0.2065  0.7337
15347TIP3    H267457   2.015   3.473  11.998  0.2449 -0.1594  0.1534
15348TIP3   OH267458   2.453   0.792  16.559 -0.3627 -0.1461 -0.2776
15348TIP3    H167459   2.441   0.868  16.504 -2.4126 -0.2636 -0.0440
15348TIP3    H267460   2.462   0.827  16.648  0.1514 -0.1116 -0.3403
15349TIP3   OH267461   4.037   3.076   1.719  0.0590 -0.2006 -0.2750
15349TIP3    H167462   4.057   2.982   1.725 -0.6446 -0.2811  1.5005
15349TIP3    H267463   4.020   3.102   1.809 -1.0984  1.3438 -0.8998
15350TIP3   OH267464   4.397   0.523  12.428  0.2967  0.5091 -0.4976
15350TIP3    H167465   4.342   0.596  12.457  0.0789 -0.2836  1.1941
15350TIP3    H267466   4.341   0.473  12.368 -0.4881  0.3096  0.3680
15351TIP3   OH267467   1.613   4.849  15.027 -0.2721 -0.7133  0.5534
15351TIP3    H167468   1.592   4.844  15.120  0.8644 -3.7853  0.7659
15351TIP3    H267469   1.698   4.893  15.023 -0.7759  0.3247  0.8255
15352TIP3   OH267470   5.905   1.552  16.888 -0.4136  0.6884 -0.2315
15352TIP3    H167471   5.990   1.576  16.925 -0.1675  1.4763 -1.2678
15352TIP3    H267472   5.881   1.626  16.833 -1.4449  0.1624 -0.5135
15353TIP3   OH267473   4.951   5.830  16.748  0.2702  0.6787  0.4179
15353TIP3    H167474   4.930   5.922  16.734 -3.1150  0.1831  1.3145
15353TIP3    H267475   4.944   5.818  16.843 -2.3374 -0.9948  0.1188
15354TIP3   OH267476   1.374   1.760   2.063 -0.2010 -0.5462 -0.0268
15354TIP3    H167477   1.347   1.843   2.101 -0.8571 -1.2577  1.1241
15354TIP3    H267478   1.307   1.697   2.092 -0.5649 -1.1967 -2.1075
15355TIP3   OH267479   4.871   4.526   2.263 -0.4517  0.4283  0.1098
15355TIP3    H167480   4.826   4.461   2.316 -1.8127  0.5617 -0.8358
15355TIP3    H267481   4.855   4.499   2.173  2.5037 -0.2767 -0.3326
15356TIP3   OH267482   1.108   2.815   6.116 -0.3184 -0.2650 -0.5496
15356TIP3    H167483   1.060   2.825   6.199 -1.1907 -0.8539 -0.9756
15356TIP3    H267484   1.172   2.746   6.134  1.0238  1.1205  0.2886
15357TIP3   OH267485   6.357   0.796   3.374  0.3776  0.9929 -0.3728
15357TIP3    H167486   6.450   0.773   3.374 -0.3237 -2.3562  0.3873
15357TIP3    H267487   6.346   0.850   3.452  1.6807  1.5579 -0.5495
15358TIP3   OH267488   0.547   3.364   2.756 -0.9125 -0.3868 -0.2579
15358TIP3    H167489   0.503   3.421   2.692  1.9105 -0.2731 -2.2927
15358TIP3    H267490   0.593   3.424   2.814 -0.9545 -0.5529 -0.0517
15359TIP3   OH267491   1.292   6.472   0.991  0.4028  0.5602 -0.0487
15359TIP3    H167492   1.267   6.390   0.947 -0.2142  0.2302  0.8701
15359TIP3    H267493   1.215   6.528   0.980  1.2679  1.4967 -1.7174
15360TIP3   OH267494   3.670   3.752  11.783 -0.1435  0.2821 -0.3969
15360TIP3    H167495   3.653   3.839  11.820 -2.2411  0.2897 -1.2384
15360TIP3    H267496   3.663   3.764  11.688 -0.5125 -0.8016 -0.5232
15361TIP3   OH267497   3.606   3.040  12.704 -0.0809 -0.4852 -0.5015
15361TIP3    H167498   3.642   3.129  12.704 -0.5000 -0.2556  1.7202
15361TIP3    H267499   3.514   3.051  12.728  0.0781 -1.5463  0.7478
15362TIP3   OH267500   5.800   0.534   5.339 -0.2540 -0.3000 -0.3850
15362TIP3    H167501   5.870   0.533   5.404  0.3369 -1.0192 -1.0083
15362TIP3    H267502   5.738   0.599   5.371  0.0531 -0.5976  0.8561
15363TIP3   OH267503   4.486   1.737  16.658  0.3825  0.3461 -0.0403
15363TIP3    H167504   4.399   1.742  16.696  0.5074 -0.6063  0.4143
15363TIP3    H267505   4.544   1.722  16.733  0.5821 -2.0019 -0.5818
15364TIP3   OH267506   5.406   0.711   4.286 -0.3476 -0.2459  0.0388
15364TIP3    H167507   5.460   0.638   4.316  0.1861 -0.1656 -0.7277
15364TIP3    H267508   5.316   0.683   4.306 -0.0460 -0.3174  1.4412
15365TIP3   OH267509   3.509   3.804   5.897 -0.3204 -0.2506 -0.8000
15365TIP3    H167510   3.541   3.714   5.905 -0.5849 -0.3560 -0.9353
15365TIP3    H267511   3.511   3.838   5.986 -0.1922 -0.3793 -0.7528
15366TIP3   OH267512   0.565   3.513   5.324 -0.1677  0.3654 -0.1671
15366TIP3    H167513   0.546   3.527   5.232 -3.4919 -0.2914  0.2607
15366TIP3    H267514   0.559   3.418   5.336 -0.3037  0.4769  0.7950
15367TIP3   OH267515   0.125   3.210   3.758 -0.1009 -0.6711 -0.6828
15367TIP3    H167516   0.119   3.296   3.801 -0.3350 -0.6365 -0.7843
15367TIP3    H267517   0.182   3.225   3.683  0.1254 -0.6798 -0.5139
15368TIP3   OH267518   5.385   2.701   3.783 -0.5089 -0.0559 -0.3342
15368TIP3    H167519   5.317   2.716   3.848 -0.5049 -1.3778  0.0045
15368TIP3    H267520   5.408   2.789   3.751  0.5988  0.8368  2.5519
15369TIP3   OH267521   4.181   5.100   3.868  0.0351  0.2041 -0.3061
15369TIP3    H167522   4.149   5.012   3.849  0.3568 -0.2233  1.0491
15369TIP3    H267523   4.269   5.087   3.902  0.2605  1.0936 -0.5197
15370TIP3   OH267524   3.077   1.781  13.385 -0.6634 -0.1178  0.5130
15370TIP3    H167525   3.000   1.727  13.404  0.5471 -2.3284 -0.3785
15370TIP3    H267526   3.129   1.779  13.465  0.7014 -2.8144 -0.2848
15371TIP3   OH267527   6.474   5.076   0.360  0.0030 -0.2830  0.2020
15371TIP3    H167528   6.409   5.021   0.317  1.0649 -1.0038 -0.5225
15371TIP3    H267529   6.439   5.091   0.448 -1.2054 -0.5185 -0.2243
15372TIP3   OH267530   6.018   4.087  15.393 -0.0912  0.2574  0.0056
15372TIP3    H167531   5.956   4.147  15.352 -1.2811 -0.5960  0.5030
15372TIP3    H267532   5.993   4.000  15.362  1.1169 -0.0755 -0.1017
15373TIP3   OH267533   2.513   1.171  15.436 -0.4508 -0.4339 -0.5367
15373TIP3    H167534   2.511   1.259  15.399  1.2361 -0.1650 -0.0315
15373TIP3    H267535   2.468   1.180  15.520  1.8727  0.5654  0.6895
15374TIP3   OH267536   0.690   1.221   4.479 -0.4238  0.2826  0.0197
15374TIP3    H167537   0.614   1.192   4.528 -0.4923 -0.5379 -0.5424
15374TIP3    H267538   0.660   1.225   4.388  0.4824 -1.2298 -0.3895
15375TIP3   OH267539   5.583   6.085  13.935 -0.2057 -0.0787  0.0700
15375TIP3    H167540   5.581   6.138  14.015  0.3817  1.3912 -0.8593
15375TIP3    H267541   5.667   6.105  13.895 -0.7898 -0.2365 -1.2786
15376TIP3   OH267542   1.509   4.411   1.620 -0.4798  0.4608  0.6092
15376TIP3    H167543   1.586   4.354   1.624 -1.6400 -1.4366 -1.8612
15376TIP3    H267544   1.496   4.427   1.526 -3.9563 -0.5332  0.8107
15377TIP3   OH267545   6.091   4.531   1.869  0.2908 -0.3264  0.4579
15377TIP3    H167546   6.025   4.463   1.872  0.0986 -0.1116  1.6305
15377TIP3    H267547   6.045   4.608   1.837  0.2477 -0.4700  0.1745
15378TIP3   OH267548   1.342   4.277   5.975 -0.4812 -0.1192  0.0696
15378TIP3    H167549   1.371   4.268   6.066 -0.4484  1.5373  0.2489
15378TIP3    H267550   1.418   4.311   5.928 -1.5477  2.7537  0.2310
15379TIP3   OH267551   5.681   5.633  11.543  1.4171 -0.4313  0.0162
15379TIP3    H167552   5.638   5.710  11.581 -1.5274 -2.1251  0.4861
15379TIP3    H267553   5.694   5.656  11.451  3.7971  1.8001  0.7885
15380TIP3   OH267554   0.284   4.165  10.338 -0.1428 -0.2402 -0.1012
15380TIP3    H167555   0.318   4.176  10.250 -0.6922  0.8843 -0.1948
15380TIP3    H267556   0.277   4.254  10.372  1.0133 -0.7026  1.4567
15381TIP3   OH267557   3.785   0.511  15.323 -0.6227 -0.2840 -0.0949
15381TIP3    H167558   3.751   0.490  15.236 -0.4935 -0.3841 -0.1209
15381TIP3    H267559   3.713   0.491  15.382 -0.6188 -0.4693 -0.1537
15382TIP3   OH267560   2.440   4.323   1.005  0.3916  0.5079 -0.1105
15382TIP3    H167561   2.496   4.389   0.964  0.0076  0.5561 -0.5663
15382TIP3    H267562   2.432   4.254   0.940  0.9718 -0.0985  0.4524
15383TIP3   OH267563   6.794   1.178  13.807  0.4669  0.1130 -0.4967
15383TIP3    H167564   6.857   1.250  13.806 -0.7609  1.2217 -1.2730
15383TIP3    H267565   6.732   1.201  13.877  0.5910 -0.6879 -0.1060
15384TIP3   OH267566   4.343   4.596   3.122 -0.8024 -0.1401  0.0182
15384TIP3    H167567   4.248   4.609   3.129 -0.7991 -0.1230  0.0308
15384TIP3    H267568   4.367   4.643   3.042 -0.0810  3.8402  2.3376
15385TIP3   OH267569   6.556   0.214  13.622 -0.0187  0.2473 -0.0507
15385TIP3    H167570   6.584   0.303  13.643 -0.3031 -0.1949  2.4732
15385TIP3    H267571   6.495   0.225  13.549 -0.1938  2.1297  0.3308
15386TIP3   OH267572   4.559   5.548   2.133 -0.7366  0.4175 -0.1047
15386TIP3    H167573   4.606   5.565   2.215 -0.2486  2.7510 -0.7840
15386TIP3    H267574   4.625   5.561   2.064 -0.9692 -2.1324 -0.9287
15387TIP3   OH267575   2.004   5.279  14.876 -0.1006 -0.2739  1.1329
15387TIP3    H167576   1.944   5.294  14.803 -0.4897  2.4441  1.8944
15387TIP3    H267577   1.947   5.272  14.953  0.4133 -0.8056  1.4746
15388TIP3   OH267578   0.687   6.792   3.336  0.7982 -0.0458 -0.0383
15388TIP3    H167579   0.680   6.710   3.287  1.6532 -0.6864  0.8780
15388TIP3    H267580   0.734   6.768   3.416  1.6919  1.4790 -0.0768
15389TIP3   OH267581   0.845   2.834   5.854  0.2461 -0.3545  0.2851
15389TIP3    H167582   0.806   2.750   5.881  0.3262 -0.2985  0.5842
15389TIP3    H267583   0.805   2.853   5.769  1.9056 -1.8098 -0.8918
15390TIP3   OH267584   6.411   3.314  15.428 -0.6202 -0.2381 -0.1672
15390TIP3    H167585   6.332   3.295  15.478 -1.0451  1.4436 -0.1279
15390TIP3    H267586   6.477   3.334  15.494 -1.0385  1.4554 -0.2131
15391TIP3   OH267587   0.116   2.339  12.470 -0.1379  0.1416 -0.6297
15391TIP3    H167588   0.184   2.343  12.402  0.6755 -1.7376  0.0060
15391TIP3    H267589   0.043   2.293  12.428  0.5083 -1.3627 -0.1731
15392TIP3   OH267590   6.448   2.218  12.465  0.6946  0.3492 -0.3334
15392TIP3    H167591   6.407   2.299  12.495  1.3039  0.5774 -0.1002
15392TIP3    H267592   6.422   2.152  12.530 -2.6612 -0.5087 -2.2698
15393TIP3   OH267593   3.258   4.328   3.420  0.3946 -0.7683 -0.3980
15393TIP3    H167594   3.215   4.367   3.344 -0.7907 -1.3271 -0.0352
15393TIP3    H267595   3.295   4.402   3.468  1.6987 -0.4518 -1.8109
15394TIP3   OH267596   5.772   0.123  11.514 -0.1644 -0.4888 -0.2151
15394TIP3    H167597   5.740   0.158  11.431  1.4651  0.8467 -0.3322
15394TIP3    H267598   5.830   0.051  11.489 -2.6564 -2.7276 -0.0131
15395TIP3   OH267599   6.030   5.253  13.806 -0.0823  0.1530 -0.5391
15395TIP3    H167600   5.979   5.309  13.865 -0.1350 -0.6920  0.2543
15395TIP3    H267601   6.018   5.165  13.842  1.2134 -0.1731 -0.8746
15396TIP3   OH267602   3.222   1.676   0.102  0.5053 -0.1416 -0.3700
15396TIP3    H167603   3.161   1.658   0.029  0.9513  1.0750 -1.0688
15396TIP3    H267604   3.167   1.672   0.180 -0.0519 -1.1558 -0.7860
15397TIP3   OH267605   0.817   5.646  16.533  0.3083  0.3506  0.2127
15397TIP3    H167606   0.877   5.577  16.564 -0.9802 -0.6768  0.5156
15397TIP3    H267607   0.742   5.640  16.591 -0.6382  0.7751 -0.9291
15398TIP3   OH267608   4.247   6.155   3.946  0.0977  0.6952 -0.0950
15398TIP3    H167609   4.252   6.179   4.039 -1.8466  1.1839 -0.0714
15398TIP3    H267610   4.287   6.068   3.941  1.9918  1.4440  0.8361
15399TIP3   OH267611   3.038   2.482   1.320 -0.3106  0.3198 -0.5345
15399TIP3    H167612   3.125   2.442   1.312 -0.6133 -0.3635 -0.4635
15399TIP3    H267613   3.029   2.535   1.240 -0.5559 -1.0691 -1.4667
15400TIP3   OH267614   4.678   5.854   1.413  0.4134  0.1854  0.4246
15400TIP3    H167615   4.665   5.886   1.324 -0.6413  0.6468  0.7353
15400TIP3    H267616   4.766   5.883   1.436  0.6375  0.1937 -0.4004
15401TIP3   OH267617   0.021   2.851   1.732 -0.0334  0.0936  0.6115
15401TIP3    H167618   0.041   2.757   1.723  0.6373  0.2181  0.7500
15401TIP3    H267619   0.017   2.882   1.641 -0.5880 -0.1336  0.5552
15402TIP3   OH267620   1.003   1.972   2.665 -0.9417 -0.1244 -0.0347
15402TIP3    H167621   0.966   1.896   2.710  0.9914 -1.8228 -1.1405
15402TIP3    H267622   1.075   2.000   2.722  1.5990 -2.3630 -1.8966
15403TIP3   OH267623   6.417   1.696  16.890  0.3769  0.7791 -0.4942
15403TIP3    H167624   6.502   1.655  16.874  1.1382  1.1830  1.9684
15403TIP3    H267625   6.421   1.779  16.843  0.8487  0.2729 -1.3769
15404TIP3   OH267626   5.923   3.256  14.222  0.0918  0.4149  0.2328
15404TIP3    H167627   5.939   3.165  14.246  2.2321  1.2400  2.2987
15404TIP3    H267628   5.832   3.272  14.246  0.5057 -0.4432  2.7025
15405TIP3   OH267629   5.582   5.914   0.608 -0.2488  0.1912 -0.4546
15405TIP3    H167630   5.552   5.853   0.676 -1.0258  0.8507 -0.1766
15405TIP3    H267631   5.640   5.975   0.655 -0.2658  0.2524 -0.5130
15406TIP3   OH267632   0.297   3.060   3.103  0.8081  0.3423 -0.1973
15406TIP3    H167633   0.351   3.080   3.180 -0.4406  0.1435  0.7666
15406TIP3    H267634   0.218   3.112   3.115 -2.1332 -4.0085  1.8804
15407TIP3   OH267635   0.735   6.587  12.887 -0.0307 -0.2713 -0.3883
15407TIP3    H167636   0.762   6.624  12.803  1.5285 -1.8677 -0.6477
15407TIP3    H267637   0.750   6.658  12.950  2.0534 -0.0996 -0.9959
15408TIP3   OH267638   0.399   2.657   5.781  0.1204 -0.2156 -0.1521
15408TIP3    H167639   0.385   2.627   5.871  1.7792  1.5327  0.7690
15408TIP3    H267640   0.331   2.613   5.730  0.4679 -2.9647  1.5469
15409TIP3   OH267641   1.862   1.478  12.404  0.2290 -0.8651 -0.5781
15409TIP3    H167642   1.815   1.478  12.488  0.5020  0.3662 -0.4063
15409TIP3    H267643   1.797   1.448  12.341 -0.6921  0.4111 -0.2795
15410TIP3   OH267644   3.127   6.245  15.882  0.3217  0.3859 -0.2940
15410TIP3    H167645   3.058   6.261  15.946  0.6174  1.6477 -0.2603
15410TIP3    H267646   3.129   6.325  15.829  3.1720  1.3117  1.0320
15411TIP3   OH267647   3.305   5.941   4.839  0.4736 -0.0800  0.5599
15411TIP3    H167648   3.369   5.882   4.876  0.9706  0.1953  0.1517
15411TIP3    H267649   3.350   6.025   4.831  0.3856 -0.1203 -0.6273
15412TIP3   OH267650   3.488   4.886  12.303 -0.3645 -0.9097  0.4943
15412TIP3    H167651   3.525   4.828  12.369  0.1315  0.1771  1.2102
15412TIP3    H267652   3.413   4.838  12.267  0.0872 -2.0102  0.9835
15413TIP3   OH267653   6.298   3.162  15.233  0.0114  0.1673 -0.4630
15413TIP3    H167654   6.362   3.200  15.294 -1.7239 -0.3941  1.8391
15413TIP3    H267655   6.351   3.119  15.166  2.0999 -1.1405  1.8900
15414TIP3   OH267656   1.662   4.490   3.827  0.5913  0.4792  0.2779
15414TIP3    H167657   1.666   4.581   3.797 -0.1044  0.8099  1.1743
15414TIP3    H267658   1.591   4.451   3.775  1.2533  0.2788 -0.5062
15415TIP3   OH267659   3.089   3.188  16.004 -0.0580 -0.2901 -0.3469
15415TIP3    H167660   3.115   3.277  16.028 -1.1811 -0.1566  0.4646
15415TIP3    H267661   3.171   3.138  16.005  0.5324  0.6526 -0.4770
15416TIP3   OH267662   6.015   1.933   2.653  0.6140 -0.6809  0.1298
15416TIP3    H167663   6.102   1.906   2.681 -0.1315 -2.1741  1.1306
15416TIP3    H267664   5.967   1.948   2.735 -0.5659 -1.6144 -0.3510
15417TIP3   OH267665   1.635   6.499   4.345  0.3991  0.3791 -0.7385
15417TIP3    H167666   1.543   6.485   4.323  0.3457  0.2634 -0.4384
15417TIP3    H267667   1.676   6.521   4.261  0.3912 -1.0821 -1.1620
15418TIP3   OH267668   0.927   1.144   3.798  0.7071  0.0254 -0.0193
15418TIP3    H167669   0.887   1.225   3.768  1.4121  0.5253  0.3693
15418TIP3    H267670   1.005   1.134   3.744  1.1603  0.1332  0.6024
15419TIP3   OH267671   6.317   6.483  13.865 -0.2819  0.0819  0.3824
15419TIP3    H167672   6.330   6.578  13.869  0.7416  0.0838 -1.6588
15419TIP3    H267673   6.395   6.446  13.907  0.0026  0.1458 -0.0855
15420TIP3   OH267674   4.934   2.160   1.643  0.0295  0.2393 -0.3231
15420TIP3    H167675   5.008   2.115   1.684  0.9112  0.0213 -2.0782
15420TIP3    H267676   4.971   2.244   1.613 -0.1857 -0.2176 -1.9479
15421TIP3   OH267677   0.418   0.157  13.362  0.0010 -0.0223  0.1586
15421TIP3    H167678   0.363   0.208  13.303  1.1946 -0.5740 -1.5065
15421TIP3    H267679   0.466   0.222  13.412  0.1835  0.5000 -0.6723
15422TIP3   OH267680   0.019   1.145   2.726  0.2142 -0.3300  0.1431
15422TIP3    H167681   0.104   1.153   2.769  1.4174 -1.8970 -1.7850
15422TIP3    H267682  -0.015   1.061   2.756  1.4856 -1.8862 -2.4893
15423TIP3   OH267683   0.293   5.902  13.026  0.0158 -0.4682  0.2374
15423TIP3    H167684   0.300   5.938  12.938  0.0719  0.2701  0.5354
15423TIP3    H267685   0.301   5.808  13.014 -2.4916 -0.6151 -0.8238
15424TIP3   OH267686   0.822   4.457  14.017  0.0284 -0.1959  0.0963
15424TIP3    H167687   0.883   4.520  13.978 -0.4102 -0.0083 -0.3001
15424TIP3    H267688   0.856   4.442  14.105  0.2518  0.4429  0.1237
15425TIP3   OH267689   1.416   3.583   3.295 -0.1213  0.0574 -0.0617
15425TIP3    H167690   1.414   3.518   3.366 -0.0714  2.0420  1.8764
15425TIP3    H267691   1.407   3.531   3.215 -1.0598 -2.2282  1.4083
15426TIP3   OH267692   3.556   3.979  12.854 -0.2067 -0.5613  0.3564
15426TIP3    H167693   3.554   3.888  12.826 -0.1069 -0.6568  0.6509
15426TIP3    H267694   3.546   4.030  12.774 -1.7663 -0.8465  0.3507
15427TIP3   OH267695   1.604   0.071  15.492 -0.2555 -0.1928  0.4502
15427TIP3    H167696   1.665  -0.002  15.505 -0.2847 -0.0650  1.3762
15427TIP3    H267697   1.549   0.070  15.570  0.9918  2.0056  1.4506
15428TIP3   OH267698   5.707   5.660   5.408 -0.5256 -0.8170 -0.3267
15428TIP3    H167699   5.673   5.706   5.331 -1.3047  0.9969  1.0423
15428TIP3    H267700   5.797   5.692   5.417 -0.1645 -1.6399 -0.9256
15429TIP3   OH267701   3.340   5.139   5.914  0.1388 -0.4421 -0.2993
15429TIP3    H167702   3.322   5.117   6.005  2.1320 -0.0864  0.2388
15429TIP3    H267703   3.332   5.234   5.909  1.5276 -0.2927 -0.0852
15430TIP3   OH267704   0.733   2.310  15.276 -0.4708 -0.3744 -0.5404
15430TIP3    H167705   0.806   2.247  15.268  3.0806  3.1908  0.4699
15430TIP3    H267706   0.703   2.323  15.186  1.9248 -0.1903 -1.3876
15431TIP3   OH267707   0.784   6.406  13.670  0.3707 -0.9556 -0.3254
15431TIP3    H167708   0.816   6.467  13.604 -1.6537  0.1137 -0.4256
15431TIP3    H267709   0.857   6.395  13.730  0.8187  1.7542 -0.2253
15432TIP3   OH267710   4.289   1.688  15.567  0.3065  0.1819 -0.7840
15432TIP3    H167711   4.324   1.609  15.609 -1.3669 -0.7548 -1.0683
15432TIP3    H267712   4.198   1.693  15.597  0.6589  2.6698  0.1362
15433TIP3   OH267713   0.555   5.585   0.954  0.4858 -0.1169 -0.4937
15433TIP3    H167714   0.460   5.595   0.962  0.4118 -0.3458 -1.0340
15433TIP3    H267715   0.567   5.532   0.875  1.0706  0.0181 -0.5001
15434TIP3   OH267716   6.641   2.192   4.324  0.0260  0.2545 -0.1511
15434TIP3    H167717   6.561   2.161   4.367  0.0511  0.6452  0.1853
15434TIP3    H267718   6.652   2.282   4.356  0.0419  0.5584 -0.9890
15435TIP3   OH267719   0.379   2.972   5.811 -0.0965 -0.3882 -0.0590
15435TIP3    H167720   0.403   2.883   5.785  0.3991 -0.5418  0.8767
15435TIP3    H267721   0.445   2.996   5.876  0.7028  1.2553 -1.4246
15436TIP3   OH267722   2.663   0.865   0.832  0.0386 -0.1120  0.1794
15436TIP3    H167723   2.632   0.808   0.903 -1.8424 -0.0319 -0.4986
15436TIP3    H267724   2.686   0.805   0.761  4.2921 -0.3811  1.5262
15437TIP3   OH267725   0.754   0.475  13.685 -0.2742  0.0376 -0.4665
15437TIP3    H167726   0.706   0.419  13.624  0.3793 -1.3193  0.2007
15437TIP3    H267727   0.689   0.497  13.753 -0.5742  0.1969 -0.8034
15438TIP3   OH267728   4.536   0.252   0.075 -0.5005  0.2335 -0.4028
15438TIP3    H167729   4.517   0.307   0.151  2.3335  1.2051 -0.2894
15438TIP3    H267730   4.458   0.258   0.021 -1.9361  0.8795  1.6107
15439TIP3   OH267731   0.171   1.496  12.282 -0.0824 -0.0862 -0.1512
15439TIP3    H167732   0.176   1.447  12.200 -0.6840 -0.2623 -0.0911
15439TIP3    H267733   0.249   1.551  12.282 -0.3333  0.2834 -1.0733
15440TIP3   OH267734   5.214   1.788  13.420  0.1118 -0.0657 -0.0040
15440TIP3    H167735   5.162   1.742  13.353 -0.3408  0.8292 -0.2766
15440TIP3    H267736   5.273   1.721  13.453 -2.3346 -1.6150  1.5614
15441TIP3   OH267737   6.580   5.243   1.824  0.3823  0.0768 -0.3171
15441TIP3    H167738   6.656   5.276   1.871  1.0645 -1.6158 -0.1706
15441TIP3    H267739   6.577   5.295   1.744  1.6145  0.2483 -0.2692
15442TIP3   OH267740   0.824   2.260  13.406  0.1976 -0.9906 -0.0630
15442TIP3    H167741   0.745   2.216  13.374 -0.7406  1.9655 -2.3649
15442TIP3    H267742   0.892   2.235  13.343 -0.0606 -0.1798 -0.6959
15443TIP3   OH267743   0.413   6.532  11.044  0.3445  0.3607 -0.6506
15443TIP3    H167744   0.500   6.495  11.030 -0.2035 -0.3022 -2.4412
15443TIP3    H267745   0.387   6.566  10.958 -1.1788  0.5460 -0.1395
15444TIP3   OH267746   6.047   5.272   0.497  0.4491  1.1322  0.9092
15444TIP3    H167747   6.049   5.220   0.416  0.2743  1.0655  0.9490
15444TIP3    H267748   6.097   5.221   0.560 -1.6151 -0.0859  1.6203
15445TIP3   OH267749   2.569   6.268   1.793 -1.1781  0.7523 -0.3059
15445TIP3    H167750   2.639   6.324   1.758 -1.1273  0.1833 -1.1271
15445TIP3    H267751   2.498   6.329   1.812 -0.8648  1.1941 -0.5189
15446TIP3   OH267752   2.214   6.371   3.740  0.4615  0.0482  0.3500
15446TIP3    H167753   2.234   6.416   3.822 -1.1990  0.2033  0.6955
15446TIP3    H267754   2.211   6.441   3.674 -0.4883  0.2353  0.5864
15447TIP3   OH267755   3.776   6.357  11.568 -0.1290  0.0977 -0.4298
15447TIP3    H167756   3.836   6.360  11.643 -0.8395 -0.6744  0.1850
15447TIP3    H267757   3.811   6.287  11.512 -1.3112 -1.5036  0.7224
15448TIP3   OH267758   5.068   5.222   5.643 -0.0545 -0.1499  0.2687
15448TIP3    H167759   4.986   5.269   5.629  0.3869  0.3838 -0.6113
15448TIP3    H267760   5.045   5.130   5.632 -0.4390  0.0294 -0.4630
15449TIP3   OH267761   3.427   2.146   5.230  0.3861  0.2463  0.0433
15449TIP3    H167762   3.444   2.224   5.283  2.0005 -0.7483  1.0772
15449TIP3    H267763   3.456   2.169   5.142  1.6871  0.5423  0.5359
15450TIP3   OH267764   0.057   6.462   2.221 -0.0871  0.7169  0.4253
15450TIP3    H167765   0.114   6.406   2.274 -0.1454  0.4743  0.2307
15450TIP3    H267766   0.110   6.539   2.201 -0.4153  1.3240  1.7641
15451TIP3   OH267767   3.514   2.240  15.927 -0.0395  0.2653  0.5728
15451TIP3    H167768   3.458   2.168  15.898  1.9360 -0.8331 -0.6736
15451TIP3    H267769   3.504   2.307  15.860 -0.4489  0.4131  0.7743
15452TIP3   OH267770   3.591   3.057   3.794 -0.0729  0.6328  0.5891
15452TIP3    H167771   3.655   3.052   3.722  2.3752  1.4418  2.5571
15452TIP3    H267772   3.602   2.974   3.841  0.0551  1.0490  1.3171
15453TIP3   OH267773   1.615   1.305   1.135 -0.5290  0.5984 -0.0773
15453TIP3    H167774   1.664   1.378   1.173  2.4717 -0.7047 -1.1004
15453TIP3    H267775   1.636   1.308   1.042 -3.0981  0.3773 -0.7109
15454TIP3   OH267776   0.115   1.417  14.716  0.3011  0.2302 -0.7201
15454TIP3    H167777   0.106   1.480  14.787  1.7498 -1.1792  0.8095
15454TIP3    H267778   0.027   1.384  14.701  0.1044 -0.3017  1.3081
15455TIP3   OH267779   0.797   3.829   1.548 -0.5923 -0.2585 -0.4460
15455TIP3    H167780   0.745   3.908   1.562  0.7460  0.2802  1.8939
15455TIP3    H267781   0.742   3.758   1.581 -0.7801  0.0251 -0.1445
15456TIP3   OH267782   5.560   4.561  15.404 -0.0166 -0.5813 -0.1003
15456TIP3    H167783   5.549   4.500  15.476 -1.2470 -0.8555 -0.4931
15456TIP3    H267784   5.645   4.539  15.367  0.2106 -1.0606  0.6858
15457TIP3   OH267785   5.908   2.129   5.081  0.3812  0.2264 -0.2934
15457TIP3    H167786   5.830   2.094   5.124 -1.1683  2.2058 -1.3399
15457TIP3    H267787   5.964   2.052   5.068 -0.6449 -1.0023  1.9186
15458TIP3   OH267788   2.338   5.909   5.014  0.9869 -0.0574 -0.3891
15458TIP3    H167789   2.248   5.893   5.040  1.2913 -0.4102  0.4751
15458TIP3    H267790   2.370   5.974   5.076  1.2955  0.1496 -0.7608
15459TIP3   OH267791   5.419   3.138  13.948  0.9871 -0.2686 -0.2799
15459TIP3    H167792   5.382   3.050  13.953  1.9360 -0.6424  0.6100
15459TIP3    H267793   5.403   3.166  13.858 -1.2971 -0.4520  0.0217
15460TIP3   OH267794   5.399   6.787  14.261 -0.3694  0.7529  0.3170
15460TIP3    H167795   5.491   6.806  14.246  0.1417 -0.8806  1.0883
15460TIP3    H267796   5.392   6.771  14.355 -1.4087  0.7408  0.2558
15461TIP3   OH267797   6.122   2.329  11.700  0.6474 -0.0207  0.2443
15461TIP3    H167798   6.092   2.341  11.610  1.1272 -0.6961 -0.0094
15461TIP3    H267799   6.076   2.251  11.731  1.4953 -0.5716  0.1329
15462TIP3   OH267800   0.924   1.384  14.846 -0.5312 -0.6083 -0.3393
15462TIP3    H167801   1.006   1.342  14.871 -0.4452 -1.2120 -1.6109
15462TIP3    H267802   0.858   1.343  14.903 -0.2414 -1.4900 -0.6274
15463TIP3   OH267803   0.518   0.136   0.510 -0.2189  0.4640  0.0336
15463TIP3    H167804   0.523   0.222   0.468 -0.0486  1.1356  1.3651
15463TIP3    H267805   0.463   0.084   0.452  1.0405  0.9367 -1.6591
15464TIP3   OH267806   1.223   2.989   3.918 -0.7612 -0.1293 -0.0304
15464TIP3    H167807   1.315   3.006   3.938 -0.6749 -0.6318  0.0180
15464TIP3    H267808   1.213   3.013   3.826 -1.3441  2.9588  0.7209
15465TIP3   OH267809   3.999   3.718   1.917 -0.3995  0.0501  0.0517
15465TIP3    H167810   3.923   3.766   1.948 -1.3982  0.0918 -2.2569
15465TIP3    H267811   4.037   3.773   1.848  1.9373  0.1492  1.2953
15466TIP3   OH267812   2.874   4.079  13.867  0.0391  0.3851 -0.0418
15466TIP3    H167813   2.940   4.069  13.935 -1.1215  0.0552  1.0758
15466TIP3    H267814   2.862   3.992  13.831 -0.5925  0.2114  0.5597
15467TIP3   OH267815   6.209   4.483   5.127  0.0279  0.3379 -0.3593
15467TIP3    H167816   6.158   4.406   5.103 -0.6946  1.2805 -2.0069
15467TIP3    H267817   6.264   4.501   5.051  1.4721  0.4706  0.6616
15468TIP3   OH267818   3.244   5.339  16.994 -0.6651  0.1365  0.0033
15468TIP3    H167819   3.247   5.250  17.028 -0.9431  0.3925  0.7137
15468TIP3    H267820   3.335   5.359  16.971 -0.4611 -0.0177  0.6699
15469TIP3   OH267821   0.194   3.339  12.860  0.4300 -0.5321  0.2705
15469TIP3    H167822   0.155   3.374  12.940  1.6421 -0.7684  0.9976
15469TIP3    H267823   0.196   3.413  12.800 -1.8396 -0.7056 -0.1138
15470TIP3   OH267824   2.851   4.888   3.820 -0.2473  0.7835 -0.4704
15470TIP3    H167825   2.764   4.905   3.857 -0.1631  2.2015 -0.8712
15470TIP3    H267826   2.899   4.970   3.832  1.9021 -0.6906  1.9570
15471TIP3   OH267827   6.476   0.483   5.557  0.1454  0.6216 -0.1554
15471TIP3    H167828   6.509   0.399   5.588 -0.2737  0.6006  0.2553
15471TIP3    H267829   6.505   0.546   5.622  0.4007  0.7856 -0.4267
15472TIP3   OH267830   2.613   6.718  14.187 -0.2924  0.0218 -0.1474
15472TIP3    H167831   2.560   6.657  14.135 -1.9424  0.6321  0.7585
15472TIP3    H267832   2.567   6.725  14.271  2.1730 -0.8035  1.4131
15473TIP3   OH267833   5.842   5.625   2.075 -0.4479 -0.0564  0.0019
15473TIP3    H167834   5.919   5.646   2.128  0.3075  0.4534 -1.2360
15473TIP3    H267835   5.804   5.549   2.118  1.4364 -1.0638  0.0114
15474TIP3   OH267836   3.559   2.411  15.032 -0.1775  0.2919  0.8439
15474TIP3    H167837   3.610   2.412  14.951 -1.6425 -1.4403 -0.1663
15474TIP3    H267838   3.514   2.495  15.033  2.1128  1.5915  1.4367
15475TIP3   OH267839   4.538   5.348   1.567  0.1576 -0.0542  0.8335
15475TIP3    H167840   4.623   5.336   1.525 -0.0255  0.4621  0.2986
15475TIP3    H267841   4.557   5.384   1.653  0.4202  1.5116  0.1410
15476TIP3   OH267842   5.068   1.510  15.354 -0.3874 -1.1118  0.1133
15476TIP3    H167843   5.034   1.538  15.439 -0.7361 -0.0887 -0.3493
15476TIP3    H267844   5.118   1.430  15.373 -1.7807 -1.7944  1.0266
15477TIP3   OH267845   2.213   3.044   0.922 -0.0603  0.4916  0.2710
15477TIP3    H167846   2.169   3.038   0.837  0.3371  0.1570  0.0855
15477TIP3    H267847   2.192   2.961   0.966 -1.9268  1.4532  1.3280
15478TIP3   OH267848   5.032   3.771  14.202 -0.1944 -0.4465  0.0113
15478TIP3    H167849   4.943   3.803  14.218 -1.0926 -2.1770 -1.1901
15478TIP3    H267850   5.025   3.719  14.122  2.0240 -0.2246 -0.3882
15479TIP3   OH267851   2.517   1.968   1.794  0.5197 -0.5941  0.0814
15479TIP3    H167852   2.495   1.881   1.761  0.5129 -0.4918 -0.1842
15479TIP3    H267853   2.508   2.025   1.718  0.7456 -0.3979  0.2027
15480TIP3   OH267854   1.532   3.343  12.047 -0.1636  0.0589 -0.2637
15480TIP3    H167855   1.453   3.332  12.099  0.6951 -1.6465  0.7588
15480TIP3    H267856   1.549   3.256  12.010  2.9313 -0.5256  2.1268
15481TIP3   OH267857   1.880   0.574   3.040  0.4831 -0.6337 -0.1384
15481TIP3    H167858   1.940   0.633   2.995  0.5764 -0.3116  0.3909
15481TIP3    H267859   1.796   0.621   3.040  0.7015 -0.2088  0.8209
15482TIP3   OH267860   3.229   4.747   5.506 -0.2707 -0.2900 -0.0665
15482TIP3    H167861   3.260   4.815   5.565  0.4926 -0.6354 -0.0568
15482TIP3    H267862   3.140   4.726   5.537  0.0453 -0.3348  0.8441
15483TIP3   OH267863   0.702   1.404   6.030 -0.2615  0.2264  0.1433
15483TIP3    H167864   0.728   1.369   6.115  1.5939  0.6170 -0.2244
15483TIP3    H267865   0.615   1.440   6.045  0.4377  1.2239  2.1709
15484TIP3   OH267866   1.737   3.049  16.472 -0.0894 -0.3336  0.0303
15484TIP3    H167867   1.736   2.988  16.398 -0.3687 -1.2264  0.7623
15484TIP3    H267868   1.669   3.113  16.451  0.1220 -0.3342 -0.6876
15485TIP3   OH267869   5.117   6.382   3.871  0.0234  0.5011 -0.0283
15485TIP3    H167870   5.146   6.465   3.910  0.6371  0.4161 -0.2922
15485TIP3    H267871   5.187   6.358   3.811 -1.4289  1.2112 -2.0988
15486TIP3   OH267872   2.625   5.256  16.890 -0.5349 -0.6723  0.1358
15486TIP3    H167873   2.603   5.263  16.797  0.9012  1.5319 -0.1050
15486TIP3    H267874   2.541   5.240  16.933 -1.2996 -1.2031 -1.4777
15487TIP3   OH267875   0.484   6.440   3.668  0.2071  0.4097  0.1003
15487TIP3    H167876   0.523   6.474   3.588 -0.2799  4.2231  1.2829
15487TIP3    H267877   0.554   6.443   3.733  0.2704 -1.4901  0.1798
15488TIP3   OH267878   4.468   2.268   2.405 -1.0001  0.0682 -0.5650
15488TIP3    H167879   4.474   2.282   2.311  0.2985  0.4686 -0.4447
15488TIP3    H267880   4.558   2.249   2.432 -1.0497  1.6297  0.8495
15489TIP3   OH267881   1.302   0.726   3.072  0.3016  0.2403 -0.0824
15489TIP3    H167882   1.250   0.751   3.148 -1.3814 -0.9441 -0.7903
15489TIP3    H267883   1.332   0.809   3.035 -0.4811  0.9151  0.7539
15490TIP3   OH267884   1.922   2.763  15.815 -0.1485 -0.2318 -0.3014
15490TIP3    H167885   1.920   2.856  15.835 -0.4243 -0.3821  0.3616
15490TIP3    H267886   1.938   2.760  15.720 -0.4640  0.4868 -0.3840
15491TIP3   OH267887   0.898   4.388  11.118  0.4971 -0.2946  0.0010
15491TIP3    H167888   0.889   4.472  11.073  0.3049 -0.1770  0.2515
15491TIP3    H267889   0.854   4.402  11.203  0.8119 -0.5242  0.2025
15492TIP3   OH267890   6.321   0.897   5.410  0.0592 -0.6711  0.0595
15492TIP3    H167891   6.323   0.857   5.323  0.0605  0.3359 -0.4300
15492TIP3    H267892   6.363   0.834   5.467 -1.0129 -1.8855 -0.4353
15493TIP3   OH267893   6.130   3.377   6.457 -0.2582 -0.2630  0.1116
15493TIP3    H167894   6.050   3.325   6.452 -0.4558  0.0870 -0.5984
15493TIP3    H267895   6.200   3.314   6.439 -0.1422 -1.0228  2.8121
15494TIP3   OH267896   5.863   3.572  13.456  0.2632  0.2997 -0.4006
15494TIP3    H167897   5.934   3.512  13.478  1.3440  1.7057  0.1332
15494TIP3    H267898   5.875   3.646  13.517 -2.9173 -0.3248  1.1677
15495TIP3   OH267899   0.310   2.683   4.911 -0.3436 -0.1773  0.1738
15495TIP3    H167900   0.247   2.735   4.963 -0.1532 -0.3880  0.6202
15495TIP3    H267901   0.308   2.596   4.952  0.8262  0.0302  0.6992
15496TIP3   OH267902   6.636   1.264  15.769  0.1141 -0.5817 -0.2749
15496TIP3    H167903   6.685   1.332  15.815 -0.3418 -0.5565  0.1928
15496TIP3    H267904   6.693   1.236  15.698 -0.1723  1.1802 -1.2647
15497TIP3   OH267905   6.741   5.910  14.544 -0.2021 -0.2323 -0.0410
15497TIP3    H167906   6.830   5.934  14.568  0.5106 -0.2985 -2.3196
15497TIP3    H267907   6.748   5.881  14.453 -2.1516 -2.6590  0.4741
15498TIP3   OH267908   0.011   3.726  13.308 -0.2486 -0.3361  0.5205
15498TIP3    H167909  -0.043   3.724  13.230  0.0618  0.1653  0.2884
15498TIP3    H267910  -0.007   3.810  13.349  0.8432  0.1294  0.0853
15499TIP3   OH267911   0.900   0.427  15.191  1.1260  0.2627 -0.4812
15499TIP3    H167912   0.891   0.333  15.175 -0.6501  0.1821  0.6998
15499TIP3    H267913   0.856   0.469  15.117  0.8427  0.1291 -0.3886
15500TIP3   OH267914   3.906   0.245   4.882 -0.3198  0.4236  0.7595
15500TIP3    H167915   3.823   0.213   4.917 -1.0819  2.1202  0.5619
15500TIP3    H267916   3.910   0.337   4.908  0.8084  0.7537 -0.4833
15501TIP3   OH267917   1.865   4.360  16.718 -0.1022 -0.8987  0.2364
15501TIP3    H167918   1.899   4.414  16.647  0.4543 -1.1992  0.2663
15501TIP3    H267919   1.786   4.320  16.683 -1.8032  1.6257  0.9275
15502TIP3   OH267920   1.152   3.236   4.310 -0.3484 -0.0680  0.0164
15502TIP3    H167921   1.183   3.327   4.308 -0.9556  0.1499  0.1277
15502TIP3    H267922   1.129   3.217   4.219  0.4409 -0.3503 -0.1269
15503TIP3   OH267923   5.577   1.323   2.894 -0.1072  0.0794 -0.2924
15503TIP3    H167924   5.590   1.295   2.804  1.6304  1.0633 -0.3721
15503TIP3    H267925   5.661   1.360   2.921 -0.2796 -1.0078  2.0337
15504TIP3   OH267926   5.161   5.377  15.247 -0.5075  0.2924  0.3147
15504TIP3    H167927   5.090   5.373  15.311  0.6303  0.0595  1.6214
15504TIP3    H267928   5.213   5.298  15.264  0.0626  0.4586 -0.6001
15505TIP3   OH267929   6.511   4.758  11.922  0.0418 -0.1453 -0.0174
15505TIP3    H167930   6.501   4.852  11.937 -0.1783 -0.1455 -0.1654
15505TIP3    H267931   6.428   4.731  11.884  0.2819 -0.3108 -0.4232
15506TIP3   OH267932   0.253   5.942  13.600  0.0991  0.9008  0.0516
15506TIP3    H167933   0.324   5.952  13.537  0.4392 -0.2528  0.2252
15506TIP3    H267934   0.297   5.930  13.685 -0.2646 -0.0580  0.1252
15507TIP3   OH267935   2.093   0.339  14.028  0.0281  0.2383 -0.4759
15507TIP3    H167936   2.139   0.364  13.948 -0.4566  0.2636 -0.7443
15507TIP3    H267937   2.162   0.305  14.085  0.2837 -0.3513 -1.1296
15508TIP3   OH267938   5.304   2.606  13.511 -0.1094  0.6877 -0.0844
15508TIP3    H167939   5.226   2.651  13.544  0.1263  0.5880  0.6278
15508TIP3    H267940   5.362   2.600  13.587 -0.4478 -1.5446  0.0621
15509TIP3   OH267941   5.800   6.578  13.782 -0.0756  0.1388 -0.1961
15509TIP3    H167942   5.872   6.560  13.843  0.3558  1.9854 -0.0976
15509TIP3    H267943   5.769   6.665  13.806 -2.6013 -0.7093 -0.0424
15510TIP3   OH267944   0.716   0.594  13.014 -1.0324  0.4355  0.2786
15510TIP3    H167945   0.742   0.558  12.929 -2.5392  0.7933 -0.3609
15510TIP3    H267946   0.762   0.677  13.020  0.4015 -0.3457  0.5896
15511TIP3   OH267947   5.056   0.975  16.741  0.3620 -0.7720  0.2376
15511TIP3    H167948   4.977   0.951  16.790  0.0606 -0.8813 -0.2851
15511TIP3    H267949   5.099   1.041  16.795 -0.2133 -0.5369  0.4198
15512TIP3   OH267950   3.324   4.882   2.723  0.3078  0.0899  0.2071
15512TIP3    H167951   3.271   4.959   2.702 -0.2171 -0.8459 -2.1053
15512TIP3    H267952   3.409   4.899   2.681  0.2047 -0.5684 -0.2725
15513TIP3   OH267953   1.698   2.021  15.324 -0.2554 -0.2472  0.2095
15513TIP3    H167954   1.752   1.956  15.279 -1.3627  0.1604 -1.8219
15513TIP3    H267955   1.608   1.996  15.304 -0.7586  0.7661  1.0867
15514TIP3   OH267956   3.140   1.300   5.368  0.2839  0.0620  0.1411
15514TIP3    H167957   3.128   1.259   5.282  1.5980 -1.2603  0.5400
15514TIP3    H267958   3.051   1.324   5.395 -0.4656 -1.6501 -0.5776
15515TIP3   OH267959   1.181   0.725  13.459  0.1356 -0.8530 -0.4329
15515TIP3    H167960   1.098   0.738  13.506  0.2496  0.0482 -0.4484
15515TIP3    H267961   1.174   0.783  13.383  0.8373 -0.6602 -0.3549
15516TIP3   OH267962   1.879   0.419  12.124  0.1515  0.4552  0.0877
15516TIP3    H167963   1.880   0.513  12.107  0.2023  0.2308 -1.3297
15516TIP3    H267964   1.941   0.383  12.060 -1.5296 -0.7480 -0.9585
15517TIP3   OH267965   0.833   3.265   3.689 -0.1131 -0.2143 -0.9787
15517TIP3    H167966   0.923   3.287   3.712 -0.0169 -1.9318  0.4840
15517TIP3    H267967   0.783   3.343   3.712  0.5374 -0.4521  1.5634
15518TIP3   OH267968   6.229   4.014  16.058 -0.4704  0.1191  0.0384
15518TIP3    H167969   6.210   4.100  16.019 -1.1436 -0.2088 -0.3694
15518TIP3    H267970   6.258   3.960  15.985 -0.1862 -0.0441  0.2686
15519TIP3   OH267971   5.963   1.314   3.435 -0.1910 -0.4183 -0.0765
15519TIP3    H167972   6.033   1.352   3.383 -0.2055 -1.2506 -0.7258
15519TIP3    H267973   6.006   1.283   3.515 -0.1782  0.8999  0.4523
15520TIP3   OH267974   5.707   1.932  10.988 -0.4760 -0.8574 -0.2382
15520TIP3    H167975   5.655   1.852  10.981 -2.3381  0.2241  0.6095
15520TIP3    H267976   5.706   1.969  10.900 -1.7474 -0.4977 -0.0849
15521TIP3   OH267977   5.767   3.446   6.439  0.2851  0.1615  0.4525
15521TIP3    H167978   5.683   3.438   6.395  0.1277  0.7534  0.6367
15521TIP3    H267979   5.822   3.496   6.378  0.0199  1.1129  0.9730
15522TIP3   OH267980   6.740   6.190  14.523  0.2931 -0.8233 -0.3340
15522TIP3    H167981   6.761   6.110  14.572  0.0178 -1.9177 -1.9215
15522TIP3    H267982   6.817   6.204  14.467 -0.2233 -0.7551 -1.0342
15523TIP3   OH267983   2.274   4.002  17.192 -0.0828  0.1262  0.3508
15523TIP3    H167984   2.237   4.007  17.104 -0.3962  1.9451  0.5584
15523TIP3    H267985   2.224   3.933  17.235 -1.6717  0.9461 -0.1067
15524TIP3   OH267986   0.168   6.598   5.428 -0.1246 -0.1053  0.3953
15524TIP3    H167987   0.075   6.614   5.444 -0.6988 -1.3338 -1.4066
15524TIP3    H267988   0.174   6.584   5.333  1.7334 -1.0604  0.6057
15525TIP3   OH267989   6.744   4.012   1.476  0.1775  0.1801  0.4722
15525TIP3    H167990   6.661   4.045   1.440 -0.2976 -0.1354  1.2397
15525TIP3    H267991   6.730   3.918   1.485  1.0318 -0.0502 -0.4344
15526TIP3   OH267992   1.139   6.647  16.658  0.0165 -1.0993 -0.2069
15526TIP3    H167993   1.183   6.569  16.625  1.2099  0.0893 -1.6140
15526TIP3    H267994   1.177   6.661  16.745  1.6431 -0.7517 -0.9292
15527TIP3   OH267995   0.136   3.341   2.843 -0.2275 -0.5502  0.0231
15527TIP3    H167996   0.122   3.370   2.934  2.4727 -0.5675  0.5306
15527TIP3    H267997   0.147   3.422   2.794 -2.9225 -0.4826 -0.6198
15528TIP3   OH267998   3.246   0.488  15.206  0.0150 -0.2006 -0.1805
15528TIP3    H167999   3.163   0.445  15.228 -1.2627  1.1321 -2.0105
15528TIP3    H268000   3.293   0.424  15.153  1.4575 -1.9893  2.9835
15529TIP3   OH268001   5.313   1.053   5.143  0.1834 -0.3258 -0.0002
15529TIP3    H168002   5.311   1.148   5.128  1.3115 -0.2112  0.4492
15529TIP3    H268003   5.229   1.034   5.184 -0.3204  0.3713 -0.6776
15530TIP3   OH268004   4.021   5.818  13.162  0.1811 -0.1160  0.6358
15530TIP3    H168005   4.116   5.811  13.161  0.3085 -1.5428 -4.4194
15530TIP3    H268006   4.004   5.911  13.146  0.6771  0.0557  1.0440
15531TIP3   OH268007   4.309   2.073   1.828  0.1655  0.2187  0.6147
15531TIP3    H168008   4.317   2.163   1.858 -2.1740  0.0895  1.8711
15531TIP3    H268009   4.222   2.046   1.856 -0.3026 -1.5688 -2.1013
15532TIP3   OH268010   3.402   6.169  12.145 -0.2780 -0.4561 -0.3001
15532TIP3    H168011   3.431   6.260  12.142 -0.2833 -0.4660 -0.8762
15532TIP3    H268012   3.360   6.154  12.060  2.2714 -1.8017 -1.4746
15533TIP3   OH268013   2.183   1.162  13.294 -0.1774 -0.4851  0.1274
15533TIP3    H168014   2.120   1.130  13.230 -2.4417 -1.1215  2.5171
15533TIP3    H268015   2.171   1.104  13.370  1.7591  0.7618  1.4715
15534TIP3   OH268016   5.884   0.575   4.109 -0.0676 -0.6849  0.4307
15534TIP3    H168017   5.866   0.640   4.177  1.5265  0.0362  0.1965
15534TIP3    H268018   5.800   0.563   4.065 -0.7210  0.1246  1.4072
15535TIP3   OH268019   3.009   4.973   2.992 -0.0533 -0.1037 -0.1517
15535TIP3    H168020   2.972   5.015   3.070  0.7887  0.6771 -0.1616
15535TIP3    H268021   2.934   4.958   2.935 -0.2975  2.2019 -0.5313
15536TIP3   OH268022   3.376   4.523   2.874 -0.0355  0.5147  0.3980
15536TIP3    H168023   3.304   4.461   2.866  0.0961 -0.2441  3.5044
15536TIP3    H268024   3.334   4.606   2.895 -0.0938  0.6003 -0.0648
15537TIP3   OH268025   6.742   5.540  12.156 -0.3109  0.4244 -0.5077
15537TIP3    H168026   6.818   5.556  12.100  2.1896  1.8421  2.9554
15537TIP3    H268027   6.743   5.446  12.172  0.8541  0.4540 -0.3572
15538TIP3   OH268028   0.487   1.511  11.733 -0.1869  0.8266  0.3867
15538TIP3    H168029   0.564   1.541  11.781  0.9190 -1.3449  0.0664
15538TIP3    H268030   0.492   1.557  11.649  0.4870  1.0521  0.5397
15539TIP3   OH268031   2.149   3.982   1.984  0.0303 -0.1076 -1.0289
15539TIP3    H168032   2.193   3.919   1.927  0.9714 -0.1538 -0.2744
15539TIP3    H268033   2.103   3.928   2.048  0.6507 -0.0416 -0.5197
15540TIP3   OH268034   5.402   1.480   0.204 -0.0475  0.0454 -0.2425
15540TIP3    H168035   5.455   1.538   0.150  2.6936 -0.9416  1.1950
15540TIP3    H268036   5.418   1.392   0.168  0.3909 -0.4108  0.9985
15541TIP3   OH268037   3.674   2.915   3.172 -0.2241 -0.8023 -0.3768
15541TIP3    H168038   3.742   2.865   3.218 -1.0895 -1.4209  0.2583
15541TIP3    H268039   3.663   2.870   3.088 -0.1265 -0.9368 -0.3168
15542TIP3   OH268040   1.460   2.984  14.558 -0.1147 -0.3123  0.2155
15542TIP3    H168041   1.437   2.915  14.620  1.3696 -0.1929  0.9393
15542TIP3    H268042   1.426   3.064  14.597 -0.4069 -0.4104  0.1689
15543TIP3   OH268043   3.101   5.067   4.693  1.2029  0.2706 -0.4675
15543TIP3    H168044   3.123   5.013   4.769 -2.0421  1.1946  1.3323
15543TIP3    H268045   3.034   5.017   4.647 -0.2979  1.6892  0.0419
15544TIP3   OH268046   0.085   6.098  12.483 -0.7646  0.4102  0.5181
15544TIP3    H168047   0.061   6.185  12.450 -0.8442 -0.2080 -1.1697
15544TIP3    H268048   0.134   6.115  12.563 -1.5423  1.9615  0.7003
15545TIP3   OH268049   3.397   0.520  14.864 -0.2082  0.2122  0.2375
15545TIP3    H168050   3.485   0.489  14.845  0.2936  1.2851  0.7055
15545TIP3    H268051   3.352   0.445  14.903  0.2609 -0.5501 -0.6762
15546TIP3   OH268052   3.333   5.874  16.963  0.5249  0.4259 -0.0534
15546TIP3    H168053   3.302   5.883  16.873  1.4345 -0.9593 -0.5297
15546TIP3    H268054   3.383   5.955  16.979  0.0300  0.8597 -0.6386
15547TIP3   OH268055   1.950   3.777   5.363  0.2709 -0.2902  0.2463
15547TIP3    H168056   1.980   3.761   5.452 -0.2932 -1.3734  0.2638
15547TIP3    H268057   2.030   3.794   5.313  0.8404 -2.0183  0.5007
15548TIP3   OH268058   1.886   1.721   4.628 -0.1570  0.3334  0.3191
15548TIP3    H168059   1.936   1.709   4.547 -0.9048 -1.3601  0.0583
15548TIP3    H268060   1.803   1.758   4.600 -0.0078  0.7729  0.4517
15549TIP3   OH268061   1.288   5.676  16.754 -0.2984  0.0124 -0.0877
15549TIP3    H168062   1.196   5.691  16.773  0.5330  1.1038  3.9212
15549TIP3    H268063   1.317   5.616  16.823  1.8817 -1.0004 -1.7557
15550TIP3   OH268064   1.249   0.084   4.490  0.4013  0.1920 -0.5466
15550TIP3    H168065   1.156   0.099   4.473 -0.3030 -1.0524  1.8555
15550TIP3    H268066   1.273   0.149   4.555  0.8811 -0.2710 -0.2487
15551TIP3   OH268067   1.760   0.742  15.612  0.0506  0.3425 -0.7134
15551TIP3    H168068   1.693   0.798  15.651  0.6308 -0.3958  1.4898
15551TIP3    H268069   1.712   0.670  15.572 -0.6721  1.9863 -3.0727
15552TIP3   OH268070   4.028   6.547   2.021  0.4881  0.5807  0.6849
15552TIP3    H168071   3.986   6.526   2.105 -0.7174  0.4635  0.0743
15552TIP3    H268072   4.107   6.493   2.020  0.2731  0.2322  1.5461
15553TIP3   OH268073   0.795   6.050  16.151 -0.2201  0.0464  0.0059
15553TIP3    H168074   0.876   6.054  16.100 -1.3761  0.5381 -1.8917
15553TIP3    H268075   0.763   5.960  16.140 -0.5285  0.1834 -0.2503
15554TIP3   OH268076   4.360   2.138  16.363  0.1960 -0.4528 -0.1599
15554TIP3    H168077   4.399   2.206  16.307 -0.0179 -0.1941  0.0014
15554TIP3    H268078   4.394   2.157  16.451 -0.8603  0.2403  0.1304
15555TIP3   OH268079   5.706   4.990  13.611  0.6368  0.0626  0.5797
15555TIP3    H168080   5.667   5.013  13.695 -0.6345 -0.3472  0.1336
15555TIP3    H268081   5.778   4.932  13.633  0.2634 -0.1047  1.3911
15556TIP3   OH268082   5.631   5.363  14.259  0.5585 -0.1469 -0.1878
15556TIP3    H168083   5.616   5.388  14.168  0.4846  0.5891  0.0240
15556TIP3    H268084   5.548   5.324  14.287  0.2066  0.6522 -0.0994
15557TIP3   OH268085   1.644   3.464  14.413  0.4756 -0.0759 -0.3010
15557TIP3    H168086   1.726   3.415  14.408  0.4580 -0.3059  1.2007
15557TIP3    H268087   1.671   3.555  14.413  0.6609 -0.1264 -0.7929
15558TIP3   OH268088   4.300   4.869  14.824  0.5748 -0.0605 -0.3802
15558TIP3    H168089   4.391   4.841  14.811  1.0255  1.7512 -1.4183
15558TIP3    H268090   4.300   4.963  14.806 -1.3611  0.1518  0.4187
15559TIP3   OH268091   2.464   1.294  12.540  0.6214  0.3976 -0.7925
15559TIP3    H168092   2.383   1.254  12.508  1.4284 -1.2459 -0.8850
15559TIP3    H268093   2.473   1.262  12.630  1.2577  0.4326 -0.8380
15560TIP3   OH268094   4.418   4.294  13.563  0.7058  0.7383  0.1281
15560TIP3    H168095   4.384   4.205  13.552 -0.6096  1.1772  0.4638
15560TIP3    H268096   4.427   4.304  13.658  4.7171 -0.3760  0.0739
15561TIP3   OH268097   1.809   1.382  13.473  0.5155 -0.4122 -0.4222
15561TIP3    H168098   1.734   1.343  13.428  0.1127 -0.5169  0.3245
15561TIP3    H268099   1.809   1.341  13.560 -0.1503  1.4879  0.5441
15562TIP3   OH268100   2.782   5.732  12.967 -0.1884 -0.2958  0.1972
15562TIP3    H168101   2.769   5.804  13.028  0.1696  0.2363 -0.3537
15562TIP3    H268102   2.696   5.691  12.959 -0.6755  0.8188 -0.4270
15563TIP3   OH268103   4.104   1.609   2.313 -0.2361 -0.0449 -0.3112
15563TIP3    H168104   4.196   1.634   2.321  0.3227 -1.8759 -0.5597
15563TIP3    H268105   4.105   1.527   2.263 -2.0203 -0.0070 -0.4827
15564TIP3   OH268106   5.321   1.183  16.537 -0.0823  0.2663  0.4240
15564TIP3    H168107   5.377   1.223  16.604  0.1494 -0.7584  0.8587
15564TIP3    H268108   5.377   1.178  16.460  0.5946 -1.1370  0.9758
15565TIP3   OH268109   0.456   0.680   4.901  0.1031  0.7892  0.2279
15565TIP3    H168110   0.434   0.620   4.829  0.1278  0.8884  0.1385
15565TIP3    H268111   0.466   0.765   4.859 -1.9137  1.2798  0.5989
15566TIP3   OH268112   6.786   5.690   5.647  0.0547 -0.3089 -0.1502
15566TIP3    H168113   6.817   5.630   5.715  0.2342 -0.2554 -0.1841
15566TIP3    H268114   6.828   5.773   5.667  1.8861 -0.8130 -1.5864
15567TIP3   OH268115   2.939   2.347   6.649 -0.2091 -0.0839 -0.5058
15567TIP3    H168116   2.875   2.405   6.689 -0.4137  1.2540 -2.6423
15567TIP3    H268117   3.001   2.328   6.719 -0.9248  1.5705  0.6284
15568TIP3   OH268118   0.920   2.588  16.167 -0.0128  0.0901  0.0529
15568TIP3    H168119   0.884   2.575  16.254 -1.0118 -2.6396 -0.6717
15568TIP3    H268120   1.011   2.557  16.173 -0.0260  0.0782  0.1781
15569TIP3   OH268121   2.614   6.050  14.555 -0.0938 -0.3551 -0.0797
15569TIP3    H168122   2.657   5.984  14.500  2.2376  0.5844  0.4903
15569TIP3    H268123   2.637   6.134  14.514 -0.8404  0.2292  0.6527
15570TIP3   OH268124   3.639   0.476  12.081 -0.1000 -0.1517  0.0445
15570TIP3    H168125   3.574   0.435  12.137  0.6009  1.0397  1.8292
15570TIP3    H268126   3.590   0.539  12.029 -0.7259 -1.0935 -0.5352
15571TIP3   OH268127   2.235   0.473   0.799  0.4907  0.1091 -0.4313
15571TIP3    H168128   2.178   0.549   0.801  0.3826  0.0430 -0.9702
15571TIP3    H268129   2.216   0.427   0.881  1.3123  1.2000  0.4032
15572TIP3   OH268130   0.601   3.914  15.693  0.5873 -0.3488  0.2889
15572TIP3    H168131   0.604   4.005  15.723 -1.8521  0.3999 -1.4250
15572TIP3    H268132   0.574   3.920  15.601  2.2269 -2.7649 -0.4476
15573TIP3   OH268133   0.299   2.446  13.691 -0.2062  0.2748 -0.1901
15573TIP3    H168134   0.304   2.365  13.641 -1.1774  0.3093 -0.3641
15573TIP3    H268135   0.316   2.420  13.782 -2.3484 -0.4478  0.0384
15574TIP3   OH268136   3.319   1.241  12.879 -0.5764 -0.3197 -0.1421
15574TIP3    H168137   3.249   1.199  12.930 -0.2935 -1.8373 -0.9365
15574TIP3    H268138   3.395   1.242  12.938 -0.5064 -1.2222 -0.2043
15575TIP3   OH268139   1.835   5.938  13.737  0.3356 -0.2872  0.3658
15575TIP3    H168140   1.781   5.916  13.814  0.3502 -0.6719  0.2722
15575TIP3    H268141   1.912   5.882  13.746  0.5797  0.0477  0.3420
15576TIP3   OH268142   5.293   0.790  12.067 -0.8400  0.1965  0.3473
15576TIP3    H168143   5.199   0.778  12.079 -0.9638  0.6164 -0.2135
15576TIP3    H268144   5.304   0.883  12.048 -0.2569  0.2508  0.8915
15577TIP3   OH268145   6.525   5.122  13.753 -0.5677  0.3058 -0.5749
15577TIP3    H168146   6.502   5.215  13.762  0.4286  0.4373  1.0204
15577TIP3    H268147   6.448   5.075  13.785 -0.7904  0.5968 -0.6768
15578TIP3   OH268148   0.985   4.048  10.468  0.2803  0.7639  0.0681
15578TIP3    H168149   0.898   4.008  10.473  0.6678 -0.6561 -2.8282
15578TIP3    H268150   1.026   4.024  10.551 -1.6147  0.3854  0.9671
15579TIP3   OH268151   0.776   3.259   0.604  0.4444  0.0205 -0.1820
15579TIP3    H168152   0.704   3.308   0.644 -1.1747 -2.0690 -0.3570
15579TIP3    H268153   0.812   3.208   0.676  2.1914  1.4653  0.0243
15580TIP3   OH268154   1.417   4.639   1.128  0.2238  0.3835 -0.5776
15580TIP3    H168155   1.456   4.696   1.194 -0.3465 -0.1332  0.2180
15580TIP3    H268156   1.492   4.596   1.087  0.5472  0.0963  0.2958
15581TIP3   OH268157   3.060   2.757   5.032 -0.3192  0.2131  0.1849
15581TIP3    H168158   3.049   2.677   5.083 -0.8186  0.3122  0.2381
15581TIP3    H268159   2.976   2.803   5.042 -1.2247 -0.7165 -2.3749
15582TIP3   OH268160   3.727   4.364   6.239  0.1218 -0.8022  0.0749
15582TIP3    H168161   3.705   4.285   6.288  3.2344 -1.6714  0.3100
15582TIP3    H268162   3.806   4.341   6.189  0.9537  2.0174 -0.1230
15583TIP3   OH268163   0.390   3.275   0.821 -0.6449  0.1763 -0.2486
15583TIP3    H168164   0.436   3.348   0.780 -1.2712  0.2244 -0.8932
15583TIP3    H268165   0.333   3.241   0.752 -2.0823  0.5525  0.7039
15584TIP3   OH268166   3.782   3.541   1.597  0.0272 -0.1937  0.3085
15584TIP3    H168167   3.784   3.452   1.633  0.3773 -1.1057 -1.8488
15584TIP3    H268168   3.803   3.597   1.672 -0.3864 -1.8921  1.7679
15585TIP3   OH268169   6.182   1.832  13.233  1.1000 -0.0084 -0.1794
15585TIP3    H168170   6.188   1.798  13.323 -0.2042  0.1573  0.0003
15585TIP3    H268171   6.248   1.901  13.229  1.3436 -0.1867  0.5855
15586TIP3   OH268172   6.068   3.210  12.037 -0.0873 -0.1749  0.1403
15586TIP3    H168173   6.007   3.284  12.034  1.5226  1.2277  0.2656
15586TIP3    H268174   6.095   3.197  11.946 -0.1541 -0.4286  0.1556
15587TIP3   OH268175   6.347   6.065  10.515  0.0358  0.2774  0.7491
15587TIP3    H168176   6.362   5.986  10.462  1.0320  1.7968 -1.3850
15587TIP3    H268177   6.385   6.045  10.600 -0.2533 -1.7359  0.4602
15588TIP3   OH268178   1.582   2.382   3.625  0.1735  0.2936 -0.1497
15588TIP3    H168179   1.499   2.409   3.665 -0.6966 -0.7859 -1.1326
15588TIP3    H268180   1.645   2.384   3.697 -0.8813  0.3959  0.8061
15589TIP3   OH268181   4.089   1.996  15.959 -0.2323  0.1089  0.1078
15589TIP3    H168182   4.105   1.915  15.911 -0.6274  0.4903 -0.7028
15589TIP3    H268183   4.167   2.009  16.012 -0.5240 -1.2372  0.9037
15590TIP3   OH268184   0.497   5.666   4.007 -0.0982  0.5114  0.6920
15590TIP3    H168185   0.508   5.571   4.010  1.7078  0.7040  2.0857
15590TIP3    H268186   0.456   5.683   3.922  3.2868 -1.1963 -1.4889
15591TIP3   OH268187   1.588   3.468  13.200  0.3879  0.3792 -0.1557
15591TIP3    H168188   1.612   3.447  13.110 -2.3082 -0.9848 -0.6454
15591TIP3    H268189   1.591   3.384  13.246 -1.2731  0.5005  0.2313
15592TIP3   OH268190   5.979   3.559  11.771  0.2501  0.6458  0.2746
15592TIP3    H168191   6.060   3.607  11.750 -0.0550  1.3057  0.5956
15592TIP3    H268192   5.939   3.608  11.843 -0.9157  0.8568 -0.4964
15593TIP3   OH268193   1.542   2.178   1.694  0.5693 -0.2249  0.0886
15593TIP3    H168194   1.474   2.126   1.739  1.1984 -0.1014  1.2142
15593TIP3    H268195   1.578   2.234   1.763  1.0260  0.5331 -0.7613
15594TIP3   OH268196   2.988   2.817  13.387 -0.0980  0.0336 -0.0313
15594TIP3    H168197   2.960   2.761  13.314  0.0220  0.0120 -0.0607
15594TIP3    H268198   3.084   2.814  13.385 -0.0914  0.1588  0.0296
15595TIP3   OH268199   1.168   0.048   5.176  1.0724  0.1561  0.1836
15595TIP3    H168200   1.137   0.099   5.101 -0.0554  1.3322  1.3953
15595TIP3    H268201   1.206   0.114   5.235  1.1903 -0.6433  1.0164
15596TIP3   OH268202   4.295   6.448  13.180  0.4410  0.8664 -0.5149
15596TIP3    H168203   4.253   6.526  13.143  1.3639  0.6413 -2.1537
15596TIP3    H268204   4.384   6.450  13.145  0.5118 -0.8738 -0.5250
15597TIP3   OH268205   1.820   3.142  13.786 -0.7815  0.0125  0.1092
15597TIP3    H168206   1.769   3.147  13.705  1.3312  2.4064 -1.2153
15597TIP3    H268207   1.909   3.122  13.757  0.1157  1.4087  1.7496
15598TIP3   OH268208   6.130   5.667   0.257  0.2820  0.0058 -0.2057
15598TIP3    H168209   6.189   5.629   0.192  0.4831 -0.4734  0.2404
15598TIP3    H268210   6.183   5.670   0.337  0.1202  0.8257 -0.1281
15599TIP3   OH268211   3.575   2.510  13.891  0.0623  0.1335  0.0207
15599TIP3    H168212   3.617   2.595  13.898  0.3762  0.1576 -1.6774
15599TIP3    H268213   3.577   2.474  13.980 -0.5273  2.0840  0.8623
15600TIP3   OH268214   3.220   4.377   6.023 -0.1670 -0.7536  0.7028
15600TIP3    H168215   3.137   4.340   6.054 -0.6551  1.3826  2.1526
15600TIP3    H268216   3.285   4.310   6.047 -1.4537 -2.8034 -1.1204
15601TIP3   OH268217   6.179   3.932   3.488  0.0955  0.0530 -0.0149
15601TIP3    H168218   6.262   3.978   3.503 -0.1790  0.4168  0.4238
15601TIP3    H268219   6.130   3.991   3.431 -0.2839  0.3507  0.6040
15602TIP3   OH268220   5.394   2.821   1.338 -0.1555 -0.5016 -0.3864
15602TIP3    H168221   5.324   2.886   1.345 -0.3005 -0.1659 -3.3370
15602TIP3    H268222   5.469   2.870   1.303  0.9766 -1.2296  0.9386
15603TIP3   OH268223   2.241   2.029  12.535 -0.0861 -0.6042  0.5696
15603TIP3    H168224   2.207   2.113  12.564 -1.6822 -0.8176 -0.5671
15603TIP3    H268225   2.215   1.968  12.603 -2.1000 -0.7642 -0.2709
15604TIP3   OH268226   0.415   0.653  17.159 -0.3712  0.5918 -0.1651
15604TIP3    H168227   0.364   0.575  17.178  0.4025  0.2218  0.4571
15604TIP3    H268228   0.359   0.726  17.184 -0.1386  0.1649  1.7397
15605TIP3   OH268229   3.771   5.239  15.703 -0.2545 -0.0959  0.0021
15605TIP3    H168230   3.763   5.158  15.653  0.4919  0.6070 -1.2943
15605TIP3    H268231   3.681   5.272  15.710 -0.1956  0.8633 -2.7512
15606TIP3   OH268232   1.090   4.390   3.227 -0.2987 -0.1477  0.8638
15606TIP3    H168233   1.133   4.343   3.156 -0.7057  0.5046  0.1729
15606TIP3    H268234   1.143   4.370   3.304  1.5544  0.9958 -0.0396
15607TIP3   OH268235   1.913   4.303   0.032 -0.3609 -0.4472 -0.3978
15607TIP3    H168236   1.856   4.379   0.042 -0.2670 -0.2798 -1.0745
15607TIP3    H268237   1.974   4.308   0.106  0.8258  1.1852 -1.4145
15608TIP3   OH268238   1.173   4.710   3.697 -0.3958  0.3697  0.1315
15608TIP3    H168239   1.089   4.743   3.729 -1.0663  1.3373 -2.4469
15608TIP3    H268240   1.153   4.625   3.660  0.6855 -1.5350  3.4492
15609TIP3   OH268241   1.004   3.118  13.831 -0.4647 -1.1406  0.0347
15609TIP3    H168242   0.971   3.044  13.781 -3.9163 -0.9816  1.7989
15609TIP3    H268243   0.931   3.180  13.833  0.8522  0.4753  2.1158
15610TIP3   OH268244   1.070   6.751  14.345  0.0172 -0.2077 -0.0056
15610TIP3    H168245   1.080   6.800  14.264 -1.0889  0.5203  0.2723
15610TIP3    H268246   1.133   6.679  14.338 -1.0325 -1.0082 -2.1524
15611TIP3   OH268247   5.059   3.877   4.190  0.7406  0.2450  0.2154
15611TIP3    H168248   5.127   3.919   4.139  1.1605 -2.0223 -1.2480
15611TIP3    H268249   5.105   3.812   4.243 -0.0026  0.6669  1.4306
15612TIP3   OH268250   5.759   3.512  10.725 -0.3831 -0.0208  0.2702
15612TIP3    H168251   5.802   3.527  10.641 -0.9500  1.1285  0.1651
15612TIP3    H268252   5.831   3.499  10.787  0.0679  0.1125 -0.2198
15613TIP3   OH268253   6.109   4.071   0.109  0.0190  0.0413  0.1024
15613TIP3    H168254   6.100   4.112   0.194 -0.5625  0.3783 -0.1168
15613TIP3    H268255   6.019   4.048   0.083  0.0941  0.6938 -0.7790
15614TIP3   OH268256   5.773   5.899   1.490 -0.2480  0.3109 -0.1621
15614TIP3    H168257   5.750   5.973   1.545 -1.7835 -0.9666  1.0221
15614TIP3    H268258   5.689   5.860   1.467  0.5339 -1.6545  0.1252
15615TIP3   OH268259   0.310   5.143  14.775 -1.1547  0.1723  0.3248
15615TIP3    H168260   0.327   5.097  14.857 -2.9337 -0.0417  0.6277
15615TIP3    H268261   0.214   5.151  14.772 -1.4064 -2.0914 -2.9240
15616TIP3   OH268262   2.448   0.131  14.788 -0.0931  0.4927  0.0810
15616TIP3    H168263   2.506   0.063  14.753  1.5169  2.2591 -0.8320
15616TIP3    H268264   2.375   0.133  14.726 -0.6194 -0.9601  0.5987
15617TIP3   OH268265   3.736   4.246  15.074 -0.5046  0.1038  0.0706
15617TIP3    H168266   3.814   4.286  15.112 -0.5998  1.0953 -0.7364
15617TIP3    H268267   3.731   4.282  14.986 -1.6288 -0.2896 -0.0421
15618TIP3   OH268268   1.053   0.342   3.036 -0.0540 -0.5804 -0.3034
15618TIP3    H168269   0.971   0.351   2.986 -0.3042 -0.7743  0.0682
15618TIP3    H268270   1.112   0.406   2.995  0.0703 -1.4153 -1.4763
15619TIP3   OH268271   5.304   0.762  12.990 -0.8490 -0.1916  0.1485
15619TIP3    H168272   5.303   0.716  12.906 -0.9998 -1.2376  0.7050
15619TIP3    H268273   5.393   0.752  13.022 -0.6232  0.7448 -0.1625
15620TIP3   OH268274   1.379   5.959  15.298  0.4066  0.7128 -0.2612
15620TIP3    H168275   1.386   5.945  15.203 -0.4327  0.4594 -0.2925
15620TIP3    H268276   1.373   5.870  15.334  0.3967  0.8211  0.0016
15621TIP3   OH268277   6.289   6.454   0.230  0.1388  0.4453 -0.5274
15621TIP3    H168278   6.217   6.515   0.211 -0.1057 -0.0457 -1.2534
15621TIP3    H268279   6.343   6.457   0.151  0.2660 -0.0743 -0.4627
15622TIP3   OH268280   3.126   0.917   2.878  0.1038 -0.1749  0.3538
15622TIP3    H168281   3.163   0.925   2.791 -1.8848 -0.2265 -0.5633
15622TIP3    H268282   3.062   0.846   2.871  0.8440 -1.1111  2.2303
15623TIP3   OH268283   5.597   1.622  14.561  0.0426 -0.5200 -0.2117
15623TIP3    H168284   5.553   1.634  14.646 -0.2112 -0.9252 -0.2826
15623TIP3    H268285   5.593   1.528  14.545 -0.0476 -0.4284 -0.7490
15624TIP3   OH268286   0.786   4.935  10.803  0.0818  0.6456  0.0589
15624TIP3    H168287   0.766   5.024  10.776 -0.0533  0.5640 -0.1108
15624TIP3    H268288   0.736   4.921  10.883 -0.6198  0.4098 -0.4139
15625TIP3   OH268289   2.341   1.284   0.589 -0.0372  0.0604 -0.0296
15625TIP3    H168290   2.273   1.239   0.539 -0.5005 -0.6349  1.1628
15625TIP3    H268291   2.397   1.325   0.523  0.9350 -2.9996 -1.2934
15626TIP3   OH268292   3.130   2.156  11.926 -0.0531  0.3027 -0.3567
15626TIP3    H168293   3.044   2.131  11.959  0.4501 -0.6260  0.3280
15626TIP3    H268294   3.171   2.073  11.901  0.6103  0.7382 -0.7514
15627TIP3   OH268295   0.514   3.067   0.923 -0.5024  0.0129 -0.4220
15627TIP3    H168296   0.484   3.142   0.873  1.2316 -0.2944 -2.0333
15627TIP3    H268297   0.549   3.105   1.004  1.3272  1.1278 -1.6673
15628TIP3   OH268298   1.738   0.624   0.391 -0.8129 -0.3959 -0.6643
15628TIP3    H168299   1.800   0.696   0.372 -0.2163 -0.3792  1.0754
15628TIP3    H268300   1.707   0.643   0.480 -0.8034 -2.1805 -0.2444
15629TIP3   OH268301   5.194   6.644   3.918 -0.5323  0.0095  0.2629
15629TIP3    H168302   5.149   6.723   3.949 -0.9061 -0.4609  0.9486
15629TIP3    H268303   5.287   6.664   3.927 -0.4940  1.4639 -2.3239
15630TIP3   OH268304   6.299   4.224  16.405  0.7867 -0.3223 -0.5824
15630TIP3    H168305   6.245   4.147  16.392 -0.1670  0.0430  0.9612
15630TIP3    H268306   6.300   4.268  16.320  0.9940 -1.7738 -1.3594
15631TIP3   OH268307   5.525   3.849  11.160  0.1224  0.4587 -0.0878
15631TIP3    H168308   5.446   3.881  11.203  0.0395  0.3754 -0.1769
15631TIP3    H268309   5.513   3.872  11.068  0.0928  0.2291 -0.1418
15632TIP3   OH268310   0.850   3.840  11.234  0.3346  0.3467 -0.2084
15632TIP3    H168311   0.874   3.773  11.298  1.1342  0.2984 -0.5522
15632TIP3    H268312   0.801   3.793  11.166 -0.4280  0.3808  0.3057
15633TIP3   OH268313   1.185   3.346  14.614 -0.7119  0.7700  0.0034
15633TIP3    H168314   1.221   3.265  14.650 -2.6333 -0.1301  0.0477
15633TIP3    H268315   1.258   3.408  14.616  1.4361 -1.4946 -1.9761
15634TIP3   OH268316   6.229   4.406  14.103 -0.2522 -0.5085 -0.4220
15634TIP3    H168317   6.238   4.501  14.114  3.4777 -0.5612 -1.7381
15634TIP3    H268318   6.255   4.369  14.187 -2.7606 -0.4511  0.4573
15635TIP3   OH268319   1.297   5.893   5.055  0.5990  0.4987 -0.3189
15635TIP3    H168320   1.372   5.888   5.114 -0.3008  1.1358  0.9248
15635TIP3    H268321   1.265   5.803   5.048  1.3235  0.2624 -0.6675
15636TIP3   OH268322   0.179   0.367  11.945 -0.1330  0.2651 -0.0977
15636TIP3    H168323   0.262   0.403  11.976  1.2667 -1.1601 -1.9544
15636TIP3    H268324   0.188   0.273  11.954 -0.4909 -0.0921 -2.5659
15637TIP3   OH268325   1.975   1.954   2.598 -0.0614 -0.2307  0.3158
15637TIP3    H168326   2.039   2.025   2.591  1.0251 -1.3390 -2.2128
15637TIP3    H268327   1.891   1.996   2.581  0.5197  0.5590 -0.7306
15638TIP3   OH268328   0.341   6.720   1.901 -0.1274 -0.1922 -0.0574
15638TIP3    H168329   0.287   6.713   1.979 -0.6026  0.1805 -0.3517
15638TIP3    H268330   0.396   6.642   1.903 -0.5478 -0.4799  0.3373
15639TIP3   OH268331   6.083   3.999   4.173  0.3637 -0.4672  0.2176
15639TIP3    H168332   6.141   4.014   4.247  1.8278  0.5143 -1.0716
15639TIP3    H268333   5.995   3.996   4.211  1.2521 -3.3304  2.4090
15640TIP3   OH268334   4.608   4.767  14.069  0.2329  0.8537  0.2039
15640TIP3    H168335   4.644   4.678  14.065  1.6681  1.4348 -0.5419
15640TIP3    H268336   4.654   4.814  13.999 -1.1847  1.9505 -0.0336
15641TIP3   OH268337   4.340   3.156   1.909 -0.9952 -0.3788  0.2210
15641TIP3    H168338   4.393   3.154   1.989  0.8467 -1.4811 -0.9460
15641TIP3    H268339   4.288   3.236   1.917 -0.4860 -0.1795  2.2608
15642TIP3   OH268340   4.740   4.159   3.002  0.1919 -0.3557 -0.2654
15642TIP3    H168341   4.781   4.076   2.980 -2.2896 -1.6110 -0.5090
15642TIP3    H268342   4.656   4.158   2.955  0.0469  2.2838 -0.2529
15643TIP3   OH268343   3.014   1.943  14.677  0.2183 -0.3221 -0.0463
15643TIP3    H168344   2.956   2.019  14.670 -0.2035 -0.3708  2.0453
15643TIP3    H268345   3.102   1.980  14.682  0.0019  0.0710  1.1237
15644TIP3   OH268346   6.173   6.427  10.942 -0.1091 -0.1208  0.2617
15644TIP3    H168347   6.201   6.339  10.965  0.8409  0.4403  1.3593
15644TIP3    H268348   6.084   6.416  10.907  1.1689 -1.8877 -2.8240
15645TIP3   OH268349   1.842   4.672   5.537  0.4867  0.1274 -0.2928
15645TIP3    H168350   1.766   4.639   5.584  2.2247 -2.7140  0.7893
15645TIP3    H268351   1.823   4.651   5.445 -0.2212 -0.1164 -0.1022
15646TIP3   OH268352   5.736   3.659   5.196 -0.3658  0.1678 -0.8722
15646TIP3    H168353   5.656   3.629   5.240 -0.0173 -0.1059 -0.4144
15646TIP3    H268354   5.738   3.753   5.213 -1.3873  0.4526 -2.1915
15647TIP3   OH268355   4.308   0.796   1.751 -0.3276  0.1894 -0.5111
15647TIP3    H168356   4.224   0.840   1.765 -0.4578  0.3368 -1.6674
15647TIP3    H268357   4.366   0.865   1.718  0.0387 -0.0732 -0.4270
15648TIP3   OH268358   0.484   2.763  15.409  0.0026 -0.0792 -0.3190
15648TIP3    H168359   0.531   2.844  15.393 -0.0643 -0.0996 -0.6382
15648TIP3    H268360   0.520   2.701  15.345 -1.0231  0.1376 -1.1291
15649TIP3   OH268361   4.756   4.052   3.879 -0.5795  0.0332  0.2217
15649TIP3    H168362   4.793   4.113   3.815  1.2066  0.7523  1.8240
15649TIP3    H268363   4.757   3.967   3.836  0.2488  0.5600 -0.8263
15650TIP3   OH268364   4.119   1.289   2.954  0.3255  0.2595 -0.0496
15650TIP3    H168365   4.057   1.329   3.015 -1.7906 -1.6013 -0.8100
15650TIP3    H268366   4.084   1.311   2.867  1.1765 -0.1761 -0.5171
15651TIP3   OH268367   3.490   6.606   4.740 -0.3482  0.5733  0.6817
15651TIP3    H168368   3.457   6.695   4.747  0.6213  0.8957  1.4363
15651TIP3    H268369   3.440   6.567   4.669  0.6727  2.4057 -1.1504
15652TIP3   OH268370   4.374   6.008   1.955 -0.0863 -0.5695 -0.3751
15652TIP3    H168371   4.339   5.984   2.041  1.0925 -0.9936  0.0098
15652TIP3    H268372   4.359   6.102   1.948 -1.7094 -0.7956 -0.4488
15653TIP3   OH268373   2.893   3.327  14.791  0.6762  0.0926  0.8473
15653TIP3    H168374   2.849   3.293  14.713 -1.0999 -0.7577  2.1371
15653TIP3    H268375   2.862   3.417  14.799 -1.1527 -0.5776  1.8853
15654TIP3   OH268376   0.366   3.840  13.992  0.6525  0.2313 -0.2473
15654TIP3    H168377   0.316   3.797  14.062  3.3869 -0.3806  1.5050
15654TIP3    H268378   0.335   3.930  13.993 -1.2669 -0.3741 -0.1443
15655TIP3   OH268379   4.925   4.458   6.371  0.1195  0.2010 -0.1553
15655TIP3    H168380   4.830   4.458   6.359  0.2026  0.7718 -0.8207
15655TIP3    H268381   4.940   4.395   6.442 -0.6124 -1.1881 -1.1755
15656TIP3   OH268382   0.576   2.576  13.695  0.0106  0.2569 -0.3954
15656TIP3    H168383   0.650   2.621  13.734 -0.2877 -0.1657  0.7221
15656TIP3    H268384   0.508   2.578  13.764 -1.3879  1.5150 -1.7294
15657TIP3   OH268385   2.217   6.221   5.263  0.0258  0.3726  0.7581
15657TIP3    H168386   2.211   6.257   5.351 -0.0726 -0.8842  1.2804
15657TIP3    H268387   2.138   6.168   5.253  1.6092 -2.3145  1.2606
15658TIP3   OH268388   2.683   6.780   2.960  0.1694  0.4664 -0.2411
15658TIP3    H168389   2.612   6.730   2.920  0.3816  0.7231 -0.9612
15658TIP3    H268390   2.728   6.821   2.886 -0.5362  2.4467  0.3721
15659TIP3   OH268391   2.550   3.593   4.004  0.1085 -0.0250  0.0413
15659TIP3    H168392   2.480   3.534   3.978  0.0299 -0.4185  1.1000
15659TIP3    H268393   2.517   3.681   3.984 -0.0769 -0.2914 -0.8395
15660TIP3   OH268394   0.208   1.437   4.022 -0.0437  0.2862 -0.4872
15660TIP3    H168395   0.265   1.401   4.090  2.5825  1.4545 -1.9138
15660TIP3    H268396   0.205   1.530   4.041 -0.5701  0.3911 -1.0640
15661TIP3   OH268397   0.271   1.466   1.502 -0.9022  0.7950  0.6318
15661TIP3    H168398   0.179   1.486   1.484 -0.5017  0.8855 -1.5678
15661TIP3    H268399   0.292   1.393   1.444  0.3557  0.5784  1.3130
15662TIP3   OH268400   3.931   1.186  15.448 -0.4913  0.3061  0.1539
15662TIP3    H168401   3.961   1.189  15.538  0.8960  2.1371 -0.3072
15662TIP3    H268402   3.837   1.166  15.454 -0.6148  1.2579  2.0377
15663TIP3   OH268403   2.549   0.717   3.143 -0.2226  0.3730 -0.1490
15663TIP3    H168404   2.520   0.640   3.193  0.7737  0.4064  0.4915
15663TIP3    H268405   2.638   0.696   3.116 -0.1870  1.0294 -0.5576
15664TIP3   OH268406   0.962   3.919   5.575 -0.3925 -0.1004  0.0334
15664TIP3    H168407   1.023   3.861   5.530 -0.8676 -0.8937  0.3789
15664TIP3    H268408   1.015   3.965   5.640  0.2880  1.0242 -1.2861
15665TIP3   OH268409   1.365   3.323   3.880  0.1754 -0.2094 -0.1325
15665TIP3    H168410   1.307   3.379   3.931  1.7822  0.2041  1.3296
15665TIP3    H268411   1.423   3.384   3.833  0.5320 -0.6130 -0.2263
15666TIP3   OH268412   5.523   2.519  16.171 -0.3490  0.3994 -0.2578
15666TIP3    H168413   5.568   2.552  16.249 -0.4038 -1.1592  0.4811
15666TIP3    H268414   5.584   2.454  16.135 -0.3457  1.0662 -1.5052
15667TIP3   OH268415   2.143   2.739  14.579  0.1173  0.0435 -0.2349
15667TIP3    H168416   2.101   2.724  14.664  0.3380  0.4323 -0.0567
15667TIP3    H268417   2.095   2.812  14.542  0.6584  0.5174 -0.0129
15668TIP3   OH268418   4.708   5.023  12.868  0.3637  0.0848  0.3066
15668TIP3    H168419   4.613   5.017  12.873  0.4466 -0.3489  1.4183
15668TIP3    H268420   4.724   5.085  12.796 -0.7377 -0.3062 -0.2886
15669TIP3   OH268421   4.870   6.447   5.346 -0.9106 -0.0678  0.0386
15669TIP3    H168422   4.950   6.421   5.300 -2.1182 -0.0550 -2.2026
15669TIP3    H268423   4.848   6.372   5.401 -0.6306 -1.0309 -1.1348
15670TIP3   OH268424   0.589   2.201   5.478 -0.0006  0.1716 -0.0503
15670TIP3    H168425   0.653   2.255   5.525  0.5111 -0.1912 -0.3077
15670TIP3    H268426   0.506   2.215   5.523  0.1278  1.1613 -0.1108
15671TIP3   OH268427   0.749   1.353  12.180 -0.7813  1.0379  0.3596
15671TIP3    H168428   0.760   1.264  12.148 -1.7969 -0.2513  3.2127
15671TIP3    H268429   0.838   1.390  12.179  0.0100 -0.7246  0.9570
15672TIP3   OH268430   3.495   0.575   4.286 -0.5302  0.2808  0.3677
15672TIP3    H168431   3.497   0.483   4.262 -1.0186  0.8066 -1.9731
15672TIP3    H268432   3.403   0.595   4.302 -1.5862  1.5417 -5.0957
15673TIP3   OH268433   1.208   0.516   2.908  0.0834 -0.1201 -0.3961
15673TIP3    H168434   1.235   0.603   2.938  0.7023 -0.4047 -0.0917
15673TIP3    H268435   1.290   0.466   2.907 -0.1446 -0.4881 -1.3041
15674TIP3   OH268436   4.236   5.795   1.848 -0.1892  0.1799 -0.2612
15674TIP3    H168437   4.150   5.797   1.890 -1.4043  1.5835 -2.5675
15674TIP3    H268438   4.270   5.884   1.859 -1.3996  1.2135 -3.6306
15675TIP3   OH268439   0.931   6.004   2.447  0.0349  0.0504  0.1983
15675TIP3    H168440   0.871   6.010   2.522  0.8064  1.7912  0.7442
15675TIP3    H268441   0.960   5.913   2.447 -0.2729 -0.0888  1.8225
15676TIP3   OH268442   4.310   2.152   5.192  0.1490  0.0126  0.4880
15676TIP3    H168443   4.377   2.083   5.187  2.0642  1.8587 -1.3478
15676TIP3    H268444   4.325   2.206   5.114 -0.3705  3.2886  2.4705
15677TIP3   OH268445   4.170   0.526  14.190 -0.2037  0.1272 -0.3715
15677TIP3    H168446   4.086   0.497  14.153  0.5192 -1.6954 -0.7029
15677TIP3    H268447   4.172   0.487  14.278  0.6804 -0.6516 -0.7207
15678TIP3   OH268448   1.359   0.759   2.158  0.6438 -0.0615 -0.2618
15678TIP3    H168449   1.310   0.821   2.213  2.5111 -0.1139  1.5780
15678TIP3    H268450   1.333   0.673   2.191 -1.9218 -0.4063 -2.7923
15679TIP3   OH268451   6.781   3.050  16.069  0.5072  0.1152  0.2003
15679TIP3    H168452   6.777   3.088  15.981  0.9326 -0.5157 -0.0946
15679TIP3    H268453   6.802   2.958  16.055 -0.7450 -0.2994  0.8956
15680TIP3   OH268454   4.348   5.131   1.784  0.4391  0.4677  0.4699
15680TIP3    H168455   4.304   5.216   1.791 -2.4703 -0.8109 -0.6849
15680TIP3    H268456   4.326   5.086   1.866  0.4210  0.1894  0.3158
15681TIP3   OH268457   3.246   3.049   5.510 -0.6332  0.1361 -0.9701
15681TIP3    H168458   3.245   2.954   5.522 -1.1490  0.3051  0.4989
15681TIP3    H268459   3.329   3.066   5.465 -1.2135 -1.1290 -2.6401
15682TIP3   OH268460   5.553   5.474  11.880  0.3154 -0.0825 -0.5857
15682TIP3    H168461   5.467   5.495  11.918 -0.1377 -3.3705  0.6009
15682TIP3    H268462   5.532   5.415  11.807  1.5451  0.1574 -1.1470
15683TIP3   OH268463   5.782   0.776  15.887  0.4134 -0.0462  0.3119
15683TIP3    H168464   5.688   0.793  15.897  0.5110  1.1999 -0.7100
15683TIP3    H268465   5.824   0.836  15.948  0.5614 -0.4871  0.6489
15684TIP3   OH268466   1.943   4.012   3.199  0.2489 -0.4584  0.5681
15684TIP3    H168467   1.972   3.922   3.211  1.7640  0.0406  0.8262
15684TIP3    H268468   1.938   4.049   3.287  0.5707 -0.0106  0.4053
15685TIP3   OH268469   0.443   1.395  16.775 -0.1506  0.3233 -0.2111
15685TIP3    H168470   0.512   1.449  16.813  0.7038 -1.9698  1.7818
15685TIP3    H268471   0.362   1.428  16.815  0.0204  1.6350 -0.9034
15686TIP3   OH268472   3.236   4.691  14.456  0.4839  0.1611  0.0522
15686TIP3    H168473   3.210   4.637  14.381  1.7062  2.9959 -2.6433
15686TIP3    H268474   3.327   4.668  14.472  0.6949  0.6704 -0.4037
15687TIP3   OH268475   1.470   4.562   2.423  0.2799 -0.5232  0.4698
15687TIP3    H168476   1.418   4.578   2.344 -0.2145 -0.4668  0.8033
15687TIP3    H268477   1.532   4.494   2.397  0.5936 -0.0013 -0.1696
15688TIP3   OH268478   1.848   0.975   1.559 -0.3652  0.2262 -0.1380
15688TIP3    H168479   1.940   0.951   1.565 -0.4938 -0.1678  0.3395
15688TIP3    H268480   1.824   0.955   1.469 -0.6390 -2.1336  0.3930
15689TIP3   OH268481   2.346   3.418   3.929 -0.2385  0.1101 -0.0151
15689TIP3    H168482   2.293   3.338   3.926 -1.5243  0.9390 -0.2790
15689TIP3    H268483   2.326   3.462   3.846  3.3151 -1.0046 -1.6740
15690TIP3   OH268484   4.102   6.311  17.177 -0.1383  0.0579  0.2926
15690TIP3    H168485   4.082   6.400  17.207  0.2856 -0.5555  2.5339
15690TIP3    H268486   4.030   6.258  17.211  1.3331 -0.9631  1.9440
15691TIP3   OH268487   0.044   5.836  14.869 -0.6181  0.3809 -0.3207
15691TIP3    H168488   0.084   5.780  14.935 -1.8766 -0.0800  0.0855
15691TIP3    H268489   0.109   5.904  14.853  1.6331 -1.9615 -1.9532
15692TIP3   OH268490   1.580   2.015   1.138  0.3157  0.3514 -0.0067
15692TIP3    H168491   1.547   2.021   1.227 -0.4563 -1.7774 -0.0839
15692TIP3    H268492   1.519   2.067   1.086 -0.5900 -0.2793  0.4048
15693TIP3   OH268493   2.696   5.545   0.712  0.5107 -0.3344 -1.0222
15693TIP3    H168494   2.653   5.466   0.747  0.6809  0.6483  1.6388
15693TIP3    H268495   2.787   5.537   0.740  0.3814  1.0991 -0.1099
15694TIP3   OH268496   2.115   5.506   1.601  0.0928 -0.2009 -0.5672
15694TIP3    H168497   2.187   5.519   1.662 -0.5915  1.1659 -0.0153
15694TIP3    H268498   2.055   5.447   1.646 -0.1363  0.3472 -0.1486
15695TIP3   OH268499   4.025   2.832   3.583  0.1260  0.2410 -0.6944
15695TIP3    H168500   4.108   2.785   3.573  1.3825  2.1450  0.2178
15695TIP3    H268501   3.985   2.796   3.662  1.2498  0.8966  0.1974
15696TIP3   OH268502   4.886   2.615  15.643  0.0552 -0.7721 -0.4014
15696TIP3    H168503   4.921   2.699  15.617 -1.4056  0.4548  1.3169
15696TIP3    H268504   4.800   2.610  15.601  0.0009 -1.2609 -0.2453
15697TIP3   OH268505   1.612   4.037  13.389 -0.0402  0.4920 -0.3944
15697TIP3    H168506   1.652   3.953  13.410 -1.3115  0.3773  2.0035
15697TIP3    H268507   1.684   4.092  13.358  1.3534 -0.6564  0.6917
15698TIP3   OH268508   4.113   2.347   0.023 -0.4749 -0.1343 -0.7192
15698TIP3    H168509   4.094   2.387   0.107 -0.8742 -0.0336 -0.8549
15698TIP3    H268510   4.032   2.301  -0.001 -0.6033  0.4150 -1.3735
15699TIP3   OH268511   1.087   2.890  11.352  0.6970  0.0061 -0.3520
15699TIP3    H168512   1.082   2.926  11.441 -2.6830  0.3781 -0.5784
15699TIP3    H268513   1.173   2.919  11.320  1.2828  1.3503  2.1630
15700TIP3   OH268514   5.016   5.720   2.434 -0.2899  0.8539  0.5879
15700TIP3    H168515   5.034   5.633   2.468  2.4909  1.3328  0.5905
15700TIP3    H268516   5.102   5.763   2.430 -1.1483  2.6308 -2.0767
15701TIP3   OH268517   0.704   2.236   5.839  0.3322 -0.3126 -0.5337
15701TIP3    H168518   0.759   2.308   5.810  0.1711 -0.4272 -1.1329
15701TIP3    H268519   0.712   2.237   5.935  1.4102 -0.3708 -0.6169
15702TIP3   OH268520   6.668   1.708  11.076 -0.0347 -0.0583  0.3477
15702TIP3    H168521   6.693   1.658  10.998  0.5629 -1.4466  1.3856
15702TIP3    H268522   6.591   1.662  11.110  0.5368 -0.3091  1.3318
15703TIP3   OH268523   1.344   4.838   2.617  0.3053 -0.3654 -0.6550
15703TIP3    H168524   1.327   4.863   2.708 -2.0115 -1.7702 -0.6421
15703TIP3    H268525   1.295   4.901   2.565  0.1499 -0.6665 -0.8760
15704TIP3   OH268526   2.006   4.655  11.556 -0.6067  0.7879  0.4640
15704TIP3    H168527   2.011   4.751  11.560  0.6599  0.7593  0.0450
15704TIP3    H268528   2.006   4.635  11.463 -1.7323  0.3965  0.5351
15705TIP3   OH268529   0.853   3.587  15.190  0.7958  0.1445  0.5664
15705TIP3    H168530   0.826   3.656  15.129 -0.9196 -1.2971 -0.4022
15705TIP3    H268531   0.810   3.610  15.273  1.1725  0.8364  0.5727
15706TIP3   OH268532   0.522   4.754  14.532 -0.4622  0.0280  0.2697
15706TIP3    H168533   0.587   4.761  14.462 -0.3344  0.3656  0.4190
15706TIP3    H268534   0.527   4.838  14.577  0.0879 -0.5056  1.2369
15707TIP3   OH268535   2.208   3.224  11.792 -0.3277  0.5320 -0.4294
15707TIP3    H168536   2.201   3.280  11.869  0.3825 -1.2299  0.9867
15707TIP3    H268537   2.299   3.194  11.792 -0.6117 -0.4042 -1.3094
15708TIP3   OH268538   0.648   0.141   2.846  0.0811  0.3489  0.6624
15708TIP3    H168539   0.608   0.063   2.807  3.1076 -0.1800 -1.7764
15708TIP3    H268540   0.623   0.138   2.938 -2.0779 -2.0193  0.0992
15709TIP3   OH268541   2.446   5.616   5.503 -0.2790  0.3333  0.0182
15709TIP3    H168542   2.460   5.675   5.428 -1.9444 -1.2841 -1.6942
15709TIP3    H268543   2.452   5.528   5.465 -0.8071 -0.5586  1.8934
15710TIP3   OH268544   6.100   0.733   4.874 -0.1077  0.4291  0.2046
15710TIP3    H168545   6.046   0.783   4.935  0.3540 -0.3072  1.2587
15710TIP3    H268546   6.048   0.654   4.857 -0.2371  0.6378 -0.3674
15711TIP3   OH268547   3.707   3.482   1.136  0.0694 -0.5607 -0.1107
15711TIP3    H168548   3.695   3.564   1.185  1.1536 -0.9197  0.8052
15711TIP3    H268549   3.675   3.414   1.194 -1.4474 -0.7594 -1.1367
15712TIP3   OH268550   1.197   1.859  15.808 -0.1905  0.2790  0.6254
15712TIP3    H168551   1.255   1.814  15.870  0.1209 -0.9588 -0.5080
15712TIP3    H268552   1.166   1.936  15.855 -0.2493 -0.8054  2.4429
15713TIP3   OH268553   0.139   2.755  16.501 -0.0872  0.2752 -0.1845
15713TIP3    H168554   0.230   2.724  16.496 -0.1105  0.1323  0.2637
15713TIP3    H268555   0.113   2.739  16.591 -0.7237 -0.1401 -0.4393
15714TIP3   OH268556   0.949   0.961   5.950  0.0123  0.3168 -0.1640
15714TIP3    H168557   0.865   0.916   5.957  0.0276  0.4972  2.5461
15714TIP3    H268558   1.014   0.891   5.947 -0.1888  0.1754 -2.4512
15715TIP3   OH268559   3.398   3.597   1.182  0.0664  0.0851 -0.0286
15715TIP3    H168560   3.426   3.554   1.263 -1.3423 -2.8638 -0.9875
15715TIP3    H268561   3.303   3.602   1.189  0.0490  1.4814 -0.7863
15716TIP3   OH268562   2.186   5.655   3.517  0.1908  0.0195 -0.3597
15716TIP3    H168563   2.227   5.689   3.437 -0.1350 -1.5967 -1.2541
15716TIP3    H268564   2.135   5.580   3.488 -1.1095  0.2546  1.1720
15717TIP3   OH268565   5.368   3.662   5.766  0.0988  0.5533 -0.6191
15717TIP3    H168566   5.435   3.594   5.760  1.2869  1.6435 -0.2123
15717TIP3    H268567   5.381   3.701   5.853 -2.1707 -0.2968  0.1712
15718TIP3   OH268568   4.006   0.480   0.196  0.5543 -0.0491  0.1036
15718TIP3    H168569   4.024   0.455   0.105  0.3674 -0.3906  0.1605
15718TIP3    H268570   4.074   0.544   0.217  0.1438  0.6125 -0.5350
15719TIP3   OH268571   4.982   2.337   4.682 -0.5937 -0.6479 -0.2093
15719TIP3    H168572   5.055   2.283   4.651  0.1564 -0.0672  0.4861
15719TIP3    H268573   4.906   2.304   4.635 -0.0109 -1.7559 -0.4118
15720TIP3   OH268574   1.963   0.965   2.765 -0.3726 -0.2680  0.0834
15720TIP3    H168575   2.017   1.023   2.819 -1.4868  1.4545 -0.5769
15720TIP3    H268576   2.009   0.960   2.682 -1.6565  2.1451 -0.8925
15721TIP3   OH268577   5.352   2.565  15.366 -0.6898  0.1533 -0.1481
15721TIP3    H168578   5.364   2.483  15.319  2.2865  0.8130 -0.7623
15721TIP3    H268579   5.359   2.632  15.298 -3.2115  0.9885  0.3180
15722TIP3   OH268580   3.176   3.299  14.767  0.2298 -0.0530  0.0039
15722TIP3    H168581   3.085   3.314  14.792  0.6218 -0.2006  1.6605
15722TIP3    H268582   3.172   3.258  14.681 -1.3974 -2.4901  1.1651
15723TIP3   OH268583   1.979   1.812  12.947 -0.0170 -0.3855  0.2351
15723TIP3    H168584   1.933   1.729  12.958 -0.6865 -0.0301  0.1708
15723TIP3    H268585   2.066   1.795  12.981 -0.5730 -0.7075  1.5593
15724TIP3   OH268586   6.721   5.805   2.433  0.5049  0.1505  0.4771
15724TIP3    H168587   6.778   5.868   2.390 -0.3706 -0.5362 -1.8569
15724TIP3    H268588   6.638   5.852   2.444  0.7210  0.3248  1.5281
15725TIP3   OH268589   4.557   2.781   0.070  0.3378  0.2971  0.6385
15725TIP3    H168590   4.571   2.696   0.111 -2.8432  0.9032  3.4108
15725TIP3    H268591   4.596   2.844   0.132 -1.3851  1.0516  1.0079
15726TIP3   OH268592   1.787   4.920  11.260 -0.5484 -0.4807 -0.3962
15726TIP3    H168593   1.718   4.971  11.303 -0.0869 -1.6312  1.8704
15726TIP3    H268594   1.868   4.967  11.280 -0.3473 -0.9406 -0.0967
15727TIP3   OH268595   3.327   3.750   5.393 -0.5559  0.0143  0.1701
15727TIP3    H168596   3.389   3.690   5.351 -3.0334 -2.4499 -0.2329
15727TIP3    H268597   3.329   3.725   5.485 -2.2204 -1.4321 -0.1277
15728TIP3   OH268598   6.389   0.008  15.164  0.7096  0.1076 -0.1868
15728TIP3    H168599   6.317  -0.054  15.167 -0.0372  0.9506 -0.0985
15728TIP3    H268600   6.381   0.059  15.245 -0.2371  1.9635 -1.3623
15729TIP3   OH268601   0.113   6.307   2.831  0.0561 -0.3013  0.0480
15729TIP3    H168602   0.078   6.360   2.759  0.1717 -0.5554 -0.1993
15729TIP3    H268603   0.133   6.223   2.791 -1.8102 -1.1641  0.8062
15730TIP3   OH268604   6.247   2.394   5.018  0.1278  0.1581 -0.1120
15730TIP3    H168605   6.180   2.428   4.958  1.4313 -0.3845 -1.9558
15730TIP3    H268606   6.256   2.463   5.085 -0.9083  1.0911 -0.8921
15731TIP3   OH268607   6.382   0.228   4.432  0.4112  0.2252  0.4735
15731TIP3    H168608   6.325   0.151   4.435  0.0561  0.4217 -0.7946
15731TIP3    H268609   6.432   0.224   4.514  0.5759 -1.4821  0.3258
15732TIP3   OH268610   3.278   3.124   2.753 -0.0104 -0.0547  0.1458
15732TIP3    H168611   3.354   3.081   2.714 -1.6044 -0.2889 -2.9819
15732TIP3    H268612   3.208   3.059   2.747 -1.0801  1.0038  0.6808
15733TIP3   OH268613   0.152   5.377   2.385  0.3035  0.5738 -0.4204
15733TIP3    H168614   0.065   5.410   2.405 -0.2754 -0.6749 -0.8211
15733TIP3    H268615   0.151   5.286   2.415  1.0541  0.1769 -1.5496
15734TIP3   OH268616   6.797   4.940  11.766  0.1105 -0.3096  0.0440
15734TIP3    H168617   6.725   4.877  11.775 -1.0681  1.1022  1.0097
15734TIP3    H268618   6.760   5.011  11.715  1.5911 -0.5892 -1.5052
15735TIP3   OH268619   2.214   0.765  15.847  0.0915  0.1428  0.3252
15735TIP3    H168620   2.229   0.671  15.850  1.3637  0.3119 -0.0728
15735TIP3    H268621   2.122   0.776  15.868 -0.3822 -1.2726 -0.8953
15736TIP3   OH268622   3.586   2.106  13.157  0.1590  0.4229  0.0772
15736TIP3    H168623   3.580   2.111  13.253  2.0213 -1.1038  0.3301
15736TIP3    H268624   3.539   2.026  13.134 -0.3854  0.8467 -0.3382
15737TIP3   OH268625   5.392   4.392   2.314  0.5697 -0.6044  0.5561
15737TIP3    H168626   5.451   4.397   2.389  0.6678  1.4187  0.3927
15737TIP3    H268627   5.331   4.464   2.327 -0.5061 -1.2974 -0.4363
15738TIP3   OH268628   5.777   2.252   3.348  0.5810  0.1181  0.3684
15738TIP3    H168629   5.833   2.174   3.347  1.2937  0.5921  1.6835
15738TIP3    H268630   5.825   2.316   3.401 -0.2005  1.3068 -0.3187
15739TIP3   OH268631   6.545   0.147  14.796 -0.1610 -0.3133  0.7122
15739TIP3    H168632   6.629   0.163  14.752 -1.4952 -0.4445 -2.1042
15739TIP3    H268633   6.516   0.233  14.825 -0.3526  0.2103 -0.9227
15740TIP3   OH268634   3.504   6.316   5.889  0.5383  0.1350 -0.2941
15740TIP3    H168635   3.538   6.242   5.941  2.9019  0.0540 -1.8041
15740TIP3    H268636   3.547   6.393   5.926 -1.0940  0.6800  0.5749
15741TIP3   OH268637   4.485   0.267  14.579  0.3775  0.0048  0.5549
15741TIP3    H168638   4.556   0.214  14.541  1.0055  1.2560 -0.0496
15741TIP3    H268639   4.526   0.310  14.654  0.0969  0.3131  0.5297
15742TIP3   OH268640   1.089   2.241  13.257  0.6499  0.1317  0.4199
15742TIP3    H168641   1.140   2.162  13.269  2.4659  1.2158  0.1627
15742TIP3    H268642   1.140   2.310  13.300 -1.3406  1.0322  1.5130
15743TIP3   OH268643   2.140   1.126  14.051 -0.0444 -0.3763  0.1310
15743TIP3    H168644   2.159   1.147  13.960  0.5363  0.3201  0.4073
15743TIP3    H268645   2.142   1.210  14.097 -1.6542 -0.5261  0.5703
15744TIP3   OH268646   6.281   4.679  15.848  0.6246  0.0490 -0.2491
15744TIP3    H168647   6.311   4.770  15.845 -0.1010  0.2952 -0.3178
15744TIP3    H268648   6.201   4.682  15.901  0.5880 -0.5451 -0.2616
15745TIP3   OH268649   1.377   4.749   0.832  0.1365 -0.1810  0.2438
15745TIP3    H168650   1.425   4.703   0.763  0.9468  0.2409  0.5144
15745TIP3    H268651   1.372   4.686   0.904 -0.6062 -0.5793 -0.1397
15746TIP3   OH268652   3.431   1.487   4.140  0.3556 -0.0994  0.4766
15746TIP3    H168653   3.384   1.476   4.057  1.6031 -1.7862 -0.0621
15746TIP3    H268654   3.362   1.505   4.204 -0.9744 -1.6637 -0.4280
15747TIP3   OH268655   1.642   5.400   5.404 -0.2033  0.1247  0.4839
15747TIP3    H168656   1.635   5.356   5.489 -2.4077 -2.9493 -1.0904
15747TIP3    H268657   1.727   5.374   5.370  0.1843  0.3826  1.2393
15748TIP3   OH268658   1.879   4.191   5.917  0.2332 -0.8418  0.2726
15748TIP3    H168659   1.856   4.255   5.850 -0.8662  0.1995  1.5702
15748TIP3    H268660   1.849   4.107   5.883 -1.9647 -0.0817  0.1880
15749TIP3   OH268661   0.847   5.404  15.358 -0.2278 -0.2734 -0.6353
15749TIP3    H168662   0.922   5.349  15.379  0.5682  0.9449 -0.1904
15749TIP3    H268663   0.774   5.342  15.352  0.8050 -1.4999 -1.1917
15750TIP3   OH268664   3.259   5.948   4.566 -0.2337  0.0177  0.5236
15750TIP3    H168665   3.174   5.991   4.559  0.4380  1.3451  0.2590
15750TIP3    H268666   3.275   5.942   4.660 -1.2571 -1.6195  0.6464
15751TIP3   OH268667   6.752   5.985  15.415  0.4383 -0.0621 -0.1429
15751TIP3    H168668   6.801   6.053  15.370  1.4427 -0.7665 -0.1327
15751TIP3    H268669   6.706   6.031  15.485  1.6082  0.5322  0.2615
15752TIP3   OH268670   3.106   5.537  14.573 -0.2024  0.0229 -0.1055
15752TIP3    H168671   3.056   5.570  14.648 -0.2389  0.6624 -0.4031
15752TIP3    H268672   3.060   5.573  14.497  0.9954  1.0431 -0.3739
15753TIP3   OH268673   4.152   0.334  15.076  0.0096  0.0301 -0.4028
15753TIP3    H168674   4.138   0.415  15.124 -0.9008  2.2602 -4.0266
15753TIP3    H268675   4.070   0.286  15.085  0.4334 -0.3934  1.4910
15754TIP3   OH268676   4.463   5.177   2.791  0.3729 -0.1417  0.1265
15754TIP3    H168677   4.429   5.100   2.837 -0.9217  0.3856  0.0901
15754TIP3    H268678   4.451   5.249   2.853 -1.5814  0.6231 -1.0398
15755TIP3   OH268679   0.013   5.350   3.480 -0.1306 -0.4021  0.4648
15755TIP3    H168680   0.103   5.318   3.489 -0.5428 -1.6061  0.5826
15755TIP3    H268681  -0.020   5.304   3.402 -0.1611  1.2246 -0.5149
15756TIP3   OH268682   3.022   4.417  13.104 -0.0262 -0.1692  0.3627
15756TIP3    H168683   3.001   4.368  13.184  1.7412  0.7449  1.4549
15756TIP3    H268684   2.936   4.444  13.070 -0.8218  0.6730  2.7900
15757TIP3   OH268685   3.849   2.621  12.534  0.3392  0.7028 -0.0186
15757TIP3    H168686   3.815   2.575  12.458 -0.1505  0.3696  0.3920
15757TIP3    H268687   3.852   2.713  12.508 -0.7598  0.7216 -0.1108
15758TIP3   OH268688   5.307   4.920   3.365 -0.0723  0.1085 -0.0085
15758TIP3    H168689   5.318   4.924   3.270 -0.3708 -0.4199 -0.0728
15758TIP3    H268690   5.332   4.830   3.388 -0.0781  0.2089  0.4014
15759TIP3   OH268691   5.772   0.112  13.534  0.0134  0.1322  0.4279
15759TIP3    H168692   5.728   0.127  13.451  1.1441 -0.6695 -0.3401
15759TIP3    H268693   5.704   0.080  13.592 -1.1287  2.1605  0.3073
15760TIP3   OH268694   6.672   0.425   4.457  0.1865 -0.0037  0.3088
15760TIP3    H168695   6.604   0.463   4.402  1.2949  0.0637 -1.0568
15760TIP3    H268696   6.671   0.332   4.436  2.2745  0.3589 -1.7930
15761TIP3   OH268697   0.741   5.072  16.476 -0.6284  0.1504 -0.2480
15761TIP3    H168698   0.710   5.154  16.514  0.1685  0.1390  0.4716
15761TIP3    H268699   0.823   5.053  16.523  0.5309  0.2459 -2.1116
15762TIP3   OH268700   4.249   6.143  13.770  0.3377  0.1893  0.4050
15762TIP3    H168701   4.191   6.067  13.760 -0.0655  0.8128 -3.1470
15762TIP3    H268702   4.221   6.183  13.852 -1.6395 -1.6862  0.7487
15763TIP3   OH268703   6.354   5.398  14.354  0.5485 -0.3556  0.3556
15763TIP3    H168704   6.398   5.380  14.437  1.8681  0.1776 -0.1998
15763TIP3    H268705   6.394   5.336  14.292  0.5752  0.1934 -0.1833
15764TIP3   OH268706   1.728   2.418   3.858  0.0462 -0.3518 -0.7673
15764TIP3    H168707   1.770   2.341   3.896 -1.6440 -0.9644 -0.0610
15764TIP3    H268708   1.707   2.473   3.933  1.2115  0.8135 -1.2617
15765TIP3   OH268709   3.270   2.905  14.623 -0.0589  0.1728 -0.2030
15765TIP3    H168710   3.339   2.840  14.604  0.4800  1.1995 -2.0219
15765TIP3    H268711   3.296   2.943  14.706  0.6063 -0.6896  0.0081
15766TIP3   OH268712   0.384   6.700  12.888  0.1892 -0.5125 -0.0793
15766TIP3    H168713   0.330   6.728  12.962 -0.8395  1.3170 -1.4291
15766TIP3    H268714   0.426   6.619  12.918 -0.3793  0.0167  2.3756
15767TIP3   OH268715   1.309   3.805  15.943 -0.7008  0.3663 -0.1500
15767TIP3    H168716   1.397   3.837  15.924  0.3403 -1.9454  0.4337
15767TIP3    H268717   1.277   3.865  16.011  0.6984  0.8385  0.1386
15768TIP3   OH268718   1.764   4.972  16.832  0.1976 -0.0157 -0.5646
15768TIP3    H168719   1.686   4.954  16.885  1.4683 -1.4492  0.9525
15768TIP3    H268720   1.763   4.905  16.764  0.5631 -0.6636  0.0440
15769TIP3   OH268721   1.729   1.711   0.639  0.0924 -0.4600 -0.0474
15769TIP3    H168722   1.681   1.630   0.652 -0.5315 -0.0121  0.5222
15769TIP3    H268723   1.688   1.752   0.563  0.8702 -1.0047 -0.7713
15770TIP3   OH268724   4.780   5.932  15.778 -0.0511 -0.2103  0.0593
15770TIP3    H168725   4.831   5.980  15.713 -0.1614 -1.0937 -0.6911
15770TIP3    H268726   4.835   5.933  15.857  0.5387 -0.0190 -0.3473
15771TIP3   OH268727   2.191   0.179   1.276  0.5420  0.4219  0.9943
15771TIP3    H168728   2.118   0.179   1.215  1.0273 -1.9899  0.3187
15771TIP3    H268729   2.229   0.267   1.268  0.2729  0.3585 -1.8312
15772TIP3   OH268730   1.658   3.381  11.678 -0.0453 -0.5318  0.3261
15772TIP3    H168731   1.745   3.345  11.693  0.4030  0.5109  0.3399
15772TIP3    H268732   1.612   3.313  11.629  0.5615 -1.3516  0.8733
15773TIP3   OH268733   3.595   0.881  14.501 -0.6328 -0.7983  0.8823
15773TIP3    H168734   3.543   0.953  14.537 -0.6356 -0.9096  1.1025
15773TIP3    H268735   3.634   0.917  14.421 -0.0425 -0.3158  1.3724
15774TIP3   OH268736   4.209   1.430   0.680  0.2184  0.2739  0.1429
15774TIP3    H168737   4.221   1.465   0.768 -1.8311 -1.1764  1.0753
15774TIP3    H268738   4.298   1.413   0.648  0.9829  0.0780  2.2412
15775TIP3   OH268739   5.423   4.887  14.652  0.4305  0.2597 -0.4541
15775TIP3    H168740   5.496   4.833  14.620  0.3640  0.9343 -1.8309
15775TIP3    H268741   5.425   4.876  14.747  0.3930 -2.1721 -0.6800
15776TIP3   OH268742   1.430   1.922  16.131  0.0263 -0.1347 -0.0014
15776TIP3    H168743   1.520   1.897  16.150  0.2680  0.1560 -0.7656
15776TIP3    H268744   1.435   1.977  16.053 -0.6168  1.3897  0.9738
15777TIP3   OH268745   6.296   0.144   2.483  0.1903  0.0546 -0.1058
15777TIP3    H168746   6.283   0.106   2.570 -0.6371  0.5458 -0.0043
15777TIP3    H268747   6.288   0.239   2.497  1.7378  0.2622 -0.4333
15778TIP3   OH268748   4.788   1.777   0.393  0.5888  0.0804  0.3988
15778TIP3    H168749   4.781   1.743   0.304  1.0472  0.0443  0.3746
15778TIP3    H268750   4.854   1.722   0.435 -1.2425 -1.4288  1.4756
15779TIP3   OH268751   3.565   3.976  11.894 -0.4272 -0.0126 -0.6456
15779TIP3    H168752   3.532   4.023  11.818 -2.6770  0.3883  0.4761
15779TIP3    H268753   3.589   4.045  11.956  0.8162 -0.3372 -0.7503
15780TIP3   OH268754   0.016   1.098   5.220  0.3636 -0.0156  0.2918
15780TIP3    H168755   0.037   1.160   5.291 -1.0846  0.3833  0.3913
15780TIP3    H268756  -0.028   1.025   5.264  2.1264 -1.2106  0.1856
15781TIP3   OH268757   2.766   3.947   2.267  0.4683 -0.0357 -0.2475
15781TIP3    H168758   2.699   3.980   2.207  0.5979  1.5478  0.4424
15781TIP3    H268759   2.763   4.006   2.341  0.0069 -2.2070  1.5772
15782TIP3   OH268760   3.514   0.427   2.559  0.1453  0.3766 -0.9129
15782TIP3    H168761   3.563   0.508   2.540 -0.1157  0.5667 -0.7830
15782TIP3    H268762   3.465   0.446   2.639  0.1620  0.0516 -0.8234
15783TIP3   OH268763   3.707   0.478  10.796  0.0342  0.1348 -0.0351
15783TIP3    H168764   3.770   0.492  10.725  0.1088 -1.5606 -0.3484
15783TIP3    H268765   3.731   0.393  10.833 -0.9056  0.3294  1.0883
15784TIP3   OH268766   2.814   0.471   5.587 -0.1687  0.3817  0.0001
15784TIP3    H168767   2.823   0.527   5.510  1.6313  0.2205  0.0444
15784TIP3    H268768   2.900   0.476   5.630  0.2767 -2.7962 -0.2763
15785TIP3   OH268769   1.145   0.737  15.849 -0.0817 -0.5794  0.2647
15785TIP3    H168770   1.112   0.804  15.789  0.6101  0.2911  0.8315
15785TIP3    H268771   1.100   0.755  15.932  0.8118 -0.2109  0.6805
15786TIP3   OH268772   3.323   3.180   3.587 -0.3896 -0.4022  0.6768
15786TIP3    H168773   3.321   3.271   3.618 -3.0587 -0.2229  0.2409
15786TIP3    H268774   3.402   3.174   3.534 -0.7445  2.0471 -0.2493
15787TIP3   OH268775   3.004   2.908  12.582 -0.0889  0.6566  0.3944
15787TIP3    H168776   2.955   2.860  12.515  2.2533 -0.6442 -0.4943
15787TIP3    H268777   3.045   2.840  12.635  1.4816  1.6597  0.5174
15788TIP3   OH268778   3.851   6.300  11.819 -0.3246  0.9129 -0.2982
15788TIP3    H168779   3.836   6.317  11.912  3.2181  0.0589  0.5775
15788TIP3    H268780   3.878   6.209  11.815  0.8342  1.2867 -1.9656
15789TIP3   OH268781   2.610   4.788   0.842  0.2757  0.0549 -0.1278
15789TIP3    H168782   2.568   4.713   0.798  0.3782  1.0673 -2.0801
15789TIP3    H268783   2.661   4.830   0.773 -2.1016  3.6567  0.0012
15790TIP3   OH268784   3.305   0.909   0.817 -0.3906 -0.2328  0.7553
15790TIP3    H168785   3.245   0.977   0.848  0.4275  1.5575 -1.3564
15790TIP3    H268786   3.392   0.950   0.819  0.3599 -1.7504  0.8715
15791TIP3   OH268787   2.352   6.499  15.914 -0.4211  0.0820 -0.1858
15791TIP3    H168788   2.305   6.538  15.841  1.0162  1.5990 -0.3506
15791TIP3    H268789   2.443   6.493  15.884  0.2020  0.7522  1.4570
15792TIP3   OH268790   0.267   6.403   4.440 -0.0319  0.0002  0.5072
15792TIP3    H168791   0.184   6.448   4.424  0.5315  1.1267  0.6148
15792TIP3    H268792   0.295   6.436   4.525  1.8126  1.7387 -0.6927
15793TIP3   OH268793   5.201   5.927   3.637 -0.3023  0.1498 -0.1919
15793TIP3    H168794   5.200   5.985   3.561 -3.3883 -1.2950 -1.4575
15793TIP3    H268795   5.240   5.846   3.606 -0.0263  0.1028  0.2644
15794TIP3   OH268796   1.195   4.443   4.074  0.2244 -0.3279 -0.1180
15794TIP3    H168797   1.267   4.397   4.116  0.2451 -2.4659 -2.2824
15794TIP3    H268798   1.237   4.500   4.009  0.0564  0.7398  0.6780
15795TIP3   OH268799   1.338   0.496  12.373 -0.0983  0.5454  0.8924
15795TIP3    H168800   1.279   0.486  12.298  0.3561 -0.0624  0.6047
15795TIP3    H268801   1.417   0.536  12.336 -0.4627  1.6968  1.3417
15796TIP3   OH268802   2.620   2.486   3.117  0.2521  0.2053 -0.0783
15796TIP3    H168803   2.578   2.572   3.117 -1.0497 -0.4084 -0.4821
15796TIP3    H268804   2.574   2.437   3.185  0.2211 -0.5182 -0.6087
15797TIP3   OH268805   4.273   2.438  14.465 -0.4411  0.5333 -0.1644
15797TIP3    H168806   4.209   2.419  14.396 -1.7822  0.6901  0.9920
15797TIP3    H268807   4.274   2.533  14.471  1.0284  0.6225 -1.1506
15798TIP3   OH268808   4.207   3.108   2.263 -0.3018  0.0580  0.1766
15798TIP3    H168809   4.238   3.190   2.223  0.4691 -0.3016  0.0178
15798TIP3    H268810   4.215   3.123   2.357  2.3660 -0.7319  0.1562
15799TIP3   OH268811   2.361   1.241   5.949 -0.2254  0.5914 -0.2439
15799TIP3    H168812   2.298   1.173   5.925 -1.0952  1.0704  0.6435
15799TIP3    H268813   2.338   1.265   6.038  2.7330 -0.9012  1.0403
15800TIP3   OH268814   2.125   0.203  15.701 -0.2149  0.4287 -0.5775
15800TIP3    H168815   2.207   0.251  15.688  0.1702 -0.3076 -0.9476
15800TIP3    H268816   2.099   0.176  15.613 -0.0097 -0.6994 -0.2999
15801TIP3   OH268817   3.817   4.068  15.594  0.1033  0.1108  0.3342
15801TIP3    H168818   3.748   4.050  15.531 -1.0245  1.4658  1.1378
15801TIP3    H268819   3.832   3.984  15.638 -0.2934 -0.4328 -0.5410
15802TIP3   OH268820   4.237   6.204  11.165 -0.0003 -0.1551  0.0910
15802TIP3    H168821   4.292   6.270  11.206  1.3525 -2.1071  1.5818
15802TIP3    H268822   4.237   6.130  11.226 -1.5437 -1.5158 -1.4292
15803TIP3   OH268823   3.891   3.515   3.780 -0.1641 -0.6071 -0.0488
15803TIP3    H168824   3.844   3.512   3.864  2.6200  1.1197  1.7388
15803TIP3    H268825   3.896   3.424   3.752 -1.3821 -1.2118  1.5309
15804TIP3   OH268826   2.283   5.202   3.000 -0.1179  0.2411  0.1476
15804TIP3    H168827   2.314   5.148   2.926  2.2459  0.6711  0.7577
15804TIP3    H268828   2.218   5.260   2.961  0.4423 -0.1355 -1.4340
15805TIP3   OH268829   4.508   4.860  10.482  0.1649  0.8287 -0.0970
15805TIP3    H168830   4.434   4.816  10.526  0.9471  0.2221  0.6468
15805TIP3    H268831   4.504   4.950  10.513 -1.4337  1.3382 -1.6026
15806TIP3   OH268832   2.098   4.962  11.334  0.0262  0.9291  0.5615
15806TIP3    H168833   2.122   5.047  11.298  1.3402  0.7680  1.0085
15806TIP3    H268834   2.119   4.900  11.264  0.9244  0.7922  0.9377
15807TIP3   OH268835   3.496   3.280  12.329  0.0673 -0.0371 -0.2293
15807TIP3    H168836   3.468   3.310  12.243  0.6784 -1.8711 -1.1172
15807TIP3    H268837   3.433   3.212  12.352  0.0799  0.2379  0.6551
15808TIP3   OH268838   6.614   3.772   5.439  0.1606  0.0490 -0.3908
15808TIP3    H168839   6.691   3.775   5.382  0.5557 -2.0319 -0.0338
15808TIP3    H268840   6.559   3.703   5.402 -0.1177 -0.5529  1.0807
15809TIP3   OH268841   4.170   0.277  11.596 -0.0374 -0.1350  0.0508
15809TIP3    H168842   4.081   0.255  11.625 -0.3173  1.4675  0.5068
15809TIP3    H268843   4.207   0.193  11.568 -2.1348 -0.6638 -1.3878
15810TIP3   OH268844   5.094   1.586  13.260  0.5520 -0.3036 -0.2873
15810TIP3    H168845   5.132   1.505  13.294  0.3902 -0.4651 -0.4888
15810TIP3    H268846   5.078   1.568  13.168  2.5036  0.6610 -0.8876
15811TIP3   OH268847   3.092   6.265  13.505 -0.6250 -0.6463  0.2435
15811TIP3    H168848   3.126   6.193  13.452 -1.2030  0.2339 -1.4069
15811TIP3    H268849   3.009   6.288  13.464 -0.8346  0.4371  1.2267
15812TIP3   OH268850   3.740   4.318  14.822  0.1495 -0.8207  0.0581
15812TIP3    H168851   3.757   4.236  14.776 -0.0110 -0.8017 -0.0387
15812TIP3    H268852   3.800   4.381  14.781 -2.7495  0.2317 -3.0956
15813TIP3   OH268853   1.253   3.416   5.657  0.4349 -0.2811 -0.1324
15813TIP3    H168854   1.186   3.401   5.591 -0.0641  1.7670 -0.1505
15813TIP3    H268855   1.215   3.382   5.739 -0.3365  0.2094 -0.2782
15814TIP3   OH268856   4.200   6.482  16.350  0.3737  0.3747 -0.2506
15814TIP3    H168857   4.247   6.423  16.409 -0.8542 -1.5292 -1.0806
15814TIP3    H268858   4.109   6.474  16.375 -0.2785 -0.9766 -2.7114
15815TIP3   OH268859   0.339   1.630   2.604  0.2995 -0.4407  0.0880
15815TIP3    H168860   0.368   1.721   2.592  0.9567 -0.6459  0.0667
15815TIP3    H268861   0.285   1.612   2.526 -0.5828  0.2070  0.5302
15816TIP3   OH268862   3.896   4.838   3.126  0.2200 -0.1438 -0.9699
15816TIP3    H168863   3.824   4.775   3.136  0.3078 -0.4199 -1.9104
15816TIP3    H268864   3.855   4.924   3.130 -0.0256 -0.2813 -0.5372
15817TIP3   OH268865   2.239   4.352  11.032  0.1221  0.2849  0.0986
15817TIP3    H168866   2.279   4.318  10.952  0.3585  0.4069  0.1621
15817TIP3    H268867   2.155   4.389  11.004 -0.6534 -1.3383  0.1980
15818TIP3   OH268868   2.324   2.385   0.781 -0.4611 -1.0003  0.5634
15818TIP3    H168869   2.361   2.409   0.696 -0.4935 -0.7904  0.6080
15818TIP3    H268870   2.256   2.321   0.760  0.0463 -1.5229  0.4940
15819TIP3   OH268871   5.079   0.489   5.133  0.7571  0.2549  0.1089
15819TIP3    H168872   5.092   0.446   5.217 -1.9318 -0.3139  0.3334
15819TIP3    H268873   5.018   0.560   5.151  0.8260  0.6768 -1.2009
15820TIP3   OH268874   1.588   2.982   0.438 -0.3505  0.0711  0.0012
15820TIP3    H168875   1.636   3.023   0.366 -1.8762  1.4621 -0.2534
15820TIP3    H268876   1.539   2.911   0.397 -2.2523  1.6842 -0.6218
15821TIP3   OH268877   4.293   2.478  16.460 -0.3455 -0.3102 -0.5115
15821TIP3    H168878   4.381   2.440  16.450 -0.4220 -0.4729 -0.5659
15821TIP3    H268879   4.258   2.436  16.538  0.3950  1.2367  0.7087
15822TIP3   OH268880   2.074   1.837   0.055 -0.3438  0.4979  0.2228
15822TIP3    H168881   2.039   1.798   0.135  0.1020 -1.4566 -0.4776
15822TIP3    H268882   2.024   1.795  -0.015  2.3734 -1.3535 -0.7435
15823TIP3   OH268883   5.080   2.791  15.366 -0.3963  0.7681 -0.7525
15823TIP3    H168884   5.131   2.710  15.373 -0.0752  0.8692 -1.8576
15823TIP3    H268885   5.075   2.809  15.273  0.2635  2.4796 -0.4987
15824TIP3   OH268886   2.537   0.553  16.660 -0.1297  0.0095  0.2912
15824TIP3    H168887   2.611   0.530  16.605  0.7952  0.5523  1.2854
15824TIP3    H268888   2.489   0.619  16.609  0.4614  0.1814 -0.0474
15825TIP3   OH268889   0.651   1.401  14.300 -0.4045  0.3345 -0.0368
15825TIP3    H168890   0.559   1.420  14.318 -0.2086  1.6614 -0.3500
15825TIP3    H268891   0.691   1.487  14.285  0.8603 -0.2351 -0.0311
15826TIP3   OH268892   4.405   6.733  14.824  0.4397 -0.0229 -0.5301
15826TIP3    H168893   4.394   6.709  14.732 -1.8542 -0.7002 -0.1282
15826TIP3    H268894   4.394   6.651  14.872  0.9236  0.4424  0.4043
15827TIP3   OH268895   2.306   3.670  14.467 -0.5833 -1.0606 -0.1435
15827TIP3    H168896   2.398   3.647  14.476 -0.4474 -1.2606 -1.7369
15827TIP3    H268897   2.306   3.749  14.414 -1.3066 -0.6435  0.4631
15828TIP3   OH268898   1.975   6.165   3.920  0.2191  0.1831  0.2602
15828TIP3    H168899   2.066   6.190   3.903  0.8301 -0.4379  2.3276
15828TIP3    H268900   1.981   6.080   3.963 -1.2067  0.8429  1.8948
15829TIP3   OH268901   4.459   6.782  12.981  0.3866 -0.0115  0.1770
15829TIP3    H168902   4.449   6.792  12.886 -0.0449  0.4182  0.2661
15829TIP3    H268903   4.376   6.746  13.010  0.5142 -0.1276  0.3980
15830TIP3   OH268904   1.306   5.284   5.577  0.4526 -0.0988  0.2447
15830TIP3    H168905   1.246   5.353   5.552  2.1496  0.9076 -1.2556
15830TIP3    H268906   1.383   5.329   5.612  1.2610 -1.2445  0.0245
15831TIP3   OH268907   5.285   2.914  13.985  0.4166 -0.1327 -0.0401
15831TIP3    H168908   5.197   2.949  14.000  0.6782  0.6911 -0.3832
15831TIP3    H268909   5.274   2.819  13.993 -0.6820 -0.1079 -0.8834
15832TIP3   OH268910   2.619   0.617   0.646 -0.0736 -0.3610  0.5024
15832TIP3    H168911   2.704   0.603   0.688 -0.5493 -0.7288  1.3561
15832TIP3    H268912   2.625   0.569   0.563  0.1197 -1.3775  1.1012
15833TIP3   OH268913   4.574   6.454   1.542  0.4813  0.1024  0.4782
15833TIP3    H168914   4.521   6.481   1.467  1.5284 -0.0068 -0.3190
15833TIP3    H268915   4.636   6.390   1.507  0.9243 -0.0281  1.4559
15834TIP3   OH268916   0.903   2.982   4.996 -0.7386 -0.6420 -0.5291
15834TIP3    H168917   0.943   2.929   4.928 -2.1399 -2.0917 -0.2828
15834TIP3    H268918   0.835   3.032   4.951 -2.9229 -2.9693  0.0004
15835TIP3   OH268919   1.240   3.134  11.671 -0.3929  0.7370  0.2812
15835TIP3    H168920   1.202   3.218  11.696 -0.4325  0.5326  0.9084
15835TIP3    H268921   1.232   3.079  11.748 -2.6938 -0.7091 -0.8836
15836TIP3   OH268922   6.330   3.617  15.463 -0.3368 -0.2853  0.3734
15836TIP3    H168923   6.310   3.527  15.438  0.5530  0.1305 -2.1456
15836TIP3    H268924   6.245   3.660  15.466 -0.5772 -0.6103 -1.1419
15837TIP3   OH268925   1.813   6.597  13.804  0.4716  0.6025  0.0849
15837TIP3    H168926   1.832   6.534  13.735 -0.8469  1.3604 -1.0232
15837TIP3    H268927   1.861   6.676  13.779  0.2930  0.7640  0.2465
15838TIP3   OH268928   2.246   3.873  12.961 -0.6282 -0.2515 -0.2442
15838TIP3    H168929   2.286   3.953  12.925  0.9888 -0.4408  0.9977
15838TIP3    H268930   2.180   3.848  12.896  0.2479  0.9470 -1.6707
15839TIP3   OH268931   6.110   2.786  11.940  0.4225 -0.4044  0.5490
15839TIP3    H168932   6.188   2.735  11.962  1.7613  1.4422  0.3550
15839TIP3    H268933   6.068   2.802  12.024  0.3349 -1.2476  0.6793
15840TIP3   OH268934   6.596   5.844  13.735 -0.5901 -0.4650  0.3615
15840TIP3    H168935   6.691   5.849  13.735 -0.6566  2.0864  0.4879
15840TIP3    H268936   6.572   5.855  13.642 -0.7871  0.1060  0.4780
15841TIP3   OH268937   5.725   2.386   0.576 -0.0774 -0.0083 -0.3651
15841TIP3    H168938   5.776   2.353   0.650 -1.6307 -0.4366  0.5579
15841TIP3    H268939   5.711   2.309   0.521  2.2067  0.5495 -1.8872
15842TIP3   OH268940   2.678   4.947   0.009  0.6303 -0.0167  0.0072
15842TIP3    H168941   2.652   4.995   0.088  0.2870  0.9397 -0.6605
15842TIP3    H268942   2.598   4.946  -0.044  1.1848  0.4303 -0.8459
15843TIP3   OH268943   6.506   2.020   1.816 -0.1656  0.8692 -0.7494
15843TIP3    H168944   6.557   1.958   1.763 -1.4414  0.4662 -1.5513
15843TIP3    H268945   6.516   2.104   1.770  3.2589  1.8926  1.4294
15844TIP3   OH268946   3.524   3.671  13.582  0.1130 -0.1564 -0.6029
15844TIP3    H168947   3.589   3.721  13.533 -0.0403  0.7510  0.0849
15844TIP3    H268948   3.572   3.596  13.617  1.1755  1.2189  1.0605
15845TIP3   OH268949   4.690   0.909  12.560 -0.0548 -0.6361 -0.6227
15845TIP3    H168950   4.641   0.989  12.542  0.2468  0.0534  1.3995
15845TIP3    H268951   4.780   0.930  12.537  0.0631 -0.2949  0.1222
15846TIP3   OH268952   3.308   4.981  15.544  0.0791  0.1640  0.3632
15846TIP3    H168953   3.278   4.918  15.479  2.6090 -1.3159  0.4883
15846TIP3    H268954   3.309   4.933  15.627  0.8718  0.7125  0.6962
15847TIP3   OH268955   2.798   2.790   1.687 -0.2663 -0.3497 -0.3415
15847TIP3    H168956   2.852   2.838   1.749  0.5000  0.7875 -1.8205
15847TIP3    H268957   2.858   2.729   1.644 -0.9983 -1.8972  0.7110
15848TIP3   OH268958   5.632   1.677  14.992 -0.0262 -0.4015  0.3679
15848TIP3    H168959   5.662   1.695  15.081  0.5811  0.5968 -0.0247
15848TIP3    H268960   5.706   1.634  14.950 -1.5292 -4.5337  1.3783
15849TIP3   OH268961   0.080   0.423  16.822  0.5184 -0.5805  0.3158
15849TIP3    H168962   0.173   0.441  16.836  1.0217 -2.7266 -0.0038
15849TIP3    H268963   0.039   0.444  16.905  1.5913 -1.3968  1.0846
15850TIP3   OH268964   0.910   6.644  16.934 -0.1214  0.1831  0.1016
15850TIP3    H168965   1.001   6.656  16.906  0.3345 -0.0629  1.4317
15850TIP3    H268966   0.915   6.638  17.029 -1.7568  2.1295  0.3650
15851TIP3   OH268967   4.451   3.324  14.557 -0.4254  0.1284  0.1963
15851TIP3    H168968   4.491   3.330  14.471  1.4653 -0.5727  0.9579
15851TIP3    H268969   4.411   3.237  14.560 -1.3219  0.5166 -0.2873
15852TIP3   OH268970   3.339   2.990  11.708 -0.2613  0.1313  0.4182
15852TIP3    H168971   3.392   3.070  11.714 -0.2055  0.1770 -0.6142
15852TIP3    H268972   3.250   3.019  11.729  0.1032  0.0369  2.2576
15853TIP3   OH268973   5.988   4.836  11.328  0.0469 -0.3887  0.7503
15853TIP3    H168974   5.961   4.915  11.282  0.1799  1.2874  3.3235
15853TIP3    H268975   6.083   4.832  11.315 -0.1994 -1.3957 -1.1175
15854TIP3   OH268976   3.306   0.798  16.909 -0.8070 -0.3189  0.5784
15854TIP3    H168977   3.380   0.818  16.966 -0.3547  0.8811 -0.3931
15854TIP3    H268978   3.339   0.812  16.820 -1.7343 -1.3530  0.0401
15855TIP3   OH268979   4.271   5.091  16.905 -0.4945  0.4127  0.0385
15855TIP3    H168980   4.244   5.159  16.844 -0.5104  1.3379  1.0336
15855TIP3    H268981   4.292   5.015  16.850  0.8968  1.6521 -1.2443
15856TIP3   OH268982   2.677   1.338   3.392  0.2986  0.5121 -0.3363
15856TIP3    H168983   2.706   1.348   3.301  2.4783 -0.1714  0.2247
15856TIP3    H268984   2.707   1.418   3.435 -0.1454  0.5375 -0.0754
15857TIP3   OH268985   2.686   4.994   4.807 -0.1495 -0.1092  0.5966
15857TIP3    H168986   2.645   4.930   4.865 -0.8654 -0.9645 -0.8046
15857TIP3    H268987   2.649   5.078   4.834 -0.7228 -0.5276  1.1349
15858TIP3   OH268988   0.889   2.758  10.516 -0.0386  0.2830 -0.1175
15858TIP3    H168989   0.806   2.801  10.534 -0.2184  0.7789 -1.9920
15858TIP3    H268990   0.950   2.829  10.497  0.9717 -0.0429  1.6582
15859TIP3   OH268991   4.609   4.208  12.835  0.3227 -0.5288  0.0424
15859TIP3    H168992   4.686   4.164  12.871  0.6279  0.1433  0.2330
15859TIP3    H268993   4.539   4.188  12.897  0.3270 -1.1860 -0.1576
15860TIP3   OH268994   6.516   4.672  15.576 -0.0549  0.2727  0.4392
15860TIP3    H168995   6.537   4.612  15.648 -0.1330  1.6166  1.6188
15860TIP3    H268996   6.422   4.662  15.564  0.0186 -0.2390  0.2441
15861TIP3   OH268997   0.390   3.004   5.077  0.2199  0.6847  0.0412
15861TIP3    H168998   0.330   3.079   5.089  1.1631  1.4484  0.0749
15861TIP3    H268999   0.378   2.979   4.985 -0.2215  0.7642  0.0715
15862TIP3   OH269000   1.788   0.858   4.578 -0.7677  0.5665  0.1467
15862TIP3    H169001   1.838   0.929   4.618 -1.0677  0.1938  1.2387
15862TIP3    H269002   1.851   0.812   4.523 -0.5784  1.6859 -0.6018
15863TIP3   OH269003   0.596   4.879  13.767 -0.0510 -1.2275  0.5211
15863TIP3    H169004   0.627   4.932  13.694 -2.0783 -1.5927 -0.6815
15863TIP3    H269005   0.588   4.940  13.840 -1.4835 -0.0021 -0.5934
15864TIP3   OH269006   5.692   5.786  12.659 -0.5092 -0.4092  0.0741
15864TIP3    H169007   5.615   5.835  12.688 -0.1534 -0.5325  1.2771
15864TIP3    H269008   5.753   5.853  12.628 -0.5951 -0.2065  0.3431
15865TIP3   OH269009   5.727   5.787   3.880 -0.2360  0.1454  0.1568
15865TIP3    H169010   5.739   5.747   3.793 -0.3543 -0.9885  0.6360
15865TIP3    H269011   5.633   5.790   3.892 -0.2913  1.8669 -0.4198
15866TIP3   OH269012   0.705   4.287  11.762  0.4632 -0.2015 -0.0237
15866TIP3    H169013   0.644   4.254  11.828  0.7208 -0.8586 -0.1054
15866TIP3    H269014   0.655   4.353  11.714 -0.0712 -0.4884  0.1332
15867TIP3   OH269015   6.438   3.906   6.018 -0.3341  0.2471  0.1099
15867TIP3    H169016   6.370   3.931   6.081 -1.1439 -0.9534 -0.2450
15867TIP3    H269017   6.483   3.988   5.997 -1.8898  1.1549  0.1111
15868TIP3   OH269018   6.210   6.115   1.470 -0.0727  0.5037  0.0195
15868TIP3    H169019   6.161   6.163   1.404 -1.5479 -1.5843 -0.5267
15868TIP3    H269020   6.291   6.089   1.426 -0.7244 -0.2442 -0.7915
15869TIP3   OH269021   0.666   3.896   3.961  0.1748  0.2792 -0.2925
15869TIP3    H169022   0.597   3.842   3.921 -0.8222 -0.1168  1.8224
15869TIP3    H269023   0.747   3.850   3.939 -0.6447 -2.3340  1.5914
15870TIP3   OH269024   5.466   5.160  17.139  0.2696 -0.1185  0.1371
15870TIP3    H169025   5.450   5.116  17.222 -1.3217 -0.9349 -0.5529
15870TIP3    H269026   5.527   5.104  17.093 -1.3770 -1.4572 -0.5396
15871TIP3   OH269027   1.208   6.386   1.569  0.0132  0.6716 -0.2521
15871TIP3    H169028   1.133   6.333   1.595 -0.7613  1.3316 -1.0686
15871TIP3    H269029   1.277   6.323   1.550 -0.2967  0.0608  0.5978
15872TIP3   OH269030   4.667   3.642   0.418 -0.9400 -0.6435 -0.7648
15872TIP3    H169031   4.621   3.567   0.381  0.6219 -1.5749 -0.8946
15872TIP3    H269032   4.657   3.711   0.352 -3.6089 -0.2149 -0.0156
15873TIP3   OH269033   3.769   4.452  13.694  0.5123 -0.4478 -0.0180
15873TIP3    H169034   3.847   4.445  13.640  1.7771  0.8684  1.5400
15873TIP3    H269035   3.796   4.504  13.770 -1.7310 -0.4195  0.8548
15874TIP3   OH269036   5.145   6.381  13.475  0.2820  0.3014 -0.1952
15874TIP3    H169037   5.193   6.300  13.457  1.0147  0.7579 -0.3408
15874TIP3    H269038   5.157   6.434  13.397  0.6776  0.9644  0.3118
15875TIP3   OH269039   2.427   6.718  14.408  0.6497 -0.2807  0.7477
15875TIP3    H169040   2.456   6.628  14.424  0.1988 -0.6262 -0.2612
15875TIP3    H269041   2.332   6.712  14.399  0.2411  0.7691  3.5144
15876TIP3   OH269042   0.810   3.738   2.647 -0.2180 -0.5931  0.4078
15876TIP3    H169043   0.840   3.665   2.592 -0.3130 -0.7868  0.6087
15876TIP3    H269044   0.837   3.712   2.735  0.1121 -0.1913  0.4266
15877TIP3   OH269045   1.869   6.322   4.182  0.2745  0.4059 -0.0279
15877TIP3    H169046   1.856   6.283   4.095 -0.0863  0.1994  0.1160
15877TIP3    H269047   1.802   6.281   4.237  0.5051  0.5303  0.3511
15878TIP3   OH269048   0.537   5.658   5.992 -0.5988 -0.5411  0.2381
15878TIP3    H169049   0.535   5.642   6.086  3.2951 -1.2005  0.3998
15878TIP3    H269050   0.505   5.577   5.953  1.1505 -1.7076  1.0912
15879TIP3   OH269051   2.408   6.375   0.727 -0.6717  0.7702  0.6143
15879TIP3    H169052   2.320   6.401   0.698 -0.9846 -0.5899  0.2355
15879TIP3    H269053   2.464   6.392   0.652 -0.8572  0.4502  0.3998
15880TIP3   OH269054   5.146   2.186  12.137  0.0013  0.0505 -0.4481
15880TIP3    H169055   5.149   2.104  12.187 -0.6232 -0.4733 -1.2444
15880TIP3    H269056   5.143   2.254  12.204 -0.6268 -0.6294  0.2407
15881TIP3   OH269057   6.573   5.015  16.365  0.2660 -0.4924 -0.0817
15881TIP3    H169058   6.665   5.029  16.341  0.4466  0.3819  1.0735
15881TIP3    H269059   6.526   5.085  16.320  0.3908  0.1098  0.7140
15882TIP3   OH269060   4.084   6.214   1.935 -0.7728 -0.2725 -0.0182
15882TIP3    H169061   4.154   6.186   1.877 -1.1904 -0.7357 -0.3016
15882TIP3    H269062   4.128   6.265   2.003  0.0201 -1.7326  0.5952
15883TIP3   OH269063   6.766   2.392  14.856  1.1756 -0.0052 -0.1291
15883TIP3    H169064   6.688   2.368  14.808  0.7720 -1.7599  1.3056
15883TIP3    H269065   6.739   2.465  14.912  1.4716  1.5681 -1.9233
15884TIP3   OH269066   5.146   6.086  13.807  0.0848 -0.0764 -0.1507
15884TIP3    H169067   5.086   6.092  13.882  1.8072  1.8836  1.1757
15884TIP3    H269068   5.093   6.112  13.732 -0.9632  0.7195  0.8379
15885TIP3   OH269069   0.514   4.963  17.128 -0.2538 -0.1529  0.9327
15885TIP3    H169070   0.501   5.057  17.142  0.3586 -0.0908  1.1466
15885TIP3    H269071   0.434   4.923  17.160 -1.3915  0.4235 -1.0172
15886TIP3   OH269072   5.506   0.500   1.805 -0.1680  0.5722 -0.1553
15886TIP3    H169073   5.418   0.484   1.837  0.0097  1.2131  0.6873
15886TIP3    H269074   5.563   0.478   1.879  0.5464 -1.6494 -1.2676
15887TIP3   OH269075   1.981   3.444   4.320 -0.4696 -0.6477  0.1819
15887TIP3    H169076   1.963   3.442   4.226 -3.1714 -0.5116  0.6112
15887TIP3    H269077   2.004   3.536   4.338  3.3503 -1.2588 -0.7468
15888TIP3   OH269078   0.759   3.158   1.148  0.0478 -0.4201 -0.0355
15888TIP3    H169079   0.693   3.138   1.214  0.2763  0.5178  0.5000
15888TIP3    H269080   0.753   3.253   1.136 -0.5174 -0.6518 -1.9426
15889TIP3   OH269081   3.978   1.741   2.069  0.2333 -0.3264 -0.0543
15889TIP3    H169082   3.897   1.710   2.108  0.7839 -0.9293  0.6536
15889TIP3    H269083   4.038   1.750   2.144  0.6462  0.6566 -0.4870
15890TIP3   OH269084   2.634   4.090   4.368 -0.8142  0.0781 -0.1982
15890TIP3    H169085   2.694   4.017   4.351 -1.0624 -0.4481  1.0680
15890TIP3    H269086   2.691   4.161   4.397 -0.7606 -0.2946  0.6209
15891TIP3   OH269087   0.690   2.718   5.402 -0.1446 -0.0843 -0.0045
15891TIP3    H169088   0.611   2.770   5.385 -0.4961 -0.4291  0.5300
15891TIP3    H269089   0.673   2.677   5.487 -0.0560 -1.3965 -0.6023
15892TIP3   OH269090   5.887   0.294   4.231  0.1789 -0.0833 -0.1126
15892TIP3    H169091   5.873   0.367   4.171 -0.0711 -0.2752 -0.2928
15892TIP3    H269092   5.847   0.321   4.313 -0.0455 -0.0746 -0.2229
15893TIP3   OH269093   1.113   3.620  15.824 -0.2191 -0.6602  0.3720
15893TIP3    H169094   1.154   3.580  15.747  0.7451  2.0276 -0.6274
15893TIP3    H269095   1.180   3.678  15.859 -1.4772 -0.0340  1.8517
15894TIP3   OH269096   5.994   3.365  10.817  0.8907 -0.5810 -0.2143
15894TIP3    H169097   6.063   3.417  10.776 -0.2096  1.7579  0.6860
15894TIP3    H269098   5.977   3.294  10.756  2.7089 -0.0807 -1.3760
15895TIP3   OH269099   0.250   5.852   2.747 -0.3366  0.0198 -0.1808
15895TIP3    H169100   0.344   5.835   2.756 -0.3690 -0.8549 -1.2114
15895TIP3    H269101   0.218   5.780   2.692 -1.3004  1.2356 -1.2743
15896TIP3   OH269102   3.805   3.334   5.291  0.5309 -0.3194  0.0977
15896TIP3    H169103   3.837   3.354   5.203  2.8556  0.3122  1.0370
15896TIP3    H269104   3.798   3.419   5.334 -1.5073 -0.5297  0.2933
15897TIP3   OH269105   4.659   5.833  14.854 -0.4530 -0.7409 -0.3649
15897TIP3    H169106   4.619   5.919  14.842  0.0712 -0.6018 -1.1823
15897TIP3    H269107   4.587   5.778  14.885 -1.1389 -0.3283 -1.1693
15898TIP3   OH269108   5.865   2.918  16.247  0.2545  0.1058 -0.5502
15898TIP3    H169109   5.792   2.909  16.308  0.1286 -0.0848 -0.7295
15898TIP3    H269110   5.835   2.877  16.166  0.7464 -0.4338 -0.4670
15899TIP3   OH269111   0.534   1.090  10.675 -0.2654 -0.0856 -0.4549
15899TIP3    H169112   0.508   1.145  10.600  0.4082  0.6429 -0.1690
15899TIP3    H269113   0.472   1.114  10.744 -0.1124  0.1603 -0.4003
15900TIP3   OH269114   3.568   2.326   3.742  0.8623 -0.1343 -0.4695
15900TIP3    H169115   3.570   2.237   3.706 -0.3310 -1.7356  2.9649
15900TIP3    H269116   3.495   2.369   3.698 -1.3381 -2.3906  0.7523
15901TIP3   OH269117   1.480   5.437   5.729  0.0203  0.0062 -0.2884
15901TIP3    H169118   1.520   5.524   5.726  1.2006 -0.4314  1.2487
15901TIP3    H269119   1.484   5.412   5.822  1.2718 -2.3750 -0.9093
15902TIP3   OH269120   6.162   3.908   2.457 -0.2700  0.2104 -0.1231
15902TIP3    H169121   6.234   3.894   2.396  0.1661 -0.3239  0.5082
15902TIP3    H269122   6.114   3.825   2.458  0.0710  0.0084  0.6928
15903TIP3   OH269123   3.745   2.857  11.303  0.5708 -0.3382  0.0160
15903TIP3    H169124   3.839   2.870  11.313  0.8669 -1.9390 -0.3500
15903TIP3    H269125   3.730   2.769  11.338 -0.8529  0.0313  0.3811
15904TIP3   OH269126   6.089   5.034   3.576 -0.2997  0.0052 -0.2761
15904TIP3    H169127   6.109   5.115   3.623 -1.6419 -0.0308  0.4152
15904TIP3    H269128   6.098   4.965   3.643 -1.5051 -0.1278 -0.2300
15905TIP3   OH269129   5.304   2.710   4.653 -0.0943 -0.4704  0.0202
15905TIP3    H169130   5.304   2.635   4.594 -1.5936  1.2824 -2.4249
15905TIP3    H269131   5.313   2.786   4.594 -1.6213  1.3973  2.0357
15906TIP3   OH269132   4.653   5.637  15.982 -0.3567  0.6217 -0.0047
15906TIP3    H169133   4.720   5.609  15.920  0.2817 -0.5130  1.1530
15906TIP3    H269134   4.621   5.720  15.947  1.6305  1.1857 -0.6063
15907TIP3   OH269135   0.385   6.184  16.560  0.3511 -0.2282 -0.3370
15907TIP3    H169136   0.356   6.099  16.528 -1.8806 -0.1790  1.3173
15907TIP3    H269137   0.377   6.177  16.656  1.3119  1.4601 -0.0900
15908TIP3   OH269138   0.526   3.019  11.857 -0.5786  0.6515 -0.1664
15908TIP3    H169139   0.581   2.944  11.879 -1.3645  0.6534  2.1145
15908TIP3    H269140   0.583   3.076  11.806  1.5507  0.5341  1.8859
15909TIP3   OH269141   1.788   0.798  15.205 -0.1591 -0.2404 -0.3282
15909TIP3    H169142   1.779   0.844  15.289  0.0167  1.7663 -1.3404
15909TIP3    H269143   1.860   0.736  15.219 -0.5613 -0.3963  1.1821
15910TIP3   OH269144   0.133   5.396   3.977 -0.4743  0.3309  0.0713
15910TIP3    H169145   0.127   5.490   3.992  1.5977  0.2950  1.6444
15910TIP3    H269146   0.226   5.376   3.990 -0.6297 -1.7397 -1.5649
15911TIP3   OH269147   5.065   6.633  13.120  0.3982 -0.2536  0.4773
15911TIP3    H169148   5.125   6.621  13.046  0.6890 -1.1441  0.8380
15911TIP3    H269149   5.009   6.706  13.095  1.6723  0.6356  0.1566
15912TIP3   OH269150   5.262   3.093  12.553  0.0803 -0.2804  0.1662
15912TIP3    H169151   5.268   3.119  12.461  0.6285  1.3116  0.6116
15912TIP3    H269152   5.321   3.153  12.599  0.1400 -1.3170  1.5122
15913TIP3   OH269153   3.220   3.518  12.530  0.4244 -0.1886  0.0564
15913TIP3    H169154   3.175   3.529  12.446 -0.1853 -0.1895  0.3793
15913TIP3    H269155   3.166   3.567  12.593  1.4155  0.6730  0.2761
15914TIP3   OH269156   4.139   1.663  16.127 -0.6543  0.6221 -0.3855
15914TIP3    H169157   4.233   1.663  16.147 -0.8391 -1.5157  0.9056
15914TIP3    H269158   4.097   1.683  16.210 -1.3747  2.9273 -1.2489
15915TIP3   OH269159   5.758   6.549   1.842 -0.3404 -0.7302  0.1854
15915TIP3    H169160   5.784   6.617   1.905 -2.9556  0.2628  0.3166
15915TIP3    H269161   5.817   6.475   1.861 -0.2670 -0.0617  3.0302
15916TIP3   OH269162   5.960   6.644   0.853  0.6430 -0.3588  0.1682
15916TIP3    H169163   5.894   6.713   0.862  0.4556 -0.3111 -1.4138
15916TIP3    H269164   5.921   6.569   0.898 -0.0994 -0.0725  0.0225
15917TIP3   OH269165   0.700   4.347   5.379 -0.0040 -0.1191 -0.8340
15917TIP3    H169166   0.728   4.256   5.373 -0.2976 -0.1718 -1.5514
15917TIP3    H269167   0.746   4.391   5.307  0.3234  0.3470 -0.3422
15918TIP3   OH269168   4.316   0.896  15.122 -0.5542  0.5805  0.0044
15918TIP3    H169169   4.288   0.918  15.033  0.9792  0.0644 -0.6266
15918TIP3    H269170   4.396   0.946  15.135  0.6947 -1.3254  0.0864
15919TIP3   OH269171   2.450   3.304  17.165  0.6731  0.2657  1.0056
15919TIP3    H169172   2.443   3.397  17.145 -0.9221  0.6110  2.8462
15919TIP3    H269173   2.535   3.295  17.207  0.8946  0.8548  0.6907
15920TIP3   OH269174   6.513   4.439   4.243 -0.4502 -0.1503  0.1972
15920TIP3    H169175   6.529   4.475   4.156 -0.9714  0.9860  0.5521
15920TIP3    H269176   6.582   4.477   4.297 -1.3934  0.8922  0.7143
15921TIP3   OH269177   3.104   3.166   5.985 -0.4049  0.3288  0.5423
15921TIP3    H169178   3.128   3.083   6.025  0.6292  1.4697  2.4671
15921TIP3    H269179   3.084   3.145   5.894  2.0012 -1.6771  0.3958
15922TIP3   OH269180   0.022   3.860  15.845 -0.6025  0.0677  0.3851
15922TIP3    H169181  -0.010   3.852  15.935 -0.6450  0.5087  0.4100
15922TIP3    H269182  -0.028   3.933  15.809  0.9287  1.3180  0.6717
15923TIP3   OH269183   0.070   6.088  12.800  0.6103  0.7336 -0.5600
15923TIP3    H169184   0.116   6.005  12.788 -1.0792 -0.6393  1.6189
15923TIP3    H269185   0.085   6.111  12.892 -1.4713  1.1874 -0.2859
15924TIP3   OH269186   5.406   2.011  14.457 -0.3415 -0.3694  0.4573
15924TIP3    H169187   5.415   2.081  14.521  0.8181 -1.3550  1.4231
15924TIP3    H269188   5.318   1.976  14.471 -1.2601  1.3762 -0.6030
15925TIP3   OH269189   6.592   3.055  16.267 -0.5308 -0.0198 -1.0335
15925TIP3    H169190   6.565   3.146  16.276 -1.2112 -0.2346 -0.8553
15925TIP3    H269191   6.660   3.057  16.200 -1.4824  0.4574 -2.0173
15926TIP3   OH269192   4.873   5.492  15.831 -0.3286  0.0753  0.7510
15926TIP3    H169193   4.922   5.425  15.783 -1.3662 -0.2224  0.0641
15926TIP3    H269194   4.939   5.559  15.852  0.1732  0.2775 -1.2037
15927TIP3   OH269195   4.717   4.461   3.968  0.6850 -0.0940 -0.0811
15927TIP3    H169196   4.672   4.382   3.997 -1.0666  0.6815 -0.5113
15927TIP3    H269197   4.740   4.507   4.049  0.2980 -0.3171  0.1595
15928TIP3   OH269198   2.771   2.092   3.118  0.4313 -0.0865 -0.2564
15928TIP3    H169199   2.728   2.039   3.185 -0.7000 -0.8767 -1.5384
15928TIP3    H269200   2.798   2.171   3.163 -3.8971  1.2980  0.4215
15929TIP3   OH269201   4.367   2.837   5.219 -0.5554  0.5926 -0.2558
15929TIP3    H169202   4.357   2.909   5.155  0.5000  0.6954 -0.3248
15929TIP3    H269203   4.409   2.767   5.169 -0.9384  0.1804 -0.0033
15930TIP3   OH269204   2.095   0.872  16.481  0.6742 -0.2407  0.0845
15930TIP3    H169205   2.021   0.870  16.421 -0.7770 -0.7988  1.8131
15930TIP3    H269206   2.121   0.780  16.489 -0.0460 -0.3544  1.3382
15931TIP3   OH269207   6.798   4.543   4.000 -0.1839 -0.1934  0.1114
15931TIP3    H169208   6.856   4.564   4.073 -0.3936  0.0964  0.1997
15931TIP3    H269209   6.851   4.490   3.941 -0.2890 -1.2435  0.9228
15932TIP3   OH269210   5.484   4.151   4.067  0.0127 -0.2510 -0.1256
15932TIP3    H169211   5.401   4.191   4.095  0.1573  0.8438 -1.1647
15932TIP3    H269212   5.500   4.082   4.131 -2.0950 -1.0137 -0.3425
15933TIP3   OH269213   1.826   5.188  13.491 -0.1852  0.1720 -0.1391
15933TIP3    H169214   1.780   5.151  13.567 -0.0642 -0.6503 -0.4563
15933TIP3    H269215   1.907   5.136  13.485  0.1538  0.7272 -0.3840
15934TIP3   OH269216   0.920   0.787  10.613  0.4351 -0.1568 -0.0831
15934TIP3    H169217   0.981   0.750  10.676 -0.0735  0.3278  0.7137
15934TIP3    H269218   0.911   0.719  10.546 -1.1902 -1.9488  1.7937
15935TIP3   OH269219   2.662   5.098  15.153 -0.4305  0.3753 -0.0234
15935TIP3    H169220   2.729   5.101  15.085  0.8878 -3.2297  0.8506
15935TIP3    H269221   2.711   5.079  15.233 -2.2351  1.0032  1.2868
15936TIP3   OH269222   3.953   2.049   0.905 -0.3308 -0.2914  0.2418
15936TIP3    H169223   4.028   1.990   0.908 -0.2513 -0.4026 -2.2717
15936TIP3    H269224   3.913   2.033   0.820 -0.7600  2.7083 -0.2224
15937TIP3   OH269225   2.008   6.746  14.079  0.3150  0.5327 -0.7572
15937TIP3    H169226   2.038   6.787  13.998 -0.6367 -0.1990 -1.4852
15937TIP3    H269227   2.038   6.656  14.073 -2.1237 -0.2754 -1.5934
15938TIP3   OH269228   4.756   3.365   6.085  0.0601 -0.2876 -0.5972
15938TIP3    H169229   4.713   3.358   6.000 -0.7838  2.1822 -0.4337
15938TIP3    H269230   4.820   3.293   6.085 -0.6931 -1.0468 -2.8226
15939TIP3   OH269231   1.639   1.119   1.345  0.0834  0.8176 -0.6875
15939TIP3    H169232   1.703   1.055   1.314  0.3972  0.3231  0.9105
15939TIP3    H269233   1.650   1.194   1.286  0.0735 -0.3708 -2.2526
15940TIP3   OH269234   1.620   2.518   5.246  0.0607 -0.2897  0.2817
15940TIP3    H169235   1.556   2.509   5.175 -1.0379  2.1118  0.8680
15940TIP3    H269236   1.577   2.476   5.321 -0.3129  0.2426  0.3715
15941TIP3   OH269237   1.569   3.827  10.777 -0.5089 -0.5173 -0.2120
15941TIP3    H169238   1.473   3.826  10.776 -0.5479 -0.2957  0.9992
15941TIP3    H269239   1.593   3.910  10.736 -0.8666 -0.3052 -0.0016
15942TIP3   OH269240   5.914   5.804   0.139  0.1671  0.3284  0.2727
15942TIP3    H169241   5.938   5.878   0.083  1.0802  0.4090  0.7484
15942TIP3    H269242   5.998   5.768   0.168 -0.2023 -1.7381 -1.0080
15943TIP3   OH269243   1.435   6.082   4.051  0.4212 -0.1934 -0.1287
15943TIP3    H169244   1.437   5.999   4.099  1.8437  0.6830  1.4176
15943TIP3    H269245   1.523   6.092   4.016  0.5759  1.1577  0.6031
15944TIP3   OH269246   2.438   2.760  15.160 -0.3392  0.7256  0.1616
15944TIP3    H169247   2.515   2.808  15.128  0.6352 -1.1185 -0.4387
15944TIP3    H269248   2.474   2.693  15.219 -1.5209  0.0946  0.2011
15945TIP3   OH269249   4.102   2.547   4.348  0.2296 -0.2362  0.4699
15945TIP3    H169250   4.150   2.464   4.347 -0.4484 -0.6823  1.8132
15945TIP3    H269251   4.112   2.579   4.438 -0.4925  0.5376  0.2833
15946TIP3   OH269252   2.336   2.161  11.222  0.3914  0.0838 -0.4453
15946TIP3    H169253   2.331   2.129  11.132  1.1282  2.4168 -1.3855
15946TIP3    H269254   2.429   2.180  11.235  0.0957  1.0676  0.3166
15947TIP3   OH269255   4.392   2.556   0.170 -0.2988  0.0395 -0.7143
15947TIP3    H169256   4.401   2.651   0.183 -0.9819  0.1559 -1.0181
15947TIP3    H269257   4.301   2.538   0.194 -0.7543 -0.2127 -2.4492
15948TIP3   OH269258   0.089   1.757   4.907 -0.0883 -0.6493  0.6972
15948TIP3    H169259   0.171   1.790   4.870 -0.5391 -1.2867 -0.9481
15948TIP3    H269260   0.071   1.815   4.981  0.3445  1.2878 -0.6549
15949TIP3   OH269261   1.804   2.320  12.831 -0.5765 -0.5979  0.2017
15949TIP3    H169262   1.896   2.294  12.831  0.0398  1.3828  0.4676
15949TIP3    H269263   1.793   2.366  12.748 -0.6635  1.1708  1.1389
15950TIP3   OH269264   4.510   4.249   0.501 -0.2101 -0.2167  0.1479
15950TIP3    H169265   4.429   4.213   0.465 -1.6664  1.5327  1.4190
15950TIP3    H269266   4.547   4.178   0.553  0.4275 -1.8414 -2.3707
15951TIP3   OH269267   4.582   2.889   4.717 -0.3896 -0.0978 -0.2009
15951TIP3    H169268   4.570   2.983   4.699 -0.6736  0.0386  0.6675
15951TIP3    H269269   4.564   2.847   4.633 -0.9329  0.5767 -0.4341
15952TIP3   OH269270   0.085   0.697  17.044 -0.0468  0.6361  0.1973
15952TIP3    H169271   0.144   0.694  17.119  1.6623 -0.9180 -1.1167
15952TIP3    H269272   0.037   0.614  17.048 -1.2576  1.3220  0.5160
15953TIP3   OH269273   2.020   1.096  11.779  0.0181 -0.2022 -0.7384
15953TIP3    H169274   2.110   1.069  11.758  0.0247  0.0662 -1.0777
15953TIP3    H269275   1.968   1.067  11.704 -0.3591 -1.2709 -0.0716
15954TIP3   OH269276   4.548   0.255   0.770 -0.1542  0.3275  0.2897
15954TIP3    H169277   4.479   0.203   0.730  0.1814 -0.8160  1.1459
15954TIP3    H269278   4.516   0.274   0.858  0.4188  0.1789  0.5384
15955TIP3   OH269279   3.831   3.340  10.196  0.5034  0.0112  0.2187
15955TIP3    H169280   3.909   3.300  10.234  0.3723 -1.4857 -0.9719
15955TIP3    H269281   3.863   3.393  10.124  0.4020 -1.6034 -1.0842
15956TIP3   OH269282   0.952   5.326  12.576 -0.4322  0.2653  0.2195
15956TIP3    H169283   0.976   5.410  12.537 -0.7951 -0.4028 -1.5285
15956TIP3    H269284   0.859   5.336  12.599 -0.7571  0.0253 -0.9363
15957TIP3   OH269285   5.775   6.754  12.897  0.2125 -0.5296  0.2069
15957TIP3    H169286   5.796   6.847  12.900 -0.2814 -0.4220  0.3626
15957TIP3    H269287   5.848   6.714  12.848 -1.1475  0.3605 -2.7344
15958TIP3   OH269288   1.829   2.282   4.420  0.1836 -0.1167  0.4370
15958TIP3    H169289   1.878   2.357   4.387  0.0005  0.3101  1.1235
15958TIP3    H269290   1.798   2.309   4.506 -3.9975  0.8946 -1.1549
15959TIP3   OH269291   5.758   6.624   4.130 -0.4388  0.3001 -0.6714
15959TIP3    H169292   5.840   6.662   4.096 -0.6744 -0.2870 -1.9735
15959TIP3    H269293   5.786   6.552   4.186 -0.0179  1.6508  0.9033
15960TIP3   OH269294   5.528   5.921  10.606 -0.1509  0.1910 -0.4812
15960TIP3    H169295   5.497   6.007  10.634  0.3597 -0.1749  1.3531
15960TIP3    H269296   5.450   5.866  10.605 -0.6612  0.8432 -2.6331
15961TIP3   OH269297   6.561   5.372   0.627  0.7012  0.1808 -0.3058
15961TIP3    H169298   6.488   5.312   0.610 -0.3170  0.9156  1.1597
15961TIP3    H269299   6.589   5.402   0.541 -2.7275  2.1247 -0.9486
15962TIP3   OH269300   5.192   3.050  15.441  0.0235  0.3319  0.0658
15962TIP3    H169301   5.140   2.970  15.449  0.5815  0.0530  1.0210
15962TIP3    H269302   5.202   3.063  15.346 -0.9553 -0.1393 -0.1142
15963TIP3   OH269303   5.137   1.656  10.960 -0.0703 -0.1536  0.3144
15963TIP3    H169304   5.064   1.628  10.905 -0.5464 -0.8171  1.2399
15963TIP3    H269305   5.199   1.696  10.900 -0.2501 -1.4842 -0.7961
15964TIP3   OH269306   3.486   6.157  11.179 -0.3646  0.1014  0.1764
15964TIP3    H169307   3.451   6.148  11.090  2.1737  1.2324 -1.0399
15964TIP3    H269308   3.536   6.076  11.193 -0.8384 -0.1166  0.6248
15965TIP3   OH269309   2.151   2.573   5.714 -0.9186  0.1829  0.2264
15965TIP3    H169310   2.225   2.600   5.659 -0.6503 -0.2625  0.3625
15965TIP3    H269311   2.079   2.560   5.653 -0.3959 -1.1374 -0.1399
15966TIP3   OH269312   5.097   5.991  11.843 -0.0585 -0.4723 -0.1641
15966TIP3    H169313   5.047   6.065  11.810 -0.2206 -0.7110 -0.4579
15966TIP3    H269314   5.071   5.984  11.935 -0.2990 -0.3727 -0.2217
15967TIP3   OH269315   5.103   4.106  16.001 -0.1635  0.1985 -0.3415
15967TIP3    H169316   5.161   4.094  15.926  1.3485  1.0101  0.6644
15967TIP3    H269317   5.079   4.018  16.028  0.0296 -0.1210 -1.2004
15968TIP3   OH269318   3.858   2.059  12.956  0.4272 -0.6368  0.1526
15968TIP3    H169319   3.925   2.063  12.887  0.7953  1.8177  0.5813
15968TIP3    H269320   3.776   2.049  12.908  0.9514 -3.1845 -0.4014
15969TIP3   OH269321   0.824   1.774  13.628  0.3295  0.2986  0.0276
15969TIP3    H169322   0.830   1.846  13.565  0.1739  0.0826 -0.2333
15969TIP3    H269323   0.799   1.816  13.710  0.2293  0.5408 -0.1278
15970TIP3   OH269324   0.525   1.829  12.327  0.2661  0.1013 -0.0614
15970TIP3    H169325   0.584   1.804  12.397 -2.8389 -2.0725  2.0276
15970TIP3    H269326   0.452   1.872  12.370 -0.4292  1.3913 -2.3335
15971TIP3   OH269327   0.193   6.622   1.645  0.1047  0.6871 -0.0188
15971TIP3    H169328   0.264   6.565   1.675 -0.1202  0.1403 -0.5002
15971TIP3    H269329   0.197   6.698   1.703  1.2187  0.7655 -0.1615
15972TIP3   OH269330   1.431   1.999  11.769 -0.2063 -0.1088  0.0255
15972TIP3    H169331   1.431   2.035  11.681 -0.0666  0.8187  0.3976
15972TIP3    H269332   1.338   1.980  11.787 -0.3231  0.3608 -0.0600
15973TIP3   OH269333   5.447   6.650  16.498  0.1524 -0.0532  0.2152
15973TIP3    H169334   5.531   6.690  16.520  0.2851  0.0830 -0.5049
15973TIP3    H269335   5.386   6.724  16.493  0.3064  0.0183 -0.6970
15974TIP3   OH269336   3.042   4.833   4.844  0.3504 -0.4759 -0.0256
15974TIP3    H169337   3.031   4.743   4.813 -1.7057 -0.2554 -0.0802
15974TIP3    H269338   2.954   4.871   4.838  0.8055  0.9760  1.7613
15975TIP3   OH269339   3.567   1.983  13.693  0.4316  0.3436 -0.8132
15975TIP3    H169340   3.583   1.968  13.786  1.4626  0.3958 -0.9697
15975TIP3    H269341   3.592   1.901  13.651 -2.7384 -0.7517 -0.8169
15976TIP3   OH269342   1.978   3.266   6.230  0.2560  0.3245 -0.5051
15976TIP3    H169343   1.910   3.314   6.183 -0.4191 -0.0838  0.0397
15976TIP3    H269344   1.942   3.254   6.318  0.6658 -0.6704 -0.4625
15977TIP3   OH269345   0.781   3.173  15.569 -0.0114 -0.3178 -0.6339
15977TIP3    H169346   0.719   3.110  15.607 -0.8356  0.6087 -0.4140
15977TIP3    H269347   0.864   3.125  15.565 -0.7540 -1.6449 -1.0648
15978TIP3   OH269348   5.862   5.077   3.423  0.2457 -0.1574 -0.4237
15978TIP3    H169349   5.948   5.069   3.463 -0.2748 -0.3954  0.6704
15978TIP3    H269350   5.804   5.106   3.494 -0.5836 -0.0297 -1.1280
15979TIP3   OH269351   4.657   3.043   3.753 -0.3111  0.1600  0.0637
15979TIP3    H169352   4.699   3.115   3.802  0.8399 -0.3042 -0.1997
15979TIP3    H269353   4.606   3.087   3.685 -2.9644  0.8905  2.3296
15980TIP3   OH269354   5.963   2.929   3.425  0.1382  0.3435 -0.0098
15980TIP3    H169355   5.981   2.847   3.380  2.3030  1.9658 -2.3752
15980TIP3    H269356   5.869   2.927   3.442 -0.6420 -0.9814 -3.6063
15981TIP3   OH269357   5.684   1.183   0.501  0.4629  0.2627 -0.6434
15981TIP3    H169358   5.656   1.226   0.581 -0.9388 -1.5727 -0.0623
15981TIP3    H269359   5.654   1.092   0.511 -0.4561  0.1340 -3.5382
15982TIP3   OH269360   3.869   2.331  14.332 -0.2884  0.0985  0.0083
15982TIP3    H169361   3.776   2.315  14.345 -0.0825 -1.1168  0.0444
15982TIP3    H269362   3.912   2.291  14.407  0.2823  0.5461 -0.0642
15983TIP3   OH269363   5.102   1.533   2.251 -0.6102  0.1425 -0.1306
15983TIP3    H169364   5.126   1.595   2.320 -1.8809 -0.2689  0.7018
15983TIP3    H269365   5.143   1.451   2.277 -0.7016  0.1010 -0.1193
15984TIP3   OH269366   2.600   0.670   5.286  0.1598  0.2585 -0.1407
15984TIP3    H169367   2.525   0.705   5.237 -0.4995 -0.1895  0.5293
15984TIP3    H269368   2.654   0.747   5.306  0.1396  0.5233 -1.0551
15985TIP3   OH269369   1.123   0.623  15.543 -0.3235  0.1517  0.2468
15985TIP3    H169370   1.198   0.572  15.511 -1.2683 -0.2814 -1.3998
15985TIP3    H269371   1.075   0.563  15.600 -0.6306 -0.3565 -0.5184
15986TIP3   OH269372   4.445   2.246   4.153 -0.6621 -0.0701  0.4873
15986TIP3    H169373   4.503   2.173   4.173  0.6888  1.0896  0.9731
15986TIP3    H269374   4.367   2.205   4.114  0.1498 -1.7239  0.5163
15987TIP3   OH269375   5.158   5.774   1.887  0.5452  0.4309  0.0915
15987TIP3    H169376   5.131   5.762   1.979  1.3315  1.1318  0.4267
15987TIP3    H269377   5.241   5.821   1.893  0.1261  1.3415 -1.0078
15988TIP3   OH269378   0.249   0.508   1.406  0.2209 -0.2343  0.0059
15988TIP3    H169379   0.333   0.462   1.412 -0.0721 -1.5809 -3.3784
15988TIP3    H269380   0.256   0.560   1.326 -1.9161  0.1897  0.0233
15989TIP3   OH269381   3.877   6.673  15.830  0.1053  0.5789  1.3595
15989TIP3    H169382   3.950   6.732  15.813  0.8044 -0.1675  1.6903
15989TIP3    H269383   3.906   6.588  15.796 -0.6935  0.3183  1.3004
15990TIP3   OH269384   1.492   6.263   0.693 -0.0066 -0.1579 -0.8942
15990TIP3    H169385   1.586   6.254   0.704  0.0269  1.1064  0.1302
15990TIP3    H269386   1.462   6.306   0.774 -1.8779 -2.9771  0.0686
15991TIP3   OH269387   1.868   0.573  17.133  0.1819 -0.1935  0.1665
15991TIP3    H169388   1.868   0.657  17.180 -0.0973 -0.2426  0.2570
15991TIP3    H269389   1.887   0.508  17.201  1.3770 -0.1221 -0.0752
15992TIP3   OH269390   2.997   0.579  16.630  0.1609  0.2166  0.9300
15992TIP3    H169391   2.997   0.661  16.579  0.8227 -0.2164  0.2222
15992TIP3    H269392   3.086   0.572  16.664  0.3297 -0.5998  0.3402
15993TIP3   OH269393   4.206   0.168   2.807  0.0391 -0.5682  0.5178
15993TIP3    H169394   4.201   0.205   2.895 -1.1136 -0.6698  0.5071
15993TIP3    H269395   4.120   0.187   2.768  0.5323 -0.5190 -0.5854
15994TIP3   OH269396   1.409   2.555   2.594 -0.0518 -0.1340 -0.2600
15994TIP3    H169397   1.368   2.496   2.531 -3.6244 -1.3743  2.8361
15994TIP3    H269398   1.405   2.641   2.552 -0.9369 -1.0930 -2.2743
15995TIP3   OH269399   1.621   3.915   2.219  0.0623 -0.4359  0.1584
15995TIP3    H169400   1.575   3.999   2.217 -0.0043 -0.4705  0.1922
15995TIP3    H269401   1.585   3.871   2.296  0.5360 -0.2512  0.4880
15996TIP3   OH269402   1.988   2.293  16.526 -0.1746  0.1826  0.2132
15996TIP3    H169403   2.052   2.364  16.519 -0.1439  0.2917  1.3819
15996TIP3    H269404   1.907   2.331  16.491  0.4726 -0.1182 -1.7625
15997TIP3   OH269405   6.559   2.445  16.357  0.4363 -0.4582 -0.3812
15997TIP3    H169406   6.512   2.529  16.360 -0.4482 -0.8995 -1.3336
15997TIP3    H269407   6.505   2.386  16.409  0.7394 -0.5957 -0.2219
15998TIP3   OH269408   5.498   5.414  14.008  0.3799  0.7934  0.2577
15998TIP3    H169409   5.421   5.443  13.957 -1.7209  0.0204  2.7584
15998TIP3    H269410   5.546   5.357  13.949 -1.0362  1.2085 -1.3762
15999TIP3   OH269411   1.004   4.827  11.822 -0.1069 -0.0889  0.1884
15999TIP3    H169412   1.071   4.884  11.860 -0.6320  0.5001  0.2690
15999TIP3    H269413   0.924   4.850  11.870 -0.5137 -0.2536 -0.4008
16000TIP3   OH269414   5.286   5.523  12.071 -0.2005 -0.1696  0.2155
16000TIP3    H169415   5.267   5.499  12.161  0.1481  0.4243  0.4459
16000TIP3    H269416   5.199   5.538  12.032 -0.3513 -0.4453  0.4406
16001TIP3   OH269417   3.907   0.900   3.889 -0.0063  0.0323 -0.3656
16001TIP3    H169418   3.894   0.875   3.798 -2.1300  0.0770 -0.1174
16001TIP3    H269419   3.852   0.978   3.901  1.5573  1.0537  0.5335
16002TIP3   OH269420   5.904   6.718   3.316 -0.3777  0.1240 -0.0451
16002TIP3    H169421   5.960   6.640   3.321  0.5282  0.8409  1.3389
16002TIP3    H269422   5.948   6.775   3.254  2.2942  2.0361  3.2955
16003TIP3   OH269423   0.973   2.131  13.772  0.6294 -0.1296  0.0918
16003TIP3    H169424   1.006   2.117  13.860 -2.5666  1.2684  1.6847
16003TIP3    H269425   0.896   2.074  13.766 -0.7507  1.7102 -0.7331
16004TIP3   OH269426   0.467   4.120  15.977 -0.0055  0.3456 -0.0526
16004TIP3    H169427   0.406   4.145  15.908 -0.7529  0.8445  0.7599
16004TIP3    H269428   0.436   4.034  16.006 -0.4615  0.6848  0.4936
16005TIP3   OH269429   5.088   3.262  15.995 -0.1417 -0.1184  0.1553
16005TIP3    H169430   5.174   3.287  15.960 -0.1884  0.1537  0.2372
16005TIP3    H269431   5.058   3.339  16.042 -0.2610 -0.3469  0.4512
16006TIP3   OH269432   3.944   6.054  11.774 -0.2062  0.2460  0.1078
16006TIP3    H169433   3.941   5.977  11.831 -1.0116  0.1500 -0.0634
16006TIP3    H269434   3.898   6.027  11.695 -2.3719  1.5464  0.8327
16007TIP3   OH269435   3.945   3.217  11.774 -0.7487 -0.5991  0.1043
16007TIP3    H169436   3.944   3.121  11.776 -1.0778 -0.7246 -2.5694
16007TIP3    H269437   3.889   3.240  11.700 -2.8540  1.8000  2.2363
16008TIP3   OH269438   3.056   5.506  12.772  0.1766 -0.4643  0.2301
16008TIP3    H169439   3.030   5.590  12.812  0.2460 -0.2802 -0.1110
16008TIP3    H269440   3.139   5.484  12.814  1.1276  0.5859 -1.0312
16009TIP3   OH269441   6.183   1.929   3.208 -0.1576 -0.4909  0.2061
16009TIP3    H169442   6.113   1.894   3.152 -0.7976  0.8381  0.1229
16009TIP3    H269443   6.228   1.992   3.152  0.1820 -0.2802  0.7142
16010TIP3   OH269444   2.716   0.156   0.305 -0.6128  0.6728 -0.5119
16010TIP3    H169445   2.668   0.179   0.385 -0.2374  0.1316 -0.1257
16010TIP3    H269446   2.763   0.236   0.282  0.6698  0.3624  0.8081
16011TIP3   OH269447   2.496   3.778  14.222  0.2856  0.3380 -0.3093
16011TIP3    H169448   2.408   3.815  14.233  0.6544  0.9248  0.7695
16011TIP3    H269449   2.491   3.730  14.139 -0.8280  1.0015 -0.6485
16012TIP3   OH269450   0.624   5.527  15.074  0.1520 -0.0040 -0.3483
16012TIP3    H169451   0.615   5.614  15.113 -0.5571  0.3181 -1.1880
16012TIP3    H269452   0.605   5.466  15.145 -0.0036  0.5475  0.0834
16013TIP3   OH269453   2.047   4.946  12.403 -0.0672  0.6520  0.0141
16013TIP3    H169454   2.042   4.888  12.326  0.0904  1.1488 -0.3742
16013TIP3    H269455   2.047   4.886  12.477  1.0652  0.0810 -0.4102
16014TIP3   OH269456   4.547   0.776  12.376  0.2292  0.0632  0.0464
16014TIP3    H169457   4.594   0.811  12.452  0.3024  1.7844 -0.7467
16014TIP3    H269458   4.456   0.769  12.405  0.3789  0.0252  0.5187
16015TIP3   OH269459   4.120   3.581  14.611 -0.1932  0.6971 -0.2397
16015TIP3    H169460   4.138   3.518  14.680 -0.9636  0.9597  0.2124
16015TIP3    H269461   4.206   3.612  14.583  0.1828 -0.3520 -0.2880
16016TIP3   OH269462   2.979   1.012   5.739  0.3210  0.0726 -0.7260
16016TIP3    H169463   3.036   1.086   5.760 -0.0621  0.0439  0.4976
16016TIP3    H269464   2.942   0.986   5.823 -0.2491 -0.9405 -1.2731
16017TIP3   OH269465   4.808   3.000   1.649  0.1161 -0.0069  0.1566
16017TIP3    H169466   4.875   2.955   1.598  0.1861  0.6468 -0.3474
16017TIP3    H269467   4.841   3.090   1.657  0.3333 -0.1999  1.7611
16018TIP3   OH269468   1.717   0.072  16.032 -0.2598  0.4157  0.2298
16018TIP3    H169469   1.762   0.138  15.979  1.1573  0.6066  1.5854
16018TIP3    H269470   1.779  -0.001  16.036 -1.2299 -0.4458 -0.1065
16019TIP3   OH269471   6.786   1.879   1.323  0.2703  0.1260 -0.0654
16019TIP3    H169472   6.767   1.865   1.231  1.5272 -1.7343 -0.0884
16019TIP3    H269473   6.705   1.915   1.359  0.1089  1.9443 -2.0619
16020TIP3   OH269474   6.689   1.757   3.277 -0.7917  0.2290 -0.1985
16020TIP3    H169475   6.696   1.744   3.182 -0.2326 -2.5670  0.1500
16020TIP3    H269476   6.602   1.726   3.300 -0.8604  0.7229  0.2274
16021TIP3   OH269477   1.778   3.053   0.895 -0.5161 -0.6192 -0.3942
16021TIP3    H169478   1.738   3.027   0.978 -1.1221  1.9336  0.1862
16021TIP3    H269479   1.714   3.111   0.854  1.3034  1.1954 -0.8331
16022TIP3   OH269480   1.663   5.385   1.467  0.3544  0.2209 -0.2554
16022TIP3    H169481   1.662   5.364   1.374  1.0578 -1.3117  0.0589
16022TIP3    H269482   1.738   5.443   1.478  0.6179 -0.0652 -0.5469
16023TIP3   OH269483   3.599   5.665   1.061  0.1221 -0.1164 -0.1359
16023TIP3    H169484   3.636   5.745   1.022 -2.0650 -0.0180 -2.1911
16023TIP3    H269485   3.639   5.594   1.012 -1.8607 -0.0248 -2.0252
16024TIP3   OH269486   0.665   2.350  14.848  0.5307  0.3920  0.0899
16024TIP3    H169487   0.648   2.326  14.939  2.4306  1.6949  0.8595
16024TIP3    H269488   0.744   2.301  14.825  0.6689  0.8838 -0.4995
16025TIP3   OH269489   6.383   4.639  15.288 -0.1044  0.2268  0.2176
16025TIP3    H169490   6.361   4.551  15.318  0.0161  0.1671  0.1338
16025TIP3    H269491   6.308   4.665  15.235  0.5672 -0.4838 -1.1345
16026TIP3   OH269492   5.059   0.559   5.553  0.1772  0.3095  0.5494
16026TIP3    H169493   5.110   0.602   5.485  0.1071 -0.8431 -0.2790
16026TIP3    H269494   4.997   0.625   5.583  1.2493  1.3152  0.6221
16027TIP3   OH269495   3.682   1.269   0.882 -0.5017 -0.4336 -0.1398
16027TIP3    H169496   3.633   1.191   0.857  0.1843 -1.3869  1.3347
16027TIP3    H269497   3.645   1.295   0.966 -0.7600  0.8946 -0.6392
16028TIP3   OH269498   5.625   4.204  11.619 -1.4097  0.4446  0.1956
16028TIP3    H169499   5.607   4.235  11.530  0.0074 -0.3985 -0.4458
16028TIP3    H269500   5.721   4.203  11.624 -1.4486 -0.9338  1.2046
16029TIP3   OH269501   6.703   0.088   3.611  0.1380  0.2792  0.0850
16029TIP3    H169502   6.635   0.137   3.564 -0.6479 -0.7049  0.1596
16029TIP3    H269503   6.696   0.119   3.702 -0.0377  0.3619  0.0436
16030TIP3   OH269504   4.483   2.147  13.526  0.0782 -0.1716 -0.8049
16030TIP3    H169505   4.477   2.112  13.437 -0.8829  1.4333 -1.4234
16030TIP3    H269506   4.556   2.209  13.522 -0.6162  0.6704 -0.7881
16031TIP3   OH269507   1.778   4.831   3.012 -0.0426  0.0713 -0.2317
16031TIP3    H169508   1.792   4.877   3.095 -0.0253  1.5658 -1.0373
16031TIP3    H269509   1.865   4.826   2.973 -0.0300 -0.7487 -0.1183
16032TIP3   OH269510   0.588   4.485  16.489 -0.2417 -1.1999 -0.1715
16032TIP3    H169511   0.556   4.567  16.527 -0.0967 -1.1509 -0.1563
16032TIP3    H269512   0.670   4.468  16.535 -0.0440 -1.1167 -0.4948
16033TIP3   OH269513   1.014   6.796   3.331  0.2417 -0.0615  0.1268
16033TIP3    H169514   0.987   6.885   3.310  0.4986  0.2367  1.0093
16033TIP3    H269515   0.945   6.764   3.389  1.3991  0.4928  1.9120
16034TIP3   OH269516   1.147   4.515   1.617 -0.0137  0.7230 -0.3128
16034TIP3    H169517   1.163   4.430   1.657  0.5332  0.9715  0.0168
16034TIP3    H269518   1.060   4.508   1.578  1.2251 -1.0014 -3.0076
16035TIP3   OH269519   5.666   1.418  16.965 -0.5138 -0.3003  0.0082
16035TIP3    H169520   5.704   1.343  17.011 -0.3698  0.2972  0.8974
16035TIP3    H269521   5.738   1.480  16.957 -0.1806 -0.8855 -2.2298
16036TIP3   OH269522   5.498   3.072   5.174  0.3119 -0.0472 -0.1187
16036TIP3    H169523   5.433   3.004   5.192  1.2717 -0.6992  1.0741
16036TIP3    H269524   5.488   3.133   5.247 -0.6447  1.2155 -1.2593
16037TIP3   OH269525   1.276   2.113   1.885 -0.6207 -0.0939  0.5088
16037TIP3    H169526   1.330   2.062   1.946  2.0822  2.0085  0.0752
16037TIP3    H269527   1.286   2.204   1.914 -1.3316  0.6989 -1.5305
16038TIP3   OH269528   1.716   5.799  15.914  0.3102  0.0200 -0.0040
16038TIP3    H169529   1.637   5.843  15.942 -0.5163 -1.6015  0.3616
16038TIP3    H269530   1.730   5.826  15.824  1.0798  2.6653  0.8298
16039TIP3   OH269531   4.289   3.219  15.033 -0.7823  0.3425 -0.8241
16039TIP3    H169532   4.258   3.167  15.108 -0.0486  1.0981  0.0263
16039TIP3    H269533   4.381   3.238  15.053 -0.3042 -0.2010 -2.3581
16040TIP3   OH269534   0.178   6.447  13.463 -0.2203  0.4452 -0.0216
16040TIP3    H169535   0.137   6.397  13.533 -0.8973  0.2620 -0.5397
16040TIP3    H269536   0.171   6.391  13.386 -0.9030  1.2843 -0.5908
16041TIP3   OH269537   2.210   2.188  13.971 -0.2532  0.7794  0.0398
16041TIP3    H169538   2.131   2.230  13.937  0.3952  0.7541 -1.5836
16041TIP3    H269539   2.275   2.258  13.974  0.5005  0.1930 -1.5715
16042TIP3   OH269540   1.175   1.892   4.622 -0.0864  0.2270  0.0765
16042TIP3    H169541   1.169   1.950   4.546 -1.4521  0.6169  0.4494
16042TIP3    H269542   1.251   1.836   4.604 -2.2581 -1.9952 -3.2563
16043TIP3   OH269543   3.512   3.719   4.786 -0.4784  0.2853  0.1256
16043TIP3    H169544   3.537   3.627   4.778 -2.8351 -0.6296  2.2337
16043TIP3    H269545   3.430   3.726   4.736 -0.5233  1.1656  0.3053
16044TIP3   OH269546   1.088   0.034   3.991  0.8680 -0.1168 -0.0868
16044TIP3    H169547   1.004   0.077   3.978  1.4343  1.4680  1.1278
16044TIP3    H269548   1.127   0.079   4.066  1.3127 -3.0865  1.6582
16045TIP3   OH269549   6.614   0.539  10.552  0.0350 -0.2937 -0.0662
16045TIP3    H169550   6.558   0.462  10.549  0.0474 -0.3086  0.0847
16045TIP3    H269551   6.583   0.588  10.628 -0.1761  0.0065 -0.3420
16046TIP3   OH269552   1.073   3.981  12.967 -0.0636 -0.2099  0.4613
16046TIP3    H169553   1.070   3.885  12.962  0.7598 -0.3340  1.8243
16046TIP3    H269554   1.038   4.010  12.883 -0.1255 -1.7073 -0.0702
16047TIP3   OH269555   5.583   0.942   5.615  0.2541 -0.0586  0.3530
16047TIP3    H169556   5.520   0.933   5.686 -0.9529  0.9785 -0.5470
16047TIP3    H269557   5.540   0.998   5.551  2.2432  1.0638 -0.1190
16048TIP3   OH269558   2.297   0.939  15.411  0.6261 -0.4716 -0.2934
16048TIP3    H169559   2.279   1.023  15.453 -1.2249 -0.2401 -1.4196
16048TIP3    H269560   2.368   0.957  15.349  0.5528  0.1453 -0.1997
16049TIP3   OH269561   5.855   6.115   1.238  0.4666 -0.0952  0.5677
16049TIP3    H169562   5.922   6.175   1.273  1.7125 -1.7216  1.1161
16049TIP3    H269563   5.778   6.131   1.292  0.5534  1.4604  0.2676
16050TIP3   OH269564   2.841   1.274  15.317  0.1323  0.0684  0.5085
16050TIP3    H169565   2.786   1.290  15.240  0.6155  2.6524  0.6021
16050TIP3    H269566   2.927   1.250  15.281 -0.7057 -3.1271  0.3605
16051TIP3   OH269567   3.537   1.993  15.055  0.3798  0.0815 -0.2025
16051TIP3    H169568   3.606   2.037  15.007  0.9263 -0.1426  0.3630
16051TIP3    H269569   3.498   2.061  15.110  0.3515  0.1429 -0.2994
16052TIP3   OH269570   6.377   2.013   3.796 -0.4940 -0.2081 -0.0197
16052TIP3    H169571   6.451   2.009   3.736 -0.0489 -2.7726  0.6005
16052TIP3    H269572   6.300   2.017   3.739  0.0100  0.4915 -0.6828
16053TIP3   OH269573   6.335   3.690  12.133  0.8381 -0.3073  0.1891
16053TIP3    H169574   6.341   3.768  12.188 -0.5951  0.7062 -1.0350
16053TIP3    H269575   6.393   3.707  12.059 -0.5603  0.2483 -0.8060
16054TIP3   OH269576   3.360   5.728  13.819 -0.1419  0.4799  0.0297
16054TIP3    H169577   3.321   5.667  13.756 -2.3376  1.6037  0.2141
16054TIP3    H269578   3.426   5.676  13.864 -1.2514 -1.5026 -0.4942
16055TIP3   OH269579   5.904   6.539   2.140  0.2752 -0.1884  0.0269
16055TIP3    H169580   5.934   6.487   2.214 -0.9336 -2.7625 -1.1569
16055TIP3    H269581   5.983   6.578   2.104  1.2014 -0.9195  1.2016
16056TIP3   OH269582   6.630   3.776  12.486 -0.8167  0.4112  0.1104
16056TIP3    H169583   6.596   3.778  12.575 -0.2123  0.0473  0.3529
16056TIP3    H269584   6.705   3.835  12.486  1.2480 -1.9965  0.7338
16057TIP3   OH269585   6.734   6.453   3.466  0.5435  0.0543  0.7542
16057TIP3    H169586   6.659   6.510   3.479  0.3957  1.1431 -3.3475
16057TIP3    H269587   6.805   6.495   3.514 -0.8067  0.5684  2.3546
16058TIP3   OH269588   5.244   0.023   0.477  0.1452 -0.1604 -0.2617
16058TIP3    H169589   5.173  -0.029   0.441 -0.8121  0.6372  0.4121
16058TIP3    H269590   5.226   0.112   0.447  2.1078 -0.2503 -1.9359
16059TIP3   OH269591   4.128   4.553  12.501 -0.4269 -0.0303 -0.0194
16059TIP3    H169592   4.089   4.641  12.495  1.0066  0.7197  1.0116
16059TIP3    H269593   4.170   4.539  12.416 -2.3327 -0.5906 -0.9179
16060TIP3   OH269594   1.462   5.357   3.408 -0.2791 -0.3242  0.4025
16060TIP3    H169595   1.446   5.333   3.317  0.2041  1.9113 -0.3271
16060TIP3    H269596   1.376   5.385   3.441 -1.1517 -3.9817  1.6745
16061TIP3   OH269597   3.452   3.717   0.648 -0.0724  0.2653 -0.3052
16061TIP3    H169598   3.431   3.706   0.741  0.9892 -1.3047 -0.2183
16061TIP3    H269599   3.539   3.756   0.647  0.3205 -0.5895 -0.6104
16062TIP3   OH269600   3.633   2.819   3.902 -0.0243 -0.0015 -0.0951
16062TIP3    H169601   3.596   2.748   3.849  2.7845  0.0784 -2.4056
16062TIP3    H269602   3.585   2.814   3.985 -2.1058 -2.5299 -1.2942
16063TIP3   OH269603   6.601   5.937  16.655  0.3927 -0.0542  0.1341
16063TIP3    H169604   6.660   5.871  16.617  0.2323 -2.4177  3.5497
16063TIP3    H269605   6.657   5.987  16.715 -0.4153 -0.2629  1.0835
16064TIP3   OH269606   6.067   5.622  15.067  0.1685  0.2014  0.0343
16064TIP3    H169607   6.100   5.711  15.083  0.1540  0.1916  0.1171
16064TIP3    H269608   6.143   5.565  15.080 -0.1413  0.0695  1.3436
16065TIP3   OH269609   0.534   2.330   1.373 -0.1317  0.3516 -0.2759
16065TIP3    H169610   0.595   2.328   1.300  1.4121  0.8333  0.9345
16065TIP3    H269611   0.456   2.374   1.339  0.3750  0.1799 -1.7186
16066TIP3   OH269612   6.267   1.911  14.991 -0.2647 -0.0623 -0.4696
16066TIP3    H169613   6.251   2.004  14.975 -0.3565  0.0634  0.3074
16066TIP3    H269614   6.325   1.909  15.066 -1.3236 -0.6494  0.3646
16067TIP3   OH269615   2.040   4.248   0.271  0.0021 -0.3383  0.8914
16067TIP3    H169616   2.064   4.332   0.310 -0.1546 -0.8335  2.1158
16067TIP3    H269617   2.121   4.197   0.271 -0.1350 -0.5596  1.1533
16068TIP3   OH269618   6.627   3.346   1.798  0.1200 -0.3006  0.4959
16068TIP3    H169619   6.707   3.397   1.785 -0.9362  0.9423 -1.6845
16068TIP3    H269620   6.656   3.255   1.805  1.8378  0.3073  1.8138
16069TIP3   OH269621   6.170   3.114  13.965  0.5938  0.5010  0.2157
16069TIP3    H169622   6.164   3.026  14.002  2.5131  0.0798 -0.3417
16069TIP3    H269623   6.079   3.140  13.949 -0.0091 -1.3685  0.3914
16070TIP3   OH269624   0.841   4.494   5.204 -0.5079 -0.1108 -0.1978
16070TIP3    H169625   0.832   4.410   5.159  0.0430  0.1603 -0.8396
16070TIP3    H269626   0.931   4.493   5.239 -0.9606 -0.3614  1.0080
16071TIP3   OH269627   2.168   4.770   4.356  0.5155  0.3951 -0.1193
16071TIP3    H169628   2.194   4.729   4.273  0.2693  0.1941 -0.0992
16071TIP3    H269629   2.154   4.862   4.334 -0.3317  0.1861 -0.4741
16072TIP3   OH269630   6.799   0.976   0.947  0.1018  0.2156 -0.3836
16072TIP3    H169631   6.787   0.885   0.919 -0.5982 -0.6121  2.3388
16072TIP3    H269632   6.711   1.005   0.970  0.5315  1.0714  0.2193
16073TIP3   OH269633   1.123   4.740   0.529  0.0762  0.4987 -0.8129
16073TIP3    H169634   1.129   4.702   0.441  1.4001 -0.2087 -0.4505
16073TIP3    H269635   1.171   4.822   0.523 -1.2295  1.2600 -1.1388
16074TIP3   OH269636   5.198   0.778   0.411  0.1260 -0.1371  0.7641
16074TIP3    H169637   5.129   0.836   0.444 -0.1311  0.3731 -0.6177
16074TIP3    H269638   5.151   0.711   0.361  0.5560 -0.4610  0.7831
16075TIP3   OH269639   3.254   6.754  14.471  0.5311 -0.1491  0.3612
16075TIP3    H169640   3.187   6.692  14.500  0.3028 -0.2950 -0.4345
16075TIP3    H269641   3.326   6.699  14.441 -0.4408 -0.1681 -2.2247
16076TIP3   OH269642   3.414   5.995  13.774  0.3272 -0.2917 -0.3965
16076TIP3    H169643   3.492   6.020  13.723 -0.3782 -1.6885 -2.2676
16076TIP3    H269644   3.411   5.899  13.767 -1.0776 -0.3226  0.3817
16077TIP3   OH269645   2.536   0.487   3.293 -0.2668  0.7721 -0.3109
16077TIP3    H169646   2.562   0.409   3.245  1.5169 -0.0109  1.7689
16077TIP3    H269647   2.464   0.458   3.349 -0.8764  1.1420 -0.8777
16078TIP3   OH269648   5.851   3.771   6.560 -0.2055 -0.3888 -0.0213
16078TIP3    H169649   5.833   3.862   6.539  0.5459 -0.5853 -1.7185
16078TIP3    H269650   5.779   3.722   6.519 -0.4671 -0.5815  0.6593
16079TIP3   OH269651   4.017   2.466   5.552  0.0541  0.5675  0.1543
16079TIP3    H169652   4.074   2.436   5.481  0.2380 -0.3745  0.6909
16079TIP3    H269653   4.050   2.423   5.630 -3.2813 -2.7364  0.0465
16080TIP3   OH269654   1.745   6.491  10.658 -0.0560  0.2362  0.6835
16080TIP3    H169655   1.669   6.441  10.628 -0.0039  0.7826 -0.3735
16080TIP3    H269656   1.807   6.488  10.585  0.6141  0.4769  1.2309
16081TIP3   OH269657   6.585   2.799  13.094 -0.2153 -0.0000 -0.0991
16081TIP3    H169658   6.637   2.821  13.017 -0.9454  1.6495 -0.1644
16081TIP3    H269659   6.636   2.834  13.167  0.0205 -0.7189  0.0845
16082TIP3   OH269660   1.241   3.843  11.504 -0.3645 -0.2267 -0.0679
16082TIP3    H169661   1.255   3.927  11.548  0.7778 -0.2123 -0.4428
16082TIP3    H269662   1.210   3.785  11.574  0.3363  0.0968  0.5268
16083TIP3   OH269663   5.130   5.158  16.846 -0.4376  0.1950  0.2071
16083TIP3    H169664   5.152   5.068  16.823  0.7596  0.2527  1.0209
16083TIP3    H269665   5.099   5.153  16.936 -0.5470  0.5786  0.1925
16084TIP3   OH269666   1.768   5.094  15.906 -0.0200  0.3238 -0.4199
16084TIP3    H169667   1.732   5.005  15.910 -1.4116  0.8083 -1.1590
16084TIP3    H269668   1.849   5.090  15.956  0.3931 -1.5633 -1.1623
16085TIP3   OH269669   5.911   3.553  11.498 -0.4977  0.0080 -0.2871
16085TIP3    H169670   5.921   3.541  11.593  1.5751  2.4683 -0.0917
16085TIP3    H269671   5.816   3.554  11.484 -0.8780 -2.5847  1.3580
16086TIP3   OH269672   3.807   0.931  16.580 -0.0139 -0.3690 -0.2579
16086TIP3    H169673   3.764   0.858  16.625 -1.9819  2.2429  2.5983
16086TIP3    H269674   3.735   0.976  16.534  0.5137  1.2813  0.4301
16087TIP3   OH269675   6.428   2.089  12.719 -0.2676 -0.1793 -0.3182
16087TIP3    H169676   6.338   2.097  12.750 -0.5228 -1.2226 -0.7584
16087TIP3    H269677   6.457   2.004  12.752 -0.4607 -1.2174 -2.6330
16088TIP3   OH269678   4.470   3.401   1.302 -0.5779 -0.1490  0.4020
16088TIP3    H169679   4.475   3.364   1.390 -1.6380 -2.1107 -0.2831
16088TIP3    H269680   4.534   3.350   1.252 -2.3340 -1.4273 -0.6589
16089TIP3   OH269681   5.631   5.364   1.841 -0.0974  0.2074 -0.4696
16089TIP3    H169682   5.640   5.277   1.880 -1.5116 -0.7682 -2.1609
16089TIP3    H269683   5.553   5.401   1.883 -0.6102 -0.1370 -1.1066
16090TIP3   OH269684   0.027   2.298   1.551  0.4160 -0.0239  0.1479
16090TIP3    H169685   0.046   2.249   1.631  1.9180 -1.9338 -1.3046
16090TIP3    H269686   0.105   2.351   1.536 -0.5750  1.7537  0.8394
16091TIP3   OH269687   6.473   3.335  17.192 -0.2273 -0.4107 -0.1301
16091TIP3    H169688   6.540   3.336  17.261 -0.0171 -2.2862 -0.2567
16091TIP3    H269689   6.390   3.330  17.240 -0.2699  1.0830  0.0071
16092TIP3   OH269690   3.896   6.358   4.199 -0.2334 -0.5397  0.5325
16092TIP3    H169691   3.919   6.307   4.121 -1.3037  0.5660 -0.5701
16092TIP3    H269692   3.843   6.299   4.252 -2.4730 -0.2978 -1.2819
16093TIP3   OH269693   3.116   0.178  13.191 -0.5036  0.1359 -0.3391
16093TIP3    H169694   3.101   0.260  13.143 -0.5083 -0.1780 -0.8846
16093TIP3    H269695   3.085   0.110  13.131  3.8565 -0.7038 -2.0228
16094TIP3   OH269696   4.299   4.670  12.013 -0.4158  0.0788 -0.4871
16094TIP3    H169697   4.340   4.737  12.067  0.4397 -1.4801  0.8814
16094TIP3    H269698   4.336   4.683  11.925 -0.8884  1.8614 -0.4604
16095TIP3   OH269699   4.785   4.930   3.150 -0.3826  0.7015 -0.0898
16095TIP3    H169700   4.745   4.998   3.096 -0.8685  0.2080 -0.3595
16095TIP3    H269701   4.851   4.976   3.202 -0.4811  1.3199 -0.5060
16096TIP3   OH269702   3.751   1.047   2.978 -0.4054  0.2280  0.2867
16096TIP3    H169703   3.779   1.091   2.897 -0.1766  0.6129  0.5728
16096TIP3    H269704   3.687   0.981   2.949  0.8784 -0.7645 -0.3946
16097TIP3   OH269705   2.773   0.288   1.733 -0.3087 -0.3645 -0.1710
16097TIP3    H169706   2.819   0.205   1.742 -1.0483 -0.7836 -0.1590
16097TIP3    H269707   2.810   0.343   1.802  1.1248 -0.2252 -1.0151
16098TIP3   OH269708   3.536   2.673  15.981  0.3328 -0.2517 -0.5263
16098TIP3    H169709   3.527   2.768  15.982  1.5906 -0.1127  0.7853
16098TIP3    H269710   3.629   2.657  15.968  0.0675 -1.3324 -1.2648
16099TIP3   OH269711   6.581   0.719   4.823  0.0126 -0.1605  0.5205
16099TIP3    H169712   6.500   0.674   4.800  0.8485 -1.6551  0.3442
16099TIP3    H269713   6.618   0.746   4.739 -0.8942  1.6737  0.6693
16100TIP3   OH269714   3.145   5.864  11.031 -0.2676 -0.1189 -0.2450
16100TIP3    H169715   3.102   5.866  10.945  0.0285  0.7360 -0.3794
16100TIP3    H269716   3.099   5.795  11.079 -1.2138  0.1854 -0.6871
16101TIP3   OH269717   0.972   5.118  15.623  0.6024  0.1954  0.0593
16101TIP3    H169718   1.058   5.147  15.653 -0.0301  1.7973  0.4029
16101TIP3    H269719   0.966   5.149  15.533  0.2337  0.4378  0.1652
16102TIP3   OH269720   1.112   1.325   0.243 -0.2877 -0.7165  0.1401
16102TIP3    H169721   1.173   1.308   0.170  1.0981  1.6442  0.6466
16102TIP3    H269722   1.034   1.362   0.201  0.4783  0.5776 -0.2142
16103TIP3   OH269723   0.181   1.311  15.942 -0.4073  0.3547 -0.5216
16103TIP3    H169724   0.249   1.248  15.917 -1.3961 -0.3714 -1.4922
16103TIP3    H269725   0.105   1.286  15.889 -0.7228  2.6222 -1.2354
16104TIP3   OH269726   2.237   5.459  11.939 -0.2513  0.3051 -0.3074
16104TIP3    H169727   2.160   5.410  11.968 -0.3002  0.6877  0.2323
16104TIP3    H269728   2.204   5.519  11.872 -0.2527 -0.1549 -0.7258
16105TIP3   OH269729   2.221   2.098  16.929  0.7508  0.2313  0.0753
16105TIP3    H169730   2.125   2.107  16.930  0.5955 -1.1407 -0.3280
16105TIP3    H269731   2.243   2.067  17.017  0.9037  1.1101  0.3577
16106TIP3   OH269732   1.913   6.067   3.630 -0.0748  0.6523 -0.2416
16106TIP3    H169733   1.980   6.124   3.592  0.2578 -0.0276 -0.6966
16106TIP3    H269734   1.958   5.984   3.644 -0.2355  0.8137  1.4878
16107TIP3   OH269735   0.934   6.349  13.909 -0.2340  0.1691 -0.5174
16107TIP3    H169736   0.922   6.389  13.995  0.0789 -0.9094  0.0497
16107TIP3    H269737   1.026   6.321  13.908 -0.8234 -1.9500 -0.2399
16108TIP3   OH269738   0.998   4.611  14.476 -0.2436 -0.2482 -0.3914
16108TIP3    H169739   0.944   4.663  14.536  1.0161 -0.3685  0.9206
16108TIP3    H269740   1.011   4.528  14.523  1.8177  0.1244 -0.2459
16109TIP3   OH269741   4.287   3.004   0.924  0.1945  0.4365  0.4618
16109TIP3    H169742   4.207   2.969   0.885  0.6004  0.5939 -0.5461
16109TIP3    H269743   4.267   3.012   1.017 -0.4953 -0.8112  0.4426
16110TIP3   OH269744   4.612   0.796   6.196 -0.3504 -0.1597 -0.4036
16110TIP3    H169745   4.526   0.754   6.186 -0.4756 -0.1220  0.4179
16110TIP3    H269746   4.673   0.735   6.154 -0.0923 -2.7851  3.2596
16111TIP3   OH269747   3.989   1.405  15.769 -0.4498  0.1517 -0.0607
16111TIP3    H169748   4.036   1.419  15.687 -0.7432  0.7264 -0.1384
16111TIP3    H269749   4.056   1.407  15.836 -0.5073  2.9820  0.0447
16112TIP3   OH269750   2.579   6.230  13.601 -0.7001  0.0957  0.1607
16112TIP3    H169751   2.483   6.222  13.601 -0.8006  1.1888  0.2535
16112TIP3    H269752   2.601   6.242  13.693 -0.1387 -3.3951  0.6189
16113TIP3   OH269753   1.410   2.447   4.772 -0.7615  0.8120  0.3117
16113TIP3    H169754   1.370   2.368   4.807 -1.2139  0.2297 -1.4445
16113TIP3    H269755   1.342   2.486   4.717  0.2501  1.1337 -0.7432
16114TIP3   OH269756   2.324   3.744   2.107 -0.1775  0.2076  0.2602
16114TIP3    H169757   2.292   3.695   2.032  0.2174  1.5530 -0.8110
16114TIP3    H269758   2.253   3.740   2.171 -0.5034 -0.9726 -0.1514
16115TIP3   OH269759   5.606   5.846  14.607 -0.2616  0.2967  0.1322
16115TIP3    H169760   5.589   5.938  14.590 -1.3344  0.1804  0.4874
16115TIP3    H269761   5.689   5.828  14.564 -0.0142  1.4430  0.1107
16116TIP3   OH269762   5.775   5.146  14.525  0.0621 -0.3911  0.1455
16116TIP3    H169763   5.783   5.240  14.543 -2.4393 -0.4669  2.2715
16116TIP3    H269764   5.695   5.120  14.570  0.2435 -3.4240 -1.0566
16117TIP3   OH269765   1.550   5.609  16.406 -0.3239 -0.0633  0.2445
16117TIP3    H169766   1.585   5.557  16.478 -0.8707  0.7623  1.1324
16117TIP3    H269767   1.627   5.649  16.365  0.1281 -1.6684 -0.5814
16118TIP3   OH269768   2.483   6.172  12.229 -0.2359  0.7432 -0.5628
16118TIP3    H169769   2.482   6.266  12.212  0.6567  1.0999  1.1593
16118TIP3    H269770   2.498   6.133  12.143  5.4399  2.4718 -0.8011
16119TIP3   OH269771   2.709   5.234   5.489  0.2515  0.0845  0.0300
16119TIP3    H169772   2.800   5.208   5.476  0.1196 -0.8405  0.7640
16119TIP3    H269773   2.659   5.153   5.473 -0.3773  0.4121  0.3038
16120TIP3   OH269774   1.545   2.951   0.088 -0.2169 -0.0084  0.3154
16120TIP3    H169775   1.480   2.897   0.133 -0.7944  0.8867  0.5627
16120TIP3    H269776   1.581   3.008   0.156  0.9129 -0.5489  0.2065
16121TIP3   OH269777   0.242   6.352   0.588 -0.5272 -0.7537 -0.1358
16121TIP3    H169778   0.255   6.357   0.494  1.4981  0.9805  0.1452
16121TIP3    H269779   0.201   6.435   0.611  3.1986  0.9999  0.9340
16122TIP3   OH269780   4.820   3.153  14.491 -0.2596 -0.1432 -0.5694
16122TIP3    H169781   4.835   3.167  14.398 -2.8348  0.0048 -1.0290
16122TIP3    H269782   4.807   3.058  14.500  0.7901 -0.2625 -0.2056
16123TIP3   OH269783   5.481   2.026   2.829 -0.4552  0.3202 -0.6377
16123TIP3    H169784   5.391   2.051   2.849  0.0352  0.7600  1.1782
16123TIP3    H269785   5.513   1.986   2.910  1.1034  0.4976 -1.1438
16124TIP3   OH269786   4.951   3.026  14.707  0.3760  0.1669  0.4376
16124TIP3    H169787   4.937   3.092  14.640  1.4244 -1.9967 -2.0970
16124TIP3    H269788   5.038   3.045  14.743  0.6478  0.2235 -0.2391
16125TIP3   OH269789   6.623   1.116   4.025  0.2499  0.2574  0.3113
16125TIP3    H169790   6.702   1.152   4.066  0.3589 -0.0318  0.3620
16125TIP3    H269791   6.640   1.021   4.020 -0.8324 -0.0538  1.9601
16126TIP3   OH269792   1.022   3.934  14.019 -0.3517  0.5872 -0.4393
16126TIP3    H169793   0.953   3.980  14.068 -0.2442 -1.3202  1.6243
16126TIP3    H269794   1.101   3.987  14.033 -1.0015  1.8791 -1.4379
16127TIP3   OH269795   6.474   6.203   2.380 -0.3144 -0.2048  0.0982
16127TIP3    H169796   6.499   6.295   2.370  1.8644 -0.5969  1.2985
16127TIP3    H269797   6.381   6.205   2.402 -0.7223  1.5822 -1.5943
16128TIP3   OH269798   5.421   2.929   5.677 -0.4828 -0.3783  0.1918
16128TIP3    H169799   5.489   2.987   5.711 -0.7349 -0.0032  0.0567
16128TIP3    H269800   5.466   2.845   5.666 -0.1271 -0.2237  0.4252
16129TIP3   OH269801   3.539   3.815  11.483 -0.0829  0.1351  0.1884
16129TIP3    H169802   3.484   3.886  11.450  0.6038 -0.2171 -1.8570
16129TIP3    H269803   3.558   3.761  11.406  2.1560 -0.4012  1.0170
16130TIP3   OH269804   0.486   1.880   2.577  0.6442  0.0200  0.7056
16130TIP3    H169805   0.572   1.839   2.591  1.2295  1.5616  1.9669
16130TIP3    H269806   0.477   1.941   2.650 -1.2569  0.3707  0.2249
16131TIP3   OH269807   4.246   2.767   4.205  0.6452 -0.1515 -0.3253
16131TIP3    H169808   4.224   2.860   4.206  1.2093 -0.0249  0.6006
16131TIP3    H269809   4.167   2.723   4.236  0.2050 -0.0333 -1.2374
16132TIP3   OH269810   6.781   6.371  17.114 -0.0304  0.5244 -0.1773
16132TIP3    H169811   6.792   6.276  17.107 -1.0646  0.3928 -0.1356
16132TIP3    H269812   6.799   6.403  17.025  1.2194  0.3995  0.0165
16133TIP3   OH269813   2.223   5.944  11.232 -0.6378  0.2138  0.0256
16133TIP3    H169814   2.204   5.850  11.240 -1.2732  0.4763  2.3302
16133TIP3    H269815   2.318   5.950  11.245 -0.7252 -0.0295  0.7936
16134TIP3   OH269816   2.510   5.707   1.523 -0.5076 -0.2987  0.0806
16134TIP3    H169817   2.602   5.734   1.520 -0.8245  1.1221  1.6792
16134TIP3    H269818   2.510   5.619   1.485  1.0646  0.6980 -2.5026
16135TIP3   OH269819   6.115   1.404   1.180  0.1901 -0.1499 -0.1490
16135TIP3    H169820   6.098   1.310   1.182 -0.0770 -0.1045 -0.2731
16135TIP3    H269821   6.031   1.443   1.154  0.0768  0.1765  0.6825
16136TIP3   OH269822   6.250   4.737  11.838 -0.0417  0.1863  0.1203
16136TIP3    H169823   6.178   4.800  11.831  0.9204  1.2315 -0.8922
16136TIP3    H269824   6.232   4.672  11.771 -0.6352 -0.2142  0.6524
16137TIP3   OH269825   3.578   3.024  13.978 -0.7332  0.1529  0.4446
16137TIP3    H169826   3.527   3.062  13.906 -1.8586  0.8160  1.5549
16137TIP3    H269827   3.556   3.078  14.054  1.9578  0.7228  0.9246
16138TIP3   OH269828   0.485   4.351   0.948 -0.4612 -0.7520 -0.0425
16138TIP3    H169829   0.472   4.345   0.854 -1.4546  0.9520 -0.0670
16138TIP3    H269830   0.557   4.291   0.967 -1.0265 -2.0208 -1.6922
16139TIP3   OH269831   0.710   2.165  14.187 -0.0233 -0.3463  0.2969
16139TIP3    H169832   0.730   2.255  14.214 -1.9586  0.6938 -1.4906
16139TIP3    H269833   0.704   2.170  14.092 -1.2887 -2.1220  0.2462
16140TIP3   OH269834   5.535   4.516  12.640  0.0254  0.0814  0.4531
16140TIP3    H169835   5.558   4.598  12.596  1.4294  0.3335  1.5541
16140TIP3    H269836   5.563   4.447  12.579 -2.7818  0.3465 -1.2625
16141TIP3   OH269837   1.092   5.956   4.008 -0.2289 -0.1794  0.1121
16141TIP3    H169838   1.174   5.907   4.011 -0.3281 -0.5991 -2.2935
16141TIP3    H269839   1.115   6.038   3.965 -0.7505  0.4382  0.9951
16142TIP3   OH269840   4.450   2.186   0.478  0.4563 -0.4125 -0.0256
16142TIP3    H169841   4.435   2.152   0.566 -2.7685 -1.7231 -0.9227
16142TIP3    H269842   4.499   2.267   0.491 -0.4442 -0.2408  3.0113
16143TIP3   OH269843   4.854   3.503  11.360  0.0587  0.8726  0.1453
16143TIP3    H169844   4.870   3.593  11.388  1.7014  1.1832 -1.5785
16143TIP3    H269845   4.923   3.452  11.402 -0.8466  0.4021  1.0880
16144TIP3   OH269846   4.287   6.728  11.854 -0.1642  0.5540 -0.2292
16144TIP3    H169847   4.235   6.808  11.866 -0.4216  0.6014 -1.4913
16144TIP3    H269848   4.377   6.759  11.843 -0.2214  0.6489 -0.4278
16145TIP3   OH269849   0.007   3.871   2.372  0.2793 -0.2824 -0.2422
16145TIP3    H169850   0.027   3.796   2.318  1.0355 -0.7612  0.6729
16145TIP3    H269851   0.016   3.946   2.313 -1.5846 -0.9485 -1.4536
16146TIP3   OH269852   3.512   3.016  16.585 -0.0945 -0.2006  0.7301
16146TIP3    H169853   3.589   3.073  16.592  0.6586 -1.0752 -0.0150
16146TIP3    H269854   3.456   3.059  16.521  0.9247 -0.7384 -0.5934
16147TIP3   OH269855   3.358   5.437  13.387  0.5276  0.3280  0.6751
16147TIP3    H169856   3.271   5.442  13.348  0.1033  1.6894  1.7056
16147TIP3    H269857   3.419   5.456  13.315  0.0348 -1.2383 -0.1891
16148TIP3   OH269858   3.813   1.476  15.387 -0.4574  0.0853 -0.3077
16148TIP3    H169859   3.750   1.467  15.315  1.2290  1.2192 -2.0022
16148TIP3    H269860   3.794   1.563  15.424 -0.7996 -0.1666  0.1192
16149TIP3   OH269861   0.340   1.447   2.250  0.2918 -0.0186 -0.1703
16149TIP3    H169862   0.312   1.382   2.186 -0.6112 -0.1085  0.3017
16149TIP3    H269863   0.266   1.507   2.257  0.8731  0.6998 -0.1323
16150TIP3   OH269864   0.250   2.477   5.085 -0.3790  0.2337 -0.0504
16150TIP3    H169865   0.282   2.527   5.161 -0.8351  0.7060 -0.1606
16150TIP3    H269866   0.155   2.475   5.097 -0.3222 -1.1178  0.2571
16151TIP3   OH269867   0.043   0.767  12.375 -0.0521 -0.7500  0.3535
16151TIP3    H169868  -0.024   0.726  12.320 -0.0005 -0.2928 -0.0508
16151TIP3    H269869   0.114   0.787  12.315 -0.2481  0.3376  0.4647
16152TIP3   OH269870   2.131   0.957   1.525  0.3554 -0.0591  0.2771
16152TIP3    H169871   2.212   0.962   1.576 -0.0630  0.5484  0.8993
16152TIP3    H269872   2.135   1.034   1.467 -0.6864  1.1484  1.7181
16153TIP3   OH269873   1.817   5.682   2.893 -0.1922 -0.2662  0.0180
16153TIP3    H169874   1.767   5.600   2.889  1.6033 -1.4947  1.2239
16153TIP3    H269875   1.780   5.728   2.968 -1.7443  0.4598 -1.1349
16154TIP3   OH269876   0.224   2.050  12.863 -0.2378 -0.2905  0.0988
16154TIP3    H169877   0.241   2.125  12.919  0.5707 -1.0994  0.9677
16154TIP3    H269878   0.300   1.993  12.874 -1.2781 -1.7157  0.2668
16155TIP3   OH269879   0.890   1.773  17.024  0.2211 -0.7331 -0.2488
16155TIP3    H169880   0.808   1.767  16.975  0.6247 -0.8563 -0.9357
16155TIP3    H269881   0.955   1.798  16.957  0.7318 -0.6000  0.2890
16156TIP3   OH269882   5.877   2.953  14.518 -0.1412 -0.2653  0.0891
16156TIP3    H169883   5.935   2.878  14.515  2.2921  1.4943  0.2067
16156TIP3    H269884   5.882   2.991  14.430 -0.1754  0.5555  0.4301
16157TIP3   OH269885   3.499   4.546   0.924 -0.5593 -0.2503  0.1793
16157TIP3    H169886   3.529   4.546   1.015 -0.5047 -3.7426  0.2962
16157TIP3    H269887   3.417   4.594   0.925  0.6604  1.9462  1.5323
16158TIP3   OH269888   6.391   5.973   1.719 -0.2451 -0.8143  0.5989
16158TIP3    H169889   6.446   5.950   1.644 -0.8605 -1.5571  0.3637
16158TIP3    H269890   6.370   5.889   1.760 -0.7109 -0.4888  1.0426
16159TIP3   OH269891   2.803   5.833  12.662 -0.1250 -0.1919 -0.2215
16159TIP3    H169892   2.789   5.741  12.638  2.0267 -0.6622  0.1453
16159TIP3    H269893   2.734   5.880  12.615 -0.9388 -1.9250 -0.8599
16160TIP3   OH269894   3.442   3.425  12.652 -0.0593  0.3623  0.1281
16160TIP3    H169895   3.489   3.385  12.580  0.3397 -1.0385  1.1094
16160TIP3    H269896   3.370   3.473  12.611  0.2165 -0.3157 -1.1865
16161TIP3   OH269897   3.913   5.816  14.160  0.1353 -0.1359  0.4251
16161TIP3    H169898   3.871   5.840  14.243  0.5325  0.5518  0.4273
16161TIP3    H269899   4.007   5.825  14.176  0.1700  1.7019 -0.6044
16162TIP3   OH269900   1.614   5.855  14.868 -0.1012 -0.0497  0.3117
16162TIP3    H169901   1.635   5.763  14.880  1.4719  0.0434 -1.3635
16162TIP3    H269902   1.519   5.856  14.854 -0.2342 -1.3173  1.0303
16163TIP3   OH269903   4.792   0.093  13.393  0.5023 -0.1285  0.4362
16163TIP3    H169904   4.779   0.004  13.361  1.5768 -0.2302  0.2235
16163TIP3    H269905   4.820   0.082  13.484  0.5848 -0.0045  0.4255
16164TIP3   OH269906   2.250   4.601   4.100  0.2731  0.3831  0.0311
16164TIP3    H169907   2.165   4.637   4.073  0.8607  0.7836 -1.3946
16164TIP3    H269908   2.314   4.644   4.042  1.6479  1.2107  2.0576
16165TIP3   OH269909   2.830   6.253  12.107  0.3054  0.3476  0.3251
16165TIP3    H169910   2.797   6.341  12.094  2.1613  1.3416  1.7497
16165TIP3    H269911   2.792   6.225  12.191  1.5711  0.8034  1.0849
16166TIP3   OH269912   1.920   2.239  13.234  0.3041 -0.2188 -0.0058
16166TIP3    H169913   1.890   2.197  13.315  0.5638 -0.4848 -0.0459
16166TIP3    H269914   1.944   2.328  13.261  0.3776 -0.3028  0.2085
16167TIP3   OH269915   2.907   5.196  12.095 -0.4008 -0.1035 -0.4946
16167TIP3    H169916   2.833   5.191  12.035  0.0842  0.7974 -1.1964
16167TIP3    H269917   2.969   5.255  12.052  0.5433 -0.4979  0.2711
16168TIP3   OH269918   1.307   3.834   0.755  0.3119 -0.3682 -0.2796
16168TIP3    H169919   1.311   3.745   0.790  0.6339 -0.5873 -0.8573
16168TIP3    H269920   1.398   3.863   0.750  0.6049 -1.4331 -3.6082
16169TIP3   OH269921   5.001   0.558  16.093 -0.6624  0.1352  0.8567
16169TIP3    H169922   4.966   0.644  16.068  0.0751  0.7023  1.6983
16169TIP3    H269923   4.924   0.501  16.096 -1.3265  1.0217  1.3356
16170TIP3   OH269924   3.453   3.309   5.467 -0.0921 -0.3802 -0.0846
16170TIP3    H169925   3.492   3.364   5.534 -2.4250  0.3229  0.8109
16170TIP3    H269926   3.500   3.225   5.475 -0.0533 -0.2183  2.2220
16171TIP3   OH269927   2.366   3.034  13.119 -0.4095 -0.1943  0.1708
16171TIP3    H169928   2.450   2.989  13.114  0.2213  1.0128 -1.3049
16171TIP3    H269929   2.301   2.964  13.114  0.5066 -1.1032  0.5684
16172TIP3   OH269930   0.581   6.033   1.279  0.6156 -0.0631 -0.1236
16172TIP3    H169931   0.669   6.013   1.311  0.2802 -1.3276  0.0425
16172TIP3    H269932   0.581   6.128   1.268  3.0866 -0.2545 -3.2224
16173TIP3   OH269933   5.516   5.763   1.151  0.3702 -0.4879 -0.3558
16173TIP3    H169934   5.523   5.818   1.229 -0.1180  1.3061 -1.4981
16173TIP3    H269935   5.605   5.758   1.117  0.1715  1.2282 -1.2460
16174TIP3   OH269936   4.644   3.794  10.942 -0.4446  0.2159 -0.3195
16174TIP3    H169937   4.672   3.706  10.917 -1.7824 -0.3374  0.0620
16174TIP3    H269938   4.549   3.788  10.950 -0.4577  1.3980  0.8443
16175TIP3   OH269939   5.202   6.497  17.173  0.1231  0.0693  0.3728
16175TIP3    H169940   5.234   6.416  17.135 -0.9516  0.7782 -2.2534
16175TIP3    H269941   5.129   6.469  17.230  1.2179 -0.9451  1.3363
16176TIP3   OH269942   1.853   6.443  11.555  0.6689  0.0651  0.1815
16176TIP3    H169943   1.763   6.476  11.557 -0.3350 -2.3863 -0.8948
16176TIP3    H269944   1.888   6.474  11.471  1.4809  2.4081  1.3018
16177TIP3   OH269945   6.555   2.234   0.992  0.5382  0.1722  0.1600
16177TIP3    H169946   6.573   2.318   0.951 -0.3551 -0.6660 -2.0842
16177TIP3    H269947   6.482   2.252   1.052 -0.7008  0.7365 -1.4536
16178TIP3   OH269948   6.244   1.052  17.079 -0.1459  0.6452 -0.2164
16178TIP3    H169949   6.264   1.145  17.072  1.5508  0.4065  0.8895
16178TIP3    H269950   6.232   1.023  16.989  0.5797  1.6742 -0.6631
16179TIP3   OH269951   4.576   0.798   3.883 -0.4131  0.1743 -0.5101
16179TIP3    H169952   4.514   0.860   3.922 -0.3538  0.1197 -0.3289
16179TIP3    H269953   4.550   0.793   3.791  1.3033  2.6240 -1.2043
16180TIP3   OH269954   3.476   1.580   4.494  0.4813  0.0838  0.5194
16180TIP3    H169955   3.474   1.497   4.446 -0.8194 -1.2321  2.6575
16180TIP3    H269956   3.390   1.619   4.478 -0.2056 -0.6629  2.1418
16181TIP3   OH269957   5.500   0.294   4.087  0.0527 -0.3328 -0.5488
16181TIP3    H169958   5.410   0.275   4.116 -0.2988  2.3382  0.4327
16181TIP3    H269959   5.551   0.218   4.115 -1.4529 -0.7204  1.3642
16182TIP3   OH269960   6.278   0.330   0.420 -0.2469 -0.0030 -0.8470
16182TIP3    H169961   6.356   0.275   0.414 -0.6268 -0.4425 -1.9367
16182TIP3    H269962   6.306   0.407   0.468  1.4674  0.9126 -3.1729
16183TIP3   OH269963   5.212   0.653   3.640  1.0428 -0.0567  0.0829
16183TIP3    H169964   5.154   0.728   3.626 -0.0981 -0.6352  1.4774
16183TIP3    H269965   5.295   0.692   3.667  0.1520  0.7308  1.8917
16184TIP3   OH269966   0.045   6.306  11.430 -0.4356 -0.1106 -0.0854
16184TIP3    H169967  -0.022   6.251  11.471 -1.4642  0.8599 -0.3898
16184TIP3    H269968   0.124   6.290  11.481 -1.5328  0.6669  1.9894
16185TIP3   OH269969   5.250   2.269  16.338  0.1566 -0.1614  0.0354
16185TIP3    H169970   5.329   2.254  16.287 -0.2242 -0.0801 -0.5932
16185TIP3    H269971   5.179   2.233  16.284 -0.1437 -1.0446  0.9765
16186TIP3   OH269972   1.755   3.412  15.379 -0.3688  0.1718  0.5342
16186TIP3    H169973   1.735   3.415  15.285  0.7085 -1.7258  0.1868
16186TIP3    H269974   1.801   3.493  15.397 -0.8835  0.7145 -0.4976
16187TIP3   OH269975   1.282   0.495   2.086 -0.4392 -0.5500  0.3460
16187TIP3    H169976   1.349   0.482   2.018  0.6985 -0.9455  1.4918
16187TIP3    H269977   1.276   0.409   2.129 -1.2410 -0.3365  0.6625
16188TIP3   OH269978   5.847   5.332   1.187  0.1484 -0.2113  0.4680
16188TIP3    H169979   5.903   5.401   1.153  0.2214 -0.3438  0.3203
16188TIP3    H269980   5.907   5.265   1.219  0.1030  0.3245  1.7387
16189TIP3   OH269981   6.787   0.366   2.223 -0.3499  0.0281 -0.3939
16189TIP3    H169982   6.881   0.352   2.231 -0.2107  0.5045 -1.2152
16189TIP3    H269983   6.749   0.299   2.281  0.5223  0.9260  1.3022
16190TIP3   OH269984   2.416   3.591  16.477  0.7241  0.8297  0.0275
16190TIP3    H169985   2.359   3.623  16.547  0.9270  0.2853  0.4484
16190TIP3    H269986   2.362   3.598  16.398  0.2229  0.7273  0.3523
16191TIP3   OH269987   3.609   2.233   1.844 -0.1084 -0.0893  0.4380
16191TIP3    H169988   3.612   2.150   1.892  1.0197 -0.9852 -1.1108
16191TIP3    H269989   3.521   2.235   1.805 -1.2081  0.8520  2.7647
16192TIP3   OH269990   2.314   3.601  12.009 -0.2833 -0.1299  0.1306
16192TIP3    H169991   2.405   3.574  12.000 -0.4338 -0.3266 -0.9178
16192TIP3    H269992   2.316   3.696  11.999 -0.1043 -0.0359  0.9559
16193TIP3   OH269993   1.567   4.685  16.251  0.2454  0.3969  0.3322
16193TIP3    H169994   1.522   4.768  16.237 -1.1094 -0.4114 -0.3057
16193TIP3    H269995   1.584   4.652  16.163  0.8891  0.0456  0.5772
16194TIP3   OH269996   4.493   6.095   4.095  0.2420 -0.4145  0.2739
16194TIP3    H169997   4.556   6.030   4.127 -0.5201 -0.3294  2.0442
16194TIP3    H269998   4.546   6.173   4.080  0.8344 -0.8469  0.0391
16195TIP3   OH269999   1.540   5.384   0.210  0.4176 -0.1460 -0.8144
16195TIP3    H170000   1.635   5.394   0.219  0.3124 -0.7407  1.6246
16195TIP3    H270001   1.523   5.293   0.235 -1.0306  0.7267  1.7678
16196TIP3   OH270002   6.705   3.110   5.603  0.4853 -0.6582  0.0396
16196TIP3    H170003   6.787   3.082   5.643  0.6146 -1.1010 -0.5121
16196TIP3    H270004   6.719   3.203   5.583  0.5728 -0.5454  0.6286
16197TIP3   OH270005   3.818   1.876  12.406  0.5697 -0.2770 -0.0714
16197TIP3    H170006   3.863   1.869  12.322  2.1427  0.7623  0.6239
16197TIP3    H270007   3.887   1.904  12.467 -0.8852  0.6135  1.2242
16198TIP3   OH270008   6.348   1.843  11.904 -0.1065 -0.1331 -0.0678
16198TIP3    H170009   6.297   1.785  11.960 -1.7097  0.4458 -0.8387
16198TIP3    H270010   6.352   1.926  11.953  0.2110 -0.2146  0.0462
16199TIP3   OH270011   6.328   2.692   5.098  0.6207  0.1892 -0.0032
16199TIP3    H170012   6.327   2.745   5.178 -0.2993 -0.8526  0.6953
16199TIP3    H270013   6.419   2.663   5.089  0.8588  0.8248  0.3052
16200TIP3   OH270014   5.878   1.752   4.981  0.2464 -0.4817  0.4418
16200TIP3    H170015   5.899   1.674   4.931  1.8677  0.1882 -0.0058
16200TIP3    H270016   5.790   1.776   4.952 -0.0512 -1.8136  0.1819
16201TIP3   OH270017   5.131   2.293  16.591  0.3974  0.3164 -0.0117
16201TIP3    H170018   5.169   2.308  16.505 -0.5536 -0.1294 -0.5273
16201TIP3    H270019   5.182   2.349  16.650  1.9939 -0.4581 -0.6077
16202TIP3   OH270020   5.817   4.790  13.424 -0.0804  0.8517  0.1256
16202TIP3    H170021   5.796   4.881  13.399  1.0849  0.3393 -3.1773
16202TIP3    H270022   5.743   4.739  13.391  0.4544  0.3548 -0.3193
16203TIP3   OH270023   3.549   3.716  12.705 -0.6884 -0.2118 -0.0462
16203TIP3    H170024   3.528   3.750  12.619  0.2701 -0.4768 -0.3901
16203TIP3    H270025   3.543   3.621  12.696  2.0761 -0.4150 -0.5835
16204TIP3   OH270026   2.367   1.399   1.447 -0.3784 -0.6350 -0.1876
16204TIP3    H170027   2.396   1.335   1.512 -1.8965 -1.8669 -0.6954
16204TIP3    H270028   2.413   1.375   1.367  3.7775  2.5751  0.8635
16205TIP3   OH270029   0.189   1.554  11.362 -0.2506 -0.1435 -0.0561
16205TIP3    H170030   0.279   1.531  11.385 -1.0729 -2.6145  1.0434
16205TIP3    H270031   0.193   1.573  11.268  1.5952  1.0862  0.2009
16206TIP3   OH270032   6.372   3.938  11.559  0.1961  0.6733 -0.4322
16206TIP3    H170033   6.326   3.924  11.642  0.2798 -1.8289 -0.7186
16206TIP3    H270034   6.458   3.971  11.584  0.2923 -0.2359  0.5217
16207TIP3   OH270035   1.161   3.716  14.128 -0.5201 -0.0640  0.2751
16207TIP3    H170036   1.130   3.807  14.132  1.0039  0.4497  1.2887
16207TIP3    H270037   1.254   3.724  14.106 -0.6863 -1.4719 -1.0839
16208TIP3   OH270038   6.525   1.275  14.379 -0.8182  0.3707  0.0370
16208TIP3    H170039   6.603   1.234  14.342 -1.2411 -0.2741 -0.1539
16208TIP3    H270040   6.517   1.236  14.466 -1.0388  0.2835 -0.0217
16209TIP3   OH270041   2.709   3.943   3.298  0.0100  0.4862  0.0731
16209TIP3    H170042   2.790   3.990   3.280 -0.6842  1.1957 -1.4011
16209TIP3    H270043   2.715   3.920   3.391  2.0146  0.2301 -0.0787
16210TIP3   OH270044   0.792   2.835   3.851 -0.6981  0.4447  0.0032
16210TIP3    H170045   0.808   2.922   3.885 -0.6658 -0.0012  1.1842
16210TIP3    H270046   0.865   2.817   3.792 -1.2639  1.6119 -1.1052
16211TIP3   OH270047   6.721   1.077   3.025  1.0218 -1.0636 -0.0381
16211TIP3    H170048   6.816   1.074   3.028  1.1217  1.0891  0.5025
16211TIP3    H270049   6.699   1.169   3.042 -1.2005 -1.7288  1.0802
16212TIP3   OH270050   1.627   1.449  17.021 -0.6577 -0.2456  0.4521
16212TIP3    H170051   1.696   1.386  17.042 -0.3913 -0.1147 -0.0104
16212TIP3    H270052   1.669   1.511  16.961 -1.1443 -0.0971  0.2627
16213TIP3   OH270053   0.810   5.135   0.966  0.2919  0.7498 -0.1238
16213TIP3    H170054   0.776   5.060   0.916  0.2535  0.4904  0.2845
16213TIP3    H270055   0.825   5.100   1.054 -2.2570  1.8232  0.8422
16214TIP3   OH270056   4.155   2.298  11.855  0.2631 -0.9676 -0.1012
16214TIP3    H170057   4.178   2.252  11.775 -1.8258 -0.0718 -1.3088
16214TIP3    H270058   4.103   2.236  11.905 -0.5655 -0.7165 -0.6363
16215TIP3   OH270059   5.914   3.300   4.141  0.2479 -0.1693 -0.4352
16215TIP3    H170060   6.003   3.268   4.152 -0.1619 -0.7468  1.8894
16215TIP3    H270061   5.871   3.281   4.225 -2.6004 -1.5406 -2.0237
16216TIP3   OH270062   5.589   3.793  13.232  0.4824  0.0038 -0.0172
16216TIP3    H170063   5.553   3.765  13.317  0.2136 -1.4342 -0.5816
16216TIP3    H270064   5.656   3.727  13.212  2.4113  1.7519  0.2653
16217TIP3   OH270065   3.048   5.452   3.728  0.0699 -0.8091  0.3503
16217TIP3    H170066   3.106   5.378   3.740 -0.7979 -1.6439 -0.3738
16217TIP3    H270067   3.009   5.438   3.641  1.5568  1.6727 -0.8317
16218TIP3   OH270068   1.738   6.734   0.076 -0.0438 -0.1005  0.0910
16218TIP3    H170069   1.749   6.730  -0.019  1.4715  0.6952  0.2046
16218TIP3    H270070   1.811   6.682   0.111  0.3430  0.9060  0.8255
16219TIP3   OH270071   4.402   2.376  14.737 -0.0334 -0.3253 -0.1553
16219TIP3    H170072   4.481   2.322  14.727  1.4146  1.6379  0.2371
16219TIP3    H270073   4.378   2.400  14.648  1.6000  1.4701 -0.1688
16220TIP3   OH270074   5.511   3.003  15.733  0.3357 -0.9421 -0.2654
16220TIP3    H170075   5.429   2.955  15.729 -0.3663  0.2793 -1.3098
16220TIP3    H270076   5.539   2.996  15.824 -0.0351 -2.7828 -0.2617
16221TIP3   OH270077   4.933   5.880  14.932  0.0357  0.2966 -0.3716
16221TIP3    H170078   4.926   5.959  14.987  0.8548 -0.0184  0.2196
16221TIP3    H270079   4.843   5.850  14.921 -0.1209 -0.1757  1.6479
16222TIP3   OH270080   2.562   3.114   3.756 -0.0652  0.2493 -0.6372
16222TIP3    H170081   2.588   3.190   3.808  3.3683  0.2479 -2.0674
16222TIP3    H270082   2.612   3.041   3.792  0.9380 -0.1302 -2.6448
16223TIP3   OH270083   5.274   0.647  14.130 -0.1004 -0.2943 -0.0130
16223TIP3    H170084   5.290   0.740  14.148  2.0522 -0.4848 -0.6243
16223TIP3    H270085   5.217   0.618  14.201 -0.6090  1.4168  0.3280
16224TIP3   OH270086   6.365   5.723   2.260 -0.5867  0.0755 -0.1211
16224TIP3    H170087   6.316   5.806   2.260  0.2057  0.5884 -1.4568
16224TIP3    H270088   6.457   5.750   2.261 -0.2960 -0.8508  1.4705
16225TIP3   OH270089   0.045   5.010  16.118  0.0763  0.2665 -0.2301
16225TIP3    H170090   0.055   5.091  16.168  0.6174  0.8728 -1.2955
16225TIP3    H270091   0.132   4.993  16.082  0.4666 -1.8210  1.4725
16226TIP3   OH270092   1.504   2.014  10.382 -0.0750 -0.2868  0.0318
16226TIP3    H170093   1.421   2.058  10.362  0.5813  0.6545 -0.7351
16226TIP3    H270094   1.569   2.084  10.377  0.3826 -0.1829  4.1857
16227TIP3   OH270095   4.516   1.404   0.665  0.0936 -0.2383  0.1419
16227TIP3    H170096   4.558   1.396   0.751 -0.2676  0.6300  0.4102
16227TIP3    H270097   4.554   1.483   0.627 -0.7174  0.1322  0.0691
16228TIP3   OH270098   2.262   1.438  16.153 -0.3973 -0.1966 -0.0367
16228TIP3    H170099   2.192   1.464  16.212 -0.0368 -1.9827  1.2427
16228TIP3    H270100   2.235   1.353  16.119  0.3602 -0.1166 -0.8865
16229TIP3   OH270101   5.683   1.716   1.674 -0.0038 -0.0604 -0.1033
16229TIP3    H170102   5.762   1.752   1.635 -0.2571  0.1006 -0.4767
16229TIP3    H270103   5.673   1.630   1.634 -1.1209  0.7267 -1.6114
16230TIP3   OH270104   2.767   5.994  16.220  0.6303 -0.0489 -0.7642
16230TIP3    H170105   2.854   6.033  16.233  0.0661  0.8833  0.4325
16230TIP3    H270106   2.741   5.966  16.308  0.2246 -1.4665 -1.3124
16231TIP3   OH270107   3.248   2.538  12.181 -0.1469  0.6029  0.1638
16231TIP3    H170108   3.258   2.453  12.224  0.3849 -0.2003 -1.4610
16231TIP3    H270109   3.315   2.593  12.220  0.4669 -0.1661  0.2119
16232TIP3   OH270110   0.075   2.952   3.498  0.7036  0.1326 -0.0421
16232TIP3    H170111   0.052   2.973   3.588  0.6728  0.8473 -0.2030
16232TIP3    H270112   0.007   2.995   3.446  0.8852 -0.0244 -0.4146
16233TIP3   OH270113   3.354   4.286  13.984 -0.5912 -0.2115  0.3586
16233TIP3    H170114   3.364   4.227  13.909  1.2304 -0.6115  0.8915
16233TIP3    H270115   3.260   4.303  13.987 -0.6569  0.6647 -2.6707
16234TIP3   OH270116   3.290   0.597  16.672  0.3242  0.3628  0.1473
16234TIP3    H170117   3.306   0.688  16.698  0.7247 -0.0294  1.3214
16234TIP3    H270118   3.377   0.558  16.666  0.2613  0.4094 -1.8082
16235TIP3   OH270119   6.411   2.689  16.404 -0.0666 -0.4671 -0.3082
16235TIP3    H170120   6.361   2.730  16.475  0.5373 -0.1627 -0.0527
16235TIP3    H270121   6.384   2.736  16.325  1.7876  1.5604  0.1736
16236TIP3   OH270122   4.375   2.921   2.430  0.4569  0.0359 -0.2991
16236TIP3    H170123   4.335   2.977   2.496 -0.6822 -0.1961 -0.7780
16236TIP3    H270124   4.367   2.832   2.465  2.8079  0.1459  0.7484
16237TIP3   OH270125   2.011   3.052   0.721  0.7381  0.4034 -0.2986
16237TIP3    H170126   1.998   3.115   0.650  0.5931  0.3056 -0.3593
16237TIP3    H270127   1.937   3.067   0.780  1.1360  0.8314  0.0901
16238TIP3   OH270128   3.175   6.547  12.925  0.0408 -0.4683 -0.0184
16238TIP3    H170129   3.207   6.627  12.884  0.8353 -0.5693  0.3819
16238TIP3    H270130   3.098   6.522  12.873  0.5695 -0.1724 -0.9625
16239TIP3   OH270131   4.270   0.089  16.873  0.0711  0.7708 -0.3852
16239TIP3    H170132   4.284   0.119  16.783  0.2582  0.4430 -0.4647
16239TIP3    H270133   4.185   0.047  16.871  0.4860 -0.0717 -0.6272
16240TIP3   OH270134   4.624   5.162   3.234 -0.3018  0.0765 -0.0918
16240TIP3    H170135   4.528   5.165   3.237 -0.4114  1.7288 -2.3071
16240TIP3    H270136   4.647   5.225   3.165  2.2689 -1.7109 -1.0007
16241TIP3   OH270137   3.101   5.226  11.182  0.1407 -0.5221 -0.2592
16241TIP3    H170138   3.191   5.248  11.160  0.4270 -0.5236  0.8390
16241TIP3    H270139   3.060   5.204  11.098  0.9519  0.1976 -0.8570
16242TIP3   OH270140   1.436   1.804   6.717  0.2476  0.0320 -0.2649
16242TIP3    H170141   1.341   1.814   6.724  0.0624  0.0094 -2.1901
16242TIP3    H270142   1.447   1.734   6.653  1.5581  1.1493 -1.3147
16243TIP3   OH270143   1.336   4.423   4.948 -0.3611  0.9872 -0.0108
16243TIP3    H170144   1.246   4.457   4.944 -0.6928  0.0386 -1.1613
16243TIP3    H270145   1.349   4.400   5.040 -1.3841  0.9011  0.1249
16244TIP3   OH270146   4.487   3.627  13.458  0.3600  0.2336  0.7731
16244TIP3    H170147   4.474   3.572  13.535 -0.9782 -0.8421 -0.1683
16244TIP3    H270148   4.576   3.661  13.467  0.5881 -0.6857  2.2643
16245TIP3   OH270149   0.368   3.125  17.067  0.2580  0.0885 -0.2149
16245TIP3    H170150   0.391   3.200  17.122 -0.0927 -0.6408  0.9555
16245TIP3    H270151   0.319   3.164  16.994 -0.5552  0.9461  0.7477
16246TIP3   OH270152   6.754   4.589   1.528 -0.5482  0.3240  0.4083
16246TIP3    H170153   6.740   4.642   1.607  2.4862 -0.1220  1.3538
16246TIP3    H270154   6.733   4.648   1.456 -2.1351  1.1554  1.4716
16247TIP3   OH270155   5.130   6.351   5.306 -0.1808 -0.0975  0.6716
16247TIP3    H170156   5.181   6.278   5.272 -0.9087  0.6117 -2.2671
16247TIP3    H270157   5.193   6.407   5.351  0.6949 -1.6285  1.3983
16248TIP3   OH270158   6.307   4.601  13.463  0.3812  0.3233  0.5898
16248TIP3    H170159   6.231   4.568  13.512  0.1812  0.9821  0.7217
16248TIP3    H270160   6.345   4.522  13.424 -0.9746  0.0979 -0.3506
16249TIP3   OH270161   2.559   3.341  15.395 -0.6089  0.4139 -0.1352
16249TIP3    H170162   2.605   3.304  15.319 -1.3951  1.3014 -1.0747
16249TIP3    H270163   2.623   3.337  15.466 -0.0183 -0.8894 -0.7008
16250TIP3   OH270164   5.881   2.193  13.784  0.3228  0.2527 -0.1161
16250TIP3    H170165   5.972   2.166  13.768 -0.3514 -1.5199 -1.3531
16250TIP3    H270166   5.857   2.150  13.866 -0.0957 -1.3359 -1.0217
16251TIP3   OH270167   0.628   2.605   3.761 -0.2890 -0.3736 -0.2321
16251TIP3    H170168   0.550   2.629   3.711 -0.9405 -0.8822  0.5298
16251TIP3    H270169   0.668   2.690   3.784 -0.5442 -0.1168 -0.7116
16252TIP3   OH270170   0.710   3.113   0.047  0.0355  0.5562  0.1688
16252TIP3    H170171   0.714   3.051   0.120 -1.3611  0.5569  0.2861
16252TIP3    H270172   0.801   3.125   0.020  0.3348 -2.2190 -0.4117
16253TIP3   OH270173   0.496   3.216   1.641  0.1026 -0.7857  0.1121
16253TIP3    H170174   0.485   3.144   1.704  3.0227 -1.2977  0.1816
16253TIP3    H270175   0.534   3.174   1.564 -0.1975  0.3766 -0.6856
16254TIP3   OH270176   5.303   2.578  15.008 -0.1705  0.4401 -0.2434
16254TIP3    H170177   5.320   2.656  15.060 -1.1235  0.3526  0.2342
16254TIP3    H270178   5.207   2.574  15.002 -0.0980 -0.1057 -1.1638
16255TIP3   OH270179   6.456   5.293   3.393  0.2754 -0.1214  0.3119
16255TIP3    H170180   6.395   5.367   3.392  0.7362  0.2603  0.4205
16255TIP3    H270181   6.446   5.255   3.480 -1.1816 -1.2228 -0.2801
16256TIP3   OH270182   0.022   0.260   5.752  0.4402  0.2045  0.1539
16256TIP3    H170183   0.039   0.205   5.675  0.5147  0.6680 -0.1643
16256TIP3    H270184   0.067   0.343   5.733  2.6664 -0.5150  1.8095
16257TIP3   OH270185   6.701   6.037   1.057 -0.0859 -0.2968  0.2628
16257TIP3    H170186   6.627   6.001   1.106 -0.5900  1.2164  0.6516
16257TIP3    H270187   6.661   6.089   0.988  0.6211  0.3181  0.3063
16258TIP3   OH270188   0.088   1.025  15.378 -0.0112  0.3439  0.0886
16258TIP3    H170189   0.036   0.950  15.405 -1.3283  0.7278 -1.2497
16258TIP3    H270190   0.178   1.003  15.403 -0.5616 -1.0808  0.8948
16259TIP3   OH270191   5.526   3.124  13.355  0.1756  0.0438 -0.1459
16259TIP3    H170192   5.606   3.110  13.304  1.0964  0.8854  1.0128
16259TIP3    H270193   5.504   3.037  13.389  1.2493 -0.0111  0.4430
16260TIP3   OH270194   4.243   0.518   3.200  0.1230  0.3306 -0.9782
16260TIP3    H170195   4.158   0.507   3.241  0.1454 -0.2153 -1.0642
16260TIP3    H270196   4.229   0.581   3.129 -0.0316  0.8546 -0.4832
16261TIP3   OH270197   0.431   1.508  15.240 -0.5524  0.0046  0.6421
16261TIP3    H170198   0.354   1.552  15.205 -1.1633 -0.5525  1.2448
16261TIP3    H270199   0.410   1.415  15.233 -0.1669 -0.1355  1.3233
16262TIP3   OH270200   2.550   5.364  12.359 -0.1439  0.5465  0.8828
16262TIP3    H170201   2.510   5.405  12.282 -1.1805 -1.4138  0.2950
16262TIP3    H270202   2.592   5.436  12.406 -1.4275  2.1631 -0.3300
16263TIP3   OH270203   1.565   0.188  14.597  0.0164 -0.0629 -0.0322
16263TIP3    H170204   1.512   0.161  14.671 -1.3303 -0.0461 -0.9643
16263TIP3    H270205   1.505   0.187  14.522  1.5068 -0.7970 -1.2691
16264TIP3   OH270206   5.808   1.514  15.715 -0.2032  0.2905 -0.5713
16264TIP3    H170207   5.787   1.503  15.808  1.0479  1.9890 -0.0130
16264TIP3    H270208   5.865   1.440  15.695 -0.6346 -0.1972 -0.0228
16265TIP3   OH270209   4.793   1.499  15.014  0.4610 -0.0457  0.5979
16265TIP3    H170210   4.853   1.545  14.956  1.3507 -0.2984  1.3039
16265TIP3    H270211   4.756   1.567  15.070  0.6030  0.0171  0.6143
16266TIP3   OH270212   4.918   3.227   3.250  0.1440 -0.6199  0.2431
16266TIP3    H170213   4.910   3.234   3.154  1.7973  0.0451  0.1283
16266TIP3    H270214   4.896   3.314   3.282 -0.9799 -0.9963  0.5384
16267TIP3   OH270215   4.401   6.500   1.333  0.3641 -0.7973  0.1960
16267TIP3    H170216   4.394   6.526   1.241  0.5613  1.6615  0.8078
16267TIP3    H270217   4.321   6.450   1.350 -1.0178  1.0302 -0.6417
16268TIP3   OH270218   0.624   4.496  12.089  0.1757  0.1370  0.0724
16268TIP3    H170219   0.657   4.536  12.009  0.0395  0.2159  0.0552
16268TIP3    H270220   0.586   4.569  12.138  1.2373  0.2807  0.7175
16269TIP3   OH270221   1.172   4.216  15.847  0.4854  0.2630 -0.1659
16269TIP3    H170222   1.088   4.180  15.874  1.2708 -0.8928  0.8611
16269TIP3    H270223   1.237   4.164  15.895  1.7559  1.7579 -0.1814
16270TIP3   OH270224   0.554   0.493  14.683  0.3693 -0.2113 -0.6836
16270TIP3    H170225   0.648   0.493  14.665  0.7477 -2.4452  0.7715
16270TIP3    H270226   0.548   0.505  14.778 -0.6751 -1.5326 -0.5412
16271TIP3   OH270227   0.449   5.687  12.756 -0.2711  0.4261  0.9751
16271TIP3    H170228   0.532   5.651  12.784 -0.6512  0.4737  2.2404
16271TIP3    H270229   0.406   5.616  12.709  0.0934  0.1028  1.1303
16272TIP3   OH270230   3.065   3.463  15.211 -0.3719 -0.1532  0.3742
16272TIP3    H170231   2.981   3.478  15.168 -0.6206  1.4431  1.3275
16272TIP3    H270232   3.130   3.476  15.143 -0.8531 -0.2924 -0.1157
16273TIP3   OH270233   0.430   2.221  13.047  0.1814 -0.5011  0.5084
16273TIP3    H170234   0.509   2.204  12.995 -0.0532 -0.2261  0.0525
16273TIP3    H270235   0.410   2.313  13.031 -0.1326 -0.5221  0.7626
16274TIP3   OH270236   2.729   3.201   2.291 -0.3567 -0.2621  0.1569
16274TIP3    H170237   2.689   3.153   2.363  0.9450  1.1356  1.9250
16274TIP3    H270238   2.740   3.137   2.221  0.3683 -2.2795  2.0132
16275TIP3   OH270239   6.385   2.712  12.930  0.4755  0.5970 -0.8740
16275TIP3    H170240   6.336   2.645  12.977  1.7478 -0.2052 -0.6517
16275TIP3    H270241   6.348   2.711  12.841  0.0719  0.0424 -0.7076
16276TIP3   OH270242   5.915   4.806  13.175 -0.1918 -0.1890  0.3431
16276TIP3    H170243   5.923   4.805  13.270 -0.5164 -2.7997  0.4317
16276TIP3    H270244   5.983   4.745  13.145 -1.5454 -1.1859 -0.8765
16277TIP3   OH270245   3.672   0.068   4.995  0.1727  0.6924  0.3356
16277TIP3    H170246   3.672   0.100   5.086  0.1439 -0.6012  0.8128
16277TIP3    H270247   3.594   0.013   4.990  1.1352 -0.6942  0.0690
16278TIP3   OH270248   4.926   2.787  14.328  0.4862 -0.2003 -0.5233
16278TIP3    H170249   4.974   2.733  14.390  0.9275  0.1911 -0.5159
16278TIP3    H270250   4.851   2.820  14.377  2.0922  2.0784  0.6147
16279TIP3   OH270251   0.984   5.461  11.639  0.0149  0.0322 -0.4943
16279TIP3    H170252   1.078   5.459  11.659  0.5894 -4.4300 -2.4451
16279TIP3    H270253   0.942   5.429  11.719  0.2774  0.5393 -0.1454
16280TIP3   OH270254   1.438   6.207  14.167  0.3091 -0.0078 -0.1517
16280TIP3    H170255   1.473   6.207  14.078  0.5495 -0.5483 -0.0650
16280TIP3    H270256   1.385   6.286  14.173 -0.0613 -0.1945 -0.9156
16281TIP3   OH270257   1.695   1.866   3.140  0.2626 -0.1085  0.5216
16281TIP3    H170258   1.649   1.883   3.222  2.3848 -0.6499  1.8883
16281TIP3    H270259   1.625   1.861   3.074 -1.5324 -0.0814  2.3328
16282TIP3   OH270260   2.912   1.441  12.382  0.2432  0.0100  0.1060
16282TIP3    H170261   2.861   1.447  12.301 -0.4626 -0.2023  0.5250
16282TIP3    H270262   2.852   1.473  12.450  0.4928 -0.7338  0.6794
16283TIP3   OH270263   1.624   5.816  13.968  0.7151  0.4412  0.0317
16283TIP3    H170264   1.592   5.770  13.890  1.3237 -0.4533  0.2818
16283TIP3    H270265   1.546   5.833  14.021  0.0075  2.8269 -1.6255
16284TIP3   OH270266   5.035   6.239   0.139  0.1678 -0.2973  0.1771
16284TIP3    H170267   5.071   6.254   0.227  0.3085 -0.0509  0.0806
16284TIP3    H270268   4.976   6.164   0.149 -1.0938  0.7464  0.8260
16285TIP3   OH270269   3.475   6.550  12.684 -0.9083 -0.4735  0.0677
16285TIP3    H170270   3.497   6.574  12.594 -0.9151  0.2994  0.2601
16285TIP3    H270271   3.406   6.612  12.708  0.3289  0.5296  1.1926
16286TIP3   OH270272   3.019   4.205   6.065  0.3326  0.0505  0.4624
16286TIP3    H170273   2.928   4.197   6.036 -0.2338 -1.3877  2.4232
16286TIP3    H270274   3.034   4.127   6.118  3.9291 -1.7369 -2.7378
16287TIP3   OH270275   2.772   2.903  11.462 -0.4955  0.1095  0.1598
16287TIP3    H170276   2.756   2.964  11.533  0.0281 -0.8338  1.1153
16287TIP3    H270277   2.855   2.933  11.424 -0.0963 -0.1540  0.8019
16288TIP3   OH270278   0.106   4.048  13.236 -0.0646 -0.4543  0.1154
16288TIP3    H170279   0.125   4.142  13.226  1.5823 -0.7223  0.5003
16288TIP3    H270280   0.148   4.007  13.160  0.1069 -0.9896  0.4951
16289TIP3   OH270281   4.232   5.932   6.495  0.5867  0.0788  0.2852
16289TIP3    H170282   4.163   5.871   6.470 -2.0418  0.9648  4.3986
16289TIP3    H270283   4.212   6.013   6.447  0.4248 -0.4399 -0.5453
16290TIP3   OH270284   2.306   3.082   4.975 -0.0459  0.2679 -0.3376
16290TIP3    H170285   2.327   2.994   4.945  0.0958  0.3652 -0.5210
16290TIP3    H270286   2.314   3.137   4.897 -1.6156  0.2099 -0.5802
16291TIP3   OH270287   0.922   1.700  16.702  0.1236  0.6311 -0.0483
16291TIP3    H170288   0.913   1.786  16.661  0.4201  0.3366 -0.7387
16291TIP3    H270289   0.987   1.713  16.770  0.6260  0.8134 -0.5585
16292TIP3   OH270290   1.821   2.320   5.156 -0.4913  0.3668 -0.1983
16292TIP3    H170291   1.751   2.382   5.178 -0.8427 -0.8530  2.4399
16292TIP3    H270292   1.902   2.368   5.173 -0.7538  0.3312  1.2082
16293TIP3   OH270293   5.290   3.720  16.131 -0.0285  0.1491  0.4536
16293TIP3    H170294   5.344   3.690  16.204  2.0971  0.1170 -1.0260
16293TIP3    H270295   5.353   3.737  16.061 -1.5728  3.4190 -0.3385
16294TIP3   OH270296   6.050   4.958   0.649 -0.6871  0.2411 -0.1602
16294TIP3    H170297   6.111   4.919   0.587 -1.1547  0.2620 -0.6328
16294TIP3    H270298   6.104   5.019   0.700 -0.2082 -0.1195 -0.2267
16295TIP3   OH270299   0.880   2.661   6.377 -0.0713 -0.4594 -0.6059
16295TIP3    H170300   0.948   2.725   6.400  0.5262 -0.6167 -1.8606
16295TIP3    H270301   0.809   2.713   6.341 -1.0218 -0.2090  1.4653
16296TIP3   OH270302   4.648   2.378   4.546  0.0342  0.3947 -0.1755
16296TIP3    H170303   4.700   2.298   4.551  0.1830  0.4853 -0.2904
16296TIP3    H270304   4.706   2.443   4.508  0.2676  0.8601  0.9330
16297TIP3   OH270305   1.251   5.649   5.414 -0.3654 -0.1658  0.3229
16297TIP3    H170306   1.206   5.581   5.364 -1.3695  1.4505 -1.1211
16297TIP3    H270307   1.344   5.627   5.406 -0.4147  0.2148 -2.7728
16298TIP3   OH270308   3.513   2.718   2.735  0.4473  0.0743 -0.8006
16298TIP3    H170309   3.582   2.657   2.708  1.1403  0.2492  0.4766
16298TIP3    H270310   3.432   2.677   2.704  1.0061 -0.8242 -1.1362
16299TIP3   OH270311   4.586   0.532  16.851 -0.1263  0.6263  0.4266
16299TIP3    H170312   4.593   0.556  16.943 -2.2760  0.5447  0.6661
16299TIP3    H270313   4.668   0.563  16.812  0.9509  0.4102  2.3926
16300TIP3   OH270314   1.557   1.853   2.894  0.6101 -0.0077  0.2780
16300TIP3    H170315   1.574   1.946   2.879 -0.8645 -0.0617 -2.2814
16300TIP3    H270316   1.538   1.818   2.807 -0.3149 -2.4063  1.3626
16301TIP3   OH270317   2.290   6.200  13.681  0.4399 -0.1526  0.9049
16301TIP3    H170318   2.210   6.204  13.629  0.3893 -0.7346  0.9358
16301TIP3    H270319   2.277   6.266  13.750 -0.0108 -0.2490  0.9140
16302TIP3   OH270320   2.103   5.755   5.196 -0.5333  0.3348  0.4995
16302TIP3    H170321   2.085   5.838   5.153 -1.2162  0.0335  0.1807
16302TIP3    H270322   2.048   5.756   5.274  0.4780  0.7522  1.2263
16303TIP3   OH270323   1.177   3.169  15.401  0.3278 -0.0809  0.7184
16303TIP3    H170324   1.142   3.257  15.419 -0.5154 -0.7236  2.4666
16303TIP3    H270325   1.101   3.118  15.374  0.6559 -0.4926  0.5722
16304TIP3   OH270326   2.130   6.218   3.524  0.0831 -0.2253  0.1609
16304TIP3    H170327   2.079   6.269   3.460  0.1086  0.0718  0.3753
16304TIP3    H270328   2.124   6.269   3.604  1.2277  0.1212  0.0346
16305TIP3   OH270329   1.398   4.686  12.910  0.4514  0.0571 -1.1833
16305TIP3    H170330   1.363   4.659  12.826  0.7767 -0.8980 -1.0318
16305TIP3    H270331   1.481   4.638  12.918  0.3954  0.0746 -0.2986
16306TIP3   OH270332   4.417   0.529  10.803 -0.3122  0.0105 -0.0454
16306TIP3    H170333   4.395   0.598  10.741  1.2745  0.8219  0.2330
16306TIP3    H270334   4.488   0.480  10.760 -0.4532 -0.5554  0.3549
16307TIP3   OH270335   1.895   0.866   0.713 -0.2979  0.2099  0.4291
16307TIP3    H170336   1.955   0.794   0.692 -0.2366 -0.2037  1.9357
16307TIP3    H270337   1.911   0.885   0.805 -1.6519  0.8876  0.5504
16308TIP3   OH270338   3.429   5.255   1.737 -0.0644 -0.2114  0.2703
16308TIP3    H170339   3.371   5.255   1.813  2.1624 -3.5718  2.2771
16308TIP3    H270340   3.384   5.202   1.672 -0.5990 -0.0932  0.5421
16309TIP3   OH270341   4.101   5.669  12.043  0.1821 -0.2137  0.1988
16309TIP3    H170342   4.185   5.703  12.076  0.3322 -0.5889  0.2062
16309TIP3    H270343   4.126   5.615  11.968  0.1671 -2.1797  1.5461
16310TIP3   OH270344   1.411   1.892   4.268  0.1900  0.0944 -0.3650
16310TIP3    H170345   1.492   1.857   4.232  0.8837  1.9025 -0.6696
16310TIP3    H270346   1.430   1.908   4.361 -0.0006  0.0125 -0.3105
16311TIP3   OH270347   5.531   1.606   5.012  0.9420 -0.1632  1.1811
16311TIP3    H170348   5.489   1.684   4.976 -0.3352 -0.4809  1.9153
16311TIP3    H270349   5.459   1.557   5.052  1.4385 -2.4337 -0.4755
16312TIP3   OH270350   1.861   5.632   4.306 -0.2897 -0.3105 -0.0071
16312TIP3    H170351   1.880   5.548   4.263  1.1803  0.0174 -0.0347
16312TIP3    H270352   1.817   5.684   4.238 -0.9924 -0.9527 -0.0632
16313TIP3   OH270353   0.875   0.137   3.836  0.2448  0.2703 -0.6677
16313TIP3    H170354   0.845   0.223   3.864  1.5437  0.5853 -0.1753
16313TIP3    H270355   0.794   0.086   3.827 -0.4647 -0.0619  4.2901
16314TIP3   OH270356   0.161   2.016  11.063  0.5425  0.3755 -0.0833
16314TIP3    H170357   0.223   2.088  11.061 -0.4315  1.5631  3.6830
16314TIP3    H270358   0.188   1.963  11.139 -1.2131 -0.8274 -0.2206
16315TIP3   OH270359   4.516   2.558  14.168  0.0029  0.6958 -0.6276
16315TIP3    H170360   4.432   2.520  14.144 -0.3239 -0.6057  2.1340
16315TIP3    H270361   4.495   2.647  14.197 -0.8843 -0.2532  1.9581
16316TIP3   OH270362   5.673   1.177  15.534 -0.4130 -0.3831 -0.1155
16316TIP3    H170363   5.618   1.197  15.458 -1.3990 -1.1390  0.3858
16316TIP3    H270364   5.630   1.222  15.607 -0.9534 -1.7698  0.4597
16317TIP3   OH270365   3.552   5.712   3.538 -0.4884 -0.5582 -0.0918
16317TIP3    H170366   3.563   5.806   3.522 -2.7050 -0.1939  0.2050
16317TIP3    H270367   3.588   5.670   3.460  1.4109  0.4541  0.1847
16318TIP3   OH270368   2.753   2.339   2.328 -0.1086 -0.2041  0.2286
16318TIP3    H170369   2.684   2.341   2.262  0.7237 -1.1002 -0.6989
16318TIP3    H270370   2.787   2.428   2.330 -0.7940  0.0691  0.1754
16319TIP3   OH270371   1.029   1.347  15.140  0.0908  0.6910 -0.0949
16319TIP3    H170372   1.063   1.431  15.111 -0.1345  1.0785  0.7535
16319TIP3    H270373   0.939   1.345  15.107 -0.1699  1.1384  0.5706
16320TIP3   OH270374   2.480   2.152  15.146  0.1541 -0.0134 -0.3614
16320TIP3    H170375   2.385   2.164  15.135  0.0756  0.8993  1.1204
16320TIP3    H270376   2.491   2.058  15.160 -0.6265 -0.0085  0.3373
16321TIP3   OH270377   1.551   6.269   5.231  0.4165  0.2841 -0.6569
16321TIP3    H170378   1.589   6.341   5.179  0.4544 -0.7130 -2.0638
16321TIP3    H270379   1.580   6.190   5.186  1.0129 -0.6605  1.3186
16322TIP3   OH270380   5.659   5.045  14.810 -0.0492  0.0870  0.2359
16322TIP3    H170381   5.666   5.131  14.769  1.7465 -0.4362 -0.6699
16322TIP3    H270382   5.579   5.050  14.863 -1.0720  1.6305 -1.3443
16323TIP3   OH270383   5.613   2.694  14.445 -0.0843 -0.6209 -0.6115
16323TIP3    H170384   5.643   2.747  14.371  1.8774 -0.6953  0.0728
16323TIP3    H270385   5.549   2.749  14.489  0.8476  0.6111 -0.7431
16324TIP3   OH270386   3.711   0.848  15.719 -0.1476  0.3117 -0.2474
16324TIP3    H170387   3.671   0.766  15.689 -0.0328  0.8144 -1.8818
16324TIP3    H270388   3.641   0.894  15.764 -0.7349  0.0916 -0.9104
16325TIP3   OH270389   4.393   5.911   0.247  0.0253  0.4448 -0.0793
16325TIP3    H170390   4.435   5.850   0.188  0.7288  0.4094  0.4446
16325TIP3    H270391   4.454   5.984   0.254  0.5919 -0.1450  1.6250
16326TIP3   OH270392   6.389   4.896  12.276 -0.2109 -0.5692  0.0415
16326TIP3    H170393   6.338   4.832  12.226 -0.3228  0.5144 -1.2945
16326TIP3    H270394   6.368   4.980  12.235  2.4697 -0.0588 -0.4632
16327TIP3   OH270395   5.431   2.149   0.041  0.1240 -0.3710 -0.3371
16327TIP3    H170396   5.463   2.230   0.080  0.6804 -0.4486 -0.6228
16327TIP3    H270397   5.346   2.172   0.004 -0.4585 -0.3227  0.9921
16328TIP3   OH270398   3.129   1.814   5.375  0.6486 -0.0120  0.1752
16328TIP3    H170399   3.134   1.877   5.304 -0.0571 -0.2926 -0.1302
16328TIP3    H270400   3.210   1.826   5.424  0.2101  1.6312  0.5492
16329TIP3   OH270401   1.324   2.267   5.530  0.3825 -0.2972  0.3490
16329TIP3    H170402   1.325   2.196   5.594  0.8334  1.3515  2.2862
16329TIP3    H270403   1.234   2.269   5.498  0.5578 -2.2314 -0.3751
16330TIP3   OH270404   6.199   5.413   2.809 -0.4732  0.2150  0.2244
16330TIP3    H170405   6.181   5.346   2.875 -0.3661 -0.5882 -0.5383
16330TIP3    H270406   6.142   5.391   2.735 -0.4084  0.9444 -0.0535
16331TIP3   OH270407   1.451   4.939  16.208 -0.0564 -0.3040 -0.4858
16331TIP3    H170408   1.458   5.015  16.151  3.3216 -0.5085 -0.5552
16331TIP3    H270409   1.373   4.955  16.260 -0.4661  2.3096 -1.7449
16332TIP3   OH270410   4.750   1.369  11.961 -0.3283 -0.7218  0.4872
16332TIP3    H170411   4.719   1.452  11.923 -0.4193  0.3107  2.6472
16332TIP3    H270412   4.840   1.388  11.989 -0.7624 -0.9190  2.1196
16333TIP3   OH270413   2.889   3.615   5.195 -0.2676  0.5980 -0.6678
16333TIP3    H170414   2.969   3.572   5.165 -2.1362 -2.9790 -1.0486
16333TIP3    H270415   2.869   3.574   5.279 -3.0242 -0.6080 -1.8054
16334TIP3   OH270416   6.270   4.703   2.369  0.6202  0.3325 -0.0214
16334TIP3    H170417   6.202   4.688   2.303  0.6204  0.6023 -0.0849
16334TIP3    H270418   6.350   4.719   2.318  0.4246  1.5154  0.0102
16335TIP3   OH270419   0.832   0.343  12.124  0.1877  0.0394  0.2918
16335TIP3    H170420   0.823   0.369  12.032 -2.2944  1.8006  0.9302
16335TIP3    H270421   0.915   0.381  12.152 -0.7051  2.6849 -0.3368
16336TIP3   OH270422   0.388   0.220   2.665 -0.4334 -0.2864 -0.1686
16336TIP3    H170423   0.300   0.224   2.627 -0.6898  1.6112  0.5108
16336TIP3    H270424   0.378   0.167   2.743 -1.0951  0.2826  0.1438
16337TIP3   OH270425   2.066   4.732  14.493 -0.1695  0.3870  0.1116
16337TIP3    H170426   2.128   4.680  14.544 -2.3920  0.1361  2.7444
16337TIP3    H270427   1.991   4.674  14.479 -1.0367  1.5992 -0.4449
16338TIP3   OH270428   3.408   0.746   2.836 -0.4050 -0.7068 -0.2045
16338TIP3    H170429   3.348   0.807   2.793 -1.9826 -2.1533 -0.1469
16338TIP3    H270430   3.392   0.662   2.793  2.3513 -0.9610 -0.8910
16339TIP3   OH270431   6.104   2.232   4.611  0.0724  0.4353 -0.2908
16339TIP3    H170432   6.134   2.146   4.585 -0.9121  0.7108 -2.5722
16339TIP3    H270433   6.062   2.219   4.696 -0.1474 -1.3492 -0.6474
16340TIP3   OH270434   4.863   6.027   3.012 -0.5624 -0.1380  0.3273
16340TIP3    H170435   4.837   5.993   2.927 -1.5588 -0.3436  0.6939
16340TIP3    H270436   4.906   6.110   2.993 -2.0563  0.5276 -0.2975
16341TIP3   OH270437   5.009   2.188  16.200  0.1752  0.2454  0.0909
16341TIP3    H170438   4.972   2.103  16.225 -1.0910  1.4038  2.4977
16341TIP3    H270439   4.933   2.240  16.173  0.7843  1.0049 -0.1957
16342TIP3   OH270440   4.956   2.493  15.258 -0.0381 -0.0955 -0.0632
16342TIP3    H170441   5.003   2.442  15.192  1.8467  1.1056  0.2973
16342TIP3    H270442   4.911   2.427  15.312  1.0411 -1.2787 -0.5684
16343TIP3   OH270443   2.381   1.781  12.257 -0.1664  0.4647 -0.2916
16343TIP3    H170444   2.298   1.752  12.218 -1.1599  1.1414  1.2290
16343TIP3    H270445   2.429   1.700  12.274 -1.0887 -0.0296  0.0358
16344TIP3   OH270446   4.146   5.493   5.853  0.0606 -0.1533  0.1816
16344TIP3    H170447   4.208   5.548   5.901  0.5129  0.0083 -0.5746
16344TIP3    H270448   4.060   5.527   5.876  0.3473  1.2837 -0.7360
16345TIP3   OH270449   2.264   2.323   5.751 -0.1018  0.0897 -0.1953
16345TIP3    H170450   2.191   2.283   5.705 -0.1148  0.6022 -0.6276
16345TIP3    H270451   2.236   2.413   5.769  0.8151  0.6493 -1.3565
16346TIP3   OH270452   2.400   3.310  14.166  0.0134 -0.3296 -0.4159
16346TIP3    H170453   2.477   3.363  14.145 -2.8564  3.6505 -2.2210
16346TIP3    H270454   2.402   3.303  14.261  2.1827  0.2535 -0.3485
16347TIP3   OH270455   2.179   1.895  13.267  0.0400  0.5959 -0.2277
16347TIP3    H170456   2.230   1.814  13.280 -0.2575  0.4442  0.0345
16347TIP3    H270457   2.088   1.867  13.277 -0.0419  1.0571  0.3954
16348TIP3   OH270458   2.091   5.856  17.043 -0.4046 -0.3077  0.4443
16348TIP3    H170459   2.037   5.889  17.115  0.4837  0.9239  0.5793
16348TIP3    H270460   2.177   5.842  17.082  1.0682  3.4666 -0.9104
16349TIP3   OH270461   5.759   1.826   0.353  0.3226 -0.0900  0.0536
16349TIP3    H170462   5.747   1.908   0.401  1.2388  0.3482 -0.4441
16349TIP3    H270463   5.758   1.853   0.261  0.3635 -0.6830 -0.1193
16350TIP3   OH270464   6.322   0.142  12.934 -0.0231 -0.3194 -0.2976
16350TIP3    H170465   6.268   0.141  13.013 -2.2758  3.4941 -1.5274
16350TIP3    H270466   6.403   0.185  12.961  0.0257 -0.7917  0.3308
16351TIP3   OH270467   6.449   6.456  15.041  0.2936  0.0830 -0.9731
16351TIP3    H170468   6.489   6.416  14.964  0.5890  0.3467 -0.9576
16351TIP3    H270469   6.429   6.545  15.014  0.0450  0.0614 -0.8658
16352TIP3   OH270470   2.990   2.195  11.567 -0.2105  0.0055 -0.3136
16352TIP3    H170471   2.963   2.163  11.481  1.1392 -0.3761 -0.6271
16352TIP3    H270472   3.022   2.284  11.550  1.9028 -0.7556 -0.6109
16353TIP3   OH270473   2.947   3.163  14.997  0.1925  0.5778  0.0291
16353TIP3    H170474   2.928   3.077  14.960  0.1548 -0.3444  2.0273
16353TIP3    H270475   2.911   3.225  14.934 -2.1556 -0.9365 -0.2510
16354TIP3   OH270476   1.778   0.064   0.633  0.4180 -0.0639  0.0946
16354TIP3    H170477   1.737  -0.017   0.604 -0.1691  0.0386  0.6215
16354TIP3    H270478   1.782   0.118   0.554  0.5208 -0.4754 -0.1869
16355TIP3   OH270479   5.838   3.355   5.121 -0.2195 -0.0124 -0.8893
16355TIP3    H170480   5.909   3.350   5.185  0.3797  0.0805 -1.5235
16355TIP3    H270481   5.836   3.267   5.081 -0.9436 -0.2343 -0.3873
16356TIP3   OH270482   0.757   5.652  13.868  0.6249  0.7654  0.0850
16356TIP3    H170483   0.718   5.565  13.865  3.2237 -0.4542 -0.0244
16356TIP3    H270484   0.756   5.675  13.961 -0.1983  0.7153  0.0979
16357TIP3   OH270485   3.951   0.103   0.882 -0.3688  0.2320  0.3747
16357TIP3    H170486   3.929   0.140   0.967 -0.9558  0.0135  0.3259
16357TIP3    H270487   3.878   0.128   0.825  0.8825  1.9875 -0.5709
16358TIP3   OH270488   6.554   0.650   1.013 -0.3196  0.1952  0.6342
16358TIP3    H170489   6.464   0.619   1.004  0.3982 -2.5256  1.7470
16358TIP3    H270490   6.568   0.705   0.936 -2.2741 -1.0507 -0.7272
16359TIP3   OH270491   0.780   0.171  13.259 -0.0469  0.6834 -0.2389
16359TIP3    H170492   0.742   0.129  13.182  1.1396 -1.4002  0.2291
16359TIP3    H270493   0.741   0.258  13.261 -3.3129 -0.6085 -0.8455
16360TIP3   OH270494   0.615   0.632  16.970  0.9261  0.0789 -0.3924
16360TIP3    H170495   0.538   0.684  16.992  0.5271 -1.1585  1.3976
16360TIP3    H270496   0.614   0.560  17.033  4.0151  0.4733  0.2797
16361TIP3   OH270497   2.630   5.212   2.408 -1.1234 -0.0774 -0.4488
16361TIP3    H170498   2.635   5.197   2.314 -0.1227 -1.5195 -0.1933
16361TIP3    H270499   2.665   5.300   2.421 -2.3495  0.6041 -1.5091
16362TIP3   OH270500   6.302   5.633  14.859 -0.7508 -0.8819 -0.5226
16362TIP3    H170501   6.385   5.630  14.811  0.2793  0.9561  0.9858
16362TIP3    H270502   6.240   5.670  14.797  0.6959  2.0414 -0.4037
16363TIP3   OH270503   4.891   4.561   0.416  0.4830  0.2206 -0.3369
16363TIP3    H170504   4.818   4.499   0.414  0.8804 -0.4149  1.8214
16363TIP3    H270505   4.953   4.527   0.351 -0.3027 -0.3242 -0.8128
16364TIP3   OH270506   2.110   0.026   1.805 -0.0253  0.7037  0.0132
16364TIP3    H170507   2.028   0.068   1.830 -1.7696 -1.1754 -2.0510
16364TIP3    H270508   2.133   0.066   1.721  1.1877  1.1843  0.5511
16365TIP3   OH270509   2.214   2.802   1.468  0.6086  0.3109 -0.2311
16365TIP3    H170510   2.291   2.749   1.490  1.2318  1.5987  0.8116
16365TIP3    H270511   2.240   2.892   1.486 -0.5501  0.9687 -1.6314
16366TIP3   OH270512   2.582   4.957  14.378  0.1885  0.0917 -0.1822
16366TIP3    H170513   2.523   4.908  14.321 -0.3859 -0.6196  0.9853
16366TIP3    H270514   2.665   4.960  14.330 -0.3495 -0.2260 -1.1679
16367TIP3   OH270515   6.301   0.968  14.348  0.0923  0.3506 -0.1577
16367TIP3    H170516   6.385   0.967  14.302 -0.1137  0.3557 -0.5367
16367TIP3    H270517   6.235   0.970  14.279 -0.2353 -0.3232  0.1215
16368TIP3   OH270518   1.393   3.406   3.529  0.4999  0.7838  0.4251
16368TIP3    H170519   1.353   3.462   3.596  0.2116 -0.9987  1.8131
16368TIP3    H270520   1.484   3.395   3.558  0.6860  0.9230 -0.1036
16369TIP3   OH270521   0.800   1.024  10.724  0.4607 -0.3065  0.3157
16369TIP3    H170522   0.831   0.954  10.665  0.3313 -0.0641 -0.0426
16369TIP3    H270523   0.713   1.046  10.691 -0.2748 -1.2536  1.5615
16370TIP3   OH270524   5.990   1.939  11.393  0.8273 -0.1236  0.1241
16370TIP3    H170525   5.913   1.965  11.344  0.6366  0.9968  0.9793
16370TIP3    H270526   6.064   1.957  11.335  0.5813  0.8268  0.1029
16371TIP3   OH270527   5.232   6.062  14.865 -0.0902 -0.3616 -0.4359
16371TIP3    H170528   5.242   5.991  14.801 -0.3850  0.7167 -1.7292
16371TIP3    H270529   5.293   6.039  14.935 -1.4961 -2.8222  0.1100
16372TIP3   OH270530   2.552   6.139  16.727  0.4196 -0.0135  0.1403
16372TIP3    H170531   2.500   6.219  16.729  0.3401 -0.0672  0.2349
16372TIP3    H270532   2.593   6.134  16.814 -0.5510 -0.7138  0.5747
16373TIP3   OH270533   2.772   5.771  15.873 -0.1568 -0.1635  0.4792
16373TIP3    H170534   2.836   5.839  15.851 -1.8316  2.1221  2.1813
16373TIP3    H270535   2.815   5.718  15.941  0.1708  0.9586  1.1633
16374TIP3   OH270536   0.165   1.462   0.905 -0.2733  0.6060 -0.0667
16374TIP3    H170537   0.211   1.491   0.827 -0.2121  0.7899  0.0379
16374TIP3    H270538   0.160   1.367   0.896  0.3199  0.5622  0.0246
16375TIP3   OH270539   2.092   0.402  12.502  0.6098 -0.2324  1.1503
16375TIP3    H170540   2.009   0.355  12.489 -0.1849  1.3693 -0.0101
16375TIP3    H270541   2.086   0.435  12.592 -1.5005  2.4198  0.1769
16376TIP3   OH270542   5.111   1.959   5.711  0.2480 -0.3268 -0.3152
16376TIP3    H170543   5.164   1.919   5.779 -0.3121 -0.8023 -0.1490
16376TIP3    H270544   5.022   1.959   5.747 -0.2290 -1.4975 -1.4246
16377TIP3   OH270545   3.659   5.264  14.301  0.0403 -0.1874 -0.2185
16377TIP3    H170546   3.589   5.317  14.263  0.5306  1.2286  0.7629
16377TIP3    H270547   3.616   5.209  14.366 -0.1528  0.9221  0.6298
16378TIP3   OH270548   5.981   0.902  15.013  0.2577  0.5305  0.6957
16378TIP3    H170549   5.904   0.949  15.046 -0.5759  0.2829 -0.8089
16378TIP3    H270550   6.021   0.865  15.092 -1.3224  0.4201  1.5057
16379TIP3   OH270551   3.971   4.708   4.194  0.7647 -0.0945 -0.0756
16379TIP3    H170552   3.894   4.684   4.142  0.0812  1.9766 -0.1047
16379TIP3    H270553   4.035   4.640   4.175 -0.2428 -0.5978 -1.8856
16380TIP3   OH270554   0.378   6.290  16.140  0.2105 -0.2378 -0.1519
16380TIP3    H170555   0.373   6.380  16.174  1.0154  0.0629 -0.8125
16380TIP3    H270556   0.298   6.248  16.173  1.3074 -0.2307  2.8321
16381TIP3   OH270557   6.562   0.056   5.970 -0.1688  0.5126  0.4853
16381TIP3    H170558   6.545  -0.031   6.008 -1.0169  0.8778  0.9789
16381TIP3    H270559   6.656   0.056   5.952 -0.2334 -0.6980  0.0057
16382TIP3   OH270560   2.433   4.234   1.391  0.3932 -0.5662 -0.0231
16382TIP3    H170561   2.463   4.321   1.365  0.7355 -0.9909 -1.0559
16382TIP3    H270562   2.444   4.180   1.314 -0.5004 -1.3726  0.3898
16383TIP3   OH270563   3.103   4.126   6.948  0.5218 -0.4872 -0.0565
16383TIP3    H170564   3.180   4.094   6.995  1.3196 -0.4370 -1.2896
16383TIP3    H270565   3.132   4.207   6.907  0.8782 -2.0662 -3.2191
16384TIP3   OH270566   0.941   3.377  13.642 -0.5031  0.0618 -0.3497
16384TIP3    H170567   0.913   3.463  13.609 -0.9985  0.4041  0.9080
16384TIP3    H270568   0.868   3.346  13.694  0.0505 -0.6995 -0.0020
16385TIP3   OH270569   1.136   6.607   1.859  0.1962 -0.2601  0.0517
16385TIP3    H170570   1.185   6.643   1.933 -1.8953  0.2006  1.2813
16385TIP3    H270571   1.115   6.683   1.804 -0.9969 -0.1143  0.6866
16386TIP3   OH270572   1.918   0.433  14.323 -0.2072 -0.5547  0.0159
16386TIP3    H170573   1.862   0.426  14.400 -1.1172  0.6264 -0.5171
16386TIP3    H270574   2.004   0.406  14.354 -0.2726  1.0535  1.7702
16387TIP3   OH270575   4.105   6.054   4.436 -0.0634 -0.0122 -0.0850
16387TIP3    H170576   4.036   5.998   4.400  0.4463 -0.9559  0.3724
16387TIP3    H270577   4.131   6.011   4.518 -1.5618  2.3462  1.7459
16388TIP3   OH270578   3.843   1.014  15.012 -0.8470 -0.5412 -0.0688
16388TIP3    H170579   3.825   1.036  14.921 -1.7577 -0.4684  0.1255
16388TIP3    H270580   3.876   1.096  15.050 -0.8960 -0.4514 -0.2181
16389TIP3   OH270581   6.590   5.776  15.139  0.0891  0.0961  0.0378
16389TIP3    H170582   6.569   5.690  15.102  0.6148 -0.0109 -0.0160
16389TIP3    H270583   6.679   5.766  15.173 -0.2167  0.3242  0.9223
16390TIP3   OH270584   1.168   4.896  16.203  0.2196  0.0704  0.9723
16390TIP3    H170585   1.092   4.929  16.155  0.6117  1.4994  1.2984
16390TIP3    H270586   1.227   4.863  16.136 -0.6969 -1.1239  0.7194
16391TIP3   OH270587   1.947   6.400   2.112 -0.4758  0.0453  0.2203
16391TIP3    H170588   1.959   6.346   2.035  0.2971 -1.2283  1.1969
16391TIP3    H270589   1.898   6.345   2.173 -0.5213  0.7998  0.8933
16392TIP3   OH270590   0.323   0.678   2.665  0.7222 -0.5392  0.1910
16392TIP3    H170591   0.322   0.666   2.760  2.2439  0.8143  0.4354
16392TIP3    H270592   0.416   0.678   2.642  0.5946  2.4766 -0.7688
16393TIP3   OH270593   0.033   6.758   4.501 -0.1351 -0.6386  0.3083
16393TIP3    H170594   0.094   6.759   4.575 -0.3152 -1.7110  0.4887
16393TIP3    H270595  -0.051   6.736   4.540 -0.5048  0.1406 -0.0400
16394TIP3   OH270596   5.749   2.039   0.815 -0.3930  0.1288 -0.0747
16394TIP3    H170597   5.706   1.954   0.820 -1.2984  0.6313  1.1595
16394TIP3    H270598   5.711   2.080   0.737 -0.2646 -0.4323 -0.4328
16395TIP3   OH270599   2.108   3.392   5.145 -0.6712 -0.1445  0.0424
16395TIP3    H170600   2.128   3.405   5.238  0.2352  1.2131 -0.3093
16395TIP3    H270601   2.184   3.428   5.099 -0.7064 -1.5722 -1.2325
16396TIP3   OH270602   3.405   3.202  17.157  0.3185 -0.5641 -0.7551
16396TIP3    H170603   3.378   3.293  17.167  0.9271 -0.3611 -0.9297
16396TIP3    H270604   3.455   3.183  17.236 -3.9551 -2.3343  1.9393
16397TIP3   OH270605   3.264   5.065   1.642 -0.1902  0.3554  0.6436
16397TIP3    H170606   3.258   4.996   1.708 -0.1654 -0.3561 -0.0777
16397TIP3    H270607   3.244   5.021   1.559  0.4564  1.0837  0.0806
16398TIP3   OH270608   3.942   1.515  11.115  0.2778  0.1893 -0.7831
16398TIP3    H170609   3.989   1.559  11.045  2.0922 -0.5239 -0.0752
16398TIP3    H270610   3.943   1.577  11.187  1.4227 -0.3258 -0.3166
16399TIP3   OH270611   0.302   1.716  13.668 -0.1943  0.0018  0.2108
16399TIP3    H170612   0.321   1.751  13.581  0.8754 -1.2088 -0.0864
16399TIP3    H270613   0.305   1.621  13.656  1.2054 -0.1914  1.7925
16400TIP3   OH270614   3.024   5.108  13.296 -0.1211  0.4959  0.6559
16400TIP3    H170615   2.968   5.067  13.229  1.1442 -1.1782  0.5762
16400TIP3    H270616   3.060   5.185  13.252 -0.3409  0.1557 -0.1430
16401TIP3   OH270617   3.693   4.581  15.355 -0.4485 -0.2310  0.2496
16401TIP3    H170618   3.710   4.486  15.350  1.0489 -0.0101  0.6740
16401TIP3    H270619   3.620   4.589  15.416 -1.9035 -1.2240 -1.2697
16402TIP3   OH270620   4.354   2.705  13.517 -0.5353 -0.3271  0.1936
16402TIP3    H170621   4.409   2.667  13.449 -0.3635 -1.8876  1.1485
16402TIP3    H270622   4.416   2.739  13.582 -0.6948  1.2253 -0.4220
16403TIP3   OH270623   3.133   6.062  13.336 -0.0312  0.9321  0.1521
16403TIP3    H170624   3.101   5.990  13.391 -2.0143  0.9826 -0.8682
16403TIP3    H270625   3.171   6.018  13.259  0.6631  0.9308  0.4890
16404TIP3   OH270626   2.003   4.110  16.509  0.9378  0.3838 -0.0917
16404TIP3    H170627   2.043   4.053  16.443  0.6302  1.5420 -1.3190
16404TIP3    H270628   1.910   4.089  16.505  0.7273  1.4164 -1.0356
16405TIP3   OH270629   1.373   1.826   5.857 -0.0276 -0.3000 -0.2488
16405TIP3    H170630   1.449   1.770   5.874 -0.5404 -0.3975  2.1500
16405TIP3    H270631   1.298   1.767   5.864 -0.4134  0.0864 -1.0206
16406TIP3   OH270632   3.974   0.861   2.937 -0.2795  0.2000 -0.3350
16406TIP3    H170633   4.037   0.909   2.991 -0.4067  0.8552 -0.7574
16406TIP3    H270634   3.894   0.913   2.943 -1.3481 -1.5175  1.6083
16407TIP3   OH270635   1.078   0.619  12.516  0.4278 -0.5794 -0.2187
16407TIP3    H170636   1.071   0.565  12.438  1.1631 -0.0362 -0.6738
16407TIP3    H270637   0.992   0.660  12.525 -0.4670 -2.5365  0.6953
16408TIP3   OH270638   5.250   6.651   5.292  0.0876 -0.4426  0.1045
16408TIP3    H170639   5.317   6.646   5.224  0.0398 -3.1005  0.1604
16408TIP3    H270640   5.170   6.624   5.248  0.0192 -1.9909  1.1139
16409TIP3   OH270641   3.680   0.137  14.819 -0.2407  0.4421  0.8298
16409TIP3    H170642   3.761   0.131  14.769  0.6565 -1.2306  2.3789
16409TIP3    H270643   3.624   0.194  14.766  1.0617 -0.2548 -1.4518
16410TIP3   OH270644   2.228   1.215  14.740 -0.4259 -0.2014  0.2542
16410TIP3    H170645   2.154   1.272  14.722 -0.0713  0.3859  0.6257
16410TIP3    H270646   2.305   1.265  14.711 -0.1737 -0.8337 -0.2110
16411TIP3   OH270647   6.775   4.201  11.116 -0.0360 -0.0023 -0.1292
16411TIP3    H170648   6.833   4.175  11.188  1.5085 -1.4709 -1.7893
16411TIP3    H270649   6.756   4.293  11.133  0.9483 -0.0847  1.6989
16412TIP3   OH270650   1.815   5.036  12.215 -0.3878 -0.1921  0.0253
16412TIP3    H170651   1.898   5.017  12.258 -0.7660  0.0613  0.8741
16412TIP3    H270652   1.762   5.078  12.282 -1.5716 -1.2607 -0.1909
16413TIP3   OH270653   1.944   0.898  15.445 -0.0346 -0.3895  0.0165
16413TIP3    H170654   2.004   0.823  15.445 -1.3796 -1.4992 -0.1118
16413TIP3    H270655   1.878   0.876  15.510  0.0146  1.1126  0.6347
16414TIP3   OH270656   2.248   2.315  16.725  0.4274  0.4832  0.4185
16414TIP3    H170657   2.235   2.267  16.807 -0.6880 -1.9621 -1.0854
16414TIP3    H270658   2.166   2.362  16.712  0.7250  1.1332  0.8293
16415TIP3   OH270659   3.580   3.041   4.083 -0.9756  0.4790 -0.3945
16415TIP3    H170660   3.618   3.063   3.998 -0.2146  0.2401 -0.1228
16415TIP3    H270661   3.594   3.120   4.136 -1.5826  0.6826 -0.5268
16416TIP3   OH270662   5.716   2.842   4.543 -0.1557  0.5500  0.3023
16416TIP3    H170663   5.657   2.838   4.618 -1.2106  0.5974 -0.4964
16416TIP3    H270664   5.667   2.801   4.472  1.2011 -0.3787 -0.1306
16417TIP3   OH270665   4.126   3.900   1.703  0.1703 -0.0065 -0.3071
16417TIP3    H170666   4.161   3.938   1.783  1.6748 -1.3337 -0.3009
16417TIP3    H270667   4.131   3.970   1.638  1.8206  0.1847 -0.0075
16418TIP3   OH270668   1.268   4.887   2.889 -0.7357 -0.0208  0.3284
16418TIP3    H170669   1.342   4.911   2.946 -0.8054 -0.6628  0.6972
16418TIP3    H270670   1.234   4.806   2.927 -1.5440  0.1923  0.0739
16419TIP3   OH270671   5.012   5.687  14.601 -0.2559  0.4546  0.0896
16419TIP3    H170672   4.928   5.733  14.603 -0.5143  0.1422 -1.8651
16419TIP3    H270673   5.047   5.699  14.690 -1.6374  1.9042  0.5062
16420TIP3   OH270674   4.627   1.023  12.192 -0.0941 -0.6286 -0.4117
16420TIP3    H170675   4.608   1.116  12.205 -1.1313 -0.7124 -1.1936
16420TIP3    H270676   4.594   0.980  12.271  0.7771 -0.2928  0.1417
16421TIP3   OH270677   3.724   5.768   1.912  0.1990 -0.1254  0.2370
16421TIP3    H170678   3.636   5.797   1.936  0.1389  0.2398 -0.3906
16421TIP3    H270679   3.725   5.674   1.933 -0.8211 -0.4544 -1.0275
16422TIP3   OH270680   3.368   1.946  16.159  0.0585  0.0846  0.3327
16422TIP3    H170681   3.445   2.003  16.160 -0.4133  0.7295  1.6361
16422TIP3    H270682   3.299   1.999  16.119  0.1645 -0.3657 -0.4892
16423TIP3   OH270683   2.534   3.898  14.679  0.6104 -0.0387  0.3988
16423TIP3    H170684   2.452   3.931  14.644 -0.2309 -2.4255 -0.0910
16423TIP3    H270685   2.596   3.970  14.667 -1.1490  1.4579 -0.1641
16424TIP3   OH270686   4.816   6.047  16.622  0.5706  0.0754  0.2919
16424TIP3    H170687   4.819   6.010  16.534  1.2918 -2.7793  1.4122
16424TIP3    H270688   4.722   6.058  16.640  0.4107  0.4911 -0.7305
16425TIP3   OH270689   5.319   0.865  14.468  0.3090  0.0448  0.2482
16425TIP3    H170690   5.359   0.783  14.498  1.4737  0.4072 -0.2437
16425TIP3    H270691   5.230   0.840  14.442 -0.3023 -0.5486  2.6243
16426TIP3   OH270692   5.775   5.757   2.575 -0.1210 -0.7435 -0.1109
16426TIP3    H170693   5.766   5.848   2.550  0.0796 -1.0216 -1.2638
16426TIP3    H270694   5.712   5.745   2.646 -0.4017  0.1942 -0.1881
16427TIP3   OH270695   2.727   5.126  15.953 -0.0323  0.6473 -0.2278
16427TIP3    H170696   2.718   5.099  16.044  1.7806 -1.2638 -0.5472
16427TIP3    H270697   2.710   5.046  15.903  1.0625  1.1525 -1.4550
16428TIP3   OH270698   2.735   3.960  14.919  0.4389 -0.5025  0.0137
16428TIP3    H170699   2.721   4.022  14.847 -1.4188 -0.8367  0.0523
16428TIP3    H270700   2.822   3.982  14.952 -0.2555  2.3342  0.2396
16429TIP3   OH270701   0.303   5.701   0.270 -0.6431 -0.1096 -0.2786
16429TIP3    H170702   0.292   5.636   0.339 -0.8980  1.0503  0.7936
16429TIP3    H270703   0.329   5.781   0.315  0.3121  0.3870 -1.6375
16430TIP3   OH270704   4.337   1.354  14.467  0.0523 -0.0386  0.2459
16430TIP3    H170705   4.286   1.436  14.467  0.0934  0.0474 -2.1441
16430TIP3    H270706   4.305   1.306  14.391  1.5580 -1.2826  0.3607
16431TIP3   OH270707   1.066   2.571   5.817 -0.3928  0.8982 -0.3066
16431TIP3    H170708   1.096   2.535   5.901  3.9337  1.1513 -1.4996
16431TIP3    H270709   1.067   2.666   5.830 -1.2631  0.9071 -0.2421
16432TIP3   OH270710   2.455   4.268   5.823 -0.4416  0.2773 -0.5527
16432TIP3    H170711   2.415   4.321   5.753 -0.3462 -0.8092 -1.4627
16432TIP3    H270712   2.385   4.257   5.887 -0.7910  0.6166 -0.8651
16433TIP3   OH270713   1.427   0.977   3.726 -0.6135 -0.4832 -0.8125
16433TIP3    H170714   1.486   0.935   3.789  0.5363  2.9486  0.6434
16433TIP3    H270715   1.469   1.061   3.707 -3.1701  0.4757 -2.7950
16434TIP3   OH270716   3.528   2.862   1.033  0.0690 -0.2373  1.4800
16434TIP3    H170717   3.569   2.936   0.989  0.2718 -1.1759  0.0258
16434TIP3    H270718   3.473   2.821   0.966 -1.2529 -0.5125  2.6752
16435TIP3   OH270719   4.698   2.183   2.836  0.1658  0.0425 -0.1526
16435TIP3    H170720   4.712   2.274   2.808 -0.3826  0.9278  2.1952
16435TIP3    H270721   4.754   2.173   2.913 -0.0169 -1.5233 -0.1980
16436TIP3   OH270722   6.041   6.514  12.067 -0.2624 -0.8446  0.3415
16436TIP3    H170723   6.015   6.606  12.055  0.6877 -0.4144  1.3743
16436TIP3    H270724   5.963   6.464  12.041 -0.9317  0.2639  0.1221
16437TIP3   OH270725   6.122   2.508   3.968 -1.0904 -0.2261  0.2266
16437TIP3    H170726   6.099   2.476   4.055  0.2862 -2.4605 -0.1550
16437TIP3    H270727   6.109   2.433   3.911  0.6986  0.3570 -1.0284
16438TIP3   OH270728   6.245   5.834   3.327 -0.2189  0.4397 -0.1690
16438TIP3    H170729   6.159   5.800   3.299  0.4182 -0.7055 -0.8316
16438TIP3    H270730   6.302   5.817   3.252  0.6575  0.9187  0.3786
16439TIP3   OH270731   5.372   1.976   1.866 -0.0395 -0.7474 -0.5834
16439TIP3    H170732   5.398   2.013   1.950  1.9349 -2.2160 -0.4872
16439TIP3    H270733   5.385   2.047   1.803 -1.7441  0.4361  0.3130
16440TIP3   OH270734   0.285   6.199   4.244 -0.3418 -0.3074 -0.7133
16440TIP3    H170735   0.282   6.274   4.303  1.7675 -0.3936 -0.4376
16440TIP3    H270736   0.334   6.132   4.292 -1.8769 -1.7613 -1.0925
16441TIP3   OH270737   3.474   5.167  14.476  0.2749 -0.0138 -0.0221
16441TIP3    H170738   3.385   5.183  14.507 -0.4873  0.0625 -2.0843
16441TIP3    H270739   3.493   5.077  14.502  0.5306  0.6963  2.4437
16442TIP3   OH270740   5.674   2.602   0.155  0.2488  0.0473 -0.4051
16442TIP3    H170741   5.711   2.601   0.243  0.8356 -0.1107 -0.6477
16442TIP3    H270742   5.750   2.593   0.097  0.1750  2.5933 -1.0270
16443TIP3   OH270743   2.055   2.215  14.409 -0.2484  0.6887  0.4187
16443TIP3    H170744   2.146   2.208  14.437  0.3429  1.3220 -1.1907
16443TIP3    H270745   2.059   2.266  14.328 -1.9239 -0.2287 -0.3007
16444TIP3   OH270746   2.344   2.416   3.763 -0.6523  0.4546 -0.6120
16444TIP3    H170747   2.400   2.477   3.811 -1.6454  1.3574 -0.5564
16444TIP3    H270748   2.314   2.466   3.688  1.3838 -1.1307 -2.6118
16445TIP3   OH270749   3.369   2.233   0.678  0.2504  0.2264  0.2709
16445TIP3    H170750   3.398   2.166   0.616  0.3909  0.7649 -0.2483
16445TIP3    H270751   3.447   2.252   0.731 -0.2428 -1.3254  1.6550
16446TIP3   OH270752   1.942   6.701  12.263  0.4793  0.1809  0.1408
16446TIP3    H170753   2.003   6.745  12.204 -0.8457 -0.4078 -1.7665
16446TIP3    H270754   1.932   6.613  12.226 -0.6686 -0.0961  1.0382
16447TIP3   OH270755   5.919   0.588  15.425 -0.2453  0.2336 -0.1950
16447TIP3    H170756   5.931   0.512  15.369 -1.4186 -0.3828  0.3558
16447TIP3    H270757   5.848   0.564  15.484 -0.7691  1.8207 -0.1198
16448TIP3   OH270758   0.668   5.904  13.763  0.2786  0.1284  0.2851
16448TIP3    H170759   0.637   5.932  13.849  1.9902  0.1547  0.9302
16448TIP3    H270760   0.708   5.818  13.778 -1.9256 -1.2343 -1.0516
16449TIP3   OH270761   3.839   6.031   3.125  0.5429  0.3216 -0.6819
16449TIP3    H170762   3.744   6.041   3.128  0.5138 -0.0697  0.9518
16449TIP3    H270763   3.869   6.097   3.063 -0.6512  1.8294  0.2625
16450TIP3   OH270764   1.285   2.793  11.600 -0.1269 -0.4942 -0.0855
16450TIP3    H170765   1.334   2.718  11.633  1.6730  0.4588 -0.4805
16450TIP3    H270766   1.309   2.798  11.507 -0.6763  0.2269 -0.1943
16451TIP3   OH270767   2.963   2.973   0.343 -0.0080 -0.1776  0.4574
16451TIP3    H170768   2.971   3.014   0.256  0.0711 -0.8842  0.1250
16451TIP3    H270769   2.948   3.046   0.402 -0.1746  0.3064 -0.1683
16452TIP3   OH270770   4.258   0.446  10.368  0.0188 -0.3020  0.0019
16452TIP3    H170771   4.239   0.356  10.392 -0.0272 -0.3266 -0.1237
16452TIP3    H270772   4.354   0.451  10.369  0.0161 -0.2903  0.2291
16453TIP3   OH270773   2.590   6.384   1.408  0.5413 -0.2750 -0.0168
16453TIP3    H170774   2.642   6.461   1.386  1.6822 -0.8832  0.4377
16453TIP3    H270775   2.603   6.372   1.502  0.5706 -1.1517 -0.1203
16454TIP3   OH270776   6.200   0.842   2.161 -0.0041  0.0202 -0.6965
16454TIP3    H170777   6.217   0.860   2.069 -1.7574  2.7454 -0.6013
16454TIP3    H270778   6.220   0.925   2.205 -0.9696 -0.6608  1.1146
16455TIP3   OH270779   2.155   3.069   2.243 -0.2539 -0.4072  0.4757
16455TIP3    H170780   2.149   2.979   2.212 -0.2195 -0.2701  0.0666
16455TIP3    H270781   2.065   3.095   2.262 -0.0862 -1.2811  2.7949
16456TIP3   OH270782   2.904   0.367   5.899  0.1198  0.2111  0.3053
16456TIP3    H170783   2.986   0.339   5.939  0.2316 -0.2034 -0.2116
16456TIP3    H270784   2.870   0.434   5.959 -0.0681 -0.8961  1.4700
16457TIP3   OH270785   5.184   2.674  16.561 -0.0890 -0.8817  0.3123
16457TIP3    H170786   5.099   2.684  16.604 -0.1179 -1.2046  0.3385
16457TIP3    H270787   5.188   2.745  16.498  0.1898 -0.0542  1.2392
16458TIP3   OH270788   6.387   3.916  12.323 -0.4820  0.4107 -0.0460
16458TIP3    H170789   6.470   3.952  12.355 -0.2108  0.2136 -0.5052
16458TIP3    H270790   6.329   3.915  12.399  0.4497 -0.9801  0.6983
16459TIP3   OH270791   3.263   1.915   4.208 -0.3569 -0.1953 -0.6669
16459TIP3    H170792   3.189   1.971   4.185 -0.8851 -0.4071  0.4949
16459TIP3    H270793   3.340   1.972   4.199 -0.4850 -0.2758 -3.0178
16460TIP3   OH270794   0.345   0.674   2.086  0.4857  0.0645 -0.0027
16460TIP3    H170795   0.275   0.739   2.078  2.3034  1.9620 -1.9616
16460TIP3    H270796   0.412   0.704   2.024  2.9869 -1.7027  1.6779
16461TIP3   OH270797   3.088   2.257   5.082  0.8054 -0.0498  0.0045
16461TIP3    H170798   3.008   2.303   5.108 -0.0974 -1.4231 -0.2400
16461TIP3    H270799   3.147   2.267   5.156  0.0411  0.1627  0.5951
16462TIP3   OH270800   0.163   5.647   1.578  0.1146  0.4633 -0.0105
16462TIP3    H170801   0.217   5.622   1.653  2.3542  2.3011 -0.9119
16462TIP3    H270802   0.194   5.592   1.506  2.7124  3.1879 -1.1565
16463TIP3   OH270803   5.288   3.995  14.788 -0.2687 -0.4420  0.1163
16463TIP3    H170804   5.371   3.989  14.835 -0.7088  2.3731  1.4710
16463TIP3    H270805   5.308   4.047  14.710 -0.8270  0.9115  0.8362
16464TIP3   OH270806   2.665   4.628  13.570  0.1669  0.1478  0.5791
16464TIP3    H170807   2.725   4.623  13.645  0.2775  0.1000  0.4874
16464TIP3    H270808   2.632   4.718  13.573  2.4984  1.1775 -1.0852
16465TIP3   OH270809   6.416   5.486   5.254 -0.1095 -0.1926  0.6035
16465TIP3    H170810   6.350   5.419   5.236 -0.9504  0.7257  0.1525
16465TIP3    H270811   6.477   5.445   5.315 -1.0010 -1.1230  0.8797
16466TIP3   OH270812   4.147   2.138   5.540 -0.1761  0.0449 -0.0135
16466TIP3    H170813   4.145   2.123   5.635  0.4397  0.9652  0.1568
16466TIP3    H270814   4.239   2.127   5.516  0.1279  2.2688 -0.0622
16467TIP3   OH270815   5.219   0.936   4.752  0.1371 -0.0451 -0.4185
16467TIP3    H170816   5.188   0.881   4.823  1.0595 -0.2265 -0.1455
16467TIP3    H270817   5.286   0.883   4.708  1.0710  0.8630 -0.1250
16468TIP3   OH270818   4.430   5.890  14.204  0.1265 -1.0158  0.1783
16468TIP3    H170819   4.467   5.962  14.256 -3.1872 -0.2458  1.7224
16468TIP3    H270820   4.476   5.812  14.235  1.0596 -0.0488  1.3347
16469TIP3   OH270821   4.894   5.427   1.757 -0.6150 -0.1576  0.2399
16469TIP3    H170822   4.980   5.442   1.718  0.0801  0.4061  1.8913
16469TIP3    H270823   4.836   5.489   1.712  0.3281  1.0542  0.6373
16470TIP3   OH270824   2.484   1.840  16.167 -0.1432 -0.2673  0.0107
16470TIP3    H170825   2.390   1.821  16.162 -0.7182  1.4379  2.2783
16470TIP3    H270826   2.492   1.932  16.140  0.5826  0.1041  1.3757
16471TIP3   OH270827   6.170   4.404   5.850 -0.0881 -0.2758  0.1082
16471TIP3    H170828   6.166   4.498   5.868  0.7765 -0.1480 -0.3388
16471TIP3    H270829   6.194   4.398   5.758  0.0843 -0.9432  0.1902
16472TIP3   OH270830   6.783   2.284  16.406 -0.0773 -0.3780  0.1214
16472TIP3    H170831   6.708   2.337  16.377  1.0832  0.8393 -0.8119
16472TIP3    H270832   6.842   2.283  16.331 -0.0051 -3.0278  0.1249
16473TIP3   OH270833   5.084   4.952  15.093  0.6899 -0.1336 -0.2601
16473TIP3    H170834   4.994   4.942  15.122  0.3587 -0.1286 -1.2463
16473TIP3    H270835   5.123   4.865  15.104  0.4859 -0.2070 -0.1097
16474TIP3   OH270836   4.888   0.087  11.043 -0.9175  0.0205 -0.6626
16474TIP3    H170837   4.923   0.036  11.116 -1.8565  1.3123  0.7693
16474TIP3    H270838   4.888   0.027  10.969  1.5178 -0.8830 -0.0249
16475TIP3   OH270839   5.051   2.589   2.023  0.4600  0.2321  0.0868
16475TIP3    H170840   5.118   2.655   2.006 -0.3530  1.3287  0.9462
16475TIP3    H270841   5.098   2.506   2.025  1.3272  0.6154 -2.2453
16476TIP3   OH270842   0.300   2.535  12.352 -0.5511 -0.3593  0.3231
16476TIP3    H170843   0.217   2.544  12.304  0.0560 -0.1073 -0.7087
16476TIP3    H270844   0.322   2.624  12.380 -0.4974 -0.3867  0.3670
16477TIP3   OH270845   1.266   6.738  13.144  0.1712 -0.0877  0.1015
16477TIP3    H170846   1.205   6.699  13.082 -1.0990  0.4836  0.9519
16477TIP3    H270847   1.255   6.832  13.134  1.1665  0.0392  0.0441
16478TIP3   OH270848   4.930   2.793  11.386 -0.0833  0.3255 -0.0854
16478TIP3    H170849   4.869   2.725  11.414  0.3579 -0.3517 -0.7330
16478TIP3    H270850   5.001   2.789  11.449 -0.4808  0.8122  0.4063
16479TIP3   OH270851   3.098   2.710   0.187  0.2733  0.0453 -0.0871
16479TIP3    H170852   3.133   2.623   0.210  0.2472  0.0330 -0.0946
16479TIP3    H270853   3.048   2.736   0.264 -0.3935 -0.2967 -0.4024
16480TIP3   OH270854   3.001   6.135  14.899 -0.2927 -0.0670 -0.1993
16480TIP3    H170855   3.014   6.083  14.978  0.1987 -1.7880 -1.3658
16480TIP3    H270856   3.079   6.191  14.894 -0.7367  0.6946  0.9589
16481TIP3   OH270857   5.781   5.923  13.126 -0.5483 -0.3597 -0.6878
16481TIP3    H170858   5.790   5.979  13.049 -0.1479 -0.6269 -0.8392
16481TIP3    H270859   5.819   5.839  13.099  3.3403  0.6105  0.9599
16482TIP3   OH270860   1.921   5.292  11.307  0.3978  0.4652  0.3034
16482TIP3    H170861   1.941   5.315  11.398  0.2640  0.0938  0.4287
16482TIP3    H270862   2.004   5.304  11.261  0.2646  1.4774  0.3028
16483TIP3   OH270863   6.584   2.545  12.514 -0.6620 -0.1792  0.3374
16483TIP3    H170864   6.552   2.626  12.474 -1.2782 -1.0130 -0.8981
16483TIP3    H270865   6.511   2.514  12.567 -0.1704  0.4291  1.4151
16484TIP3   OH270866   2.872   1.570  14.299 -0.8360  0.1406  0.3088
16484TIP3    H170867   2.951   1.549  14.249 -0.5868  0.3632  0.6065
16484TIP3    H270868   2.901   1.634  14.363 -1.4466  0.8735 -0.1376
16485TIP3   OH270869   0.613   0.452  14.961 -0.6661  0.3935 -0.2459
16485TIP3    H170870   0.605   0.360  14.935  0.9731  0.0379  0.3630
16485TIP3    H270871   0.586   0.454  15.052  2.3745 -0.2060  0.8090
16486TIP3   OH270872   5.332   6.066   3.832 -0.2792  0.5268 -0.0243
16486TIP3    H170873   5.354   6.131   3.765  0.7396  1.7152  1.4115
16486TIP3    H270874   5.250   6.027   3.800 -0.4210  1.8358 -1.4102
16487TIP3   OH270875   2.225   4.892  13.896 -0.3294  0.1838  0.2385
16487TIP3    H170876   2.181   4.808  13.908  0.0851 -0.5454 -2.5274
16487TIP3    H270877   2.161   4.946  13.848  0.3123  0.5281 -0.2518
16488TIP3   OH270878   0.668   0.885   5.615  0.7225 -0.1197  0.2075
16488TIP3    H170879   0.585   0.905   5.658 -1.2591  1.9523 -3.9372
16488TIP3    H270880   0.729   0.952   5.645  0.3424 -0.4428  1.7624
16489TIP3   OH270881   3.487   0.624  13.787 -0.4941  0.2206  0.3241
16489TIP3    H170882   3.426   0.589  13.722 -1.1674 -0.2302  1.1933
16489TIP3    H270883   3.455   0.712  13.806 -0.0110  0.5410 -0.3065
16490TIP3   OH270884   0.416   0.430   3.221 -0.5128  0.1100  0.4439
16490TIP3    H170885   0.472   0.363   3.259 -0.2853  0.3119  0.4687
16490TIP3    H270886   0.333   0.386   3.204  0.3449 -0.8233 -1.7351
16491TIP3   OH270887   5.519   0.670   2.995  0.5323 -0.0699  0.6422
16491TIP3    H170888   5.603   0.695   2.955 -0.2153  0.4393 -0.6772
16491TIP3    H270889   5.474   0.752   3.011 -0.0532 -0.3648  0.5481
16492TIP3   OH270890   2.148   2.475  13.192  0.0021  0.0284 -0.7560
16492TIP3    H170891   2.244   2.471  13.195 -0.0372 -2.9013 -0.9258
16492TIP3    H270892   2.126   2.543  13.256  2.1257 -1.3180  1.6283
16493TIP3   OH270893   4.878   6.313  13.512 -0.4748  0.2057  0.4159
16493TIP3    H170894   4.971   6.330  13.500 -0.9332  1.2306 -2.4072
16493TIP3    H270895   4.867   6.306  13.607  2.6660 -1.3491  0.7821
16494TIP3   OH270896   5.572   5.338  15.354 -0.5381 -0.2233 -0.4200
16494TIP3    H170897   5.582   5.406  15.288  0.0435  1.0446  0.9228
16494TIP3    H270898   5.502   5.369  15.411  2.4594  1.5284  2.7175
16495TIP3   OH270899   0.196   1.321   5.698  0.5178  0.1135  0.1039
16495TIP3    H170900   0.199   1.417   5.705  0.2949  0.1808 -0.6927
16495TIP3    H270901   0.198   1.291   5.789  0.3443  0.8819  0.3706
16496TIP3   OH270902   4.727   0.475  16.130 -0.3359  0.0697  0.1035
16496TIP3    H170903   4.671   0.402  16.105 -2.2197  0.8519  1.7372
16496TIP3    H270904   4.688   0.551  16.087  1.2984  0.2444 -1.1676
16497TIP3   OH270905   6.271   1.795   2.544  0.2968  0.2312  0.1162
16497TIP3    H170906   6.262   1.710   2.501 -0.3821  0.4802 -0.2485
16497TIP3    H270907   6.358   1.792   2.585  0.3548 -0.5644 -0.0449
16498TIP3   OH270908   6.207   1.366  11.584  0.1485  0.4435  0.5515
16498TIP3    H170909   6.302   1.372  11.593  0.1141  0.1456  1.1716
16498TIP3    H270910   6.174   1.360  11.674 -0.5498  1.6956  0.4045
16499TIP3   OH270911   1.139   5.911  15.555 -0.0317 -0.2898  0.7056
16499TIP3    H170912   1.181   5.857  15.487  1.3820  0.4204  0.9798
16499TIP3    H270913   1.158   5.865  15.636  0.2611  0.0409  0.8297
16500TIP3   OH270914   6.362   5.942  14.626  0.5025  0.9548  0.0374
16500TIP3    H170915   6.415   5.949  14.547  0.8813  0.5947  0.2614
16500TIP3    H270916   6.413   5.887  14.685 -1.3420 -1.7943 -0.7618
16501TIP3   OH270917   0.709   3.046  10.723  0.4413  0.1165  0.1297
16501TIP3    H170918   0.702   2.980  10.792 -0.8405  1.1101  0.9935
16501TIP3    H270919   0.618   3.065  10.699  0.8277 -0.8190 -2.4853
16502TIP3   OH270920   0.485   0.340   1.368  0.0639 -0.0541 -0.1466
16502TIP3    H170921   0.547   0.309   1.301 -1.6307 -1.0090 -1.3441
16502TIP3    H270922   0.451   0.260   1.408 -1.5468  0.3709 -0.6109
16503TIP3   OH270923   2.878   5.272  11.720  0.3725  0.3280  0.3532
16503TIP3    H170924   2.898   5.245  11.630 -0.1062 -0.4979  0.4759
16503TIP3    H270925   2.824   5.200  11.754  0.5030  0.6633  1.2826
16504TIP3   OH270926   5.333   4.386  12.304 -0.3613 -0.3373  0.3782
16504TIP3    H170927   5.354   4.313  12.246  1.7616  0.2713  0.3108
16504TIP3    H270928   5.363   4.358  12.390 -1.7048 -0.4529  0.8271
16505TIP3   OH270929   3.556   3.977  12.227 -0.6034 -0.3803 -0.0478
16505TIP3    H170930   3.558   3.955  12.133  0.0501  1.2422 -0.4617
16505TIP3    H270931   3.626   3.925  12.265 -1.5592 -1.8624 -0.2367
16506TIP3   OH270932   4.354   4.902   2.659 -0.2453 -0.3043  0.8345
16506TIP3    H170933   4.322   4.842   2.591  2.0703  0.3759 -1.0030
16506TIP3    H270934   4.321   4.988   2.632  1.8442  0.1984 -0.3654
16507TIP3   OH270935   3.356   4.588   3.435 -0.0974  0.1841 -0.1713
16507TIP3    H170936   3.431   4.529   3.431 -0.0728  0.2615 -1.3085
16507TIP3    H270937   3.334   4.605   3.343  0.2531  2.3929  0.1051
16508TIP3   OH270938   0.253   2.324  14.983  0.3987  0.4013 -0.1071
16508TIP3    H170939   0.189   2.258  15.009  0.9148 -0.2318 -0.4272
16508TIP3    H270940   0.203   2.388  14.933 -0.0422  0.0700 -0.0966
16509TIP3   OH270941   4.077   4.852   3.866 -0.0594  0.0512  0.0928
16509TIP3    H170942   4.136   4.785   3.900 -1.0591 -1.9736 -1.9227
16509TIP3    H270943   3.990   4.827   3.896 -0.2243  1.8946  1.3592
16510TIP3   OH270944   5.031   1.774   1.451  0.3309  0.2905 -0.0695
16510TIP3    H170945   4.955   1.823   1.481  1.1742  0.8308  1.2595
16510TIP3    H270946   5.040   1.702   1.514  2.8540  2.1398  1.9167
16511TIP3   OH270947   1.263   0.951  11.508 -0.1470  0.2715 -0.2656
16511TIP3    H170948   1.207   1.015  11.464 -0.6453  1.2080  1.5979
16511TIP3    H270949   1.203   0.900  11.562  0.4425 -0.8400 -0.6276
16512TIP3   OH270950   1.429   1.237  13.901 -0.0526 -0.2513 -0.3599
16512TIP3    H170951   1.523   1.252  13.886 -0.1283 -0.6263 -1.2570
16512TIP3    H270952   1.424   1.145  13.927 -0.2174 -0.3383 -0.7047
16513TIP3   OH270953   4.281   0.159   0.598  0.5521  0.2115  1.4547
16513TIP3    H170954   4.290   0.069   0.629 -0.3567 -1.0415 -1.5071
16513TIP3    H270955   4.190   0.164   0.566  1.0103  1.6776  0.2392
16514TIP3   OH270956   1.433   5.159   5.355  0.0083 -0.1206 -0.5756
16514TIP3    H170957   1.517   5.171   5.311  1.3056  3.1089  2.3016
16514TIP3    H270958   1.374   5.223   5.314  0.8300  1.9166  1.2119
16515TIP3   OH270959   4.317   0.299  13.838 -0.4609  0.0239  0.6017
16515TIP3    H170960   4.307   0.217  13.790  0.4681 -0.1971  0.7581
16515TIP3    H270961   4.402   0.291  13.881 -0.2171  1.2034  0.3631
16516TIP3   OH270962   0.411   1.332   0.326  0.0984 -0.5994  0.2015
16516TIP3    H170963   0.382   1.266   0.390 -1.3794  0.5143  0.7392
16516TIP3    H270964   0.342   1.398   0.328  1.7281  1.1722 -0.0397
16517TIP3   OH270965   5.116   5.114   2.147  0.0646  0.9379 -0.1468
16517TIP3    H170966   5.168   5.073   2.078 -0.4983  1.3042 -0.8033
16517TIP3    H270967   5.026   5.113   2.113 -0.0199  2.3590 -0.0212
16518TIP3   OH270968   6.603   1.043  10.989 -0.0592  0.1735 -0.2764
16518TIP3    H170969   6.544   1.079  11.055 -1.7619  0.5078 -1.8774
16518TIP3    H270970   6.561   0.961  10.962  0.5265  0.1132 -1.0270
16519TIP3   OH270971   6.098   0.408  13.367 -0.2048  0.2064 -0.1971
16519TIP3    H170972   6.166   0.474  13.383  1.2808 -1.2901 -0.0191
16519TIP3    H270973   6.146   0.325  13.364 -1.9795 -0.8512 -0.6418
16520TIP3   OH270974   5.098   0.955   5.281  0.7272  0.5302  0.3512
16520TIP3    H170975   5.022   1.010   5.301  0.2589  0.3608 -0.9098
16520TIP3    H270976   5.061   0.875   5.244  1.5157  0.3548 -0.0755
16521TIP3   OH270977   5.418   6.652  11.470 -0.1583  0.1434 -0.0373
16521TIP3    H170978   5.462   6.720  11.418  0.3572 -0.7484 -0.7962
16521TIP3    H270979   5.484   6.623  11.533  0.0335 -0.5115 -0.5320
16522TIP3   OH270980   3.694   2.372  13.303  0.6706  0.2356  0.1294
16522TIP3    H170981   3.648   2.454  13.318  0.9229  0.5882 -0.9357
16522TIP3    H270982   3.673   2.318  13.379 -1.4058  0.4146 -0.2769
16523TIP3   OH270983   3.946   0.975   4.505  0.0073 -0.1281  0.0993
16523TIP3    H170984   3.943   0.879   4.508 -0.8940 -0.1517 -0.8880
16523TIP3    H270985   3.993   0.995   4.424 -1.0182  0.2407 -0.4232
16524TIP3   OH270986   1.057   1.131  13.481  0.2469 -0.0651  0.5172
16524TIP3    H170987   1.079   1.120  13.573 -0.2479 -0.5275  0.5822
16524TIP3    H270988   0.976   1.182  13.481 -0.2475 -0.8368  0.3719
16525TIP3   OH270989   4.168   1.653   1.309 -0.1070  0.0373 -0.9238
16525TIP3    H170990   4.190   1.657   1.216 -0.0873  1.6982 -0.8733
16525TIP3    H270991   4.124   1.736   1.327  0.9877  0.2877  0.8124
16526TIP3   OH270992   4.711   5.207   3.487  0.3709 -0.2590 -0.4443
16526TIP3    H170993   4.709   5.127   3.435  1.9605  0.2690 -1.4068
16526TIP3    H270994   4.663   5.271   3.434 -0.5705 -0.4730  0.1447
16527TIP3   OH270995   2.622   6.261   0.180 -0.2174  0.5349 -0.0684
16527TIP3    H170996   2.678   6.285   0.107 -1.4911 -1.0291 -1.6438
16527TIP3    H270997   2.536   6.297   0.158 -0.1880  1.8641  1.7286
16528TIP3   OH270998   2.778   0.404  15.611 -0.4652  0.6750  0.2454
16528TIP3    H170999   2.701   0.462  15.609  0.0818  1.4204  0.2137
16528TIP3    H271000   2.744   0.320  15.642 -1.2143  1.1147  0.6576
16529TIP3   OH271001   2.632   3.262   4.511 -0.5078 -0.0461 -0.8403
16529TIP3    H171002   2.591   3.190   4.463  0.5063 -1.1479 -0.1303
16529TIP3    H271003   2.574   3.279   4.585 -1.1642  0.4376 -1.4583
16530TIP3   OH271004   0.476   4.512  13.221 -0.1225  0.2951 -0.0340
16530TIP3    H171005   0.522   4.430  13.201 -0.5633  0.0815 -0.1877
16530TIP3    H271006   0.407   4.517  13.155 -0.4518  0.5046  0.3260
16531TIP3   OH271007   6.567   4.248  12.918 -0.5107  0.3173  0.0054
16531TIP3    H171008   6.647   4.222  12.872 -0.0253 -0.0898  1.0605
16531TIP3    H271009   6.595   4.318  12.977 -1.1668  0.9589 -0.4168
16532TIP3   OH271010   2.217   3.353  16.352  0.5445  0.1384 -0.0176
16532TIP3    H171011   2.280   3.281  16.349 -0.3133 -0.6568  0.5113
16532TIP3    H271012   2.222   3.392  16.264  2.4781  0.7529  0.3150
16533TIP3   OH271013   3.621   2.572  11.246 -0.8222  1.0531 -0.5702
16533TIP3    H171014   3.565   2.511  11.293  0.7985 -0.2009 -0.1788
16533TIP3    H271015   3.572   2.595  11.167 -2.1972  0.6447  0.1397
16534TIP3   OH271016   2.962   5.125   5.784  0.1367  0.0184 -0.4017
16534TIP3    H171017   2.978   5.192   5.718 -2.1412  2.1317  1.0682
16534TIP3    H271018   3.007   5.157   5.862 -0.4302 -0.4982  0.1435
16535TIP3   OH271019   6.479   0.718   4.492  0.5273 -0.1694 -0.0275
16535TIP3    H171020   6.562   0.724   4.445  1.6735 -2.4242  1.5554
16535TIP3    H271021   6.446   0.808   4.494  2.9444  0.7924 -0.6464
16536TIP3   OH271022   1.003   6.040   3.109  0.4309 -0.3216 -0.4358
16536TIP3    H171023   1.077   6.068   3.055  0.9485 -0.2468  0.3003
16536TIP3    H271024   0.947   6.117   3.115  0.7528 -0.0977 -0.2427
16537TIP3   OH271025   1.319   5.133  10.855 -0.5925 -1.0232 -0.2288
16537TIP3    H171026   1.234   5.093  10.875 -0.0834 -1.2353  1.7234
16537TIP3    H271027   1.360   5.072  10.794 -1.1119 -1.8803  0.2487
16538TIP3   OH271028   0.422   1.015   5.426 -0.7705  0.1151  0.3809
16538TIP3    H171029   0.421   1.108   5.449  1.2306 -0.4360  3.1936
16538TIP3    H271030   0.421   0.969   5.510  1.1387 -2.3326 -0.7966
16539TIP3   OH271031   4.275   3.205  12.415  0.2362  0.1331 -0.5997
16539TIP3    H171032   4.190   3.228  12.452  1.1726 -0.2121  2.0555
16539TIP3    H271033   4.260   3.124  12.366 -1.2104  0.9161 -1.4951
16540TIP3   OH271034   2.688   4.414  12.256 -0.9484  0.1451  0.5975
16540TIP3    H171035   2.677   4.486  12.193 -0.0376 -0.3695 -0.1775
16540TIP3    H271036   2.757   4.360  12.218 -0.9591 -0.6273  1.6485
16541TIP3   OH271037   2.698   0.864   2.699 -0.2378  0.6364 -0.8977
16541TIP3    H171038   2.784   0.840   2.733 -0.9910  0.9689  1.4187
16541TIP3    H271039   2.639   0.858   2.774 -2.6892 -1.5382 -2.7980
16542TIP3   OH271040   2.748   4.857  11.435  0.2447 -0.1156 -0.2772
16542TIP3    H171041   2.843   4.842  11.429  0.2986  0.5465 -1.2838
16542TIP3    H271042   2.740   4.934  11.491  0.3009 -0.1922 -0.1637
16543TIP3   OH271043   6.620   4.695  14.005  0.3987 -0.0111  0.2203
16543TIP3    H171044   6.712   4.685  14.031  0.9621  0.9427 -1.2788
16543TIP3    H271045   6.621   4.690  13.910 -1.2661 -0.9816  0.2112
16544TIP3   OH271046   1.279   5.984  11.699  0.1891  0.6611 -0.0929
16544TIP3    H171047   1.214   5.918  11.722  1.1834  0.1046  1.2388
16544TIP3    H271048   1.269   5.994  11.604  0.2826 -1.7406 -0.4428
16545TIP3   OH271049   6.264   1.995   4.830  0.3351 -0.0426 -0.3745
16545TIP3    H171050   6.173   2.024   4.825  0.4678  0.1718 -2.4039
16545TIP3    H271051   6.264   1.910   4.786  1.4276  0.8554 -2.1959
16546TIP3   OH271052   4.684   2.835  13.270 -0.2319 -0.0316 -0.4281
16546TIP3    H171053   4.673   2.831  13.176  0.2482 -0.6530 -0.4687
16546TIP3    H271054   4.717   2.748  13.294  3.4568  1.2336 -0.2146
16547TIP3   OH271055   2.088   5.199   5.409  0.0307 -0.2146  0.0091
16547TIP3    H171056   2.142   5.135   5.456  2.0115  0.1019 -1.7011
16547TIP3    H271057   2.127   5.283   5.430 -0.0772  0.0700 -0.8968
16548TIP3   OH271058   1.467   4.376   0.773  0.1608 -0.0582 -0.0935
16548TIP3    H171059   1.380   4.352   0.807 -2.0017  1.2748 -4.0653
16548TIP3    H271060   1.512   4.292   0.761 -0.5180 -0.7847  1.9579
16549TIP3   OH271061   0.473   1.192  16.272  0.0168  0.5969 -0.5724
16549TIP3    H171062   0.486   1.241  16.190  0.9226  0.9382 -0.2471
16549TIP3    H271063   0.453   1.259  16.337 -2.8587  0.1541 -0.8794
16550TIP3   OH271064   3.164   1.827  14.166 -0.8141 -0.1083 -0.0632
16550TIP3    H171065   3.216   1.904  14.187  0.4016 -1.2515  1.2677
16550TIP3    H271066   3.074   1.852  14.188 -0.4933  1.0212  0.0188
16551TIP3   OH271067   5.095   4.710   3.878 -0.2564  0.4553  0.1875
16551TIP3    H171068   5.128   4.621   3.883 -2.0972 -0.1809  2.8073
16551TIP3    H271069   5.016   4.703   3.824 -0.1471  0.6181  0.0023
16552TIP3   OH271070   0.401   2.971  14.132 -0.0587  0.6398  0.0859
16552TIP3    H171071   0.356   2.908  14.076 -2.1340  1.0165  1.2235
16552TIP3    H271072   0.333   3.032  14.160  1.6937  2.9065 -0.2330
16553TIP3   OH271073   1.004   0.740  12.147  0.0167 -0.6095  0.0175
16553TIP3    H171074   1.057   0.663  12.165 -2.8112 -3.3668 -2.2530
16553TIP3    H271075   1.041   0.777  12.067 -0.0576 -1.1024 -0.2483
16554TIP3   OH271076   2.405   6.473   6.352 -0.8078 -0.2040  0.4680
16554TIP3    H171077   2.474   6.451   6.290  0.8298 -0.3480  2.2818
16554TIP3    H271078   2.325   6.474   6.299  0.4566 -0.7433 -1.5406
16555TIP3   OH271079   3.144   6.106  12.487 -0.2037 -0.0602  0.0276
16555TIP3    H171080   3.080   6.171  12.458 -2.7318 -2.6766 -0.7822
16555TIP3    H271081   3.144   6.039  12.419  1.7391 -1.2916  1.1198
16556TIP3   OH271082   0.953   5.397   4.078  0.0680  0.2040 -0.0277
16556TIP3    H171083   0.966   5.325   4.017  0.2272  0.9882 -0.9579
16556TIP3    H271084   1.041   5.433   4.093 -0.2009  1.4660 -1.2144
16557TIP3   OH271085   6.189   1.506  13.664  0.2095  0.9309 -0.3413
16557TIP3    H171086   6.226   1.544  13.744 -0.3905  0.3879  0.2025
16557TIP3    H271087   6.228   1.419  13.658  1.9413  1.7624 -1.8372
16558TIP3   OH271088   2.267   1.721  16.054 -0.1249 -0.1164 -0.4113
16558TIP3    H171089   2.295   1.637  16.091 -2.2105 -0.8486 -0.2961
16558TIP3    H271090   2.197   1.697  15.992  0.2990  1.4292 -1.5533
16559TIP3   OH271091   6.335   3.695  11.263 -0.1469  0.2913 -0.0345
16559TIP3    H171092   6.423   3.729  11.281 -0.2474  0.1309  0.7747
16559TIP3    H271093   6.302   3.669  11.348  0.4720 -3.1851 -0.7243
16560TIP3   OH271094   6.066   1.331   0.129 -0.0389 -0.1077 -0.4525
16560TIP3    H171095   6.045   1.239   0.146  2.2019 -0.9069 -1.5300
16560TIP3    H271096   5.990   1.365   0.083  0.1977 -2.3133 -2.7072
16561TIP3   OH271097   0.122   6.192   3.677 -0.2809  0.1530  0.1028
16561TIP3    H171098   0.114   6.247   3.755 -1.6679 -0.4123  0.3941
16561TIP3    H271099   0.086   6.107   3.703  1.5505 -0.8535 -0.4195
16562TIP3   OH271100   1.446   3.575   1.317  0.8435 -0.2803 -0.0235
16562TIP3    H171101   1.431   3.620   1.400 -1.0642 -2.4765  0.9406
16562TIP3    H271102   1.373   3.601   1.261  2.4797  1.7281 -1.3647
16563TIP3   OH271103   0.295   5.302   5.372 -0.0508 -0.4568 -0.5514
16563TIP3    H171104   0.206   5.271   5.354 -0.2047 -0.7292  0.6080
16563TIP3    H271105   0.331   5.323   5.286 -1.1594 -0.5583 -1.0553
16564TIP3   OH271106   5.960   0.535  12.191 -0.2398  0.6716  0.4942
16564TIP3    H171107   5.897   0.532  12.120 -0.8276 -0.1374  1.0249
16564TIP3    H271108   6.034   0.481  12.160 -0.3299  0.6346  0.3448
16565TIP3   OH271109   5.799   1.292   0.289  0.1991 -0.2077  0.1581
16565TIP3    H171110   5.760   1.258   0.369 -1.2204  0.1934 -0.3224
16565TIP3    H271111   5.816   1.384   0.308  2.0712 -0.6452  0.7577
16566TIP3   OH271112   1.412   5.507  14.515  0.1418  0.2205  0.3152
16566TIP3    H171113   1.387   5.531  14.604 -2.3425  0.0389 -0.2750
16566TIP3    H271114   1.344   5.545  14.460  1.5301  0.1814 -1.5153
16567TIP3   OH271115   4.255   0.197   4.526 -0.1948 -0.0854 -0.1825
16567TIP3    H171116   4.216   0.172   4.610  0.8579  0.0099  0.3653
16567TIP3    H271117   4.224   0.132   4.464 -1.0808 -0.0963  0.2595
16568TIP3   OH271118   3.963   6.604  14.932 -0.3199  0.1210 -0.1202
16568TIP3    H171119   3.895   6.612  14.865 -0.9861 -1.1610  0.3590
16568TIP3    H271120   3.996   6.693  14.944 -2.9538  1.1037  0.6756
16569TIP3   OH271121   5.999   2.720  12.799 -0.1812 -0.7584  0.2305
16569TIP3    H171122   6.067   2.750  12.739 -0.4256  2.0258  1.2066
16569TIP3    H271123   5.931   2.686  12.742  0.7385 -0.7202 -0.9269
16570TIP3   OH271124   5.933   3.921  16.057  0.4400 -0.0664 -0.5968
16570TIP3    H171125   5.909   3.980  16.129 -0.3801 -2.3852  1.1461
16570TIP3    H271126   6.019   3.889  16.080  0.1990 -0.7811 -0.6701
16571TIP3   OH271127   6.755   5.085   3.826  0.1385 -0.2929 -0.0925
16571TIP3    H171128   6.788   5.037   3.750  0.1504 -0.8104  0.2341
16571TIP3    H271129   6.727   5.169   3.791 -0.3707 -0.7331 -0.7582
16572TIP3   OH271130   1.823   2.577   0.333 -0.3501  0.4383 -0.3943
16572TIP3    H171131   1.781   2.556   0.250 -0.1251 -0.1901 -0.3501
16572TIP3    H271132   1.883   2.504   0.350 -1.4076 -0.1552  1.0042
16573TIP3   OH271133   6.132   0.886  16.211  0.2272  0.1649 -0.4768
16573TIP3    H171134   6.116   0.894  16.117  1.0579  2.5080 -0.4790
16573TIP3    H271135   6.131   0.976  16.243  2.1562 -0.3989  1.3683
16574TIP3   OH271136   6.611   4.693   3.814  0.3163 -0.0013  0.1595
16574TIP3    H171137   6.553   4.690   3.738  1.6157  0.0393 -0.8516
16574TIP3    H271138   6.602   4.607   3.854  0.5474 -0.4521 -0.7453
16575TIP3   OH271139   2.299   6.045  16.509  0.3098 -0.7103 -0.2610
16575TIP3    H171140   2.297   5.956  16.543  1.6306 -0.8732 -0.5816
16575TIP3    H271141   2.380   6.082  16.543 -0.7712  0.7965  0.8784
16576TIP3   OH271142   0.851   6.006   1.304  0.3250  0.4426  0.4578
16576TIP3    H171143   0.906   5.947   1.355  1.6213  2.5509  1.6779
16576TIP3    H271144   0.885   6.093   1.324  0.4156  1.4880 -3.4948
16577TIP3   OH271145   0.562   0.390   0.435  0.2753  0.2077 -0.0105
16577TIP3    H171146   0.548   0.484   0.439 -1.8741  0.0461 -1.8473
16577TIP3    H271147   0.603   0.374   0.350  0.3135 -0.5395  0.1361
16578TIP3   OH271148   5.506   2.653   5.578  0.2472  0.0261 -0.2564
16578TIP3    H171149   5.541   2.577   5.623  1.0848 -0.0003 -0.9212
16578TIP3    H271150   5.423   2.623   5.541  0.7564 -0.7105 -0.8593
16579TIP3   OH271151   2.736   6.225  15.293  0.6517 -0.1327 -0.0823
16579TIP3    H171152   2.656   6.274  15.314  0.8928  0.8158 -1.2839
16579TIP3    H271153   2.782   6.217  15.377 -0.1672  0.2847  0.4191
16580TIP3   OH271154   2.367   1.503   2.108  0.5570  0.3768  0.1424
16580TIP3    H171155   2.430   1.450   2.157 -0.6189 -0.4734  0.7948
16580TIP3    H271156   2.319   1.550   2.175  0.3689  0.8768 -0.3380
16581TIP3   OH271157   2.851   5.476   4.513  0.5966  0.0246  0.0973
16581TIP3    H171158   2.806   5.550   4.473  0.7001  1.4138  2.3834
16581TIP3    H271159   2.884   5.425   4.438  0.9768  2.5359 -1.5762
16582TIP3   OH271160   0.670   2.791  11.934 -0.7540 -0.0042 -0.3399
16582TIP3    H171161   0.621   2.747  12.003  0.6890 -1.9452 -0.4931
16582TIP3    H271162   0.687   2.723  11.869  1.4278  0.7898 -0.6630
16583TIP3   OH271163   0.005   0.465   3.263 -0.0921  0.2930  0.4592
16583TIP3    H171164  -0.076   0.488   3.218  0.5725  0.6610 -0.5740
16583TIP3    H271165   0.028   0.542   3.314 -0.2085  0.3084  0.4882
16584TIP3   OH271166   5.498   5.413   2.573  0.4932 -0.2967  0.0287
16584TIP3    H171167   5.556   5.364   2.514  1.3326  1.1926 -0.4303
16584TIP3    H271168   5.557   5.464   2.628 -0.3175  2.0667 -1.1380
16585TIP3   OH271169   0.032   5.880  13.401  0.2922 -0.6946 -0.1053
16585TIP3    H171170   0.039   5.785  13.411  0.7796 -0.6935 -0.4298
16585TIP3    H271171   0.076   5.916  13.477  1.1330 -0.7220 -0.5671
16586TIP3   OH271172   4.125   0.957  14.040 -0.5748  0.3072  0.0160
16586TIP3    H171173   4.096   0.954  14.131  1.0349  0.2052  0.5656
16586TIP3    H271174   4.073   0.891  13.996 -1.7726  0.7404  0.7323
16587TIP3   OH271175   4.247   3.174  11.741  0.1868  0.5141  0.0630
16587TIP3    H171176   4.160   3.210  11.722 -0.6624 -1.1664  0.5971
16587TIP3    H271177   4.281   3.230  11.811 -1.5150 -0.2016  1.5623
16588TIP3   OH271178   1.451   6.111   0.476 -0.3672 -0.1970  0.0762
16588TIP3    H171179   1.456   6.162   0.557 -0.8474  0.7927 -0.4922
16588TIP3    H271180   1.373   6.057   0.486 -0.7080  0.2891  0.0795
16589TIP3   OH271181   1.636   0.311  16.873  0.2316  0.4524  0.4323
16589TIP3    H171182   1.612   0.330  16.964  1.8284 -1.4730  1.3442
16589TIP3    H271183   1.568   0.252  16.842 -0.2152  0.9614  0.4354
16590TIP3   OH271184   0.188   5.640   2.562  0.3491  0.2733 -0.1553
16590TIP3    H171185   0.178   5.636   2.467  0.5767 -0.1720 -0.1627
16590TIP3    H271186   0.130   5.572   2.595  0.6329  0.1010 -0.0054
16591TIP3   OH271187   5.955   6.067  14.597 -0.1610  0.2730 -0.5159
16591TIP3    H171188   5.971   6.061  14.503 -0.1148  0.1948 -0.5023
16591TIP3    H271189   5.984   5.983  14.633 -0.8061  0.0381 -0.5235
16592TIP3   OH271190   6.216   0.710  12.665  0.1275 -0.2293  0.2259
16592TIP3    H171191   6.291   0.652  12.670  0.3357  0.0960  1.0576
16592TIP3    H271192   6.252   0.794  12.636 -0.0899 -0.3667 -0.4547
16593TIP3   OH271193   3.787   4.010   3.059  0.0488  0.1553 -0.2085
16593TIP3    H171194   3.814   4.055   3.140 -1.8520  0.0352  0.5518
16593TIP3    H271195   3.826   4.062   2.989 -0.4608  1.8711  0.7082
16594TIP3   OH271196   0.784   4.063   4.630 -0.1116 -0.3772 -0.4081
16594TIP3    H171197   0.797   3.971   4.607  0.4474 -0.8171  1.5069
16594TIP3    H271198   0.785   4.064   4.725 -0.1171  1.6311 -0.3955
16595TIP3   OH271199   2.681   0.479   0.404 -0.4272 -0.0669 -0.2326
16595TIP3    H171200   2.765   0.462   0.362  0.3761  1.3224  0.7225
16595TIP3    H271201   2.661   0.399   0.453  1.3149  0.2595  1.0782
16596TIP3   OH271202   5.863   1.956   2.888 -0.1644 -0.1731  0.0002
16596TIP3    H171203   5.796   2.008   2.932  0.5046  1.1673 -0.5037
16596TIP3    H271204   5.828   1.867   2.887 -2.4049  0.6393 -1.1623
16597TIP3   OH271205   4.248   4.913  16.676  0.2671  0.3051 -0.0612
16597TIP3    H171206   4.223   4.996  16.636 -0.1593  0.8701  1.3197
16597TIP3    H271207   4.249   4.850  16.603 -0.0876  1.3649 -1.0004
16598TIP3   OH271208   4.405   4.151  14.358  0.4018 -0.6466 -0.6352
16598TIP3    H171209   4.426   4.070  14.405 -0.8723  1.1309  3.3567
16598TIP3    H271210   4.490   4.185  14.329  1.1302 -2.4034 -0.6902
16599TIP3   OH271211   2.729   0.621   4.909  0.0220 -0.0409  0.7485
16599TIP3    H171212   2.642   0.583   4.901  0.5820 -1.8351  2.2683
16599TIP3    H271213   2.762   0.626   4.819 -1.6716  0.8086  0.1435
16600TIP3   OH271214   3.285   1.998  16.716 -0.7722 -0.1887  0.6658
16600TIP3    H171215   3.346   2.014  16.788 -0.1924  1.7649 -0.1820
16600TIP3    H271216   3.341   1.984  16.639 -1.3903 -1.3634  0.4031
16601TIP3   OH271217   3.201   4.792   3.105 -0.2150  0.1858  0.2636
16601TIP3    H171218   3.162   4.867   3.059 -0.1249  0.8042  1.1789
16601TIP3    H271219   3.170   4.801   3.195 -0.9951 -1.4299  0.1909
16602TIP3   OH271220   5.747   1.950  15.400  0.0393  0.9059 -0.4659
16602TIP3    H171221   5.778   2.022  15.456  2.5324 -0.0995 -0.4060
16602TIP3    H271222   5.707   1.888  15.460  1.6771  0.3628  0.1312
16603TIP3   OH271223   2.056   0.864  14.104  0.1378  0.0841 -0.3818
16603TIP3    H171224   2.131   0.810  14.126 -0.0047 -0.3877 -1.0497
16603TIP3    H271225   2.092   0.937  14.054  0.2741  0.3932  0.1559
16604TIP3   OH271226   2.848   3.605   0.674  0.0536 -0.5473  0.1591
16604TIP3    H171227   2.888   3.577   0.592  0.8110  0.1810  0.2559
16604TIP3    H271228   2.761   3.637   0.650  0.9635  1.4921 -0.7103
16605TIP3   OH271229   3.722   5.507  17.165  0.5325 -0.3500 -0.6580
16605TIP3    H171230   3.685   5.542  17.246  0.0623  0.5751 -1.2553
16605TIP3    H271231   3.707   5.413  17.170 -0.2991 -0.1922 -0.0761
16606TIP3   OH271232   6.270   1.011   3.073  0.3598  0.0272  0.1303
16606TIP3    H171233   6.319   0.935   3.041  0.4312 -0.0161  0.3426
16606TIP3    H271234   6.262   1.068   2.996 -1.0075 -0.8707 -0.4315
16607TIP3   OH271235   2.232   3.038  14.903  0.7824 -0.1426  0.0469
16607TIP3    H171236   2.216   3.121  14.949 -3.1161 -1.3287  1.1999
16607TIP3    H271237   2.164   3.034  14.836  1.4109 -2.1053 -0.5406
16608TIP3   OH271238   5.518   4.804   1.751  0.0879  0.4709  0.0383
16608TIP3    H171239   5.544   4.896   1.738  0.5534  0.3949  0.3965
16608TIP3    H271240   5.584   4.754   1.704 -0.6615  0.3335 -0.9113
16609TIP3   OH271241   1.471   1.819   0.184  0.0628  0.0338 -0.5408
16609TIP3    H171242   1.391   1.860   0.218  0.3929  1.0756 -0.9954
16609TIP3    H271243   1.461   1.822   0.089 -0.4537 -2.0749 -0.6041
16610TIP3   OH271244   4.849   3.022  12.172 -0.2931 -0.2450 -0.9321
16610TIP3    H171245   4.803   2.940  12.154 -2.1077  0.8175 -1.4908
16610TIP3    H271246   4.831   3.077  12.095  2.5346  0.0445 -1.4802
16611TIP3   OH271247   1.253   3.860   4.709 -0.1759  0.4515 -0.3409
16611TIP3    H171248   1.218   3.815   4.786  0.8220  0.2872  0.0357
16611TIP3    H271249   1.336   3.815   4.690 -0.0295  0.9919 -1.0372
16612TIP3   OH271250   3.067   1.297   1.230  0.4278  0.0410 -0.3327
16612TIP3    H171251   3.099   1.362   1.167  0.0506 -0.7507 -1.3653
16612TIP3    H271252   3.136   1.231   1.233  0.1155 -0.2965 -0.4928
16613TIP3   OH271253   1.745   0.223   1.944 -0.9959  0.4133 -0.0077
16613TIP3    H171254   1.820   0.283   1.941 -1.3770  0.9895  1.4046
16613TIP3    H271255   1.785   0.136   1.939 -0.2790  0.7317  0.0211
16614TIP3   OH271256   6.642   0.818   2.955  0.6243 -0.0667  0.7792
16614TIP3    H171257   6.661   0.904   2.993  0.5817 -0.3140  1.3844
16614TIP3    H271258   6.547   0.820   2.939  0.8287  0.4718 -0.4480
16615TIP3   OH271259   3.938   5.993  12.847  0.0563 -0.4336 -0.1880
16615TIP3    H171260   3.852   5.953  12.860 -0.1765 -0.6379 -2.0064
16615TIP3    H271261   3.956   6.039  12.929 -1.3153 -1.2343  0.6129
16616TIP3   OH271262   1.473   4.298   2.079  0.3498 -0.0618 -0.7712
16616TIP3    H171263   1.423   4.327   2.003  1.3356 -0.8056 -1.7337
16616TIP3    H271264   1.565   4.315   2.056  0.6807 -0.5482  0.1358
16617TIP3   OH271265   1.965   0.762   6.452 -0.2616 -0.3541 -0.0374
16617TIP3    H171266   1.949   0.714   6.533 -0.9207 -0.5475 -0.2773
16617TIP3    H271267   1.878   0.774   6.413  0.2137 -2.7014 -2.0900
16618TIP3   OH271268   4.121   5.114  16.478 -1.0012 -0.3027  0.4617
16618TIP3    H171269   4.063   5.173  16.431 -0.5600 -0.2209  0.0094
16618TIP3    H271270   4.120   5.033  16.426 -0.5039 -0.2092  0.2957
16619TIP3   OH271271   0.006   0.556  12.886  0.6778  0.4375  0.9264
16619TIP3    H171272   0.045   0.635  12.851 -0.1130  0.6227  0.4490
16619TIP3    H271273   0.035   0.486  12.828 -0.1462  0.6585  0.2265
16620TIP3   OH271274   4.125   3.306   2.018 -0.4640 -0.3640  0.2713
16620TIP3    H171275   4.078   3.369   1.963 -0.3267 -0.4533  0.0493
16620TIP3    H271276   4.071   3.227   2.014 -0.6555 -0.2522  0.5798
16621TIP3   OH271277   0.695   1.446  13.064 -0.2418  0.0316 -0.5466
16621TIP3    H171278   0.607   1.412  13.075 -0.1439  0.2035  1.0994
16621TIP3    H271279   0.708   1.505  13.139  1.3387 -0.1822 -0.5996
16622TIP3   OH271280   1.741   0.254  14.826  0.0498 -0.4990  0.4427
16622TIP3    H171281   1.675   0.210  14.773 -0.3434  2.2672 -1.5757
16622TIP3    H271282   1.701   0.337  14.850  2.3516  0.7559  0.1964
16623TIP3   OH271283   1.917   6.062   1.209 -0.7660 -0.0250  0.6977
16623TIP3    H171284   1.895   5.990   1.150 -2.3768  1.4104 -0.5615
16623TIP3    H271285   2.010   6.048   1.230 -0.7515 -1.8551 -0.3444
16624TIP3   OH271286   3.121   3.956   2.826 -0.6144  0.1660 -0.1366
16624TIP3    H171287   3.042   3.992   2.865  0.3468  0.7812  1.3209
16624TIP3    H271288   3.107   3.966   2.731 -1.7832  1.3359  0.1219
16625TIP3   OH271289   1.190   3.666  12.575  0.1805 -0.0379  0.1607
16625TIP3    H171290   1.283   3.680  12.554 -0.0172  0.2650 -0.5459
16625TIP3    H271291   1.154   3.754  12.582  0.3003 -0.1099  2.1784
16626TIP3   OH271292   4.098   2.219   0.669  0.1371 -0.1832 -0.2124
16626TIP3    H171293   4.062   2.131   0.667 -0.0836 -0.1309  0.8142
16626TIP3    H271294   4.155   2.220   0.746 -1.4850  1.1455  1.0719
16627TIP3   OH271295   5.727   0.314   4.723 -0.5040 -0.4350 -0.0414
16627TIP3    H171296   5.655   0.285   4.779 -1.6273 -0.0104 -1.2104
16627TIP3    H271297   5.777   0.375   4.777 -0.0419 -1.9457  1.3260
16628TIP3   OH271298   1.284   4.672  11.010 -0.0010 -0.0221 -0.0950
16628TIP3    H171299   1.199   4.662  11.054 -0.2704 -2.5826 -1.0490
16628TIP3    H271300   1.263   4.711  10.926 -0.3960 -1.4321 -0.6799
16629TIP3   OH271301   1.355   0.624   0.123 -0.4914  0.2681  0.6527
16629TIP3    H171302   1.386   0.712   0.147  1.0613 -0.3510  1.0860
16629TIP3    H271303   1.364   0.573   0.204 -0.7271 -0.4485  0.2310
16630TIP3   OH271304   6.539   5.208  12.547 -1.0487  0.3574 -0.2790
16630TIP3    H171305   6.460   5.155  12.550 -0.2813 -0.9703 -1.8953
16630TIP3    H271306   6.609   5.146  12.526  0.1070  1.7952 -0.8661
16631TIP3   OH271307   5.269   1.138  11.626  0.4324 -0.2867  0.0693
16631TIP3    H171308   5.174   1.142  11.637  0.4212 -0.4385  0.0218
16631TIP3    H271309   5.296   1.230  11.619  0.5428 -0.0878  2.2699
16632TIP3   OH271310   6.379   3.465  12.926 -0.0843  0.3912 -0.6012
16632TIP3    H171311   6.335   3.395  12.976 -0.0869  1.4575  0.9822
16632TIP3    H271312   6.463   3.428  12.902 -0.1723 -0.2536  0.0267
16633TIP3   OH271313   3.259   1.427  14.405  0.2337  0.7161 -0.0623
16633TIP3    H171314   3.261   1.423  14.500  1.4677  0.0112 -0.1008
16633TIP3    H271315   3.182   1.376  14.380 -1.9409  3.4193  0.6159
16634TIP3   OH271316   3.035   0.574  12.488  0.4416  0.0541 -0.6150
16634TIP3    H171317   3.073   0.593  12.574  0.7615  0.3332 -0.8184
16634TIP3    H271318   2.992   0.655  12.462 -1.0969 -0.5147  0.0134
16635TIP3   OH271319   3.212   2.433   2.409 -0.1198  0.3686  0.0162
16635TIP3    H171320   3.168   2.434   2.495 -0.3066  0.7586 -0.0814
16635TIP3    H271321   3.277   2.504   2.415  0.9774 -0.6242  0.3999
16636TIP3   OH271322   6.529   6.610  14.568 -0.3579  0.5177 -0.1216
16636TIP3    H171323   6.526   6.618  14.663  0.7493  2.5366 -0.2035
16636TIP3    H271324   6.439   6.592  14.543 -0.3041 -2.4222  1.4222
16637TIP3   OH271325   5.298   1.859   6.023  0.3550 -0.4406  0.2644
16637TIP3    H171326   5.322   1.792   5.960  0.5897 -0.8227  0.7503
16637TIP3    H271327   5.374   1.866   6.081 -0.9748 -2.3019  2.3690
16638TIP3   OH271328   2.468   0.533  13.055  0.1157 -0.6462  0.4514
16638TIP3    H171329   2.480   0.442  13.081 -0.4978 -0.4510  1.4473
16638TIP3    H271330   2.528   0.544  12.981 -1.8654 -2.6527 -1.6250
16639TIP3   OH271331   5.103   3.563   0.360 -0.7070 -0.6005 -0.0580
16639TIP3    H171332   5.073   3.499   0.424  0.4439  1.0713  2.3198
16639TIP3    H271333   5.158   3.513   0.299 -0.3863 -1.9877  1.3162
16640TIP3   OH271334   0.605   2.793  10.841 -0.1994 -0.2034 -0.3573
16640TIP3    H171335   0.518   2.821  10.872  0.6488  0.2875  1.8045
16640TIP3    H271336   0.644   2.750  10.917  1.6730  0.1252 -1.0861
16641TIP3   OH271337   1.308   6.100  15.036  0.1211  0.0262  0.4362
16641TIP3    H171338   1.393   6.129  15.003 -0.1546  0.4880  0.1354
16641TIP3    H271339   1.259   6.073  14.959  0.0071 -0.2844  0.6139
16642TIP3   OH271340   3.508   0.391   3.857  0.3864 -0.1665 -0.0331
16642TIP3    H171341   3.496   0.472   3.908 -0.5121  0.5519 -1.3364
16642TIP3    H271342   3.463   0.324   3.908 -0.2498  0.4818  0.2806
16643TIP3   OH271343   5.924   3.568   3.717 -0.0228 -0.2830  0.8820
16643TIP3    H171344   5.888   3.626   3.784 -0.9822 -1.4348  1.3927
16643TIP3    H271345   6.008   3.608   3.694 -1.1892  2.0246  0.2757
16644TIP3   OH271346   3.559   4.195  11.685  0.1958  0.3962 -0.3324
16644TIP3    H171347   3.481   4.233  11.644 -0.9081 -0.6644  0.6990
16644TIP3    H271348   3.568   4.241  11.768  0.8244  0.6722 -0.5485
16645TIP3   OH271349   5.863   1.284   0.786  0.2407  0.9113  0.5824
16645TIP3    H171350   5.918   1.316   0.714  0.4759  2.4556  1.4088
16645TIP3    H271351   5.917   1.218   0.829  0.1562  0.0760 -0.5563
16646TIP3   OH271352   6.054   4.128   1.691  0.4807  0.3591 -0.4913
16646TIP3    H171353   6.115   4.137   1.619  0.0290 -0.2547 -0.9576
16646TIP3    H271354   6.000   4.207   1.687 -0.4857 -0.3304 -1.7348
16647TIP3   OH271355   2.831   6.573   0.774  0.3005 -0.1733 -0.6498
16647TIP3    H171356   2.925   6.569   0.792  0.4222  2.4584 -0.2628
16647TIP3    H271357   2.825   6.599   0.682 -0.0985 -1.1788 -0.9233
16648TIP3   OH271358   6.002   3.721  12.550 -0.0948  0.2837  0.1845
16648TIP3    H171359   5.966   3.810  12.548 -2.1865 -0.5289 -0.2324
16648TIP3    H271360   5.979   3.689  12.637  0.6680  0.1245  0.3371
16649TIP3   OH271361   0.867   2.909   1.124  0.3176  0.3514 -0.1500
16649TIP3    H171362   0.780   2.872   1.140 -0.4612  2.4919  0.9298
16649TIP3    H271363   0.852   3.002   1.111  2.5755  1.0723  1.6809
16650TIP3   OH271364   4.325   2.310   1.961 -0.4609  0.3075  0.6292
16650TIP3    H171365   4.382   2.358   1.901 -1.3196  1.4876  0.7327
16650TIP3    H271366   4.375   2.305   2.042 -0.8471  2.1535  1.0084
16651TIP3   OH271367   5.105   5.432  12.271  0.4740 -0.0901  0.3880
16651TIP3    H171368   5.083   5.390  12.354  1.4941 -0.7216  0.3557
16651TIP3    H271369   5.020   5.448  12.229  0.0246 -1.7740  0.5748
16652TIP3   OH271370   5.687   3.143   4.380  0.0360 -0.5271 -0.2968
16652TIP3    H171371   5.633   3.070   4.412  0.7173 -0.6658  0.5981
16652TIP3    H271372   5.636   3.182   4.309 -0.0769 -2.2467 -1.2133
16653TIP3   OH271373   5.119   1.015   3.032 -0.3801 -0.2680 -0.3438
16653TIP3    H171374   5.083   1.085   2.978  1.8925  1.6915  0.4756
16653TIP3    H271375   5.142   1.058   3.114 -1.3484 -2.6080  1.2473
16654TIP3   OH271376   5.301   3.305   0.456  0.0192 -0.1303 -0.7162
16654TIP3    H171377   5.389   3.270   0.468  0.0075  0.4490  1.4214
16654TIP3    H271378   5.312   3.400   0.457 -0.6395 -0.0514 -0.2914
16655TIP3   OH271379   3.438   0.324   5.597  0.4947  0.2479  0.2202
16655TIP3    H171380   3.351   0.363   5.607 -0.8519 -2.0335 -1.6317
16655TIP3    H271381   3.478   0.375   5.526 -0.7574 -0.7971 -1.3183
16656TIP3   OH271382   0.214   5.444  14.210  0.1428  0.0691 -0.0484
16656TIP3    H171383   0.157   5.372  14.183  2.0298 -0.9344 -1.5444
16656TIP3    H271384   0.291   5.401  14.246  2.0279  1.2071 -2.4435
16657TIP3   OH271385   3.225   4.529  11.059  0.1049 -0.2365  0.1314
16657TIP3    H171386   3.155   4.465  11.048  0.4944 -1.1152  2.3515
16657TIP3    H271387   3.296   4.481  11.101  1.9049  0.7560 -1.5584
16658TIP3   OH271388   2.189   3.266  15.816  0.4459 -0.0683  0.1781
16658TIP3    H171389   2.118   3.327  15.794  0.2474 -0.4344 -0.2017
16658TIP3    H271390   2.165   3.231  15.901 -1.3499 -2.3716 -1.1717
16659TIP3   OH271391   5.280   1.386   3.635 -0.3368 -0.3983 -0.1756
16659TIP3    H171392   5.332   1.316   3.596 -0.9364 -1.2571  0.5324
16659TIP3    H271393   5.193   1.348   3.647 -0.5304  0.2764  0.7199
16660TIP3   OH271394   6.048   6.368   1.550 -0.3531  0.3927 -0.1775
16660TIP3    H171395   6.134   6.336   1.578 -1.2450 -1.4540  0.6300
16660TIP3    H271396   5.997   6.372   1.631 -1.5441 -0.3273 -0.8667
16661TIP3   OH271397   2.538   1.323  11.532 -0.3891 -0.0861  0.2215
16661TIP3    H171398   2.515   1.231  11.541  0.5683 -0.3798 -0.1708
16661TIP3    H271399   2.520   1.344  11.440 -1.1408  0.2871  0.4419
16662TIP3   OH271400   5.228   4.813  12.068 -0.4464  0.0731  0.1175
16662TIP3    H171401   5.183   4.815  12.153  0.7561 -0.8006  0.7950
16662TIP3    H271402   5.159   4.791  12.005 -1.2352  0.1411  0.9301
16663TIP3   OH271403   3.212   1.922   1.419 -0.2146  0.7689  0.9505
16663TIP3    H171404   3.274   1.991   1.395  2.4522 -1.5779  0.5720
16663TIP3    H271405   3.259   1.869   1.484 -0.7886 -2.4785 -1.0471
16664TIP3   OH271406   5.983   5.630  16.083 -0.0680 -0.4195  0.3832
16664TIP3    H171407   6.003   5.610  15.992 -2.6057 -0.9023 -0.1520
16664TIP3    H271408   5.920   5.702  16.079  0.7462  0.4143  1.8385
16665TIP3   OH271409   4.893   6.552  16.474 -0.5500  0.1132  0.2203
16665TIP3    H171410   4.809   6.539  16.430  0.4915  0.1534 -1.8542
16665TIP3    H271411   4.932   6.627  16.430  0.0751  0.8748  1.9888
16666TIP3   OH271412   2.901   2.651   6.510  0.0915  0.4854  0.1142
16666TIP3    H171413   2.848   2.594   6.565  0.8722  1.1141  1.5804
16666TIP3    H271414   2.881   2.624   6.420  0.3323 -2.0006  0.7371
16667TIP3   OH271415   1.036   5.628   1.675 -0.2604  0.0741  0.2002
16667TIP3    H171416   0.999   5.572   1.606  1.9980 -0.5229 -0.6046
16667TIP3    H271417   1.123   5.652   1.643 -0.2928  2.2650  1.5355
16668TIP3   OH271418   5.451   1.641  14.797 -1.1147  0.1771 -0.0889
16668TIP3    H171419   5.511   1.639  14.872 -1.1047  1.9964  0.0155
16668TIP3    H271420   5.377   1.587  14.824 -0.6225 -0.0770  0.8043
16669TIP3   OH271421   1.152   0.557  11.444  0.4439  0.3229 -0.3498
16669TIP3    H171422   1.160   0.607  11.363  3.5779  0.4080 -0.1191
16669TIP3    H271423   1.164   0.466  11.418  0.0938  0.2205 -0.1544
16670TIP3   OH271424   5.890   5.330   4.475 -0.0719 -0.0707  0.5087
16670TIP3    H171425   5.813   5.278   4.452  0.1026 -0.0358 -0.1485
16670TIP3    H271426   5.950   5.267   4.515 -0.6575  0.0039  1.5535
16671TIP3   OH271427   2.026   1.348   2.725  0.2932  0.1583 -0.3996
16671TIP3    H171428   2.066   1.276   2.774 -1.5842  0.1192  1.1981
16671TIP3    H271429   2.071   1.427   2.755 -0.0229 -0.0047  0.5388
16672TIP3   OH271430   4.665   5.924   3.776 -0.4537  0.3558  0.0451
16672TIP3    H171431   4.697   6.014   3.787  1.5324 -0.1657 -1.0649
16672TIP3    H271432   4.728   5.870   3.825 -1.4182 -0.4684  0.4043
16673TIP3   OH271433   2.644   2.454   3.440 -0.2819 -0.3812  0.6813
16673TIP3    H171434   2.557   2.492   3.430 -0.3274 -0.8002 -0.8013
16673TIP3    H271435   2.630   2.360   3.435  0.4453 -0.4245 -1.8666
16674TIP3   OH271436   2.109   4.955   0.985  0.0408  0.8241  0.3291
16674TIP3    H171437   2.175   4.961   0.917  0.2129  0.5037  0.4652
16674TIP3    H271438   2.130   4.873   1.032 -1.2700 -0.0022 -0.4787
16675TIP3   OH271439   5.515   3.219   1.521  0.2267  0.1140 -0.4086
16675TIP3    H171440   5.506   3.127   1.545 -0.0121 -0.4121 -2.4105
16675TIP3    H271441   5.526   3.264   1.605 -2.4130 -1.3891  0.8920
16676TIP3   OH271442   1.790   1.285  14.828 -0.0505  0.6557  0.2360
16676TIP3    H171443   1.794   1.255  14.919 -1.9011  1.3793  0.5920
16676TIP3    H271444   1.872   1.334  14.815 -0.0009  0.9977  1.6717
16677TIP3   OH271445   3.220   3.011   2.352  0.6417 -0.2979  0.5061
16677TIP3    H171446   3.315   3.007   2.341  0.5220 -0.7729 -0.5153
16677TIP3    H271447   3.186   2.988   2.265 -0.3978  1.4527  0.4131
16678TIP3   OH271448   0.184   3.641   1.507 -0.1131 -0.1226 -0.7331
16678TIP3    H171449   0.230   3.558   1.518 -0.6021 -0.2061  0.9814
16678TIP3    H271450   0.248   3.699   1.467  1.3479 -0.4075  1.0394
16679TIP3   OH271451   2.150   6.364   2.385 -0.0577 -0.1609 -0.5712
16679TIP3    H171452   2.110   6.381   2.470 -0.7827  0.7425 -1.0790
16679TIP3    H271453   2.078   6.371   2.322  0.2484 -1.9019 -1.1772
16680TIP3   OH271454   4.598   4.087   5.972  0.7269  0.3161 -0.1531
16680TIP3    H171455   4.522   4.075   6.029 -0.5313 -0.2461 -1.8589
16680TIP3    H271456   4.622   4.179   5.984 -1.9036  1.2826 -1.4819
16681TIP3   OH271457   6.544   3.845  12.728  0.4335  0.0325  0.2650
16681TIP3    H171458   6.451   3.822  12.724  0.6506 -0.8947  0.3523
16681TIP3    H271459   6.551   3.901  12.806 -0.0101 -0.0799  0.3904
16682TIP3   OH271460   3.078   2.822  15.628 -0.0131 -0.3704  0.7698
16682TIP3    H171461   3.115   2.885  15.566 -2.7704  0.8066  0.1839
16682TIP3    H271462   3.150   2.803  15.689  1.1919  2.6428  0.4377
16683TIP3   OH271463   6.246   0.687   1.124 -0.3214 -0.4174 -0.5796
16683TIP3    H171464   6.167   0.678   1.177 -0.7503  1.8690 -0.7326
16683TIP3    H271465   6.214   0.703   1.035  0.1400  2.7235 -0.2979
16684TIP3   OH271466   1.275   5.654   2.227 -0.7766 -0.3077 -0.3955
16684TIP3    H171467   1.220   5.583   2.195 -0.2858 -0.9934  0.2617
16684TIP3    H271468   1.344   5.664   2.161 -1.9150  0.8770 -1.4711
16685TIP3   OH271469   5.285   4.281   5.869  0.4755 -0.4023 -0.5014
16685TIP3    H171470   5.213   4.237   5.913  0.7719  0.5893  1.0324
16685TIP3    H271471   5.250   4.304   5.782 -1.1758  0.3320  0.3144
16686TIP3   OH271472   0.221   5.005   4.224  0.0302 -0.1134  0.2512
16686TIP3    H171473   0.309   5.031   4.196  0.4976 -2.3389 -0.5323
16686TIP3    H271474   0.168   5.012   4.144 -0.6846  1.7092  0.8299
16687TIP3   OH271475   5.938   3.819   4.985  0.2823  0.3651 -0.3653
16687TIP3    H171476   5.926   3.725   4.997 -2.3751  0.5179 -1.2188
16687TIP3    H271477   5.964   3.829   4.893 -0.2891  0.4906 -0.5192
16688TIP3   OH271478   3.871   1.488   4.690 -0.1974 -0.2533 -0.2409
16688TIP3    H171479   3.880   1.402   4.649 -2.9975  0.1685 -1.9886
16688TIP3    H271480   3.783   1.488   4.727  0.0624  1.5792  0.4543
16689TIP3   OH271481   5.407   5.059  14.060 -0.2530 -0.3179 -0.2934
16689TIP3    H171482   5.489   5.040  14.014 -1.6719 -1.1303 -2.6703
16689TIP3    H271483   5.432   5.065  14.152  2.6575  0.6832 -1.0499
16690TIP3   OH271484   4.490   2.975  10.442 -0.2402  0.2758  0.1115
16690TIP3    H171485   4.509   2.882  10.446 -1.6717 -0.0708 -0.4608
16690TIP3    H271486   4.422   2.989  10.509 -0.7162  0.7033 -0.4455
16691TIP3   OH271487   2.527   2.810   3.637  0.0341  0.1504 -0.3148
16691TIP3    H171488   2.551   2.901   3.655 -0.3907 -0.2883  3.2825
16691TIP3    H271489   2.562   2.761   3.712 -3.2175 -2.0052 -0.0246
16692TIP3   OH271490   0.580   1.544   4.595  0.1873  0.0118 -0.3321
16692TIP3    H171491   0.651   1.568   4.655 -1.2857 -1.2585  2.0593
16692TIP3    H271492   0.500   1.568   4.642 -1.0470  0.0775 -2.3427
16693TIP3   OH271493   5.020   0.091   3.462  0.2898 -0.1319  0.0103
16693TIP3    H171494   4.958   0.112   3.531 -0.5027  1.0006 -1.0111
16693TIP3    H271495   4.966   0.060   3.390  1.1196 -1.4922 -0.0628
16694TIP3   OH271496   5.420   3.588   3.692 -0.5568  0.4998 -0.0850
16694TIP3    H171497   5.490   3.551   3.745 -0.5242 -0.4930 -0.7720
16694TIP3    H271498   5.344   3.591   3.750 -0.5007 -0.4899  0.0637
16695TIP3   OH271499   0.930   5.301   1.680  0.0256 -0.1968  0.3047
16695TIP3    H171500   0.981   5.356   1.621 -0.7532  0.6936  0.4297
16695TIP3    H271501   0.954   5.211   1.656  1.4567  0.1903  0.2203
16696TIP3   OH271502   1.436   1.435  11.799 -0.9558 -0.0413  0.6340
16696TIP3    H171503   1.451   1.510  11.856  0.5122 -0.9271  1.4411
16696TIP3    H271504   1.487   1.455  11.720  0.6501 -0.8297  1.4376
16697TIP3   OH271505   0.567   5.503   4.414  0.1737  0.4087 -0.6342
16697TIP3    H171506   0.634   5.547   4.361  1.1890  0.1568  0.4027
16697TIP3    H271507   0.578   5.410   4.395  0.9830  0.2584  0.4773
16698TIP3   OH271508   4.743   1.625   1.076 -0.2019 -0.7347 -0.3475
16698TIP3    H171509   4.808   1.692   1.055  0.3017 -0.6875  1.2488
16698TIP3    H271510   4.671   1.672   1.118 -0.5549 -0.9965 -0.6467
16699TIP3   OH271511   5.531   0.247   5.934  0.1838  0.3687  0.2509
16699TIP3    H171512   5.609   0.302   5.944  0.5336  0.0235 -0.5180
16699TIP3    H271513   5.562   0.158   5.947  0.0835  0.1619 -0.8501
16700TIP3   OH271514   5.223   1.152   3.253 -0.5680 -0.0617  0.1813
16700TIP3    H171515   5.202   1.245   3.260 -0.8093 -0.0832 -0.2543
16700TIP3    H271516   5.282   1.136   3.327  0.2061  0.6477 -0.2585
16701TIP3   OH271517   5.344   3.501   6.347 -0.1976 -0.2295 -0.3873
16701TIP3    H171518   5.390   3.529   6.425 -0.8332  2.1728 -0.8075
16701TIP3    H271519   5.409   3.451   6.297  0.5954 -0.6503  1.0205
16702TIP3   OH271520   1.894   3.016  17.010 -0.3379  0.5925 -0.2496
16702TIP3    H171521   1.959   3.079  17.042 -0.1551  1.4614 -2.1762
16702TIP3    H271522   1.810   3.053  17.037 -0.1104  0.1219  1.1553
16703TIP3   OH271523   5.321   1.161  14.608  0.1854 -0.7410  0.2311
16703TIP3    H171524   5.229   1.176  14.632  0.7653  0.6034  1.8853
16703TIP3    H271525   5.319   1.088  14.547 -1.8094 -2.2420  1.9441
16704TIP3   OH271526   0.110   5.921   0.101 -0.3275 -0.0630  0.2692
16704TIP3    H171527   0.133   5.889   0.014 -1.3765  0.1577 -0.1061
16704TIP3    H271528   0.189   5.964   0.132 -0.4866  1.5358 -1.3685
16705TIP3   OH271529   5.441   3.623  13.433 -0.4230  0.0495 -0.2125
16705TIP3    H171530   5.379   3.655  13.498  0.3668 -0.9542  1.0731
16705TIP3    H271531   5.391   3.559  13.381 -1.1427  1.0877 -0.8454
16706TIP3   OH271532   5.464   1.273   4.222 -0.2031  0.2013 -0.4661
16706TIP3    H171533   5.527   1.265   4.294 -0.9309  0.6296  0.2386
16706TIP3    H271534   5.472   1.192   4.173  1.7344  0.7277 -1.0931
16707TIP3   OH271535   4.233   3.880  13.705  0.3895  0.4960  0.1732
16707TIP3    H171536   4.262   3.813  13.767 -0.0167  0.0641 -0.0977
16707TIP3    H271537   4.139   3.888  13.719  0.4679  1.1822  0.3604
16708TIP3   OH271538   1.705   0.758   5.353 -0.2268 -0.0590  0.4736
16708TIP3    H171539   1.756   0.742   5.273 -0.5797 -2.8663  0.7128
16708TIP3    H271540   1.617   0.780   5.321  0.2460  1.3489  0.0953
16709TIP3   OH271541   3.599   4.154  11.043 -0.4576  0.1249 -0.6255
16709TIP3    H171542   3.573   4.084  11.103  3.0727  0.3686  1.4560
16709TIP3    H271543   3.650   4.110  10.976  0.4290  0.4874 -0.2016
16710TIP3   OH271544   4.248   2.170  11.335 -0.4413 -0.0642  0.1473
16710TIP3    H171545   4.159   2.136  11.342 -0.3959 -1.0989 -3.1384
16710TIP3    H271546   4.237   2.262  11.311 -0.5413  0.3414  1.6045
16711TIP3   OH271547   2.961   4.242  13.359 -0.1498  0.6817  0.6482
16711TIP3    H171548   2.895   4.307  13.385 -1.3123 -0.4278  0.5961
16711TIP3    H271549   2.945   4.168  13.417  0.3718 -0.0073 -0.0707
16712TIP3   OH271550   3.856   6.343  13.719 -0.3801  0.7006  0.0165
16712TIP3    H171551   3.897   6.312  13.637 -0.9031  0.2687 -0.0877
16712TIP3    H271552   3.818   6.427  13.696  0.1738  0.9631  0.0323
16713TIP3   OH271553   3.275   3.278  13.132  0.1994  0.3992  0.2065
16713TIP3    H171554   3.266   3.200  13.076  0.2982  0.1860  0.4865
16713TIP3    H271555   3.216   3.342  13.093  1.6698  0.9144 -1.3037
16714TIP3   OH271556   4.815   4.256  15.106  0.4530  0.5299 -0.4447
16714TIP3    H171557   4.761   4.253  15.027  1.0005  1.1185 -0.8460
16714TIP3    H271558   4.821   4.349  15.128 -2.4561  0.2589  2.2336
16715TIP3   OH271559   2.382   6.437  12.977 -0.4013 -0.2373 -0.2751
16715TIP3    H171560   2.313   6.473  13.032 -1.4558 -1.0095 -1.0550
16715TIP3    H271561   2.416   6.362  13.027  0.3099  0.4850  0.3695
16716TIP3   OH271562   3.170   1.301   0.369 -0.2087 -0.1153  0.5136
16716TIP3    H171563   3.086   1.312   0.415 -1.0846 -0.9864 -0.7948
16716TIP3    H271564   3.147   1.250   0.291  1.7206 -1.2117  0.6230
16717TIP3   OH271565   2.429   0.972  13.531  0.4390  0.2200  0.4206
16717TIP3    H171566   2.470   1.036  13.473 -1.6268  0.9617 -0.3179
16717TIP3    H271567   2.374   0.918  13.474 -0.4524 -0.0168  1.4573
16718TIP3   OH271568   2.785   5.162   4.432 -0.1371  0.1151  0.0485
16718TIP3    H171569   2.782   5.152   4.528 -0.9284  1.3888  0.1813
16718TIP3    H271570   2.739   5.245   4.416  1.4326  0.7756 -1.2873
16719TIP3   OH271571   6.106   2.108   2.218 -0.3021 -0.3971  0.9638
16719TIP3    H171572   6.065   2.034   2.173  0.7064 -1.0464  1.0747
16719TIP3    H271573   6.179   2.133   2.161  0.2756 -0.4672  1.6672
16720TIP3   OH271574   2.768   5.210  13.623  0.0744  0.3453  0.2151
16720TIP3    H171575   2.852   5.248  13.600 -0.9358  1.4432 -1.9919
16720TIP3    H271576   2.743   5.158  13.547 -1.3712  0.3184  0.6691
16721TIP3   OH271577   0.093   5.403  14.640  0.5192  0.0130 -0.2015
16721TIP3    H171578   0.188   5.408  14.651  0.6250 -0.2170 -0.9944
16721TIP3    H271579   0.079   5.335  14.575 -0.1568  0.4965 -0.5826
16722TIP3   OH271580   3.298   2.246   4.362 -0.1960 -0.3798 -0.1258
16722TIP3    H171581   3.248   2.260   4.443 -0.7931 -0.2802 -0.5036
16722TIP3    H271582   3.373   2.194   4.389 -1.8808 -2.8772  0.0241
16723TIP3   OH271583   2.318   3.368   2.589 -0.1016 -0.7630  0.4284
16723TIP3    H171584   2.350   3.284   2.557 -0.7554 -1.0314  0.4706
16723TIP3    H271585   2.259   3.399   2.521 -1.0395 -1.0569  1.0903
16724TIP3   OH271586   2.371   1.193   3.676  0.1090  0.9734  0.3108
16724TIP3    H171587   2.330   1.178   3.591 -1.0223  1.0076  0.8324
16724TIP3    H271588   2.373   1.289   3.685  1.0647  0.9960 -0.0631
16725TIP3   OH271589   2.568   2.704  16.326 -0.1316  0.0115 -0.6528
16725TIP3    H171590   2.592   2.614  16.346 -1.4926 -0.3675 -0.5697
16725TIP3    H271591   2.563   2.747  16.412 -1.2432 -0.3369 -0.5183
16726TIP3   OH271592   1.454   5.239  14.268 -0.5331  0.2539 -0.1537
16726TIP3    H171593   1.447   5.169  14.204 -0.1162 -0.4492  0.5590
16726TIP3    H271594   1.477   5.317  14.216 -0.7670 -0.1771 -0.9147
16727TIP3   OH271595   3.323   4.780  11.070  0.0112  0.3342 -0.0970
16727TIP3    H171596   3.409   4.748  11.097  0.3205  0.8690 -0.4315
16727TIP3    H271597   3.268   4.702  11.069  0.5959 -0.0843 -0.2749
16728TIP3   OH271598   4.562   3.768  12.973 -0.3801  0.1397  0.4219
16728TIP3    H171599   4.497   3.699  12.959  0.0036  0.0457 -0.9510
16728TIP3    H271600   4.512   3.840  13.012 -1.4201  0.2377 -1.0240
16729TIP3   OH271601   4.543   6.760   1.511  0.0135 -0.4179  0.2129
16729TIP3    H171602   4.558   6.842   1.557 -2.1780  1.2851 -1.9165
16729TIP3    H271603   4.628   6.716   1.514  1.7570  2.6480  0.0329
16730TIP3   OH271604   0.675   4.147   5.964 -0.2576 -0.4376  0.2867
16730TIP3    H171605   0.680   4.156   6.060 -1.4707  2.5540  0.1785
16730TIP3    H271606   0.740   4.080   5.943  1.0460 -0.2011  3.0852
16731TIP3   OH271607   2.536   6.400  15.357  0.2744  0.8826  0.5131
16731TIP3    H171608   2.447   6.364  15.361  0.8292 -0.8753 -1.0347
16731TIP3    H271609   2.524   6.488  15.322 -0.8668  0.5603  0.0111
16732TIP3   OH271610   4.965   1.060  15.153 -0.2135  0.5444  0.5262
16732TIP3    H171611   4.987   0.994  15.087 -0.4399 -0.2130  1.1893
16732TIP3    H271612   4.886   1.102  15.120  1.0908  1.9738 -0.9433
16733TIP3   OH271613   1.017   5.737   4.188 -0.2893 -0.2679 -0.1287
16733TIP3    H171614   1.070   5.660   4.164 -0.4061 -0.9194  1.5693
16733TIP3    H271615   1.062   5.774   4.263  0.3979  2.0547 -1.5704
16734TIP3   OH271616   3.158   3.762   1.016 -0.4800  0.4387  0.1374
16734TIP3    H171617   3.231   3.726   0.965 -1.3504  2.1708 -2.5209
16734TIP3    H271618   3.088   3.774   0.952 -1.8997  2.1525  1.9043
16735TIP3   OH271619   5.430   3.726   5.305 -0.4723 -0.1230  0.3774
16735TIP3    H171620   5.347   3.745   5.262  0.2745  1.1137 -0.6247
16735TIP3    H271621   5.496   3.765   5.247  0.8258 -1.2433  1.0356
16736TIP3   OH271622   0.333   2.883  12.784 -0.1446 -0.6732 -0.0095
16736TIP3    H171623   0.344   2.930  12.701 -0.0901  2.6431  1.6944
16736TIP3    H271624   0.242   2.901  12.809 -0.2500 -1.8893  0.5231
16737TIP3   OH271625   2.910   1.987  12.017  0.0933  0.3242 -0.0831
16737TIP3    H171626   2.878   1.927  12.084  1.3173 -0.6855 -0.3699
16737TIP3    H271627   2.851   1.975  11.943 -0.2051  0.1514  0.1821
16738TIP3   OH271628   1.440   6.646  13.594  0.2456  0.3798 -0.1551
16738TIP3    H171629   1.512   6.708  13.583  0.0916  0.5539 -0.1873
16738TIP3    H271630   1.363   6.701  13.612  0.4155  0.1194  1.4425
16739TIP3   OH271631   3.111   0.753  11.289 -0.0540 -0.0819 -0.3882
16739TIP3    H171632   3.153   0.835  11.267 -0.7298  0.3948  0.0535
16739TIP3    H271633   3.164   0.686  11.245 -1.2008  0.7716 -3.2715
16740TIP3   OH271634   5.522   6.063   4.274  0.0007 -0.0533  0.1858
16740TIP3    H171635   5.556   6.143   4.236 -0.4560  0.6145  1.1418
16740TIP3    H271636   5.437   6.050   4.231  0.5897 -0.6793 -0.8170
16741TIP3   OH271637   2.804   0.408   3.339 -0.3192  0.4287 -0.5783
16741TIP3    H171638   2.807   0.502   3.356  0.4718  0.7482 -2.2461
16741TIP3    H271639   2.740   0.374   3.401  0.2321  1.8789  0.8457
16742TIP3   OH271640   0.357   6.564  15.728 -0.0799 -0.6689  0.2036
16742TIP3    H171641   0.322   6.586  15.814  1.7784  1.3937  0.5239
16742TIP3    H271642   0.292   6.506  15.689 -0.8602 -1.8855  3.0768
16743TIP3   OH271643   2.703   4.044  15.624 -1.0171 -0.8602 -0.9692
16743TIP3    H171644   2.730   4.020  15.535 -0.6632 -0.1382 -1.0665
16743TIP3    H271645   2.621   3.998  15.638  0.0430 -2.8123 -0.8130
16744TIP3   OH271646   4.224   1.788   4.277 -0.0576  0.6387  0.2932
16744TIP3    H171647   4.161   1.856   4.300 -0.6201  0.0910  0.3930
16744TIP3    H271648   4.251   1.810   4.188 -1.0635  0.3891 -0.0919
16745TIP3   OH271649   6.014   3.561   3.208  0.1575  0.1605 -0.4455
16745TIP3    H171650   6.052   3.474   3.218  1.6960  0.7349 -0.9815
16745TIP3    H271651   5.960   3.573   3.286  0.2403 -1.0942 -0.1685
16746TIP3   OH271652   1.258   3.014  16.747  0.1842 -0.6762  0.6598
16746TIP3    H171653   1.278   3.014  16.840  2.6594  3.6505  0.4002
16746TIP3    H271654   1.343   3.004  16.704 -0.5503 -0.0643 -1.0390
16747TIP3   OH271655   5.805   2.958   4.170 -0.7429  0.6106 -0.1620
16747TIP3    H171656   5.808   2.899   4.246  1.9993  0.1562 -0.5084
16747TIP3    H271657   5.849   3.037   4.201 -0.9226  0.9811 -0.8512
16748TIP3   OH271658   5.247   4.362  10.519  0.1078  0.5812 -0.0375
16748TIP3    H171659   5.241   4.408  10.603 -3.0477 -0.4347  0.4202
16748TIP3    H271660   5.163   4.378  10.477  0.9595 -0.4147 -2.2587
16749TIP3   OH271661   3.943   3.006  14.932  0.0439  0.3837 -0.1845
16749TIP3    H171662   3.947   2.945  15.006 -1.2707 -0.8760 -1.1025
16749TIP3    H271663   3.856   3.044  14.936 -0.0042  0.3888 -1.0155
16750TIP3   OH271664   4.681   4.476   4.900  0.0224  0.0871 -0.2362
16750TIP3    H171665   4.677   4.562   4.857  0.9316  0.1169 -0.2725
16750TIP3    H271666   4.671   4.413   4.828  2.7355  0.1089 -0.7393
16751TIP3   OH271667   0.429   5.412  15.456 -0.0609 -0.0200  0.2078
16751TIP3    H171668   0.427   5.389  15.363 -0.6177  3.2885 -0.7147
16751TIP3    H271669   0.497   5.355  15.493  0.2031 -1.4033 -2.1972
16752TIP3   OH271670   0.869   0.080   5.509 -0.0026 -0.8455 -0.3729
16752TIP3    H171671   0.874  -0.014   5.526 -1.1511 -0.7189  0.8318
16752TIP3    H271672   0.892   0.120   5.593  1.7781 -0.0108 -1.2278
16753TIP3   OH271673   5.154   5.760  15.801 -0.0330 -0.0613  0.7404
16753TIP3    H171674   5.193   5.838  15.840  0.2912 -0.1837  0.6687
16753TIP3    H271675   5.156   5.695  15.871 -0.1161 -0.0637  0.7398
16754TIP3   OH271676   2.832   5.979   2.037  0.2950 -0.7262  0.0383
16754TIP3    H171677   2.749   5.994   1.991  0.4005  1.8444  0.5154
16754TIP3    H271678   2.847   5.885   2.030 -2.3582 -1.1804 -0.5674
16755TIP3   OH271679   3.399   6.392  16.229 -0.2087 -0.5147  0.3604
16755TIP3    H171680   3.357   6.320  16.277 -0.4025 -0.8584 -0.3139
16755TIP3    H271681   3.488   6.361  16.213 -0.9700 -1.7350 -2.1282
16756TIP3   OH271682   4.616   2.071  12.591 -0.0579 -0.3110  0.3270
16756TIP3    H171683   4.646   2.079  12.681  1.3328  3.3878 -0.2869
16756TIP3    H271684   4.676   2.127  12.541 -0.0583 -3.0418 -3.1378
16757TIP3   OH271685   0.870   1.804   4.440 -0.0750 -0.3301  0.9209
16757TIP3    H171686   0.871   1.767   4.528  0.3510  0.1840  1.1353
16757TIP3    H271687   0.778   1.804   4.415 -0.1905 -0.5462  1.3365
16758TIP3   OH271688   0.779   2.933  11.496 -0.4552 -0.1645  0.2758
16758TIP3    H171689   0.864   2.928  11.540  0.0485 -0.7522 -0.7352
16758TIP3    H271690   0.758   2.843  11.474  0.4884  0.2674 -2.8473
16759TIP3   OH271691   1.792   3.117   2.305  0.5675 -0.4748  0.1533
16759TIP3    H171692   1.725   3.049   2.309  1.6437 -1.6101 -0.6435
16759TIP3    H271693   1.819   3.120   2.213  0.4791  1.1089  0.1425
16760TIP3   OH271694   2.282   2.485  15.553 -0.0696 -0.2813  0.2077
16760TIP3    H171695   2.282   2.568  15.601  1.8012  0.7511 -1.4423
16760TIP3    H271696   2.247   2.421  15.615  0.8855  1.2418  2.4310
16761TIP3   OH271697   4.063   3.958  15.026  0.0173 -0.4475 -0.0747
16761TIP3    H171698   4.128   4.017  14.986 -0.0051 -1.6443 -1.9882
16761TIP3    H271699   4.007   3.931  14.953 -0.4387 -2.2462  0.8848
16762TIP3   OH271700   4.112   4.514   1.226 -0.2226  0.1002 -0.3765
16762TIP3    H171701   4.090   4.563   1.147 -0.4051 -0.5364 -0.7318
16762TIP3    H271702   4.045   4.445   1.230 -0.7164  0.6118  0.7844
16763TIP3   OH271703   4.758   3.239  15.833 -0.0762 -0.1226  0.6006
16763TIP3    H171704   4.680   3.199  15.794 -0.4250  0.5650  0.5711
16763TIP3    H271705   4.818   3.166  15.849  0.1052 -0.4395 -1.2892
16764TIP3   OH271706   4.279   4.251   1.338 -0.0906 -0.0089 -0.2866
16764TIP3    H171707   4.345   4.268   1.271 -0.4659 -0.7524 -0.8536
16764TIP3    H271708   4.219   4.324   1.333  1.1205  1.1292  0.8027
16765TIP3   OH271709   3.672   6.011   2.389  0.2849  0.5364  0.4134
16765TIP3    H171710   3.684   5.920   2.361  1.1677  0.8519 -0.2675
16765TIP3    H271711   3.582   6.032   2.365  0.0413 -0.1869  0.6726
16766TIP3   OH271712   4.706   4.145  11.556  0.4387 -0.6803  0.3388
16766TIP3    H171713   4.690   4.051  11.559 -0.1156 -0.5945  3.2135
16766TIP3    H271714   4.619   4.185  11.567  0.5647  0.2192 -1.5924
16767TIP3   OH271715   6.752   2.095   6.033  0.2386  0.1969 -0.1121
16767TIP3    H171716   6.673   2.121   6.080  1.1762 -0.0015  1.6641
16767TIP3    H271717   6.819   2.087   6.101  1.9345  0.8905 -1.6217
16768TIP3   OH271718   6.112   1.550  14.291  0.3134 -0.2185  0.5106
16768TIP3    H171719   6.060   1.618  14.250  0.4579  0.0451  0.7605
16768TIP3    H271720   6.094   1.471  14.239  1.2145  0.3050 -0.6257
16769TIP3   OH271721   1.047   5.032  12.954 -0.2029 -0.2124 -0.2166
16769TIP3    H171722   1.128   5.058  12.911 -0.1486  0.6332  0.3518
16769TIP3    H271723   0.989   5.108  12.943 -0.0732  0.1753  1.4304
16770TIP3   OH271724   3.587   4.665   6.783 -0.1824 -0.7861 -0.6096
16770TIP3    H171725   3.646   4.591   6.799  0.9093  0.5457  2.3325
16770TIP3    H271726   3.646   4.738   6.763 -0.6358  0.5800  2.4059
16771TIP3   OH271727   1.033   3.229  11.472  0.3371 -0.3756  0.0474
16771TIP3    H171728   0.989   3.287  11.534 -0.9998 -0.6745 -0.5813
16771TIP3    H271729   1.092   3.176  11.526 -0.1993 -0.0808  0.9435
16772TIP3   OH271730   2.989   4.397   1.533  0.1323 -0.2574  0.3574
16772TIP3    H171731   3.054   4.451   1.487  0.1062  0.7987  1.4923
16772TIP3    H271732   2.909   4.407   1.481 -0.2623  2.0229  1.2726
16773TIP3   OH271733   3.259   2.165   4.635  0.1850 -0.7359 -0.3474
16773TIP3    H171734   3.268   2.234   4.701  2.1824 -0.7583 -0.5509
16773TIP3    H271735   3.261   2.083   4.684 -0.5644 -0.7053 -0.2543
16774TIP3   OH271736   2.664   2.912  12.820  0.4241 -0.5540  0.2400
16774TIP3    H171737   2.596   2.876  12.763 -0.2380  0.1398  0.5680
16774TIP3    H271738   2.641   2.879  12.907 -0.0818  0.4659  0.5135
16775TIP3   OH271739   2.907   6.426   5.154  0.0965 -0.0934  0.2891
16775TIP3    H171740   2.854   6.498   5.118  0.1477  0.0512  0.5034
16775TIP3    H271741   2.986   6.468   5.187  0.3946 -0.3222 -0.1221
16776TIP3   OH271742   3.699   2.890  11.948  0.2158  0.4623  0.2741
16776TIP3    H171743   3.789   2.908  11.921  0.5764 -0.6390  0.6920
16776TIP3    H271744   3.702   2.802  11.986 -1.0717  0.3442  0.1477
16777TIP3   OH271745   3.244   2.026  14.523 -0.3504 -0.0924 -0.5466
16777TIP3    H171746   3.171   2.088  14.518 -0.2924 -0.0364 -0.6917
16777TIP3    H271747   3.281   2.026  14.435  2.5600  3.1568  0.4661
16778TIP3   OH271748   1.062   5.534   4.613 -0.1872 -0.2010  0.3732
16778TIP3    H171749   0.999   5.553   4.683 -1.1060 -0.5774 -0.3435
16778TIP3    H271750   1.009   5.522   4.535  0.5813 -2.3999  0.1094
16779TIP3   OH271751   6.242   0.887  11.142  0.0606 -0.3306  0.1029
16779TIP3    H171752   6.168   0.948  11.143 -0.6564 -1.1463 -0.9335
16779TIP3    H271753   6.288   0.907  11.060 -0.3555 -1.3474 -0.3963
16780TIP3   OH271754   3.785   5.312  12.336 -0.3513 -0.1325  0.3330
16780TIP3    H171755   3.721   5.240  12.340 -0.7642  0.1090 -1.2284
16780TIP3    H271756   3.752   5.377  12.398 -1.8029  0.1015 -0.6314
16781TIP3   OH271757   2.523   3.478   4.848 -0.5357 -0.4738 -0.0329
16781TIP3    H171758   2.471   3.527   4.784 -1.7642  0.6781  1.7180
16781TIP3    H271759   2.604   3.527   4.856 -0.9099  0.1286  0.1944
16782TIP3   OH271760   4.888   1.685   3.940  0.0816 -0.5754  0.2172
16782TIP3    H171761   4.951   1.754   3.962  2.3533 -2.5631  0.2903
16782TIP3    H271762   4.893   1.623   4.012  0.2275 -2.2325 -1.1653
16783TIP3   OH271763   6.221   5.064  11.662  0.2233 -0.0045  0.6442
16783TIP3    H171764   6.204   5.109  11.745  1.0131  0.7914  0.3900
16783TIP3    H271765   6.150   5.091  11.605 -0.6282 -0.9798  1.2031
16784TIP3   OH271766   4.794   0.559  14.967  0.5840  0.0779  0.1804
16784TIP3    H171767   4.815   0.493  15.033 -0.0376 -0.0112  0.2976
16784TIP3    H271768   4.866   0.555  14.905  0.2475 -1.1571 -0.1574
16785TIP3   OH271769   0.737   1.065  12.116  0.1588  0.2679 -0.4535
16785TIP3    H171770   0.717   0.978  12.084  0.8473 -0.1200  0.1306
16785TIP3    H271771   0.814   1.053  12.172  0.4736  1.3010 -0.6372
16786TIP3   OH271772   5.612   1.567   0.703 -0.2790 -0.1714  0.6751
16786TIP3    H171773   5.613   1.476   0.730  0.3021 -0.3546  0.0511
16786TIP3    H271774   5.540   1.573   0.640  1.7473 -1.0123 -1.9237
16787TIP3   OH271775   4.594   3.251   0.510  0.0698  0.0019 -0.2774
16787TIP3    H171776   4.678   3.205   0.507  0.5374  0.8747 -2.1572
16787TIP3    H271777   4.551   3.227   0.428 -1.6035 -0.5175  0.7051
16788TIP3   OH271778   6.090   2.409   0.655  0.1054  0.3391 -0.0925
16788TIP3    H171779   6.109   2.377   0.743 -1.8855 -1.8197 -0.3621
16788TIP3    H271780   6.065   2.500   0.668  1.9143  0.6995  1.2691
16789TIP3   OH271781   3.941   6.618   3.293  0.4538  0.7735 -0.4393
16789TIP3    H171782   3.994   6.662   3.359 -2.3930  2.3551  1.0083
16789TIP3    H271783   3.952   6.671   3.214  2.6422 -0.2094 -0.8538
16790TIP3   OH271784   4.434   4.484   0.612  0.0907  0.0021  0.7947
16790TIP3    H171785   4.361   4.489   0.551 -0.7655 -2.7870  1.4192
16790TIP3    H271786   4.492   4.418   0.575  0.6983 -0.0792  1.8374
16791TIP3   OH271787   2.706   6.330   4.110  0.4560 -0.0776  0.4680
16791TIP3    H171788   2.655   6.345   4.030  2.8956  0.2640 -1.1518
16791TIP3    H271789   2.669   6.391   4.174  0.2037  1.7345 -1.2942
16792TIP3   OH271790   6.587   6.070  11.333 -0.7834  0.3575  0.1262
16792TIP3    H171791   6.570   6.146  11.277 -0.4642 -0.4270 -1.0678
16792TIP3    H271792   6.600   6.107  11.420  1.6222  1.9293 -0.7940
16793TIP3   OH271793   3.171   3.155  14.538 -0.1251  0.0916  0.1398
16793TIP3    H171794   3.208   3.068  14.555  1.9312  0.2701 -2.6771
16793TIP3    H271795   3.133   3.148  14.450  0.9481  2.2462 -0.5641
16794TIP3   OH271796   5.873   4.078   5.781 -0.2307  0.1095  0.1632
16794TIP3    H171797   5.862   4.025   5.860 -2.0885 -1.5208 -1.0965
16794TIP3    H271798   5.807   4.146   5.789 -0.0092  0.3100  0.2912
16795TIP3   OH271799   3.953   2.701   4.205  0.0568 -0.1405  0.5078
16795TIP3    H171800   3.991   2.633   4.260 -1.3258 -1.0083  0.4406
16795TIP3    H271801   3.921   2.654   4.128 -0.7072  0.6035  0.3556
16796TIP3   OH271802   4.950   6.739  11.692 -0.1949 -0.0086  0.1236
16796TIP3    H171803   4.903   6.821  11.705 -0.0483 -0.0612  1.0684
16796TIP3    H271804   5.030   6.765  11.645 -1.1568  0.0686 -1.5458
16797TIP3   OH271805   5.096   4.086  14.087  0.5677 -0.7014 -0.1264
16797TIP3    H171806   5.189   4.069  14.070  0.3930 -0.0196 -2.0492
16797TIP3    H271807   5.056   3.999  14.086  0.9290 -0.8799 -1.2502
16798TIP3   OH271808   5.911   6.607  14.149  0.3198  0.2399  0.2112
16798TIP3    H171809   5.957   6.626  14.231  3.3671 -0.6125 -1.1625
16798TIP3    H271810   5.969   6.547  14.102 -2.3031 -1.0061 -1.7070
16799TIP3   OH271811   1.558   4.123  14.355 -0.5280 -0.2178  0.3423
16799TIP3    H171812   1.533   4.139  14.446 -0.6480 -0.0928  0.2869
16799TIP3    H271813   1.494   4.061  14.322 -0.1341 -0.7280  0.5186
16800TIP3   OH271814   5.025   4.711   0.121  1.0833 -0.2956 -0.2553
16800TIP3    H171815   5.000   4.736   0.210  0.5537 -1.5918 -0.0036
16800TIP3    H271816   5.114   4.744   0.110  0.8383  0.6235  0.4422
16801TIP3   OH271817   5.847   4.985   6.044  0.1488  0.3698 -0.0486
16801TIP3    H171818   5.906   4.964   6.117  0.9286  1.8103 -0.2242
16801TIP3    H271819   5.869   4.920   5.976  0.5487  0.0203  0.4042
16802TIP3   OH271820   6.736   6.445   1.974 -0.3295 -0.1450  0.5257
16802TIP3    H171821   6.672   6.500   2.019 -0.4508  1.6132 -1.6190
16802TIP3    H271822   6.809   6.438   2.036 -1.9054 -0.9165  2.3994
16803TIP3   OH271823   2.566   2.062  15.587  0.3622  0.2429 -0.2584
16803TIP3    H171824   2.487   2.053  15.534 -0.6690  1.1324  1.0756
16803TIP3    H271825   2.634   2.020  15.535 -0.6531  0.8517 -2.1602
16804TIP3   OH271826   6.783   2.656   5.796  0.1653  0.7745 -0.8238
16804TIP3    H171827   6.811   2.744   5.822 -0.1117  0.5656  0.2391
16804TIP3    H271828   6.824   2.598   5.861 -1.9500  0.3893  0.2639
16805TIP3   OH271829   4.284   6.020  14.546 -0.2832  0.5364  0.2039
16805TIP3    H171830   4.229   6.008  14.469 -0.4867  0.4571  0.3614
16805TIP3    H271831   4.272   6.112  14.571 -2.8645 -0.1990  2.1346
16806TIP3   OH271832   1.139   2.920   5.819  0.0196 -0.4920  0.2228
16806TIP3    H171833   1.126   2.945   5.727 -1.0508 -1.3097  0.1305
16806TIP3    H271834   1.212   2.858   5.817  0.8066  0.4204  0.0945
16807TIP3   OH271835   3.841   5.800   5.098  0.2729  0.3010 -0.0556
16807TIP3    H171836   3.911   5.750   5.141 -1.2550 -0.0404  2.2473
16807TIP3    H271837   3.795   5.735   5.044  0.8681  0.2055 -0.4528
16808TIP3   OH271838   0.260   5.533   1.342  0.1480 -0.3920 -0.6241
16808TIP3    H171839   0.283   5.456   1.290  1.2624  0.1989 -1.0397
16808TIP3    H271840   0.231   5.598   1.277  2.2529  0.6038 -0.6440
16809TIP3   OH271841   5.426   0.551  15.994 -0.0070 -0.4639 -0.0283
16809TIP3    H171842   5.431   0.645  15.981 -0.8315 -0.2776  0.9233
16809TIP3    H271843   5.471   0.535  16.076  1.7951 -1.1611 -1.0909
16810TIP3   OH271844   1.044   0.778   4.799  0.6434  0.2423  0.3710
16810TIP3    H171845   1.104   0.786   4.725  1.7675 -1.7445  1.0119
16810TIP3    H271846   0.961   0.754   4.760  0.2345  2.7439 -0.5027
16811TIP3   OH271847   5.566   1.441  14.055  0.5310 -0.4018  0.2213
16811TIP3    H171848   5.484   1.428  14.102  0.4732  0.5479  0.4139
16811TIP3    H271849   5.603   1.353  14.046  1.0227 -0.5795  2.9106
16812TIP3   OH271850   2.177   5.222   2.240 -0.0772  0.2236 -0.0297
16812TIP3    H171851   2.208   5.311   2.225 -1.6492  0.7764 -0.1993
16812TIP3    H271852   2.138   5.195   2.157 -0.7766 -0.1073  0.3895
16813TIP3   OH271853   6.775   0.778  12.679 -0.1192 -0.5061  0.1479
16813TIP3    H171854   6.840   0.803  12.614  0.6200 -1.0597  0.6538
16813TIP3    H271855   6.707   0.732  12.630 -0.2033  0.2022 -0.4070
16814TIP3   OH271856   4.013   4.375  14.620 -0.3104 -0.2861  0.0705
16814TIP3    H171857   4.034   4.400  14.530  0.2041  1.6641  0.6679
16814TIP3    H271858   3.970   4.290  14.613 -1.5211  0.4224 -2.1483
16815TIP3   OH271859   1.887   3.297   3.168  0.2267 -0.0503 -0.4978
16815TIP3    H171860   1.835   3.246   3.230  1.5113 -1.1221 -0.2622
16815TIP3    H271861   1.949   3.345   3.223  1.7228 -1.4052 -0.9492
16816TIP3   OH271862   3.484   6.514   3.845  0.1036  0.6668 -0.0936
16816TIP3    H171863   3.473   6.578   3.775  1.1700  1.0610  0.0670
16816TIP3    H271864   3.575   6.526   3.874  0.3814 -1.0426 -0.1626
16817TIP3   OH271865   3.675   0.095   0.546 -0.2839  0.5862 -0.1281
16817TIP3    H171866   3.679   0.000   0.554 -2.4420  0.4089 -0.5740
16817TIP3    H271867   3.687   0.112   0.453 -1.0440  0.6635 -0.2124
16818TIP3   OH271868   1.422   6.494  14.315 -0.3079  0.1394  0.0894
16818TIP3    H171869   1.390   6.533  14.234 -0.5995  1.2198  0.6963
16818TIP3    H271870   1.511   6.466  14.295 -0.1993  0.8384 -0.4706
16819TIP3   OH271871   0.270   2.447  14.212 -0.0919 -0.1951  0.1725
16819TIP3    H171872   0.198   2.502  14.243  0.0981 -0.7208  1.6234
16819TIP3    H271873   0.336   2.509  14.181 -0.0542  0.3976  1.3934
16820TIP3   OH271874   4.548   6.304  15.686 -0.2513 -0.0254  0.6434
16820TIP3    H171875   4.572   6.283  15.777  0.5654  2.1108  0.9672
16820TIP3    H271876   4.608   6.373  15.661 -1.2940  0.2885 -1.1226
16821TIP3   OH271877   5.698   5.026   3.664  0.2099  0.8739  0.6389
16821TIP3    H171878   5.739   4.947   3.701 -1.3922  0.3372  1.3649
16821TIP3    H271879   5.711   5.093   3.731  2.2514  1.5146 -0.2982
16822TIP3   OH271880   4.407   0.437   1.600 -0.0175 -0.1248 -0.0466
16822TIP3    H171881   4.379   0.512   1.548  0.4055  0.1085  0.0552
16822TIP3    H271882   4.396   0.465   1.691  0.2507 -0.1416 -0.0073
16823TIP3   OH271883   1.552   5.608   2.755 -0.0798 -0.3472 -0.0370
16823TIP3    H171884   1.530   5.520   2.725  0.9416 -0.9015  0.7763
16823TIP3    H271885   1.600   5.646   2.681  0.9621 -1.1032  0.2256
16824TIP3   OH271886   0.981   4.306  10.522 -0.7428 -0.1075  0.4914
16824TIP3    H171887   1.039   4.354  10.463 -2.8998  0.5085 -1.2804
16824TIP3    H271888   0.976   4.218  10.483 -1.0175 -0.1445  0.6090
16825TIP3   OH271889   4.712   6.479  14.866 -0.1583  0.6205 -0.3756
16825TIP3    H171890   4.736   6.534  14.941  0.3391  0.3686 -0.3496
16825TIP3    H271891   4.793   6.467  14.818 -0.2515 -0.1614 -0.3439
16826TIP3   OH271892   4.136   4.213   5.923 -0.8027  0.3462 -0.6966
16826TIP3    H171893   4.199   4.284   5.936 -1.0627  0.4264  0.2100
16826TIP3    H271894   4.106   4.223   5.833  0.1023  0.6155 -0.9699
16827TIP3   OH271895   1.697   5.678  14.279 -0.0629  0.7276  0.1131
16827TIP3    H171896   1.675   5.768  14.303 -0.3099  0.9712 -0.9540
16827TIP3    H271897   1.758   5.687  14.205  1.3427  0.0240  1.1364
16828TIP3   OH271898   4.664   3.284   1.152 -0.5371  0.0941 -0.2473
16828TIP3    H171899   4.628   3.239   1.077 -0.2832 -0.6141  0.0486
16828TIP3    H271900   4.758   3.263   1.150 -0.0339  2.1795 -1.2069
16829TIP3   OH271901   5.183   3.736  12.010 -0.2082 -0.1379 -0.7967
16829TIP3    H171902   5.110   3.732  11.949 -0.9470  0.8215 -0.0201
16829TIP3    H271903   5.150   3.694  12.090  0.0791  0.2973 -0.4429
16830TIP3   OH271904   0.110   5.291  16.535  0.1981 -0.1688 -0.7214
16830TIP3    H171905   0.160   5.368  16.561 -0.6242 -0.0758  0.6847
16830TIP3    H271906   0.172   5.218  16.540  0.2723 -0.0341  0.8532
16831TIP3   OH271907   4.656   6.765  11.180 -0.6157  0.5569  0.1014
16831TIP3    H171908   4.603   6.805  11.111  0.1348 -2.3569 -2.3646
16831TIP3    H271909   4.742   6.807  11.171 -0.3993 -0.1049 -1.0794
16832TIP3   OH271910   6.652   1.279  14.036  0.1623 -0.6771 -0.5928
16832TIP3    H171911   6.663   1.238  14.122 -0.0547 -1.3710 -0.8898
16832TIP3    H271912   6.573   1.332  14.044 -0.0660 -1.0317 -0.4704
16833TIP3   OH271913   0.965   5.078   1.293  0.3115  0.3223 -0.0307
16833TIP3    H171914   1.054   5.110   1.305  0.7921 -1.0544  0.1832
16833TIP3    H271915   0.909   5.153   1.316  1.3858  0.9092  0.7260
16834TIP3   OH271916   1.096   1.642  13.289  0.1968  0.1357  0.0872
16834TIP3    H171917   1.056   1.721  13.253 -1.4594 -0.8163 -0.3068
16834TIP3    H271918   1.128   1.594  13.213  0.0792 -0.1287  0.1998
16835TIP3   OH271919   2.419   6.614  14.809  0.1698  0.4638 -0.2017
16835TIP3    H171920   2.388   6.619  14.900  1.0245 -2.0222  0.3125
16835TIP3    H271921   2.340   6.607  14.757 -0.2999  0.4374  0.4988
16836TIP3   OH271922   0.336   3.656   2.016  0.5843 -0.1128  0.1096
16836TIP3    H171923   0.306   3.706   2.091 -1.8431  1.3094 -1.6915
16836TIP3    H271924   0.269   3.589   2.003  0.8232 -0.1669 -0.9431
16837TIP3   OH271925   0.348   0.504  11.198  0.2046  0.2491  0.3213
16837TIP3    H171926   0.421   0.541  11.248  1.0162  0.5372 -1.0491
16837TIP3    H271927   0.382   0.490  11.110 -1.3787  0.3667 -0.3611
16838TIP3   OH271928   1.367   4.998  14.082  0.4696 -0.2395  0.8625
16838TIP3    H171929   1.374   5.079  14.030  2.7788  0.4697  2.1616
16838TIP3    H271930   1.288   4.955  14.048  0.7463  1.1608 -1.8188
16839TIP3   OH271931   3.345   2.420   5.519  0.1837 -0.2597  0.1511
16839TIP3    H171932   3.436   2.443   5.535 -0.1587  2.3005 -0.9730
16839TIP3    H271933   3.296   2.469   5.586 -0.5000  1.1353 -1.2829
16840TIP3   OH271934   1.817   6.786  16.993 -0.3229 -0.3267  0.3895
16840TIP3    H171935   1.849   6.868  17.029 -0.2187  0.1881 -0.8362
16840TIP3    H271936   1.753   6.812  16.926 -0.3945 -1.2449  0.0823
16841TIP3   OH271937   6.077   2.804   5.013 -0.4102  0.0636 -0.5811
16841TIP3    H171938   6.036   2.758   4.939  0.7842  1.3235 -2.1067
16841TIP3    H271939   6.158   2.755   5.029 -0.0943  0.4635 -0.9163
16842TIP3   OH271940   6.024   1.034   0.645  0.0564 -0.1359 -0.1216
16842TIP3    H171941   5.986   0.979   0.576  2.6020 -0.9137 -1.0079
16842TIP3    H271942   6.025   1.122   0.608  1.3280 -0.5364 -1.1166
16843TIP3   OH271943   1.061   2.375  14.880  0.3252 -0.1581 -0.4717
16843TIP3    H171944   1.100   2.328  14.807 -1.0628 -0.9469 -0.7471
16843TIP3    H271945   1.027   2.456  14.841  2.9071  1.2751  0.0425
16844TIP3   OH271946   3.193   5.568   4.944  0.0207 -0.3791 -0.5173
16844TIP3    H171947   3.181   5.586   4.850 -1.0609 -0.9020 -0.4969
16844TIP3    H271948   3.161   5.478   4.955 -0.2546 -0.1756  0.4282
16845TIP3   OH271949   5.016   2.320   3.937 -0.0833  0.0682 -0.0064
16845TIP3    H171950   4.999   2.302   3.845  1.1860 -0.0434 -0.2382
16845TIP3    H271951   5.110   2.305   3.948  0.0725  1.4938  0.9736
16846TIP3   OH271952   4.544   1.262  13.405  0.0265 -0.0418  0.0191
16846TIP3    H171953   4.468   1.234  13.457 -0.0849 -0.1982 -0.2276
16846TIP3    H271954   4.540   1.209  13.326  1.3490 -1.2735  0.7373
16847TIP3   OH271955   4.702   0.410   6.860 -0.4867  0.1591 -0.0791
16847TIP3    H171956   4.765   0.480   6.875 -0.2460 -0.3223  1.2933
16847TIP3    H271957   4.727   0.373   6.776  1.3001 -0.2346  0.5762
16848TIP3   OH271958   2.469   4.491   2.408  0.5148  0.0343  0.0802
16848TIP3    H171959   2.401   4.461   2.347  1.4064  0.4655 -1.1556
16848TIP3    H271960   2.502   4.411   2.448  0.7847 -0.3824 -0.9470
16849TIP3   OH271961   1.853   1.321   4.592  0.1975  0.7888  0.4164
16849TIP3    H171962   1.769   1.275   4.586  0.6640 -0.4595  2.4802
16849TIP3    H271963   1.834   1.400   4.642  0.0293  1.2022 -0.2801
16850TIP3   OH271964   4.415   3.944   2.250  0.1895 -0.2020  0.6183
16850TIP3    H171965   4.442   3.859   2.215 -1.2029 -0.3034 -0.2625
16850TIP3    H271966   4.496   3.996   2.252  0.7817 -1.0642 -0.2276
16851TIP3   OH271967   2.618   0.343   6.071  0.2373 -0.3584  0.2774
16851TIP3    H171968   2.679   0.415   6.086 -0.3119  0.3606 -0.8294
16851TIP3    H271969   2.669   0.277   6.025  1.0686 -1.2382  2.3029
16852TIP3   OH271970   6.351   0.087  14.046 -0.4127 -0.2563  0.4468
16852TIP3    H171971   6.303   0.017  14.090 -1.7484  0.0509 -0.4412
16852TIP3    H271972   6.353   0.159  14.110 -1.5033 -0.1425  0.3756
16853TIP3   OH271973   6.506   0.657   5.321 -0.1155 -0.2187  0.0397
16853TIP3    H171974   6.511   0.648   5.417  0.7213  0.4017  0.0632
16853TIP3    H271975   6.427   0.608   5.297 -0.7221  0.1821  1.1177
16854TIP3   OH271976   1.717   1.414  15.137  0.0972 -0.2290 -0.1372
16854TIP3    H171977   1.802   1.383  15.169 -0.0455  0.4068  0.9406
16854TIP3    H271978   1.657   1.341  15.153  0.4885 -0.7812 -1.1580
16855TIP3   OH271979   2.214   4.488   1.859 -0.2531  0.4110  0.0757
16855TIP3    H171980   2.280   4.555   1.842 -0.2398  0.1940 -0.7592
16855TIP3    H271981   2.241   4.413   1.807 -1.1468  0.3172 -0.2704
16856TIP3   OH271982   4.713   5.664  14.637 -0.0473 -0.0218 -0.1996
16856TIP3    H171983   4.651   5.597  14.609  0.1037  0.4572 -1.7824
16856TIP3    H271984   4.671   5.705  14.713 -2.0690  0.7889 -1.6556
16857TIP3   OH271985   2.313   0.337   4.598  0.3772  0.0141  0.1798
16857TIP3    H171986   2.327   0.383   4.515  0.4796  0.2639  0.3355
16857TIP3    H271987   2.267   0.400   4.653  1.4079  0.2808  0.7448
16858TIP3   OH271988   1.124   1.009  15.740  0.0244  0.0350 -0.1053
16858TIP3    H171989   1.099   0.948  15.671 -0.4041  1.1645 -0.9937
16858TIP3    H271990   1.113   1.096  15.700 -0.9004  0.7434  1.5973
16859TIP3   OH271991   3.185   1.267  15.437 -0.5396 -0.3853 -0.0610
16859TIP3    H171992   3.155   1.184  15.400  1.3304 -1.6918  1.1254
16859TIP3    H271993   3.150   1.267  15.527  0.4843 -0.5210  0.3554
16860TIP3   OH271994   4.657   0.950   0.886 -0.3370  0.1941  0.2980
16860TIP3    H171995   4.647   0.874   0.828  1.9594 -1.1798  1.5470
16860TIP3    H271996   4.748   0.978   0.873 -0.8705  2.2130  0.5436
16861TIP3   OH271997   0.474   5.184   0.079  0.0173 -0.0949 -0.3925
16861TIP3    H171998   0.417   5.247   0.034 -0.9805  0.3255  1.3846
16861TIP3    H271999   0.473   5.210   0.171  1.5912 -1.2334  0.0081
16862TIP3   OH272000   4.580   1.546  15.400 -0.0197  0.0358 -0.0033
16862TIP3    H172001   4.603   1.528  15.492 -0.8196  1.2602  0.4606
16862TIP3    H272002   4.525   1.472  15.375 -1.8353  0.8579  1.3203
16863TIP3   OH272003   2.912   6.688   0.528  0.0224 -0.0852 -0.0835
16863TIP3    H172004   2.883   6.609   0.484  0.9213 -0.0370 -0.7658
16863TIP3    H272005   2.891   6.759   0.467 -1.6057  0.3263  0.8915
16864TIP3   OH272006   5.646   3.465   3.203 -0.1828  0.3628  0.6041
16864TIP3    H172007   5.653   3.386   3.256 -2.5636 -1.3805 -1.4334
16864TIP3    H272008   5.552   3.474   3.186  0.3654  1.4775 -2.3141
16865TIP3   OH272009   4.274   0.475  14.861  0.2125  0.2754 -0.0454
16865TIP3    H172010   4.324   0.549  14.894 -0.8276  1.3852 -0.8640
16865TIP3    H272011   4.258   0.421  14.938  1.3048  0.6914  0.5026
16866TIP3   OH272012   4.755   2.441  13.175  0.1150 -0.4085 -0.1903
16866TIP3    H172013   4.777   2.443  13.268  1.7791 -0.6256 -0.5576
16866TIP3    H272014   4.730   2.351  13.157 -0.3958 -0.3235  0.0716
16867TIP3   OH272015   2.519   2.142   5.113 -0.2325 -0.3261  0.4759
16867TIP3    H172016   2.495   2.167   5.203 -0.3993 -0.9793  0.6137
16867TIP3    H272017   2.436   2.134   5.067 -0.1003  2.0100 -0.3064
16868TIP3   OH272018   6.598   6.624   3.623 -0.0811  0.0333 -0.3536
16868TIP3    H172019   6.547   6.629   3.704  1.2584 -1.8576  0.6655
16868TIP3    H272020   6.659   6.699   3.628  0.4963 -0.4945  0.7742
16869TIP3   OH272021   2.976   2.620  16.588  0.7215  0.0379 -0.1503
16869TIP3    H172022   2.991   2.533  16.550  0.4768  0.5698 -1.4998
16869TIP3    H272023   3.064   2.655  16.604  0.8824  0.4673 -1.8117
16870TIP3   OH272024   5.287   5.349  15.888  0.1012  0.4019  0.1999
16870TIP3    H172025   5.323   5.393  15.965  0.6202 -0.1981  0.3099
16870TIP3    H272026   5.364   5.323  15.837 -0.2349  0.8487 -0.5608
16871TIP3   OH272027   1.644   4.905  14.035 -0.0126 -0.1337  0.2999
16871TIP3    H172028   1.560   4.931  14.074 -0.7010 -2.3713  0.4414
16871TIP3    H272029   1.695   4.986  14.033 -1.5315  0.9402  1.8221
16872TIP3   OH272030   0.227   4.108   1.757  0.2984  0.5273 -0.0839
16872TIP3    H172031   0.311   4.134   1.795  0.0311 -2.7113  3.2218
16872TIP3    H272032   0.162   4.143   1.817 -0.4435 -0.8954 -0.0327
16873TIP3   OH272033   0.008   1.201  10.912  0.1055 -0.4639 -0.1998
16873TIP3    H172034  -0.033   1.286  10.930 -0.8510 -0.7268 -1.0649
16873TIP3    H272035  -0.053   1.137  10.948  1.5274 -0.7908  1.8040
16874TIP3   OH272036   0.393   5.868  15.397 -0.2059  0.2550 -0.3086
16874TIP3    H172037   0.307   5.838  15.369  0.4453 -1.0961 -0.9310
16874TIP3    H272038   0.380   5.896  15.488 -0.9178 -1.8144  0.2885
16875TIP3   OH272039   2.672   2.922  13.737  0.2498 -0.1911 -0.1908
16875TIP3    H172040   2.751   2.869  13.728  0.6093  0.0203  1.3304
16875TIP3    H272041   2.665   2.970  13.655 -0.7361 -3.3870 -2.1630
16876TIP3   OH272042   6.437   5.968   5.088 -0.0939 -0.0528  0.9951
16876TIP3    H172043   6.422   6.035   5.154  1.0666 -0.5357  1.7818
16876TIP3    H272044   6.420   5.885   5.133 -1.8459 -0.3145 -0.0570
16877TIP3   OH272045   2.268   6.154  11.855 -0.1593 -0.0393  0.5670
16877TIP3    H172046   2.332   6.225  11.865  0.1318 -0.3530  0.9838
16877TIP3    H272047   2.189   6.198  11.823  0.4568  0.2563 -0.6007
16878TIP3   OH272048   0.599   3.330  12.244 -0.2183 -0.4249  0.0105
16878TIP3    H172049   0.628   3.268  12.178  3.1246  0.8326  0.1273
16878TIP3    H272050   0.503   3.327  12.239 -0.1386 -3.1895 -2.1313
16879TIP3   OH272051   2.218   1.172   6.421 -0.2415  0.1178  0.4791
16879TIP3    H172052   2.182   1.091   6.385  0.5606  0.3607 -0.9465
16879TIP3    H272053   2.301   1.146   6.461 -0.7179 -0.0034  1.4190
16880TIP3   OH272054   5.753   1.769   2.358 -0.2180 -0.0225 -0.6172
16880TIP3    H172055   5.743   1.774   2.453 -1.1180  2.1406 -0.7748
16880TIP3    H272056   5.834   1.815   2.339 -0.5869  0.4854 -0.9778
16881TIP3   OH272057   2.939   4.300  11.228 -0.1471 -0.1256 -0.3347
16881TIP3    H172058   2.873   4.369  11.239  0.3283  0.1461  0.9589
16881TIP3    H272059   2.896   4.220  11.257 -0.0504 -0.0168  0.1191
16882TIP3   OH272060   2.241   1.562   6.119  0.2134 -0.3528  0.5721
16882TIP3    H172061   2.239   1.478   6.164 -0.4504  0.2163  1.6456
16882TIP3    H272062   2.314   1.609   6.160  1.3098 -0.7990 -0.8003
16883TIP3   OH272063   5.697   2.832  15.594  0.0708  0.6206  0.7094
16883TIP3    H172064   5.634   2.871  15.654 -0.4027 -0.3950  0.8885
16883TIP3    H272065   5.710   2.743  15.626  0.3619  0.2896 -0.2734
16884TIP3   OH272066   5.090   1.890  12.975  0.8295  0.5865 -0.0573
16884TIP3    H172067   5.183   1.874  12.963  0.3181 -1.6335 -1.5832
16884TIP3    H272068   5.065   1.944  12.900  0.6800  0.3377 -0.1837
16885TIP3   OH272069   1.599   2.167   5.463 -0.1573 -0.3158  0.3477
16885TIP3    H172070   1.573   2.185   5.373  0.2917  0.8035  0.4240
16885TIP3    H272071   1.569   2.244   5.512  1.8629  0.3165  0.6864
16886TIP3   OH272072   6.660   1.559  11.574 -0.0565  0.2751 -0.2885
16886TIP3    H172073   6.572   1.521  11.568  0.4297 -0.7936 -1.0615
16886TIP3    H272074   6.719   1.488  11.547  0.8376  1.8824 -2.9639
16887TIP3   OH272075   3.236   4.272  10.628  0.5516 -0.1906 -0.5668
16887TIP3    H172076   3.293   4.244  10.700  1.7380  2.9742 -0.0935
16887TIP3    H272077   3.294   4.278  10.552  0.1033 -0.1570 -0.9102
16888TIP3   OH272078   5.715   0.807  13.500  0.4758 -0.1558  0.3232
16888TIP3    H172079   5.790   0.750  13.516  0.3817  0.0473  1.6130
16888TIP3    H272080   5.667   0.807  13.583  0.0659  1.1944  0.1088
16889TIP3   OH272081   1.082   1.616  11.314 -0.2651 -0.2266 -0.0806
16889TIP3    H172082   1.128   1.700  11.312 -1.2060  0.3277  0.9497
16889TIP3    H272083   1.024   1.618  11.238 -0.5891  0.2298  0.1785
16890TIP3   OH272084   2.140   1.832  12.701 -0.2568  0.1175 -0.2142
16890TIP3    H172085   2.066   1.776  12.679 -1.4850  2.0087 -1.1955
16890TIP3    H272086   2.124   1.859  12.791 -1.0854  0.9357 -0.5926
16891TIP3   OH272087   4.530   4.901   1.996 -0.9135 -0.5839 -0.6236
16891TIP3    H172088   4.457   4.868   2.048 -0.2836 -2.4961 -0.8793
16891TIP3    H272089   4.603   4.845   2.019  0.2202  0.6053 -1.1943
16892TIP3   OH272090   5.659   0.491  12.475 -0.5238  0.4154  0.3046
16892TIP3    H172091   5.593   0.559  12.489 -1.1011 -0.2706  1.0041
16892TIP3    H272092   5.742   0.538  12.479 -0.9139  1.0950  0.7092
16893TIP3   OH272093   4.152   2.255   2.387 -0.6789  0.6548  0.1709
16893TIP3    H172094   4.171   2.194   2.458 -1.3517  1.1456  0.7877
16893TIP3    H272095   4.165   2.341   2.425  1.3349  0.9307 -0.9992
16894TIP3   OH272096   2.917   4.510  11.496 -0.2352  0.0671 -0.2634
16894TIP3    H172097   2.936   4.437  11.554 -0.7045  1.4094  1.6933
16894TIP3    H272098   2.828   4.537  11.521  0.6130  2.4582  0.4503
16895TIP3   OH272099   4.529   5.021   0.114  0.3728 -0.5261  0.3155
16895TIP3    H172100   4.559   4.930   0.110  0.8520 -0.3852  0.5520
16895TIP3    H272101   4.607   5.073   0.092  0.3599 -0.1410  1.1230
16896TIP3   OH272102   4.461   1.343  16.637 -0.7222 -0.4689 -0.0608
16896TIP3    H172103   4.415   1.418  16.674  0.1378 -0.1512  0.3911
16896TIP3    H272104   4.485   1.290  16.713  0.9889  0.1478 -0.1320
16897TIP3   OH272105   3.030   5.650  11.163  0.6970 -0.4858 -0.7780
16897TIP3    H172106   3.051   5.600  11.242  2.3001 -1.5809 -1.8352
16897TIP3    H272107   3.070   5.600  11.092  2.2874  2.2109 -1.9285
16898TIP3   OH272108   6.604   4.207  17.072  0.1461 -0.3104 -0.7555
16898TIP3    H172109   6.632   4.256  17.149  1.1929 -0.1791 -1.1997
16898TIP3    H272110   6.513   4.183  17.090  0.2291  0.1251  0.3060
16899TIP3   OH272111   1.206   6.359  12.244  0.0166 -0.0444 -0.5918
16899TIP3    H172112   1.215   6.296  12.172 -0.8499  0.4579 -1.1525
16899TIP3    H272113   1.274   6.334  12.307  1.5231  0.1702 -2.0724
16900TIP3   OH272114   6.045   5.972  16.669  0.1185 -0.3330 -0.0934
16900TIP3    H172115   6.089   5.887  16.659 -0.0619 -0.5112  0.5893
16900TIP3    H272116   5.980   5.973  16.599  0.1887 -0.7151 -0.1692
16901TIP3   OH272117   6.247   4.005   5.746 -0.6070  0.2956  0.0963
16901TIP3    H172118   6.322   3.948   5.726 -1.2764 -1.0166  1.1580
16901TIP3    H272119   6.181   3.980   5.682 -0.4074  0.9444 -0.3757
16902TIP3   OH272120   1.502   6.166   1.020 -0.0925  0.7775  0.1693
16902TIP3    H172121   1.522   6.089   0.967 -0.7876 -0.1298  1.1696
16902TIP3    H272122   1.586   6.209   1.033  0.1508  0.7857 -1.2937
16903TIP3   OH272123   1.380   6.262  11.344  0.0544  0.0124 -0.1203
16903TIP3    H172124   1.289   6.283  11.323 -0.8387 -0.4065  2.8338
16903TIP3    H272125   1.412   6.213  11.269 -2.3713 -0.3833 -0.9698
16904TIP3   OH272126   2.401   0.294  16.656  0.0457  0.2597  0.4174
16904TIP3    H172127   2.466   0.263  16.593 -0.9569  0.3573 -0.7119
16904TIP3    H272128   2.452   0.328  16.729  1.2762  0.9767 -0.7459
16905TIP3   OH272129   0.456   3.169   2.522 -0.7275 -0.6716  0.8615
16905TIP3    H172130   0.400   3.095   2.500 -2.1555  0.5786  0.0424
16905TIP3    H272131   0.424   3.199   2.607 -0.8507 -0.3704  0.7102
16906TIP3   OH272132   3.733   0.469   5.204 -0.3425 -0.6523 -0.6098
16906TIP3    H172133   3.725   0.378   5.233  1.1023 -0.3627  0.8498
16906TIP3    H272134   3.719   0.465   5.109 -0.1825 -2.4052 -0.5959
16907TIP3   OH272135   2.890   2.275  11.224 -0.2691 -0.1537 -0.2197
16907TIP3    H172136   2.825   2.212  11.191  0.2313 -0.3895 -0.7576
16907TIP3    H272137   2.926   2.316  11.146  1.9667 -1.7526 -0.1061
16908TIP3   OH272138   6.480   5.431  16.782  0.3652 -0.1260 -0.3886
16908TIP3    H172139   6.562   5.469  16.813  0.8609 -2.4564  1.4736
16908TIP3    H272140   6.506   5.369  16.714  0.1928 -0.9330  0.2668
16909TIP3   OH272141   0.183   5.711   3.189  0.3948 -0.4146 -0.6762
16909TIP3    H172142   0.199   5.774   3.259  0.2280 -1.8269  0.6744
16909TIP3    H272143   0.088   5.713   3.176  0.5786  1.1244 -2.1456
16910TIP3   OH272144   5.887   6.514   2.783 -0.7455 -0.0308 -0.6080
16910TIP3    H172145   5.858   6.541   2.871  0.6118 -0.0080 -0.1352
16910TIP3    H272146   5.970   6.562   2.770 -1.0160  0.1022 -1.9845
16911TIP3   OH272147   5.021   2.508  14.152  0.4207 -0.0258  0.1569
16911TIP3    H172148   5.004   2.435  14.092  1.0818  0.3783 -0.5371
16911TIP3    H272149   5.063   2.467  14.228 -1.2083 -0.6668  0.7648
16912TIP3   OH272150   4.034   4.618  10.961 -0.1885  0.0634  0.0720
16912TIP3    H172151   4.010   4.671  10.885 -2.8072  0.7999  1.3247
16912TIP3    H272152   4.026   4.528  10.929 -1.7349  0.3483 -0.4526
16913TIP3   OH272153   1.141   5.386  16.938 -0.0576  0.0421  0.0911
16913TIP3    H172154   1.213   5.449  16.946 -0.3391  0.2172  1.5160
16913TIP3    H272155   1.181   5.302  16.963 -0.4106  0.2079  1.2996
16914TIP3   OH272156   2.365   2.195   5.990  0.2182  0.3286 -0.1603
16914TIP3    H172157   2.319   2.224   5.911  1.0118  0.9416 -0.4217
16914TIP3    H272158   2.446   2.246   5.990  1.3099 -1.3301 -0.1872
16915TIP3   OH272159   2.231   0.874  16.897  0.8526 -0.2071  0.2639
16915TIP3    H172160   2.161   0.933  16.869  0.3648 -1.3679 -1.0342
16915TIP3    H272161   2.312   0.925  16.886  0.4760  0.1134 -1.2231
16916TIP3   OH272162   6.653   2.436   2.512 -0.5236 -0.2284 -0.2403
16916TIP3    H172163   6.615   2.514   2.553  0.9350  0.9783 -1.0970
16916TIP3    H272164   6.663   2.373   2.584 -1.0670  0.6194  0.5977
16917TIP3   OH272165   6.274   2.156  12.267  0.3485  0.0946  0.7203
16917TIP3    H172166   6.329   2.143  12.190  0.9671  1.9881  0.8092
16917TIP3    H272167   6.333   2.187  12.334 -0.6742  1.3430  1.0754
16918TIP3   OH272168   4.745   0.737   6.430 -0.4229 -0.7447 -0.1118
16918TIP3    H172169   4.695   0.730   6.511 -0.8829  1.7803 -0.1113
16918TIP3    H272170   4.682   0.768   6.365  0.7290  0.9001 -0.4970
16919TIP3   OH272171   5.186   0.424  15.903  0.3204  0.2286  0.3215
16919TIP3    H172172   5.116   0.475  15.943 -0.7236 -0.0576 -1.0759
16919TIP3    H272173   5.266   0.455  15.947 -0.8201 -1.0134  3.5883
16920TIP3   OH272174   1.945   6.340  15.709 -0.3110  0.0234 -0.0523
16920TIP3    H172175   1.962   6.306  15.797 -0.8331  1.5758  0.6810
16920TIP3    H272176   2.020   6.311  15.657  0.5502 -0.0206  1.1680
16921TIP3   OH272177   5.738   6.670   5.716  0.4947  0.4843  0.2902
16921TIP3    H172178   5.681   6.705   5.784  0.9869 -0.4256  1.1846
16921TIP3    H272179   5.681   6.664   5.638 -0.9522 -1.3524  1.4005
16922TIP3   OH272180   3.958   1.612  13.613  0.3479  0.1724 -0.1971
16922TIP3    H172181   3.970   1.657  13.697  3.4918  0.2335 -0.5633
16922TIP3    H272182   4.046   1.608  13.575 -0.8080 -0.8188 -3.0251
16923TIP3   OH272183   6.545   2.118   2.892  0.7338  0.4561 -0.3897
16923TIP3    H172184   6.606   2.191   2.883  0.7081  0.4350 -0.7407
16923TIP3    H272185   6.509   2.105   2.804  0.9928 -0.2066 -0.4029
16924TIP3   OH272186   4.827   1.346  14.497 -0.0473 -0.1858 -0.7796
16924TIP3    H172187   4.886   1.397  14.554 -0.9119  0.8672 -0.7989
16924TIP3    H272188   4.811   1.266  14.546  1.2311 -0.4146 -0.6807
16925TIP3   OH272189   1.642   0.719   3.558  0.1821  0.0379 -0.1874
16925TIP3    H172190   1.557   0.746   3.523  0.8406  1.3642 -0.8490
16925TIP3    H272191   1.699   0.794   3.541  0.6678  0.6284  3.3921
16926TIP3   OH272192   6.636   1.170  13.270  0.2016 -0.0877 -0.1206
16926TIP3    H172193   6.544   1.153  13.252  0.1956 -0.7623  0.4804
16926TIP3    H272194   6.638   1.193  13.363  0.4776  1.2629 -0.4449
16927TIP3   OH272195   2.265   4.646   4.578  0.5092  0.2591  0.0708
16927TIP3    H172196   2.216   4.683   4.651  0.0275 -0.4010  0.0983
16927TIP3    H272197   2.239   4.698   4.502 -0.1152  0.0234  0.1162
16928TIP3   OH272198   0.123   0.899   5.037  0.1274  1.3012 -0.4348
16928TIP3    H172199   0.189   0.906   5.106  1.0078  0.3404 -1.1456
16928TIP3    H272200   0.042   0.931   5.077  0.7525  1.3249  0.8443
16929TIP3   OH272201   1.117   2.374  16.131  0.2572  0.2359  0.0777
16929TIP3    H172202   1.164   2.325  16.199 -0.6470  1.3948  1.6202
16929TIP3    H272203   1.184   2.396  16.067  1.5711  0.6653  1.5230
16930TIP3   OH272204   3.305   2.046  13.705 -0.1273  0.4625  0.1106
16930TIP3    H172205   3.251   1.972  13.734 -0.8255  0.4279 -1.1941
16930TIP3    H272206   3.395   2.016  13.718 -0.3883 -0.8513 -0.8926
16931TIP3   OH272207   6.281   0.712   3.937 -0.4140 -0.7734 -0.0566
16931TIP3    H172208   6.252   0.679   4.022  1.6067  0.0703  1.0285
16931TIP3    H272209   6.366   0.670   3.923  1.4381  2.3886  0.5710
16932TIP3   OH272210   6.251   4.461   3.029 -0.2022  0.8056  0.0301
16932TIP3    H172211   6.207   4.377   3.040  0.5480  0.0882 -1.8779
16932TIP3    H272212   6.192   4.512   2.973 -0.2657  1.2281  0.4802
16933TIP3   OH272213   3.717   2.915   1.640  0.2512  0.0744 -0.6811
16933TIP3    H172214   3.710   2.822   1.618 -0.6369  0.2464 -1.1647
16933TIP3    H272215   3.745   2.916   1.731 -1.5601 -0.6879 -0.0830
16934TIP3   OH272216   0.595   2.968  13.423 -0.0636  0.0454  0.3039
16934TIP3    H172217   0.690   2.954  13.427 -0.0200  0.6292  2.2492
16934TIP3    H272218   0.559   2.901  13.481 -0.8471 -0.0895 -0.3234
16935TIP3   OH272219   4.798   3.122  16.388  0.2458  0.1828  0.1452
16935TIP3    H172220   4.876   3.095  16.437 -0.6303 -0.5032  1.2000
16935TIP3    H272221   4.823   3.110  16.296  1.1689 -0.6403  0.4784
16936TIP3   OH272222   1.427   5.639   6.288 -0.0798 -0.3459 -0.4358
16936TIP3    H172223   1.367   5.565   6.277 -1.1390  0.6809 -2.0377
16936TIP3    H272224   1.384   5.695   6.352 -0.1802 -0.2525 -0.5838
16937TIP3   OH272225   6.169   0.135  15.961  0.0245 -0.0617 -0.1373
16937TIP3    H172226   6.200   0.195  16.028 -0.4949 -0.3612  0.3769
16937TIP3    H272227   6.146   0.055  16.009  0.0501 -0.4268 -0.7232
16938TIP3   OH272228   4.095   0.108  13.367  0.2526 -0.4627 -0.7356
16938TIP3    H172229   4.080   0.182  13.309  0.5725 -0.9158 -1.4146
16938TIP3    H272230   4.007   0.078  13.390  0.0989  1.1020  0.8545
16939TIP3   OH272231   5.937   0.408  14.624  0.5148  0.3897  0.1456
16939TIP3    H172232   6.030   0.428  14.637  0.5821 -0.1965  0.6277
16939TIP3    H272233   5.909   0.375  14.709  0.1388 -0.4996 -0.3169
16940TIP3   OH272234   5.457   1.425   5.675  0.2959  0.1870 -0.4912
16940TIP3    H172235   5.549   1.408   5.694  0.3707  1.5410  0.4790
16940TIP3    H272236   5.422   1.340   5.648  1.6101 -0.5457  0.0210
16941TIP3   OH272237   0.217   1.215  16.539 -0.4323  0.5747  0.1253
16941TIP3    H172238   0.159   1.285  16.569 -1.0013  0.6872 -1.1926
16941TIP3    H272239   0.300   1.258  16.522 -0.0924  0.5083  1.4980
16942TIP3   OH272240   6.055   5.331  17.053 -0.4809 -0.0418  0.2290
16942TIP3    H172241   5.974   5.322  17.003 -0.0981 -0.7092 -0.2789
16942TIP3    H272242   6.123   5.297  16.996  0.1780  0.5596  0.6288
16943TIP3   OH272243   4.861   3.637   1.395  0.0759  0.2433 -0.2029
16943TIP3    H172244   4.943   3.687   1.394  0.1256  0.2683  1.5492
16943TIP3    H272245   4.802   3.691   1.447 -0.5323 -0.5590 -0.0466
16944TIP3   OH272246   6.252   0.630   4.213  0.1367  0.0173  0.3260
16944TIP3    H172247   6.332   0.591   4.247 -0.3254 -2.2466 -1.0040
16944TIP3    H272248   6.181   0.583   4.257 -0.4400 -0.4956 -1.0970
16945TIP3   OH272249   3.792   3.865  11.308  0.4139  0.5640  0.4406
16945TIP3    H172250   3.742   3.873  11.389 -0.4220  0.0362 -0.0138
16945TIP3    H272251   3.810   3.955  11.281 -0.7706  0.7770  0.3233
16946TIP3   OH272252   3.401   5.133   3.880  0.7064  0.5333  0.1777
16946TIP3    H172253   3.382   5.135   3.974  0.3005 -0.3513  0.1289
16946TIP3    H272254   3.490   5.097   3.875  0.2465 -0.6598  0.1884
16947TIP3   OH272255   4.346   5.122  14.692 -0.3576 -0.0019  0.1694
16947TIP3    H172256   4.319   5.066  14.619  1.3346 -0.0554 -0.4473
16947TIP3    H272257   4.399   5.191  14.652  0.3103  0.1681  1.3033
16948TIP3   OH272258   4.051   2.801   5.720  0.0166  0.1725 -0.5069
16948TIP3    H172259   4.124   2.742   5.738 -0.7391 -1.5879 -2.5756
16948TIP3    H272260   3.977   2.762   5.767  0.2065  1.4916  0.9346
16949TIP3   OH272261   1.401   6.568  15.238 -0.0768  0.0583 -0.3162
16949TIP3    H172262   1.433   6.506  15.304 -0.5213  2.2528  2.1221
16949TIP3    H272263   1.331   6.520  15.193  1.8559 -2.3707 -1.0123
16950TIP3   OH272264   1.629   5.346   0.944  0.2545  0.0696 -0.6308
16950TIP3    H172265   1.552   5.341   0.888  1.1931  0.1350 -1.9863
16950TIP3    H272266   1.688   5.406   0.898  0.6788  0.9118  0.9269
16951TIP3   OH272267   0.656   2.772   6.251 -0.0180 -0.0340  0.6439
16951TIP3    H172268   0.589   2.809   6.309 -0.3812 -1.2830  1.0574
16951TIP3    H272269   0.608   2.714   6.192  0.4085  0.9036 -0.6576
16952TIP3   OH272270   3.148   6.406  13.157 -0.3647 -0.0412 -0.2356
16952TIP3    H172271   3.180   6.467  13.091  0.1617  0.8187  0.7774
16952TIP3    H272272   3.091   6.345  13.109 -1.2786  1.5224 -1.2011
16953TIP3   OH272273   1.239   3.306   2.002 -0.1465 -0.1340  0.0520
16953TIP3    H172274   1.289   3.325   2.081  0.2933 -1.7583  0.1817
16953TIP3    H272275   1.234   3.211   1.998  1.6602 -0.2125 -2.9964
16954TIP3   OH272276   1.954   1.575   3.784 -0.1645 -0.0142 -0.2249
16954TIP3    H172277   1.956   1.481   3.769 -0.3946 -0.0943  0.2326
16954TIP3    H272278   1.868   1.592   3.823 -0.2701  0.4367 -0.6379
16955TIP3   OH272279   3.149   0.247   4.777  0.0687  0.6871  0.8096
16955TIP3    H172280   3.059   0.221   4.758  0.5710 -0.6433  0.1566
16955TIP3    H272281   3.145   0.342   4.784 -1.5961  0.5766  1.9799
16956TIP3   OH272282   0.695   4.116  12.905  0.3576 -0.8242 -0.4224
16956TIP3    H172283   0.770   4.126  12.847 -0.4736  1.4454 -1.2379
16956TIP3    H272284   0.630   4.068  12.852 -1.0858  2.7788 -2.2931
16957TIP3   OH272285   5.456   2.336  13.173  0.0367  0.0218 -0.0152
16957TIP3    H172286   5.420   2.336  13.084 -1.2993  0.6016  0.5032
16957TIP3    H272287   5.502   2.253  13.180  0.4619  0.1172 -1.3593
16958TIP3   OH272288   1.650   5.052  11.905 -0.3412 -0.0253 -0.5666
16958TIP3    H172289   1.640   4.957  11.901 -0.4475 -0.0053 -0.8037
16958TIP3    H272290   1.656   5.072  11.998 -0.2774 -0.2686 -0.5185
16959TIP3   OH272291   4.929   6.588  15.632  0.1779  0.1961  0.2741
16959TIP3    H172292   4.914   6.496  15.609  0.2270  0.2847 -0.1210
16959TIP3    H272293   4.841   6.625  15.639  0.1274 -0.1135  1.4230
16960TIP3   OH272294   6.137   2.882   2.530  0.5580 -0.1510  0.5240
16960TIP3    H172295   6.054   2.863   2.487  0.6512 -1.9340  1.0324
16960TIP3    H272296   6.203   2.840   2.474  1.1016  1.0626  0.2398
16961TIP3   OH272297   4.440   5.480  17.057  0.1838 -0.0116  0.1228
16961TIP3    H172298   4.412   5.396  17.093  1.3046 -0.1802  0.6280
16961TIP3    H272299   4.378   5.497  16.986 -0.9405 -0.5623  0.9321
16962TIP3   OH272300   3.712   6.247   4.387 -0.5059  0.3543  0.4918
16962TIP3    H172301   3.764   6.251   4.467  1.3546 -0.1288 -0.6323
16962TIP3    H272302   3.656   6.170   4.398 -0.5477  0.5232  1.4863
16963TIP3   OH272303   6.779   0.728  13.232 -0.4088  0.2784 -0.1014
16963TIP3    H172304   6.790   0.822  13.240 -0.6884  0.3061 -0.0189
16963TIP3    H272305   6.702   0.708  13.286 -1.5958  0.2950 -1.7045
16964TIP3   OH272306   6.025   4.620   0.998 -0.0248 -0.0003  0.5064
16964TIP3    H172307   6.027   4.633   0.903 -2.3975  0.7091  0.4903
16964TIP3    H272308   5.983   4.698   1.033  1.8781  0.3058  2.3232
16965TIP3   OH272309   2.013   4.123  12.880  0.0243 -0.2635 -0.2396
16965TIP3    H172310   2.022   4.068  12.957  0.0216 -0.2467 -0.2273
16965TIP3    H272311   1.928   4.166  12.890  0.9872  1.4823  0.8940
16966TIP3   OH272312   3.701   3.194   4.848 -0.0265  0.8503  0.2133
16966TIP3    H172313   3.781   3.197   4.795 -0.4447  2.0266 -0.3906
16966TIP3    H272314   3.727   3.231   4.932  0.5576 -0.7144  0.7590
16967TIP3   OH272315   4.700   2.757  11.856 -0.4666  0.0302 -0.5030
16967TIP3    H172316   4.774   2.697  11.842 -2.9383 -2.6223 -3.6341
16967TIP3    H272317   4.707   2.821  11.785 -1.2596 -0.4032 -0.9884
16968TIP3   OH272318   2.190   4.139   0.495 -0.0598  0.2881  0.4702
16968TIP3    H172319   2.249   4.158   0.422 -2.7082  1.3802 -1.5516
16968TIP3    H272320   2.210   4.206   0.560  1.4396  0.1074  0.2463
16969TIP3   OH272321   3.190   4.292  15.804  0.0132 -0.3125  0.4275
16969TIP3    H172322   3.132   4.361  15.835  1.0441  1.4303 -1.2922
16969TIP3    H272323   3.153   4.266  15.719  1.2109  0.2053 -0.2776
16970TIP3   OH272324   5.921   0.326  14.371  0.0063  0.0869  0.6778
16970TIP3    H172325   5.870   0.246  14.379 -0.3233  0.1907 -0.2041
16970TIP3    H272326   5.932   0.358  14.461 -0.6056 -0.4817  0.9601
16971TIP3   OH272327   4.561   3.986  13.666  0.5265 -0.1020 -0.2561
16971TIP3    H172328   4.569   3.973  13.572  0.0377 -0.7428 -0.2192
16971TIP3    H272329   4.559   3.898  13.703 -0.0259  0.1224  0.2853
16972TIP3   OH272330   0.099   5.135  13.480  0.4650 -0.2138 -0.4390
16972TIP3    H172331   0.012   5.128  13.441  0.8594 -1.2444 -1.1835
16972TIP3    H272332   0.084   5.177  13.564 -0.8284 -0.8863 -0.3070
16973TIP3   OH272333   6.660   0.051  14.369 -0.3827  0.3474 -0.0267
16973TIP3    H172334   6.706   0.080  14.291 -1.0911  1.4602 -0.0547
16973TIP3    H272335   6.728   0.041  14.436  0.4238 -1.8570 -1.0752
16974TIP3   OH272336   5.312   1.541  15.724 -0.3172 -0.1198  0.2422
16974TIP3    H172337   5.406   1.556  15.715 -0.6221  1.3054 -0.9860
16974TIP3    H272338   5.291   1.575  15.811  0.1176  0.6637  0.0517
16975TIP3   OH272339   4.625   1.919   3.924 -0.0130  1.0991  0.3042
16975TIP3    H172340   4.667   1.834   3.936 -0.0761  0.9237 -0.6780
16975TIP3    H272341   4.697   1.981   3.921  0.1075  0.9396 -0.1635
16976TIP3   OH272342   0.140   6.188  15.367  0.9024 -0.1689 -0.0732
16976TIP3    H172343   0.202   6.223  15.430  1.3513 -2.9251  1.1255
16976TIP3    H272344   0.193   6.159  15.293  0.6009  0.9252 -0.7499
16977TIP3   OH272345   5.015   0.371  13.274  0.1023 -0.0876 -0.4148
16977TIP3    H172346   5.011   0.420  13.356 -1.1877  0.3233 -0.7112
16977TIP3    H272347   5.027   0.438  13.206  0.5728 -0.3792 -0.6264
16978TIP3   OH272348   2.881   5.622  16.055 -0.3262 -0.7404  0.3567
16978TIP3    H172349   2.826   5.557  16.100 -0.8202  0.1954  1.1421
16978TIP3    H272350   2.933   5.662  16.125 -1.0805  0.7201  0.1288
16979TIP3   OH272351   3.330   1.911  11.973  0.7029  0.0390  0.4383
16979TIP3    H172352   3.372   1.993  11.948 -0.5595  0.8133  0.7610
16979TIP3    H272353   3.398   1.844  11.962  1.8402  1.1644  0.4598
16980TIP3   OH272354   6.570   1.052   1.060 -0.3136 -0.0590 -0.6140
16980TIP3    H172355   6.504   0.995   1.100  1.0543 -0.6422  0.9306
16980TIP3    H272356   6.605   1.103   1.133  1.6092 -0.4671 -1.1936
16981TIP3   OH272357   0.796   3.429   1.072  0.4365 -0.5470  0.1898
16981TIP3    H172358   0.813   3.509   1.123  2.1385 -0.5187 -0.3581
16981TIP3    H272359   0.880   3.409   1.030 -0.9103 -0.4141 -2.8394
16982TIP3   OH272360   0.267   1.482   5.036  0.1834  0.0967 -0.2119
16982TIP3    H172361   0.239   1.401   5.080 -1.3102  0.1133 -1.0802
16982TIP3    H272362   0.294   1.540   5.108  0.9604 -1.0307  0.4472
16983TIP3   OH272363   2.498   6.800   6.209 -0.7192 -0.1948 -0.2492
16983TIP3    H172364   2.465   6.852   6.282  0.7469  1.2792 -0.5836
16983TIP3    H272365   2.580   6.761   6.242 -0.9281 -0.9198 -0.5599
16984TIP3   OH272366   2.565   6.704  16.252 -0.3632 -0.5129  0.0257
16984TIP3    H172367   2.566   6.613  16.225  0.9585 -0.6172  0.3619
16984TIP3    H272368   2.472   6.725  16.265 -0.6686 -1.8202  0.0162
16985TIP3   OH272369   1.338   1.782   3.505 -0.0501 -0.0603  0.4794
16985TIP3    H172370   1.249   1.754   3.486 -0.4695  1.0229  0.7741
16985TIP3    H272371   1.341   1.790   3.601  0.1879  0.4659  0.4284
16986TIP3   OH272372   5.467   6.491  12.784  0.2133 -0.0623  0.5238
16986TIP3    H172373   5.559   6.478  12.808 -0.1073 -0.5827  1.5328
16986TIP3    H272374   5.458   6.448  12.699  0.3692 -2.1799  1.5040
16987TIP3   OH272375   0.599   1.694   0.645  0.0936 -0.2065 -0.7222
16987TIP3    H172376   0.572   1.617   0.596  0.6969 -0.7633 -0.2073
16987TIP3    H272377   0.616   1.662   0.734 -0.0547  0.5965 -0.3898
16988TIP3   OH272378   5.438   6.533   5.100 -0.2425 -0.2657  0.8348
16988TIP3    H172379   5.472   6.458   5.149  3.2719 -0.8389 -2.0046
16988TIP3    H272380   5.503   6.602   5.114 -1.5531  1.0658  0.5775
16989TIP3   OH272381   5.001   6.723  11.281  0.2084 -0.4733 -0.1694
16989TIP3    H172382   4.980   6.807  11.322 -2.2817 -1.0142 -0.1623
16989TIP3    H272383   5.054   6.677  11.347  0.2390  0.4618  0.4729
16990TIP3   OH272384   2.649   0.748   1.726 -0.1135  0.2517 -0.0731
16990TIP3    H172385   2.729   0.784   1.686 -0.1051  1.8151  1.2308
16990TIP3    H272386   2.677   0.664   1.763  1.3291  1.3634  1.5296
16991TIP3   OH272387   5.831   0.656   2.602 -0.1205  0.0459 -0.0184
16991TIP3    H172388   5.886   0.577   2.603  1.2302  0.9346  1.8956
16991TIP3    H272389   5.863   0.706   2.527  0.3070 -0.3855 -0.1309
16992TIP3   OH272390   1.827   0.226   3.684  0.8025 -0.0589  0.1300
16992TIP3    H172391   1.779   0.156   3.727 -0.5131  0.2512 -0.7710
16992TIP3    H272392   1.765   0.299   3.681  1.6988  0.7163 -0.1141
16993TIP3   OH272393   0.148   0.336  14.845 -0.3640 -0.2178  0.0213
16993TIP3    H172394   0.167   0.404  14.909  0.1880 -1.0322  0.7474
16993TIP3    H272395   0.233   0.296  14.826 -0.7782 -1.1986  0.1861
16994TIP3   OH272396   2.557   0.263  15.898  0.2991 -0.4920  0.9224
16994TIP3    H172397   2.592   0.229  15.816 -2.3067  0.7886 -0.8579
16994TIP3    H272398   2.600   0.348  15.909  0.4762 -0.5620  0.7690
16995TIP3   OH272399   4.167   1.410  11.559 -0.3171 -0.3290  0.0737
16995TIP3    H172400   4.177   1.317  11.541 -0.6321 -0.2572 -0.5090
16995TIP3    H272401   4.073   1.423  11.571 -0.2855 -0.0726  0.0640
16996TIP3   OH272402   6.394   3.745   4.870 -0.0739 -0.0936 -0.1046
16996TIP3    H172403   6.351   3.813   4.817 -0.2502 -1.4878 -1.8396
16996TIP3    H272404   6.420   3.678   4.807  0.0579 -1.6767  1.5454
16997TIP3   OH272405   0.043   6.201  15.036  0.6405 -0.0063  0.2896
16997TIP3    H172406   0.010   6.211  14.947 -0.4450 -0.0034  0.6718
16997TIP3    H272407   0.110   6.269  15.045 -0.6788  1.3775  0.1241
16998TIP3   OH272408   2.126   3.110   4.677  0.3782 -1.0676  0.6113
16998TIP3    H172409   2.169   3.133   4.595 -0.0200 -0.2343  0.6230
16998TIP3    H272410   2.034   3.095   4.652  0.2139 -0.6178  0.9183
16999TIP3   OH272411   2.426   2.622   1.218  0.4374 -0.1354  0.1765
16999TIP3    H172412   2.378   2.702   1.197  0.0288 -0.1700  0.9427
16999TIP3    H272413   2.517   2.651   1.229  0.6606 -0.0962 -1.4313
17000TIP3   OH272414   0.485   3.250   6.020  0.1091 -0.1099  0.5774
17000TIP3    H172415   0.496   3.155   6.025  0.2878 -0.0537  1.3472
17000TIP3    H272416   0.390   3.262   6.008  0.2126 -0.4122 -0.7073
17001TIP3   OH272417   1.192   3.115  14.364 -0.8981  0.2666  0.4145
17001TIP3    H172418   1.236   3.113  14.449 -0.5107  0.4549  0.2231
17001TIP3    H272419   1.262   3.106  14.301 -1.2628 -0.6057  0.1247
17002TIP3   OH272420   1.363   4.237   0.285 -0.2473 -0.3526 -0.5785
17002TIP3    H172421   1.323   4.323   0.297  0.0385 -0.4418  1.2319
17002TIP3    H272422   1.445   4.256   0.238 -0.2065  0.3570 -0.2394
17003TIP3   OH272423   0.523   3.114  14.485 -0.3237 -0.0318 -0.5735
17003TIP3    H172424   0.531   3.134  14.578 -0.3301  2.0851 -0.9773
17003TIP3    H272425   0.452   3.051  14.480  0.9483 -1.6816  1.0016
17004TIP3   OH272426   0.967   4.591   0.191 -0.2759  0.8937 -0.2478
17004TIP3    H172427   1.043   4.649   0.193 -0.1257  0.7299 -0.8107
17004TIP3    H272428   0.900   4.636   0.243 -0.6399  2.2674 -1.8139
17005TIP3   OH272429   3.272   3.316   2.538  0.4894 -0.7192  0.5334
17005TIP3    H172430   3.309   3.270   2.462  0.7609  0.6918 -0.2200
17005TIP3    H272431   3.275   3.251   2.609  3.5160 -1.0086  0.2740
17006TIP3   OH272432   0.351   2.822  11.008 -0.0842 -0.3823  0.5869
17006TIP3    H172433   0.306   2.901  11.038 -0.7028 -0.1728 -0.8490
17006TIP3    H272434   0.282   2.759  10.990  0.2944 -0.6635  0.0722
17007TIP3   OH272435   4.121   3.310   0.479 -0.3335  0.2662 -0.1242
17007TIP3    H172436   4.193   3.371   0.495  0.3138 -0.5984  0.3399
17007TIP3    H272437   4.072   3.309   0.561  0.3104 -0.6662  0.2695
17008TIP3   OH272438   0.494   0.148  11.196  0.1166 -0.0736  0.5650
17008TIP3    H172439   0.482   0.080  11.130 -0.2476 -1.2157  1.7540
17008TIP3    H272440   0.588   0.150  11.211  0.2005  0.1927  0.0106
17009TIP3   OH272441   0.907   0.165   1.498  0.1050 -0.3615 -0.1764
17009TIP3    H172442   0.941   0.218   1.425 -0.4906  0.5927  0.2172
17009TIP3    H272443   0.870   0.229   1.559 -2.5779 -1.3234 -0.6652
17010TIP3   OH272444   6.181   2.529   2.175 -0.1713  0.0909 -0.2972
17010TIP3    H172445   6.240   2.490   2.111 -0.4473 -0.1079 -0.4308
17010TIP3    H272446   6.212   2.496   2.260  0.9194  1.2625 -0.2026
17011TIP3   OH272447   4.046   0.099   2.356 -0.6216 -0.5009 -0.0529
17011TIP3    H172448   4.122   0.061   2.401  0.3077  2.0431  0.6844
17011TIP3    H272449   4.038   0.049   2.275  0.5266 -2.1886  0.8270
17012TIP3   OH272450   1.482   3.017  12.674 -0.0448  0.6251  0.3674
17012TIP3    H172451   1.454   3.009  12.765  0.8658 -0.4171  0.5828
17012TIP3    H272452   1.578   3.024  12.679 -0.0531  1.5719 -0.4653
17013TIP3   OH272453   4.201   1.494   4.200 -0.4477 -0.1395  0.2754
17013TIP3    H172454   4.148   1.534   4.131 -1.6900 -1.4631  0.4000
17013TIP3    H272455   4.263   1.562   4.226 -0.6837  0.7502 -1.3644
17014TIP3   OH272456   1.465   0.884   0.404 -0.4222 -0.3535 -0.0008
17014TIP3    H172457   1.517   0.912   0.479 -0.9265  2.4894 -0.6046
17014TIP3    H272458   1.377   0.868   0.440  0.0555 -2.1127  0.4846
17015TIP3   OH272459   4.128   2.403  11.332  0.5328 -0.4277  0.4547
17015TIP3    H172460   4.128   2.477  11.271  0.7473 -0.5268  0.3321
17015TIP3    H272461   4.037   2.374  11.335  0.0456  1.0573  1.9913
17016TIP3   OH272462   6.443   4.125   3.836  0.0386 -0.1276  0.0310
17016TIP3    H172463   6.504   4.192   3.868 -1.7597  1.3632  0.4588
17016TIP3    H272464   6.357   4.155   3.864 -1.1927 -0.9143 -2.6144
17017TIP3   OH272465   1.235   4.302   4.378 -0.4125  0.2698 -0.3509
17017TIP3    H172466   1.189   4.345   4.450 -0.5694 -0.1121 -0.2219
17017TIP3    H272467   1.166   4.275   4.318 -0.3476 -0.1466 -0.2427
17018TIP3   OH272468   3.236   2.495  16.236 -0.6904 -0.5729  0.5992
17018TIP3    H172469   3.143   2.482  16.257 -0.8210 -0.4305  0.1284
17018TIP3    H272470   3.283   2.468  16.314 -1.2166  1.2951  1.6200
17019TIP3   OH272471   3.435   0.489  12.868  0.4107 -0.3334 -0.5925
17019TIP3    H172472   3.519   0.451  12.843  0.9597 -0.0574  0.6996
17019TIP3    H272473   3.430   0.571  12.818  0.6887 -0.5742 -1.0207
17020TIP3   OH272474   2.935   6.758   3.580  0.2763  0.3765 -0.5595
17020TIP3    H172475   2.964   6.745   3.670 -1.6140 -0.3967 -0.0068
17020TIP3    H272476   2.960   6.848   3.559  0.4396  0.6758  0.8539
17021TIP3   OH272477   0.461   0.424   0.680  0.6184 -0.2108  0.0718
17021TIP3    H172478   0.538   0.479   0.683  0.2805  0.2447  1.7717
17021TIP3    H272479   0.463   0.383   0.594  1.3576  1.7571 -0.9037
17022TIP3   OH272480   6.611   3.669  15.492 -0.1957 -0.3181  0.0082
17022TIP3    H172481   6.519   3.641  15.487 -0.5061 -0.2167  3.2982
17022TIP3    H272482   6.615   3.747  15.437 -1.8556 -0.7458 -0.8073
17023TIP3   OH272483   3.578   6.107   0.854  0.0381 -0.2741 -0.5468
17023TIP3    H172484   3.523   6.030   0.846  0.2074 -0.2252 -2.7968
17023TIP3    H272485   3.658   6.085   0.807  0.2376  1.1316 -0.9316
17024TIP3   OH272486   5.368   1.680  12.902  0.4995  0.0662 -0.1959
17024TIP3    H172487   5.368   1.623  12.826 -1.7061  0.6649 -0.7043
17024TIP3    H272488   5.371   1.620  12.977 -1.6831 -0.7826 -0.7187
17025TIP3   OH272489   1.255   4.547  14.346  0.7091 -0.2286  0.2145
17025TIP3    H172490   1.329   4.607  14.342  0.4112  0.2823  1.6945
17025TIP3    H272491   1.179   4.603  14.363  0.1400 -0.8444 -0.2471
17026TIP3   OH272492   6.469   2.871  11.059 -0.4044 -0.0942 -0.3412
17026TIP3    H172493   6.562   2.849  11.051 -0.2500  0.1898  0.4955
17026TIP3    H272494   6.466   2.933  11.132 -0.9961  1.4579 -1.6046
17027TIP3   OH272495   4.545   5.486   3.356 -0.1736  0.5661 -0.0032
17027TIP3    H172496   4.519   5.536   3.278  2.2985  1.0274 -0.6199
17027TIP3    H272497   4.592   5.549   3.410  0.8910 -0.5024  0.3552
17028TIP3   OH272498   1.047   5.198  12.180 -0.5012  0.7057  0.3612
17028TIP3    H172499   0.995   5.208  12.259 -0.4477  1.2881  0.3268
17028TIP3    H272500   0.997   5.137  12.125 -1.7369  2.1405 -0.1648
17029TIP3   OH272501   3.082   6.359   2.140 -0.0521 -0.2927 -0.0626
17029TIP3    H172502   3.129   6.286   2.180  0.7898  0.2401 -0.0601
17029TIP3    H272503   3.035   6.320   2.066 -0.3129 -0.9875  0.4605
17030TIP3   OH272504   6.201   1.801   2.829 -0.1903 -0.4221 -0.1701
17030TIP3    H172505   6.277   1.767   2.783 -0.1828 -1.3124  0.4708
17030TIP3    H272506   6.238   1.851   2.902 -0.1342 -2.9967  1.7137
17031TIP3   OH272507   6.626   0.013   4.242 -0.1938  0.0696 -0.3315
17031TIP3    H172508   6.594  -0.048   4.308 -3.7904  1.4503 -0.5441
17031TIP3    H272509   6.700  -0.032   4.201  2.0778 -0.9690  4.2495
17032TIP3   OH272510   6.146   4.592   5.585 -0.2064 -0.2824 -0.2676
17032TIP3    H172511   6.080   4.550   5.639 -0.3974 -2.2458 -1.8924
17032TIP3    H272512   6.113   4.583   5.495  1.4248  0.2755 -0.9621
17033TIP3   OH272513   3.874   1.112  12.405  0.5110 -1.2208 -0.5284
17033TIP3    H172514   3.831   1.114  12.320 -1.5474  2.0089  0.4182
17033TIP3    H272515   3.806   1.137  12.467  3.2403  2.8364  1.2569
17034TIP3   OH272516   5.722   2.150  15.206  0.4995  0.1382  0.1964
17034TIP3    H172517   5.733   2.078  15.268  0.2963  0.2382  0.3485
17034TIP3    H272518   5.667   2.113  15.137 -0.9365  0.5929  1.0409
17035TIP3   OH272519   5.032   2.829  11.648 -0.4635  0.0261 -0.0542
17035TIP3    H172520   4.966   2.765  11.674 -0.4632 -0.3129 -0.8333
17035TIP3    H272521   5.039   2.889  11.722 -1.3801 -0.1431  0.1818
17036TIP3   OH272522   0.251   0.073  15.188 -0.4759  0.0286 -0.1289
17036TIP3    H172523   0.267   0.134  15.116 -0.3036  0.4450  0.2560
17036TIP3    H272524   0.287  -0.011  15.158  2.6542  0.9158  0.7229
17037TIP3   OH272525   2.519   2.434  14.938  0.1896 -0.0279  0.1420
17037TIP3    H172526   2.489   2.516  14.897  2.4882  0.6715 -0.2805
17037TIP3    H272527   2.498   2.366  14.874 -1.9454  0.1316  0.5841
17038TIP3   OH272528   3.838   3.226   3.766  0.1845 -0.6198  0.0440
17038TIP3    H172529   3.870   3.173   3.839  0.7279 -1.1861 -0.5935
17038TIP3    H272530   3.747   3.244   3.788  1.0782  1.7884  2.3533
17039TIP3   OH272531   0.838   0.583  15.729  0.1561  0.3154 -0.2857
17039TIP3    H172532   0.841   0.662  15.782 -0.1910 -2.0556  3.7181
17039TIP3    H272533   0.920   0.538  15.747 -1.1302 -1.8700  0.5921
17040TIP3   OH272534   2.829   6.525   4.837 -0.3645  0.3582  0.5143
17040TIP3    H172535   2.921   6.540   4.856 -0.2192  1.3821 -0.7841
17040TIP3    H272536   2.825   6.517   4.741 -1.8053  2.1445  0.3496
17041TIP3   OH272537   1.681   1.863   4.080 -0.3404 -0.0598 -0.1330
17041TIP3    H172538   1.725   1.861   4.165  1.3776 -0.6953 -0.9843
17041TIP3    H272539   1.658   1.771   4.064  2.6688 -0.6222 -1.9226
17042TIP3   OH272540   0.010   5.667   4.811 -0.3146 -0.1866  0.5486
17042TIP3    H172541  -0.038   5.589   4.782 -0.9645 -0.0018  1.0934
17042TIP3    H272542  -0.058   5.725   4.846 -0.3871  2.1998 -3.0503
17043TIP3   OH272543   4.065   0.911  16.671 -0.1037  0.4244  0.2873
17043TIP3    H172544   3.977   0.919  16.634 -0.3666 -3.2723 -0.2464
17043TIP3    H272545   4.122   0.903  16.595  0.1422 -1.1872  0.6169
17044TIP3   OH272546   6.613   2.729  16.714 -0.3282 -0.1259  0.6136
17044TIP3    H172547   6.659   2.660  16.665  0.2142  0.8763 -0.3122
17044TIP3    H272548   6.549   2.681  16.768 -1.5891 -1.2410 -1.7179
17045TIP3   OH272549   6.705   0.119  16.153  0.3490 -0.1804  0.0656
17045TIP3    H172550   6.643   0.086  16.088  0.6025 -3.3879  1.2753
17045TIP3    H272551   6.655   0.182  16.205 -0.5778  0.5257 -1.5984
17046TIP3   OH272552   5.252   6.396   4.666 -0.4948  0.0969 -0.2689
17046TIP3    H172553   5.167   6.399   4.622 -0.0053 -1.3396 -1.4041
17046TIP3    H272554   5.274   6.303   4.667  0.8482  0.4129  0.4290
17047TIP3   OH272555   1.050   4.643   3.317 -0.3273 -0.6384  0.3916
17047TIP3    H172556   1.067   4.553   3.289 -0.6026 -0.9122  1.0914
17047TIP3    H272557   0.960   4.660   3.289  0.0765 -0.1918 -0.7105
17048TIP3   OH272558   5.246   6.578   1.630 -0.8065  0.3483 -0.1749
17048TIP3    H172559   5.246   6.529   1.712 -0.0930  1.6844  0.6684
17048TIP3    H272560   5.315   6.538   1.578  0.5008  1.0731  0.9284
17049TIP3   OH272561   5.765   2.163  14.762  0.0719  0.1211 -0.1219
17049TIP3    H172562   5.756   2.148  14.857  0.1448  0.0007 -0.1324
17049TIP3    H272563   5.679   2.193  14.734 -0.6370 -1.9765 -0.3969
17050TIP3   OH272564   2.700   6.443   6.154 -0.0656 -0.4349  0.0544
17050TIP3    H172565   2.727   6.505   6.222  0.6594  1.1332 -1.5510
17050TIP3    H272566   2.764   6.372   6.159  0.9021  0.4007  0.0814
17051TIP3   OH272567   5.823   5.417   6.477 -0.2058 -0.3251 -0.0035
17051TIP3    H172568   5.900   5.473   6.491 -1.9353  2.0763  0.4818
17051TIP3    H272569   5.837   5.380   6.390  1.1824  0.6035 -0.2245
17052TIP3   OH272570   3.431   3.340  15.946 -0.1404  0.2148  0.4090
17052TIP3    H172571   3.447   3.390  15.867  0.5255 -0.6464 -0.0105
17052TIP3    H272572   3.399   3.405  16.009 -1.7385  0.7393 -0.8562
17053TIP3   OH272573   4.543   5.127  16.813 -0.3654  0.1399  0.1681
17053TIP3    H172574   4.551   5.222  16.799  0.8547  0.1986  1.1378
17053TIP3    H272575   4.497   5.118  16.896  0.7358 -0.0870  0.7708
17054TIP3   OH272576   4.903   0.112   5.409  0.4009  0.4764  0.5797
17054TIP3    H172577   4.944   0.034   5.447 -1.5858 -1.3274 -0.7150
17054TIP3    H272578   4.885   0.169   5.484  0.7503 -0.9050  1.7629
17055TIP3   OH272579   1.578   3.170   4.310 -0.7832  0.3744 -0.1135
17055TIP3    H172580   1.513   3.237   4.290 -0.2515  1.4124  1.3945
17055TIP3    H272581   1.639   3.214   4.371  1.8246 -0.2597 -2.0956
17056TIP3   OH272582   0.799   0.881  16.548  0.6512 -0.0752 -0.3420
17056TIP3    H172583   0.795   0.897  16.454 -0.5298 -2.3160 -0.7327
17056TIP3    H272584   0.709   0.892  16.579  0.9762  0.3743  0.4859
17057TIP3   OH272585   0.363   2.521  16.030  0.0276  0.5035 -0.2933
17057TIP3    H172586   0.443   2.548  15.986  0.2800 -1.6535 -1.2971
17057TIP3    H272587   0.294   2.538  15.966 -0.2993  2.0234  0.4333
17058TIP3   OH272588   4.043   6.537   0.586  0.2548  0.5385  0.5379
17058TIP3    H172589   3.950   6.519   0.602  0.1735  2.0199  1.9859
17058TIP3    H272590   4.088   6.458   0.617 -0.5763 -1.6486 -3.1294
17059TIP3   OH272591   6.554   0.341   5.784 -0.2708  0.6508 -0.5543
17059TIP3    H172592   6.564   0.264   5.840  0.0015  1.9508  1.2591
17059TIP3    H272593   6.642   0.379   5.780 -0.0856  0.1115 -2.6376
17060TIP3   OH272594   6.466   1.713   4.937  0.3162 -0.3282 -0.7771
17060TIP3    H172595   6.431   1.628   4.912  0.7324 -0.1699 -2.0160
17060TIP3    H272596   6.537   1.729   4.874  1.6813 -0.0102  0.7635
17061TIP3   OH272597   6.737   3.934  15.465  0.6063 -1.0010 -0.5016
17061TIP3    H172598   6.727   4.015  15.415  2.4090  0.3778  1.2198
17061TIP3    H272599   6.698   3.954  15.550  2.1214 -1.5057  0.3425
17062TIP3   OH272600   2.788   5.413   1.546  0.1623  0.4229  0.6235
17062TIP3    H172601   2.829   5.435   1.463 -0.4226  1.0056  0.4810
17062TIP3    H272602   2.805   5.320   1.557  0.0368  0.2842 -0.2708
17063TIP3   OH272603   1.021   1.003  14.209 -0.4572 -0.0344  0.0123
17063TIP3    H172604   0.970   1.058  14.269 -0.1029 -0.0833  0.3670
17063TIP3    H272605   1.036   1.058  14.133 -0.0018  0.4108  0.4153
17064TIP3   OH272606   6.255   4.835   2.624 -0.0421 -0.0074 -0.1535
17064TIP3    H172607   6.274   4.784   2.545 -0.9194 -1.8451  0.7503
17064TIP3    H272608   6.161   4.854   2.618 -0.0216  0.2238  0.2224
17065TIP3   OH272609   2.600   5.781   1.082  0.2997  0.2205 -0.2126
17065TIP3    H172610   2.582   5.874   1.073 -1.3350 -0.2032 -1.9445
17065TIP3    H272611   2.598   5.747   0.993 -0.8274 -1.7321  0.4932
17066TIP3   OH272612   1.468   2.155   5.220  0.2375 -0.0385 -0.4633
17066TIP3    H172613   1.376   2.175   5.200  0.6826  1.8895 -0.8145
17066TIP3    H272614   1.505   2.126   5.136  0.0768 -0.3400 -0.4323
17067TIP3   OH272615   5.739   5.843  14.868  0.1238 -0.3617  0.1603
17067TIP3    H172616   5.699   5.831  14.782 -0.7042  1.2232  0.2871
17067TIP3    H272617   5.792   5.922  14.859  2.0213 -1.5240  0.4523
17068TIP3   OH272618   0.051   5.233  14.425  0.0340  0.1249 -0.0109
17068TIP3    H172619   0.025   5.217  14.334 -0.4083 -1.8167  0.4182
17068TIP3    H272620   0.141   5.264  14.420 -0.5064  1.6542 -1.1871
17069TIP3   OH272621   1.764   0.240  16.315  0.4034 -0.8513 -0.2469
17069TIP3    H172622   1.745   0.188  16.394  2.4857 -2.6709 -0.8571
17069TIP3    H272623   1.722   0.191  16.244 -1.5520  0.8353 -0.3406
17070TIP3   OH272624   4.221   6.531   5.032  0.6392 -0.7597  0.1625
17070TIP3    H172625   4.163   6.459   5.008  0.6380 -0.7503  0.1363
17070TIP3    H272626   4.163   6.607   5.041  0.7074 -0.6407 -0.3525
17071TIP3   OH272627   2.811   3.077   1.568 -0.1192  0.3622  0.4280
17071TIP3    H172628   2.863   3.005   1.531 -2.0790 -0.5533 -0.7028
17071TIP3    H272629   2.778   3.124   1.492 -0.6104  1.1622  1.1329
17072TIP3   OH272630   1.582   3.643   5.966  0.4704 -0.3948  0.3046
17072TIP3    H172631   1.496   3.680   5.946  0.8338 -0.5751 -1.8035
17072TIP3    H272632   1.634   3.657   5.886  1.9310 -1.6426  0.9770
17073TIP3   OH272633   3.284   4.903  13.999 -0.4510  0.3863 -0.0424
17073TIP3    H172634   3.308   4.810  13.995  0.1742  0.5639 -0.6298
17073TIP3    H272635   3.320   4.933  14.082  2.3500  0.8710 -1.3122
17074TIP3   OH272636   5.060   5.045  11.782  0.7422 -0.2434  0.4854
17074TIP3    H172637   5.080   5.071  11.872 -1.5662  0.7040  0.7845
17074TIP3    H272638   5.141   5.004  11.751  3.0279  2.9815  1.6063
17075TIP3   OH272639   6.644   2.361  15.579 -0.0064  0.6226  0.3146
17075TIP3    H172640   6.700   2.428  15.541  1.2969  0.1917  1.4178
17075TIP3    H272641   6.593   2.407  15.646 -0.9294  0.9846 -0.5988
17076TIP3   OH272642   3.073   5.259   0.220  0.9567  1.0306  0.0486
17076TIP3    H172643   3.031   5.336   0.258  0.5133  0.7778  0.0666
17076TIP3    H272644   3.122   5.220   0.292  1.6976  1.6443 -0.1051
17077TIP3   OH272645   4.313   5.883   4.255 -0.0375 -0.4879  0.1906
17077TIP3    H172646   4.363   5.959   4.286 -0.8979 -0.4756  1.6509
17077TIP3    H272647   4.230   5.919   4.226  0.3183 -0.6529 -1.0860
17078TIP3   OH272648   4.210   3.999  12.522  0.1780 -0.5378 -0.3171
17078TIP3    H172649   4.278   3.931  12.531 -0.0402 -0.8159 -0.7247
17078TIP3    H272650   4.259   4.081  12.522  0.5592 -0.7563 -1.0248
17079TIP3   OH272651   4.829   0.550  14.534  1.2530 -0.2859  0.4294
17079TIP3    H172652   4.755   0.557  14.595  0.0189 -1.4228 -0.8537
17079TIP3    H272653   4.789   0.551  14.447  2.7148 -1.2695 -0.2989
17080TIP3   OH272654   4.092   6.567  15.674 -0.4894 -0.1599 -0.2274
17080TIP3    H172655   4.133   6.652  15.689 -0.6150  0.4487 -2.9064
17080TIP3    H272656   4.111   6.546  15.583 -1.8645 -2.2392 -0.1188
17081TIP3   OH272657   1.171   4.077   4.000  0.1324  0.3167 -0.3992
17081TIP3    H172658   1.142   4.124   4.078 -1.8231  3.0287 -2.5681
17081TIP3    H272659   1.267   4.083   4.002  0.1623 -0.1549  1.9663
17082TIP3   OH272660   2.087   5.814  16.070  0.0981  0.1144 -0.0167
17082TIP3    H172661   2.119   5.872  16.001 -0.3925  0.6663  0.2134
17082TIP3    H272662   2.034   5.870  16.127  1.6197 -0.0327  1.6134
17083TIP3   OH272663   0.167   4.793   1.035  0.3722 -0.0429 -0.9257
17083TIP3    H172664   0.229   4.865   1.032  0.1212  0.2579  0.2770
17083TIP3    H272665   0.174   4.760   1.125 -0.7797 -0.3726 -0.9440
17084TIP3   OH272666   5.176   1.605  15.103  0.5775 -0.3400  0.2729
17084TIP3    H172667   5.126   1.580  15.181 -0.2108 -0.0877 -0.1396
17084TIP3    H272668   5.248   1.658  15.136  1.4716 -1.9501  1.0326
17085TIP3   OH272669   0.338   2.561   4.367  0.2186  0.1638  0.2112
17085TIP3    H172670   0.346   2.467   4.357  2.8109  0.2287  1.0982
17085TIP3    H272671   0.392   2.598   4.298 -1.2500  1.0709 -0.5185
17086TIP3   OH272672   4.469   0.534   3.683  0.0751 -0.5982 -0.2351
17086TIP3    H172673   4.417   0.597   3.734 -1.1034 -2.3352  0.8007
17086TIP3    H272674   4.560   0.558   3.701 -0.3227  1.4550 -0.7380
17087TIP3   OH272675   6.122   1.139  11.454 -0.3136 -0.3741  0.0773
17087TIP3    H172676   6.135   1.204  11.522 -1.1513 -0.5922  0.4644
17087TIP3    H272677   6.090   1.188  11.378  2.2696  0.1229 -0.7872
17088TIP3   OH272678   6.105   6.496   5.479 -0.0596 -0.1014 -0.2113
17088TIP3    H172679   6.114   6.572   5.537 -2.6897  0.9868 -1.0665
17088TIP3    H272680   6.143   6.423   5.529 -1.1755  0.9877  2.4363
17089TIP3   OH272681   3.089   6.534  11.747 -0.4926  0.2108 -0.1427
17089TIP3    H172682   3.180   6.512  11.731 -0.6306  0.6541 -1.7374
17089TIP3    H272683   3.085   6.630  11.743 -1.0827  0.1817 -0.5325
17090TIP3   OH272684   4.873   3.136  14.222 -0.2159 -0.0807 -0.3117
17090TIP3    H172685   4.834   3.129  14.134  0.1390  2.8167 -0.8067
17090TIP3    H272686   4.959   3.097  14.213  0.1683  0.9560 -1.5759
17091TIP3   OH272687   1.867   3.866   0.765  0.1804  0.2087 -0.2179
17091TIP3    H172688   1.866   3.772   0.784 -0.7102  0.0436 -0.9918
17091TIP3    H272689   1.853   3.872   0.671  0.4836  1.1180 -0.2181
17092TIP3   OH272690   6.187   4.957   5.016 -0.9971 -0.2282  0.2718
17092TIP3    H172691   6.185   5.045   4.979  0.1799 -0.3933 -0.2249
17092TIP3    H272692   6.132   4.963   5.095 -0.4864  1.0882  0.5538
17093TIP3   OH272693   3.698   3.523  12.443  0.4861 -0.0110 -1.0737
17093TIP3    H172694   3.721   3.470  12.367  1.8948  0.3199 -0.9146
17093TIP3    H272695   3.782   3.543  12.484 -0.1715  0.6815 -0.0090
17094TIP3   OH272696   3.955   5.638  13.573 -0.5464  0.6718 -0.1664
17094TIP3    H172697   4.014   5.657  13.501 -1.1879 -0.0910 -0.9119
17094TIP3    H272698   4.011   5.638  13.651 -0.0984  3.1545 -0.3863
17095TIP3   OH272699   5.179   1.865   4.792  0.2296  0.1555 -0.0158
17095TIP3    H172700   5.139   1.937   4.840 -1.4539 -0.6241 -0.1718
17095TIP3    H272701   5.147   1.876   4.702  1.5142  0.2967 -0.4786
17096TIP3   OH272702   0.243   5.311   5.736 -0.1252 -0.1390  0.3580
17096TIP3    H172703   0.268   5.327   5.645 -1.0197 -0.9440 -0.0385
17096TIP3    H272704   0.280   5.225   5.757  0.4794  0.2419  0.9220
17097TIP3   OH272705   4.122   2.424  14.250 -0.0726  0.2153  0.3146
17097TIP3    H172706   4.040   2.382  14.222  0.0903 -0.5406  0.9375
17097TIP3    H272707   4.190   2.376  14.204  0.0368  0.7840 -0.1295
17098TIP3   OH272708   2.550   0.994  11.178  0.6096 -0.2398  0.2929
17098TIP3    H172709   2.556   0.903  11.208  2.0426  0.0361  0.9344
17098TIP3    H272710   2.606   0.997  11.100  0.1132 -0.0316 -0.0610
17099TIP3   OH272711   3.977   6.263  15.507  0.0418 -0.1219  0.3190
17099TIP3    H172712   3.979   6.181  15.555 -0.9383 -1.4033 -1.7077
17099TIP3    H272713   4.054   6.260  15.450 -0.2202  0.1594 -0.0607
17100TIP3   OH272714   2.824   3.088  12.682 -0.1746  0.3685 -0.4817
17100TIP3    H172715   2.890   3.027  12.649 -0.1171 -0.0458  0.3469
17100TIP3    H272716   2.753   3.032  12.711 -0.7427  0.7947 -1.0327
17101TIP3   OH272717   5.641   0.138  14.387  0.5161  0.1700 -0.6492
17101TIP3    H172718   5.558   0.139  14.436  0.3556 -2.3684 -0.7118
17101TIP3    H272719   5.708   0.128  14.454  0.5004 -0.6845 -0.7415
17102TIP3   OH272720   5.645   5.178   2.809 -0.3812 -0.0858  0.1831
17102TIP3    H172721   5.705   5.252   2.811 -1.0783  0.4809  2.0397
17102TIP3    H272722   5.701   5.101   2.824  0.1734  0.1938 -0.4431
17103TIP3   OH272723   4.425   1.944  15.714 -0.0598 -0.1173  0.2196
17103TIP3    H172724   4.403   2.036  15.727  0.7121  0.0460  0.4214
17103TIP3    H272725   4.394   1.924  15.626 -0.8223  0.1504  0.4182
17104TIP3   OH272726   6.352   5.946  16.567 -0.4358  0.0949 -0.4194
17104TIP3    H172727   6.366   5.865  16.518  1.4350 -0.4536  0.8978
17104TIP3    H272728   6.432   5.957  16.619 -1.1458  2.1506  0.3570
17105TIP3   OH272729   1.784   0.516   3.464  0.2062 -0.0421  0.6531
17105TIP3    H172730   1.723   0.547   3.531  0.7121 -0.7121  1.4445
17105TIP3    H272731   1.867   0.507   3.509  0.9061  0.8196 -0.4064
17106TIP3   OH272732   3.153   3.890  14.728 -0.1049 -0.0831 -0.4801
17106TIP3    H172733   3.222   3.827  14.710 -0.8093 -1.8075  2.2875
17106TIP3    H272734   3.192   3.952  14.790 -0.6887 -0.4362  0.2548
17107TIP3   OH272735   3.893   0.308   2.005  0.1548 -0.0293  0.3355
17107TIP3    H172736   3.905   0.400   1.981  0.8698  0.0493  0.9535
17107TIP3    H272737   3.911   0.305   2.099  1.1167 -0.9501  0.1469
17108TIP3   OH272738   1.822   5.116  14.079  0.1402  0.2252  0.5218
17108TIP3    H172739   1.918   5.108  14.077  0.3350  1.6379  2.1418
17108TIP3    H272740   1.805   5.188  14.139 -1.9497  0.3322 -0.1144
17109TIP3   OH272741   1.959   1.167  16.029 -0.2832 -0.1601 -0.0029
17109TIP3    H172742   2.010   1.109  16.086 -1.5874  0.5509  1.9783
17109TIP3    H272743   1.868   1.145  16.048 -0.7737  1.2274 -0.6402
17110TIP3   OH272744   4.158   2.657  15.148  0.1997 -0.1499  0.6865
17110TIP3    H172745   4.075   2.702  15.162 -0.4263 -1.3822  1.0758
17110TIP3    H272746   4.200   2.705  15.077 -1.4357 -0.2997 -0.4187
17111TIP3   OH272747   1.239   2.091   0.752  0.4299 -0.0003 -0.2108
17111TIP3    H172748   1.227   2.178   0.789 -0.6794 -0.8848  1.6141
17111TIP3    H272749   1.261   2.035   0.826  1.6289 -1.2181 -1.4100
17112TIP3   OH272750   6.768   1.138   3.373 -0.2556 -0.4623  0.0978
17112TIP3    H172751   6.679   1.119   3.344 -0.3659  0.0821  0.0731
17112TIP3    H272752   6.812   1.176   3.297  0.3589 -1.7968 -0.2454
17113TIP3   OH272753   1.256   0.049  11.371 -0.4310 -0.0508 -0.4408
17113TIP3    H172754   1.314   0.056  11.295  0.7674  1.2479  0.5479
17113TIP3    H272755   1.302  -0.009  11.431 -0.4617  0.4425  0.0692
17114TIP3   OH272756   4.126   2.573   0.244 -0.5666 -0.0550 -0.1537
17114TIP3    H172757   4.146   2.524   0.323  3.1674  1.1502 -0.1258
17114TIP3    H272758   4.090   2.656   0.275  1.0550  0.4850  0.3872
17115TIP3   OH272759   4.806   0.767  14.317  0.3725  0.4417  0.0105
17115TIP3    H172760   4.749   0.755  14.394 -1.5237  0.8798 -1.2498
17115TIP3    H272761   4.775   0.848  14.277  0.4058 -0.4620 -1.9409
17116TIP3   OH272762   4.439   4.432  15.199  0.3241  0.2980 -0.4919
17116TIP3    H172763   4.482   4.416  15.283  0.8606  2.0775 -0.3956
17116TIP3    H272764   4.363   4.485  15.220  1.3541  2.1758 -1.2418
17117TIP3   OH272765   3.883   1.389   3.092 -0.1091 -0.3505  0.4953
17117TIP3    H172766   3.803   1.343   3.117 -0.0054  0.4898  2.6694
17117TIP3    H272767   3.858   1.482   3.097  1.0214 -0.0745  1.4552
17118TIP3   OH272768   3.641   0.646   2.170 -0.4662 -0.3526 -1.0743
17118TIP3    H172769   3.620   0.702   2.245  3.8719  0.1072  0.0418
17118TIP3    H272770   3.622   0.700   2.094 -1.9081  0.3707 -0.2466
17119TIP3   OH272771   5.126   0.904   5.659 -0.0290 -0.3238 -0.3221
17119TIP3    H172772   5.089   0.970   5.718  0.7772  0.9082 -1.1350
17119TIP3    H272773   5.115   0.942   5.572  3.4786  0.3916 -0.6186
17120TIP3   OH272774   4.397   2.736  13.043 -0.9492 -0.4773  0.2394
17120TIP3    H172775   4.430   2.826  13.048  0.4393 -1.0315  1.9510
17120TIP3    H272776   4.468   2.686  13.004 -0.5225 -1.3206  2.0163
17121TIP3   OH272777   2.761   6.183  14.331 -0.3131  0.5499  0.0787
17121TIP3    H172778   2.806   6.098  14.336 -2.4065 -0.6066  0.3145
17121TIP3    H272779   2.783   6.216  14.244  1.9505  0.6462  0.6167
17122TIP3   OH272780   4.239   1.033   6.109  0.2352 -0.1726 -0.2899
17122TIP3    H172781   4.304   1.104   6.119  1.2741 -1.2130  0.7266
17122TIP3    H272782   4.198   1.027   6.195  1.0143 -1.5744  0.0105
17123TIP3   OH272783   5.109   1.930  15.832  0.1032 -0.1111  0.3177
17123TIP3    H172784   5.069   1.848  15.862 -0.0892 -0.2681 -0.3307
17123TIP3    H272785   5.042   1.997  15.847  0.2847 -0.0586  0.9084
17124TIP3   OH272786   5.236   1.404   4.154 -0.0807  0.2945  0.4912
17124TIP3    H172787   5.327   1.376   4.159  0.3662  1.7819  1.3721
17124TIP3    H272788   5.213   1.393   4.062  1.3333  0.8994  0.0335
17125TIP3   OH272789   6.031   2.495  14.563 -0.1774 -0.0900  0.4756
17125TIP3    H172790   5.937   2.480  14.552 -0.2298  1.4780 -1.9713
17125TIP3    H272791   6.072   2.421  14.519 -0.2355 -0.6033  1.2594
17126TIP3   OH272792   2.784   6.744  13.449 -0.1047 -0.0382 -0.5447
17126TIP3    H172793   2.868   6.712  13.418 -0.2674 -2.0592  0.9004
17126TIP3    H272794   2.806   6.805  13.520  0.1498  1.7390 -2.0654
17127TIP3   OH272795   1.248   1.951   0.237 -0.1297 -0.0388  0.1797
17127TIP3    H172796   1.191   2.014   0.193 -0.0683 -1.2703 -1.7658
17127TIP3    H272797   1.217   1.950   0.328 -2.6610 -0.0403 -0.6019
17128TIP3   OH272798   1.871   0.505   4.155  0.3614 -0.3979 -0.4479
17128TIP3    H172799   1.837   0.419   4.177  1.6174 -0.6682  0.5768
17128TIP3    H272800   1.966   0.492   4.149  0.6713  1.0840  0.6828
17129TIP3   OH272801   3.966   3.357   0.696  0.4206  0.4284 -0.1538
17129TIP3    H172802   3.947   3.264   0.699  0.5847  0.3671 -0.8042
17129TIP3    H272803   3.980   3.382   0.787 -0.0774 -0.0841  0.0681
17130TIP3   OH272804   6.300   5.674   2.859 -0.0757 -0.4979 -0.1048
17130TIP3    H172805   6.268   5.587   2.836  0.4037 -0.7255  0.0970
17130TIP3    H272806   6.391   5.676   2.830  1.7043 -1.9585  4.4295
17131TIP3   OH272807   5.631   2.923  14.259 -0.2829  0.4098  0.5682
17131TIP3    H172808   5.548   2.968  14.248  0.7389  1.9344 -1.4905
17131TIP3    H272809   5.659   2.902  14.170  1.8173  0.5080  1.1528
17132TIP3   OH272810   0.133   4.416   2.626  0.1682 -0.4411  0.1857
17132TIP3    H172811   0.223   4.426   2.597  0.2254 -1.1723  0.0976
17132TIP3    H272812   0.134   4.445   2.718 -0.8589  6.2918 -1.3648
17133TIP3   OH272813   1.036   3.203   0.508  0.1473 -0.0399  0.2616
17133TIP3    H172814   1.035   3.208   0.412  1.8635 -1.0492  0.1500
17133TIP3    H272815   0.946   3.223   0.533 -1.2775 -2.9498 -1.7707
17134TIP3   OH272816   2.109   5.008   4.136 -0.1867  0.4614 -0.2080
17134TIP3    H172817   2.178   5.039   4.078 -0.7415 -2.0379 -2.4249
17134TIP3    H272818   2.028   5.029   4.091 -0.6036 -2.8241 -1.3270
17135TIP3   OH272819   6.455   2.000  15.841  0.3273 -0.0871 -0.0842
17135TIP3    H172820   6.531   2.056  15.822  1.3746 -1.5499 -0.3650
17135TIP3    H272821   6.394   2.018  15.770  0.9502  0.1931 -0.5591
17136TIP3   OH272822   5.335   0.853   3.083 -0.0429  0.0643  0.3787
17136TIP3    H172823   5.287   0.771   3.092 -0.7124 -0.0353 -2.8422
17136TIP3    H272824   5.268   0.921   3.083  0.4248  0.5832  1.9454
17137TIP3   OH272825   2.345   0.032  15.557  0.7859 -0.0174  0.1685
17137TIP3    H172826   2.427   0.053  15.512 -0.3451  0.1526 -1.9813
17137TIP3    H272827   2.361   0.055  15.648  2.9670  0.4339 -0.2577
17138TIP3   OH272828   5.396   2.390  13.986 -0.7750  0.0091  0.5010
17138TIP3    H172829   5.366   2.302  14.006  0.1412 -0.2154  0.9564
17138TIP3    H272830   5.452   2.379  13.909 -1.9235  0.4368 -0.4221
17139TIP3   OH272831   5.982   2.747  11.460 -0.4339  0.7026 -0.2953
17139TIP3    H172832   6.044   2.710  11.397 -0.6559  1.1377 -0.7693
17139TIP3    H272833   6.038   2.789  11.526 -0.1969  0.0486 -0.0721
17140TIP3   OH272834   2.940   5.520  10.803 -0.0084 -0.2289  0.0072
17140TIP3    H172835   2.930   5.431  10.770  2.0849  0.2101 -2.0900
17140TIP3    H272836   3.021   5.517  10.855  0.4705  0.5733 -0.6688
17141TIP3   OH272837   5.938   1.488   4.899 -0.2105 -0.0477 -0.0615
17141TIP3    H172838   6.005   1.502   4.966 -0.3633  0.2514  0.0302
17141TIP3    H272839   5.988   1.472   4.819 -0.0242 -0.7862  0.1962
17142TIP3   OH272840   2.055   3.542  16.446  0.0435  0.2273  0.3611
17142TIP3    H172841   2.100   3.601  16.385  0.1532  0.3629  0.5706
17142TIP3    H272842   2.083   3.455  16.420  2.0708  0.3793  1.7396
17143TIP3   OH272843   5.962   3.152   4.458 -0.4789  0.0355 -0.0654
17143TIP3    H172844   5.989   3.082   4.517 -2.3330 -0.1707  0.6037
17143TIP3    H272845   5.873   3.129   4.432 -0.8182  1.7024 -0.5221
17144TIP3   OH272846   4.487   2.740  14.824 -0.3940  0.1427 -0.2109
17144TIP3    H172847   4.413   2.785  14.865 -0.2157  0.2000  0.0515
17144TIP3    H272848   4.560   2.801  14.831  0.3879 -0.9288  1.9920
17145TIP3   OH272849   2.455   4.905  15.994  0.5628 -0.1331  0.2416
17145TIP3    H172850   2.396   4.980  15.994  0.8512  0.0931  0.1757
17145TIP3    H272851   2.411   4.840  16.048 -0.8505 -0.8162 -1.6160
17146TIP3   OH272852   2.290   2.046  10.969  0.5160  0.4004  0.0081
17146TIP3    H172853   2.353   1.993  10.920 -2.1079 -0.6022 -2.5766
17146TIP3    H272854   2.248   2.101  10.903 -3.4872 -1.2632  0.8889
17147TIP3   OH272855   3.532   3.653  13.115  0.6292 -0.4962 -0.3653
17147TIP3    H172856   3.484   3.601  13.180  0.3333  2.5189  2.0396
17147TIP3    H272857   3.466   3.677  13.051 -0.6397  1.3831  1.4961
17148TIP3   OH272858   0.154   3.650  16.123  0.6826  0.0156 -0.5627
17148TIP3    H172859   0.086   3.714  16.146  0.2722 -0.2963 -0.8656
17148TIP3    H272860   0.182   3.613  16.206 -0.2779 -0.5990 -0.4853
17149TIP3   OH272861   0.328   3.663  13.146 -0.5782  0.1972  0.3963
17149TIP3    H172862   0.410   3.613  13.137 -1.1387 -0.3823 -2.2411
17149TIP3    H272863   0.354   3.740  13.196  1.5029 -0.1800  0.0305
17150TIP3   OH272864   4.458   5.785   0.777  0.1628  0.4145 -0.3188
17150TIP3    H172865   4.391   5.761   0.841  1.0655 -0.5474  0.2990
17150TIP3    H272866   4.409   5.821   0.703 -0.9334  1.2971  0.7872
17151TIP3   OH272867   4.487   5.721   3.208 -0.1436 -0.2039 -0.3238
17151TIP3    H172868   4.499   5.810   3.174  0.5825  0.3711  1.3052
17151TIP3    H272869   4.408   5.727   3.262  0.8636 -0.0579  1.1961
17152TIP3   OH272870   0.085   5.507   0.168 -0.2482 -0.3310  0.1318
17152TIP3    H172871   0.161   5.505   0.110  0.1299 -1.3084  0.6422
17152TIP3    H272872   0.122   5.515   0.256 -0.6900 -1.5209  0.4448
17153TIP3   OH272873   0.920   2.137  14.841 -0.5457  0.0561 -0.1487
17153TIP3    H172874   0.985   2.201  14.872 -1.9745  0.9588  1.1566
17153TIP3    H272875   0.912   2.155  14.747 -0.3617  1.2895  0.0529
17154TIP3   OH272876   2.463   4.510  11.138  0.2673 -0.4623 -0.3516
17154TIP3    H172877   2.393   4.455  11.101  0.3018 -0.2263 -0.7699
17154TIP3    H272878   2.486   4.571  11.067 -0.7092  0.9957  0.5252
17155TIP3   OH272879   0.694   1.685   5.250 -0.1385 -0.3718 -0.0477
17155TIP3    H172880   0.677   1.708   5.341 -1.0839  0.5563 -0.4456
17155TIP3    H272881   0.783   1.717   5.233  0.0377 -0.5475  0.5348
17156TIP3   OH272882   4.945   4.008  15.713 -0.4404  0.2301 -0.5703
17156TIP3    H172883   4.912   3.944  15.650 -1.1244 -0.7852  0.7643
17156TIP3    H272884   5.039   4.013  15.695 -0.5097 -0.5683 -1.2011
17157TIP3   OH272885   3.488   4.417   1.375  0.0738  0.4154 -0.4801
17157TIP3    H172886   3.521   4.507   1.369 -0.6920  0.9808  2.2268
17157TIP3    H272887   3.514   4.388   1.462 -2.1280 -0.9164 -0.1787
17158TIP3   OH272888   6.061   4.919   5.269 -0.2397 -0.0523  0.2053
17158TIP3    H172889   6.088   4.828   5.278 -2.5535 -0.7221  1.2593
17158TIP3    H272890   6.091   4.960   5.350 -1.9640 -0.7270  1.2487
17159TIP3   OH272891   0.639   2.599  15.186 -0.2455 -0.3800  0.2960
17159TIP3    H172892   0.594   2.521  15.152 -2.1884  0.1822  1.3960
17159TIP3    H272893   0.643   2.659  15.112  1.9751 -1.7389 -0.7872
17160TIP3   OH272894   2.682   2.247  12.014  0.2512 -0.0745 -0.2277
17160TIP3    H172895   2.604   2.286  12.054  0.1253  0.6953 -1.2085
17160TIP3    H272896   2.657   2.156  11.998  0.0349 -0.1904  0.7164
17161TIP3   OH272897   4.819   4.328   1.788  0.2343 -0.1217 -0.2462
17161TIP3    H172898   4.884   4.302   1.854  0.4088 -1.0295 -0.7545
17161TIP3    H272899   4.864   4.316   1.704 -0.1873  0.4394 -0.5522
17162TIP3   OH272900   6.440   2.354   3.157  0.2849 -0.2847 -0.3842
17162TIP3    H172901   6.364   2.340   3.102 -0.4415  2.1413 -0.1202
17162TIP3    H272902   6.459   2.447   3.149  0.9701 -0.0801  2.3688
17163TIP3   OH272903   2.224   2.725  15.968  0.6060  0.7811  0.2730
17163TIP3    H172904   2.246   2.653  16.028  1.6502 -0.0302 -1.0013
17163TIP3    H272905   2.137   2.753  15.994 -0.2472 -1.6078  0.2473
17164TIP3   OH272906   4.037   0.720   3.280 -0.3810  0.0882 -0.0648
17164TIP3    H172907   3.951   0.695   3.246  0.6345 -0.0448 -2.8756
17164TIP3    H272908   4.030   0.814   3.298 -1.7613 -0.3923  2.1684
17165TIP3   OH272909   3.358   0.468   2.803  0.0513  0.3968  0.2054
17165TIP3    H172910   3.307   0.397   2.842 -0.7780  0.8856  0.0220
17165TIP3    H272911   3.432   0.479   2.863  0.5217 -1.0135 -0.0819
17166TIP3   OH272912   2.018   0.941   1.877 -0.1362 -0.1373 -0.3298
17166TIP3    H172913   2.043   1.004   1.945  0.6434  3.0655 -3.2842
17166TIP3    H272914   2.090   0.943   1.815 -0.9679 -2.6482 -1.5077
17167TIP3   OH272915   1.900   5.960  12.423 -0.6848  0.7672  0.2479
17167TIP3    H172916   1.911   6.035  12.481  1.1662  0.1419  0.7670
17167TIP3    H272917   1.954   5.981  12.346 -0.1005 -0.0292  0.4262
17168TIP3   OH272918   4.849   0.323   5.042  0.7955 -0.0021  0.3537
17168TIP3    H172919   4.942   0.306   5.035  0.4526 -1.9191  0.0658
17168TIP3    H272920   4.816   0.313   4.952  0.1415 -0.4042  0.6347
17169TIP3   OH272921   4.622   2.356   5.147  0.0316 -0.7309  0.3402
17169TIP3    H172922   4.686   2.285   5.143  0.2970 -0.4615 -0.6674
17169TIP3    H272923   4.620   2.391   5.057 -1.4941 -0.7021  0.3643
17170TIP3   OH272924   5.677   0.119   3.814 -0.0828 -0.1407  1.0503
17170TIP3    H172925   5.715   0.037   3.783  3.2534  1.0844  1.4576
17170TIP3    H272926   5.689   0.117   3.909 -0.2285  0.7021  1.0937
17171TIP3   OH272927   1.262   2.877  12.568 -0.4669 -0.6225 -0.1191
17171TIP3    H172928   1.329   2.905  12.630 -1.4769 -1.9990  1.7003
17171TIP3    H272929   1.286   2.787  12.546  0.6629  0.2440 -2.9510
17172TIP3   OH272930   4.624   5.506  13.669 -0.1637 -0.1387 -0.5682
17172TIP3    H172931   4.616   5.417  13.635 -0.7400 -0.2932 -0.0506
17172TIP3    H272932   4.652   5.558  13.594  1.2615 -0.9393 -0.6195
17173TIP3   OH272933   2.584   1.800  15.909  0.0340  0.6647  0.6235
17173TIP3    H172934   2.532   1.806  15.989 -0.7900  1.7259  0.0538
17173TIP3    H272935   2.519   1.787  15.839  0.6316  0.8027  0.0256
17174TIP3   OH272936   3.370   3.476  13.275  0.0929 -0.1040  0.1103
17174TIP3    H172937   3.302   3.528  13.232 -2.1243 -2.5948  0.3694
17174TIP3    H272938   3.353   3.386  13.249  1.3050 -1.2222  2.7436
17175TIP3   OH272939   5.305   3.370   3.507  0.2303 -0.5707  0.0039
17175TIP3    H172940   5.254   3.291   3.487 -1.9745 -0.1458  3.2015
17175TIP3    H272941   5.387   3.336   3.544  0.0919 -1.3248 -0.3602
17176TIP3   OH272942   4.261   3.650   6.492 -0.0467  0.3248  0.1332
17176TIP3    H172943   4.242   3.646   6.586 -1.1767 -1.5112 -0.1179
17176TIP3    H272944   4.180   3.683   6.453  0.2794  0.6997 -0.2342
17177TIP3   OH272945   2.746   3.618   4.955  0.6208  0.2737 -0.1854
17177TIP3    H172946   2.806   3.599   5.028 -0.4206 -1.4948  0.2672
17177TIP3    H272947   2.804   3.637   4.881  1.7162  0.3384  0.6578
17178TIP3   OH272948   1.388   2.637  12.539 -0.4891  0.0738  0.3939
17178TIP3    H172949   1.339   2.597  12.610  0.7771 -0.4844  0.9952
17178TIP3    H272950   1.467   2.672  12.581  0.6745 -0.9649 -0.8014
17179TIP3   OH272951   0.861   2.193   4.548 -0.6410 -0.4535  0.4564
17179TIP3    H172952   0.789   2.255   4.537 -0.8971 -0.7167  0.6342
17179TIP3    H272953   0.862   2.174   4.642 -0.2195 -0.3098  0.4852
17180TIP3   OH272954   3.967   0.372  14.810 -0.0218  0.2569 -0.3263
17180TIP3    H172955   4.004   0.375  14.898  0.1979 -1.4117 -0.3346
17180TIP3    H272956   3.986   0.459  14.773  1.8044  0.2582  0.4963
17181TIP3   OH272957   4.977   3.289   5.693  0.0256  0.0588  0.3947
17181TIP3    H172958   4.998   3.249   5.777  0.0916  0.7010  0.6892
17181TIP3    H272959   5.041   3.361   5.684  0.2050 -0.1787 -0.3328
17182TIP3   OH272960   5.620   5.345  13.138 -0.4052 -0.4016 -0.3389
17182TIP3    H172961   5.664   5.430  13.139  0.8203 -0.9805 -1.3686
17182TIP3    H272962   5.653   5.300  13.216  0.7615 -0.7635 -1.0068
17183TIP3   OH272963   3.540   5.405   4.472  0.3623 -0.1235 -0.1354
17183TIP3    H172964   3.590   5.476   4.511 -1.8469  0.0354  2.7359
17183TIP3    H272965   3.586   5.325   4.499 -0.0957  0.0691  1.2947
17184TIP3   OH272966   6.344   1.648  12.575  0.3433 -0.0999 -0.4049
17184TIP3    H172967   6.347   1.719  12.510 -0.4810  0.4586  0.1483
17184TIP3    H272968   6.425   1.599  12.561  1.2417  1.3290 -0.3708
17185TIP3   OH272969   5.473   2.769   0.045 -0.5685 -0.0819  0.5131
17185TIP3    H172970   5.555   2.719   0.051 -1.3581 -1.5173 -0.2530
17185TIP3    H272971   5.490   2.848   0.098  1.2115 -0.4500  0.5729
17186TIP3   OH272972   5.167   3.493   5.701  0.0704  0.6162 -0.1557
17186TIP3    H172973   5.157   3.534   5.615  0.2380  1.7883  0.3584
17186TIP3    H272974   5.240   3.539   5.741 -0.1641  0.2544  0.7148
17187TIP3   OH272975   1.314   0.262   4.720  0.2111 -0.0542 -0.3348
17187TIP3    H172976   1.400   0.292   4.690  0.5245 -0.4512  0.1471
17187TIP3    H272977   1.277   0.338   4.765  1.1007 -0.4194  1.0898
17188TIP3   OH272978   1.875   3.445   6.014  0.2055  0.5725 -0.5580
17188TIP3    H172979   1.939   3.517   6.018 -0.4524  1.1778 -0.8458
17188TIP3    H272980   1.887   3.407   5.927  1.0331 -0.1249 -0.1560
17189TIP3   OH272981   3.167   4.250   5.682 -0.2640 -0.3701  0.4444
17189TIP3    H172982   3.144   4.236   5.591 -2.0502  3.3204  0.1386
17189TIP3    H272983   3.139   4.170   5.727  0.0436 -1.9871 -2.0713
17190TIP3   OH272984   4.608   6.487  13.187 -0.2401  0.4229 -0.4963
17190TIP3    H172985   4.604   6.398  13.153 -0.5876 -0.2319  1.1481
17190TIP3    H272986   4.699   6.513  13.178 -0.0289 -0.3061 -0.5102
17191TIP3   OH272987   3.534   5.169   5.593  0.0243 -0.3774  0.2063
17191TIP3    H172988   3.546   5.074   5.586  1.3372 -0.2080 -0.1552
17191TIP3    H272989   3.618   5.205   5.563 -1.4573  1.0055 -2.6496
17192TIP3   OH272990   5.631   6.485  15.100 -0.3967 -0.4730  0.4560
17192TIP3    H172991   5.596   6.554  15.044 -1.2816 -2.0409 -0.9870
17192TIP3    H272992   5.582   6.493  15.182 -2.2255 -0.9132 -0.5639
17193TIP3   OH272993   4.704   5.994  13.067  0.1457 -0.2599  0.2024
17193TIP3    H172994   4.667   6.055  13.131 -1.6748 -1.2377  0.1532
17193TIP3    H272995   4.773   6.044  13.024 -0.4692  1.3637  0.9864
17194TIP3   OH272996   3.038   2.720  11.250 -0.3307 -0.3805  0.0091
17194TIP3    H172997   2.983   2.795  11.226 -0.4713 -0.6145 -0.4063
17194TIP3    H272998   3.087   2.750  11.326 -0.6429  0.0166  0.0582
17195TIP3   OH272999   0.922   2.826  14.829 -0.6126  0.4579  0.0608
17195TIP3    H173000   0.919   2.895  14.763 -1.0006  0.6128  0.2387
17195TIP3    H273001   0.918   2.745  14.779 -1.2809  0.5799 -0.0867
17196TIP3   OH273002   2.102   5.388   2.909 -0.3926  0.1083  0.0956
17196TIP3    H173003   2.034   5.363   2.846 -0.3406 -0.1433  0.1349
17196TIP3    H273004   2.112   5.482   2.899 -1.5828  0.3417  0.9118
17197TIP3   OH273005   4.040   2.069  12.098  0.5439  0.2259  0.1327
17197TIP3    H173006   4.015   2.142  12.154  3.6492  1.3915  0.2231
17197TIP3    H273007   4.119   2.033  12.139  1.1459 -0.8723 -1.8477
17198TIP3   OH273008   1.426   1.843   1.798 -0.0163 -0.3530  0.3527
17198TIP3    H173009   1.397   1.800   1.879  0.9025 -0.0179  0.8786
17198TIP3    H273010   1.518   1.863   1.814 -0.2250  1.1349 -0.1724
17199TIP3   OH273011   6.735   0.136   0.412  0.2579  0.3045  0.6411
17199TIP3    H173012   6.687   0.145   0.329  2.0149  2.7418 -0.2437
17199TIP3    H273013   6.674   0.169   0.478 -0.0947  1.3263 -0.1575
17200TIP3   OH273014   5.160   2.933   6.367 -0.0027 -0.5036 -0.1662
17200TIP3    H173015   5.175   2.982   6.287 -1.4293  1.5751  0.7555
17200TIP3    H273016   5.102   2.861   6.341 -0.0368 -0.1525 -1.0788
17201TIP3   OH273017   0.752   0.922  13.770  0.0240 -0.2778 -0.2809
17201TIP3    H173018   0.843   0.898  13.786  0.9818  0.6952 -3.5569
17201TIP3    H273019   0.747   1.014  13.793 -0.0518 -0.2445 -0.4307
17202TIP3   OH273020   0.389   6.319  14.720 -0.3363 -0.2460 -0.5590
17202TIP3    H173021   0.418   6.241  14.672 -0.7728 -0.2422 -0.8324
17202TIP3    H273022   0.432   6.312  14.805 -0.3536 -0.7691 -0.5939
17203TIP3   OH273023   6.174   6.237   5.575  0.0176 -0.9970  0.2222
17203TIP3    H173024   6.175   6.191   5.659  1.4687 -2.6461 -0.6263
17203TIP3    H273025   6.186   6.167   5.510  0.6443  0.4191 -1.2491
17204TIP3   OH273026   3.883   0.520  12.502  0.0290 -0.4043  0.5651
17204TIP3    H173027   3.955   0.571  12.538 -0.9517  1.2073  0.3337
17204TIP3    H273028   3.911   0.498  12.413  0.1678  0.3654  0.4152
17205TIP3   OH273029   6.549   4.648  17.150  0.6775 -0.4583  0.6239
17205TIP3    H173030   6.466   4.620  17.189  1.1672 -0.4478  1.6776
17205TIP3    H273031   6.564   4.584  17.080  0.7512 -1.6331  1.6787
17206TIP3   OH273032   3.463   1.509   2.711  0.3412  0.4020 -0.2691
17206TIP3    H173033   3.506   1.429   2.682  2.0939  2.0323 -2.5354
17206TIP3    H273034   3.533   1.559   2.755 -0.8432  0.5424  1.5614
17207TIP3   OH273035   1.193   1.765   2.542  0.1609 -0.8915 -0.1730
17207TIP3    H173036   1.189   1.707   2.466  0.4252 -1.3827  0.1839
17207TIP3    H273037   1.128   1.833   2.524  1.3865 -0.0456 -1.6183
17208TIP3   OH273038   3.176   0.344  12.437 -0.0873  0.2340 -0.4957
17208TIP3    H173039   3.120   0.416  12.466  0.1435  0.7938 -1.4128
17208TIP3    H273040   3.257   0.354  12.487 -0.6648 -0.4158  0.6329
17209TIP3   OH273041   2.491   0.569   1.999 -0.6072  0.2400  0.3492
17209TIP3    H173042   2.421   0.556   1.935  0.0939 -0.1227 -0.3519
17209TIP3    H273043   2.464   0.646   2.048 -0.1567  1.8337 -1.7587
17210TIP3   OH273044   1.382   2.828   0.277  0.2038  0.5772  0.6090
17210TIP3    H173045   1.356   2.746   0.319 -1.7192 -0.7735 -2.7673
17210TIP3    H273046   1.314   2.891   0.302 -0.7631 -0.1265 -0.1847
17211TIP3   OH273047   1.693   0.270  14.233 -0.1098  0.1817  0.1291
17211TIP3    H173048   1.756   0.321  14.283  0.6956  0.6567 -1.3036
17211TIP3    H273049   1.737   0.252  14.150 -0.4132 -2.7647  0.5091
17212TIP3   OH273050   3.874   3.759   2.448  0.2943  0.0436  0.3354
17212TIP3    H173051   3.787   3.720   2.461 -0.2261 -0.2455 -3.0602
17212TIP3    H273052   3.933   3.684   2.441  0.2693  0.0711 -0.3067
17213TIP3   OH273053   6.705   4.281   0.733 -0.2098 -0.4047 -0.0949
17213TIP3    H173054   6.631   4.313   0.784  0.7184  1.7850 -0.0370
17213TIP3    H273055   6.688   4.187   0.722 -1.9924 -0.3237  1.5531
17214TIP3   OH273056   6.251   0.037  14.328  0.2854 -0.2228  0.3431
17214TIP3    H173057   6.169   0.022  14.374 -0.3614  0.3532 -0.5957
17214TIP3    H273058   6.313   0.063  14.397 -0.8852  1.4922  0.8073
17215TIP3   OH273059   3.507   0.088  14.173  0.4522 -0.1173 -0.4459
17215TIP3    H173060   3.496   0.084  14.078 -0.7523 -0.8804 -0.2999
17215TIP3    H273061   3.487   0.179  14.195 -2.0221 -0.5180 -0.6749
17216TIP3   OH273062   5.598   1.802  16.773 -0.1844  0.0317  0.3816
17216TIP3    H173063   5.688   1.825  16.797 -0.5428  0.2253  1.5492
17216TIP3    H273064   5.557   1.776  16.855 -1.8223  1.9577  0.2451
17217TIP3   OH273065   6.337   0.979  14.976  0.1171 -0.1970  0.0688
17217TIP3    H173066   6.375   0.891  14.985  0.9010  0.3152  2.3688
17217TIP3    H273067   6.288   0.992  15.057 -2.0907  0.5606 -1.3255
17218TIP3   OH273068   3.510   2.897   0.648 -0.4712  1.3719  0.9955
17218TIP3    H173069   3.455   2.966   0.684 -2.4159 -0.0775  0.9083
17218TIP3    H273070   3.452   2.844   0.594  0.4724 -1.4542  2.5397
17219TIP3   OH273071   3.467   1.790  13.216  0.7344  0.0138  0.0542
17219TIP3    H173072   3.374   1.795  13.192  0.7288 -1.6727 -0.3891
17219TIP3    H273073   3.472   1.836  13.300 -0.5695 -0.2207  0.2842
17220TIP3   OH273074   5.471   3.048  10.333 -0.4995  0.6178 -0.6338
17220TIP3    H173075   5.452   3.103  10.409 -1.4743  0.2036 -0.5724
17220TIP3    H273076   5.420   2.968  10.346 -0.4172  0.3943 -1.5537
17221TIP3   OH273077   4.549   5.905   5.742  0.0193  0.3104 -0.1625
17221TIP3    H173078   4.479   5.954   5.785 -1.7126 -1.6818 -0.4927
17221TIP3    H273079   4.601   5.869   5.813 -1.5286 -1.1781  0.2825
17222TIP3   OH273080   5.234   1.724  14.537  0.3361  0.1604  0.0569
17222TIP3    H173081   5.164   1.765  14.587  0.5418 -0.6874  1.0733
17222TIP3    H273082   5.224   1.630  14.554  1.1499 -0.0443 -0.5263
17223TIP3   OH273083   1.678   2.851   2.610  0.2596 -0.1287  0.2610
17223TIP3    H173084   1.664   2.929   2.664  0.4779 -0.2906  0.5508
17223TIP3    H273085   1.668   2.778   2.670 -0.2326 -0.3390 -0.0730
17224TIP3   OH273086   4.840   1.816   3.383  0.1799 -0.1061  0.1281
17224TIP3    H173087   4.924   1.792   3.344  0.7167  0.1932  1.0577
17224TIP3    H273088   4.856   1.815   3.477  0.5339  4.6683  0.3350
17225TIP3   OH273089   5.773   0.480  12.950 -0.2646 -0.5783 -0.2594
17225TIP3    H173090   5.823   0.556  12.920  1.2774 -2.3025 -2.3990
17225TIP3    H273091   5.765   0.492  13.045  1.7004  1.2302 -0.2471
17226TIP3   OH273092   4.272   5.043   2.322 -0.6041  0.4322 -0.5601
17226TIP3    H173093   4.291   5.136   2.309 -0.1912  0.5638  0.8250
17226TIP3    H273094   4.356   5.004   2.346 -1.3120  0.3465  2.1008
17227TIP3   OH273095   2.990   4.031  15.422  0.1505 -0.3179  0.7703
17227TIP3    H173096   2.902   4.041  15.387  0.2478 -0.8184  0.3597
17227TIP3    H273097   3.043   4.096  15.375  0.3318 -1.1571 -0.2216
17228TIP3   OH273098   1.868   3.653  16.029  0.6471  0.2100 -0.8948
17228TIP3    H173099   1.860   3.597  16.106 -2.1772 -0.8302 -1.8500
17228TIP3    H273100   1.831   3.602  15.957  1.1845  1.9851 -2.5172
17229TIP3   OH273101   3.515   4.770   4.127 -0.1267  0.3209 -0.3887
17229TIP3    H173102   3.522   4.800   4.217 -0.2467 -1.0077  0.0816
17229TIP3    H273103   3.431   4.725   4.122  0.7030 -1.3261 -0.5989
17230TIP3   OH273104   5.179   4.009  15.555  0.2893  0.3290 -0.3017
17230TIP3    H173105   5.141   4.047  15.476  0.8099  0.0952 -0.6733
17230TIP3    H273106   5.202   3.919  15.529  2.1745  0.8199 -0.4643
17231TIP3   OH273107   4.137   5.249  16.726 -0.2974 -0.1807  0.3101
17231TIP3    H173108   4.046   5.220  16.722 -0.1727 -0.4756 -1.3714
17231TIP3    H273109   4.164   5.255  16.634  1.2306  0.3866  0.7620
17232TIP3   OH273110   6.653   1.403  13.109  0.6811 -0.1955  0.0165
17232TIP3    H173111   6.712   1.337  13.144  0.6723  0.2736  0.9341
17232TIP3    H273112   6.583   1.409  13.174  1.1541  1.3670  0.4119
17233TIP3   OH273113   6.277   0.442  17.009  0.4155 -0.0614  0.3823
17233TIP3    H173114   6.353   0.391  17.038  1.2737  1.2416  0.5568
17233TIP3    H273115   6.226   0.382  16.956  3.3910 -0.1307 -2.7779
17234TIP3   OH273116   5.946   4.785   4.933  0.2222 -0.3415 -1.2914
17234TIP3    H173117   5.921   4.872   4.962  0.3278 -0.8035  0.3134
17234TIP3    H273118   6.042   4.783   4.944  0.2977 -0.4421 -1.9495
17235TIP3   OH273119   1.558   5.690  12.208  0.0039 -0.1000 -0.2329
17235TIP3    H173120   1.465   5.710  12.193  0.6503  2.3509 -1.5276
17235TIP3    H273121   1.575   5.720  12.297 -0.0293  1.3936 -0.6992
17236TIP3   OH273122   4.083   1.432   3.320  0.0699  0.3361 -0.4484
17236TIP3    H173123   4.002   1.405   3.277  0.8779 -0.6262 -1.4536
17236TIP3    H273124   4.055   1.485   3.395 -1.4963 -0.7036 -0.2602
17237TIP3   OH273125   0.187   4.358   4.278 -0.2374  0.1647  0.2993
17237TIP3    H173126   0.202   4.441   4.233 -0.6646  0.8938  1.4553
17237TIP3    H273127   0.151   4.383   4.363  1.4859 -1.1109  1.4685
17238TIP3   OH273128   4.145   2.467   5.081  0.3000 -0.3146  0.2490
17238TIP3    H173129   4.129   2.450   5.174 -1.1982  0.6420  0.2043
17238TIP3    H273130   4.106   2.392   5.037  0.5209 -0.5001  0.3675
17239TIP3   OH273131   6.370   4.392   0.030  0.1572  0.3038 -0.5246
17239TIP3    H173132   6.323   4.348   0.101  1.1306 -0.7214 -0.4742
17239TIP3    H273133   6.462   4.385   0.055  0.3464  3.1791 -0.1057
17240TIP3   OH273134   4.219   6.023  11.811 -0.2217  0.4718 -0.8083
17240TIP3    H173135   4.263   6.047  11.730 -0.9792  3.5594 -0.4268
17240TIP3    H273136   4.126   6.041  11.794 -0.7910 -1.4437 -0.0750
17241TIP3   OH273137   2.760   1.636  17.139  0.6687  0.7376 -1.1168
17241TIP3    H173138   2.794   1.554  17.174 -1.2079  0.5204  0.4182
17241TIP3    H273139   2.826   1.702  17.162  0.9716  0.0611 -0.0048
17242TIP3   OH273140   3.515   4.393  11.866  0.0910 -0.0798  0.1484
17242TIP3    H173141   3.548   4.475  11.904 -0.0099  0.5686 -1.1308
17242TIP3    H273142   3.454   4.360  11.932  0.5416  0.5908  0.9205
17243TIP3   OH273143   0.596   3.009  12.374 -0.6514 -0.1833  0.0663
17243TIP3    H173144   0.670   2.968  12.419 -1.4906 -2.5981 -0.5826
17243TIP3    H273145   0.632   3.039  12.290  0.2811  1.7423  1.1093
17244TIP3   OH273146   0.163   5.975  11.768  0.5333  0.4854 -0.0976
17244TIP3    H173147   0.077   5.949  11.735  0.9441 -1.0152 -0.0778
17244TIP3    H273148   0.156   5.967  11.863  0.5994  0.7117 -0.0727
17245TIP3   OH273149   0.154   1.921  14.238 -0.3989 -0.3956  0.0128
17245TIP3    H173150   0.070   1.949  14.274  0.6202  1.2727  1.2534
17245TIP3    H273151   0.199   1.881  14.313  0.6903  0.6287 -0.0606
17246TIP3   OH273152   2.221   5.303   5.021  0.7591 -0.1181  0.0579
17246TIP3    H173153   2.161   5.378   5.022 -0.1630 -0.7787  2.9108
17246TIP3    H273154   2.276   5.318   4.945 -1.3555  1.8717 -1.2268
17247TIP3   OH273155   0.209   5.405   2.123 -0.1138  0.3803 -0.6701
17247TIP3    H173156   0.189   5.379   2.213 -0.5939  0.0333 -0.8653
17247TIP3    H273157   0.275   5.342   2.093  0.3653  0.7640 -0.4211
17248TIP3   OH273158   0.705   1.508  16.811 -0.0826  0.1472  0.4565
17248TIP3    H173159   0.788   1.472  16.842 -0.4906  0.1768  1.6671
17248TIP3    H273160   0.728   1.560  16.734  1.0256  0.1657  0.7836
17249TIP3   OH273161   3.020   5.426   3.151 -0.7436 -0.4013  0.3886
17249TIP3    H173162   2.928   5.426   3.126 -0.6219 -1.4559 -0.1119
17249TIP3    H273163   3.031   5.348   3.204  0.0728 -0.8598 -0.4118
17250TIP3   OH273164   2.472   6.134   6.803 -0.5209  0.2984  0.7546
17250TIP3    H173165   2.547   6.152   6.858 -0.7609 -0.8693  1.5105
17250TIP3    H273166   2.481   6.042   6.779 -0.8159  0.5858 -0.5590
17251TIP3   OH273167   6.276   1.252  12.311  0.4020 -0.8399  0.2704
17251TIP3    H173168   6.268   1.228  12.403  1.7164 -1.0101  0.3660
17251TIP3    H273169   6.217   1.193  12.265  0.6021 -1.5489  0.9025
17252TIP3   OH273170   6.369   4.436  16.595 -0.5590 -0.1747  0.5320
17252TIP3    H173171   6.339   4.394  16.515  1.6818  1.6171 -1.3669
17252TIP3    H273172   6.399   4.364  16.650  1.5121 -1.2991 -1.8910
17253TIP3   OH273173   0.058   1.790  14.723 -0.9016  0.0507 -0.7557
17253TIP3    H173174   0.098   1.781  14.810 -0.6723  0.2369 -0.8403
17253TIP3    H273175   0.034   1.701  14.699  0.4990 -0.2494 -1.1802
17254TIP3   OH273176   5.826   1.106   1.118 -0.1521 -0.2290 -0.5619
17254TIP3    H173177   5.832   1.132   1.210 -2.8432 -0.0782 -0.3667
17254TIP3    H273178   5.782   1.179   1.075  2.1632  0.2693 -2.3084
17255TIP3   OH273179   3.850   3.930  13.280  0.0212  0.3820  0.2056
17255TIP3    H173180   3.764   3.962  13.306  0.0569  1.2706 -0.6934
17255TIP3    H273181   3.854   3.947  13.186  0.4258 -1.4210 -0.1482
17256TIP3   OH273182   3.480   1.735   2.397  0.1404  0.2855  0.1892
17256TIP3    H173183   3.397   1.717   2.352 -0.4775 -0.4125  1.5325
17256TIP3    H273184   3.453   1.766   2.484  1.2895 -0.3318  0.7855
17257TIP3   OH273185   4.027   1.908   1.378 -0.1724  0.0715 -0.2551
17257TIP3    H173186   3.948   1.922   1.430 -0.2185 -0.5691 -0.1495
17257TIP3    H273187   4.094   1.960   1.422 -0.2325 -0.3866  0.3883
17258TIP3   OH273188   3.823   1.143   5.222 -0.1291 -0.6319  0.1765
17258TIP3    H173189   3.745   1.100   5.256 -0.6249  0.4970  0.5232
17258TIP3    H273190   3.854   1.086   5.151 -2.0786 -0.4170 -0.9237
17259TIP3   OH273191   0.691   1.783   1.675 -0.3310  0.5414  0.1088
17259TIP3    H173192   0.696   1.718   1.605  0.6569 -0.7183  1.3108
17259TIP3    H273193   0.733   1.861   1.638  2.3635 -0.8380  0.0447
17260TIP3   OH273194   0.129   1.573   0.453  1.4601 -0.1204 -0.2950
17260TIP3    H173195   0.104   1.536   0.538  1.5227 -1.8782 -1.0098
17260TIP3    H273196   0.045   1.596   0.412  1.4763  2.0672  0.7602
17261TIP3   OH273197   4.013   6.196  15.234  0.3520 -0.2019  0.0876
17261TIP3    H173198   4.082   6.153  15.285 -0.0681 -0.8000  0.1683
17261TIP3    H273199   3.940   6.134  15.237 -1.1370  1.4915  2.2209
17262TIP3   OH273200   4.395   3.127  10.235 -0.0718 -0.0269  0.2974
17262TIP3    H173201   4.425   3.215  10.256 -1.0062  0.8387 -1.7624
17262TIP3    H273202   4.433   3.072  10.304  1.2113  1.8375  1.1683
17263TIP3   OH273203   6.121   4.778  12.720  0.2709 -0.0291 -0.1564
17263TIP3    H173204   6.197   4.766  12.663  0.9652 -0.9373  0.9070
17263TIP3    H273205   6.137   4.718  12.793 -0.9851  0.5063  0.5816
17264TIP3   OH273206   5.906   0.282   6.133  0.2422 -0.0567  0.1803
17264TIP3    H173207   5.911   0.190   6.161  1.2096 -0.2857 -0.6693
17264TIP3    H273208   5.953   0.330   6.201  0.1707 -0.2514  0.3693
17265TIP3   OH273209   1.091   5.150   2.907 -0.0879 -0.6584  0.1289
17265TIP3    H173210   1.006   5.143   2.863 -1.4907 -3.2683  2.8684
17265TIP3    H273211   1.140   5.074   2.877 -0.6019 -1.7828  1.9752
17266TIP3   OH273212   4.388   3.915  13.216 -0.1780 -0.0873 -0.2848
17266TIP3    H173213   4.325   3.983  13.239  2.2326  2.3412 -0.4534
17266TIP3    H273214   4.449   3.913  13.290 -0.8391 -3.0685  0.3250
17267TIP3   OH273215   2.396   4.372  11.434 -0.4396 -0.4077 -0.0270
17267TIP3    H173216   2.358   4.431  11.499 -0.2588 -1.1295  0.7334
17267TIP3    H273217   2.467   4.423  11.394 -1.1667  0.3804 -0.3575
17268TIP3   OH273218   4.823   3.677   6.550 -0.2139 -0.0994  0.9359
17268TIP3    H173219   4.840   3.633   6.466  1.1350 -0.1191  1.1922
17268TIP3    H273220   4.728   3.671   6.561 -0.1677 -2.4064  0.6535
17269TIP3   OH273221   4.159   3.861  12.019 -0.0717 -0.7804 -0.0941
17269TIP3    H173222   4.087   3.918  11.991 -0.3338 -0.6222  0.8399
17269TIP3    H273223   4.130   3.827  12.104  0.9299 -0.7723  0.2571
17270TIP3   OH273224   4.633   3.191   5.280 -0.3319  0.8719  0.6339
17270TIP3    H173225   4.716   3.215   5.238  0.3929 -1.2107  0.7710
17270TIP3    H273226   4.593   3.127   5.221 -0.2058 -0.6590  2.1261
17271TIP3   OH273227   3.296   5.613  17.112  0.8084 -0.3329 -0.0094
17271TIP3    H173228   3.341   5.674  17.053 -2.0986 -0.3486 -2.5123
17271TIP3    H273229   3.234   5.568  17.056 -2.2041 -0.4178  3.0865
17272TIP3   OH273230   6.488   0.265   2.176 -0.6062 -0.2970 -0.6877
17272TIP3    H173231   6.552   0.211   2.130 -0.5201  0.2179 -1.1809
17272TIP3    H273232   6.484   0.227   2.264 -1.0389 -1.5176 -1.2037
17273TIP3   OH273233   6.644   3.520   4.986 -0.4441  0.3537  0.2576
17273TIP3    H173234   6.712   3.453   4.995 -0.0933  0.8150  1.2010
17273TIP3    H273235   6.630   3.527   4.891  1.0249  0.4457  0.0155
17274TIP3   OH273236   4.852   0.199   5.690 -0.5215 -0.4444  0.2774
17274TIP3    H173237   4.798   0.265   5.734 -0.7921 -0.3196 -0.2315
17274TIP3    H273238   4.862   0.129   5.754  0.0921  0.2557  0.9681
17275TIP3   OH273239   3.846   3.735   3.144  0.0168 -0.0298 -0.2053
17275TIP3    H173240   3.880   3.677   3.076 -0.8203  1.1531 -1.7197
17275TIP3    H273241   3.788   3.795   3.097  0.0112  1.3525  1.4487
17276TIP3   OH273242   4.054   5.178  12.973  0.3560 -0.1125  0.3112
17276TIP3    H173243   3.977   5.185  12.916 -0.0360 -1.4702  0.6517
17276TIP3    H273244   4.118   5.128  12.922  0.4564 -0.2806  0.6011
17277TIP3   OH273245   6.739   6.624  12.350  0.1497 -0.0993  0.1182
17277TIP3    H173246   6.706   6.581  12.271  0.0286 -1.1366  0.7151
17277TIP3    H273247   6.660   6.652  12.396  0.1996 -0.1573  0.2372
17278TIP3   OH273248   5.478   2.756   0.483  0.1130  0.7379  0.0028
17278TIP3    H173249   5.567   2.782   0.460  0.8009 -0.8581  0.6485
17278TIP3    H273250   5.437   2.835   0.518  0.9149  1.7487 -1.2888
17279TIP3   OH273251   5.987   1.231   5.432  0.1091  0.6228  0.2258
17279TIP3    H173252   5.942   1.179   5.499  0.7482 -0.3353 -0.0601
17279TIP3    H273253   5.928   1.229   5.357 -0.1011  0.7376  0.3882
17280TIP3   OH273254   0.658   0.873  15.251 -0.0955 -0.7501 -0.0771
17280TIP3    H173255   0.671   0.792  15.299 -0.1308 -1.4518 -1.2118
17280TIP3    H273256   0.565   0.894  15.263 -0.3901 -1.5692 -0.7870
17281TIP3   OH273257   1.660   1.024   3.396 -0.4072  0.1029  0.0209
17281TIP3    H173258   1.636   1.072   3.476 -0.9287 -1.7956  1.0571
17281TIP3    H273259   1.656   1.090   3.327  1.0064  2.0363  1.6624
17282TIP3   OH273260   1.850   0.900  12.270  0.0643 -0.1787 -0.2344
17282TIP3    H173261   1.829   0.936  12.184 -2.6135  2.0611  1.1964
17282TIP3    H273262   1.766   0.888  12.313  1.3112 -0.7025  2.2687
17283TIP3   OH273263   6.735   1.905  12.515 -0.0740  0.2391  0.7303
17283TIP3    H173264   6.722   1.831  12.574 -0.8370  1.2243  1.8495
17283TIP3    H273265   6.809   1.953  12.554  0.1626  0.2851  0.2313
17284TIP3   OH273266   5.653   3.153  12.763  0.1902  0.2451 -0.0087
17284TIP3    H173267   5.680   3.237  12.801  1.9570 -0.8609  1.3740
17284TIP3    H273268   5.728   3.126  12.709 -0.1936 -0.6134 -0.1268
17285TIP3   OH273269   4.093   2.542   2.662 -0.3429  0.0644 -0.1982
17285TIP3    H173270   4.168   2.483   2.661 -0.7561 -0.4774 -0.0963
17285TIP3    H273271   4.081   2.568   2.571 -0.4323 -0.3714 -0.3110
17286TIP3   OH273272   5.819   3.625   0.901  0.2270  0.2578  0.1043
17286TIP3    H173273   5.866   3.689   0.848  1.5649  0.0784  1.0306
17286TIP3    H273274   5.878   3.549   0.905  0.5138  0.5324  2.4177
17287TIP3   OH273275   1.620   1.770   6.176 -0.3483  0.1421  0.1610
17287TIP3    H173276   1.565   1.696   6.201  0.1065 -0.4701 -0.5871
17287TIP3    H273277   1.685   1.732   6.117  1.3334  0.7144  1.5898
17288TIP3   OH273278   2.190   1.997  14.203 -0.9196  0.2932 -0.1755
17288TIP3    H173279   2.244   2.075  14.216 -2.0626  1.6363 -2.6939
17288TIP3    H273280   2.144   2.013  14.121 -1.5735 -2.8670 -0.5691
17289TIP3   OH273281   4.149   6.334  12.641  0.2485 -0.2230 -0.1143
17289TIP3    H173282   4.202   6.259  12.668  0.4663 -1.1144 -2.8295
17289TIP3    H273283   4.196   6.409  12.678  1.3113 -1.2394  0.6944
17290TIP3   OH273284   5.136   2.230   0.342 -0.0484  0.5356  0.2228
17290TIP3    H173285   5.226   2.258   0.357 -0.5097  2.2891 -0.0744
17290TIP3    H273286   5.144   2.139   0.311  1.5451  0.3893  0.9579
17291TIP3   OH273287   2.047   5.179  11.786  0.4309  0.4074 -0.5971
17291TIP3    H173288   2.012   5.241  11.849 -0.1071  0.6450 -1.1177
17291TIP3    H273289   2.087   5.110  11.839 -1.9985 -0.5897  0.0720
17292TIP3   OH273290   3.351   0.095   5.414 -0.2291  0.2017  0.4329
17292TIP3    H173291   3.359   0.110   5.508  0.4383 -2.0849  0.8190
17292TIP3    H273292   3.425   0.038   5.393  0.6416  1.9835 -1.8468
17293TIP3   OH273293   1.036   4.482   3.610  0.5494  0.3074  0.5432
17293TIP3    H173294   1.017   4.433   3.690  0.2820 -0.3701  0.0749
17293TIP3    H273295   1.062   4.415   3.546  2.3282  0.9895  0.5050
17294TIP3   OH273296   4.614   0.241   5.517  0.0659  0.0140 -0.1582
17294TIP3    H173297   4.639   0.161   5.564 -1.3279  0.8320  2.1719
17294TIP3    H273298   4.623   0.219   5.425  0.8107 -2.4598  0.4368
17295TIP3   OH273299   4.979   6.162   4.841  0.3669 -0.1930  0.0295
17295TIP3    H173300   4.946   6.197   4.758 -0.9850 -0.1509  0.5660
17295TIP3    H273301   5.013   6.239   4.887 -3.5232  0.7963  1.6422
17296TIP3   OH273302   1.994   4.461   5.689  0.8622 -0.2668  0.2865
17296TIP3    H173303   1.972   4.539   5.638 -0.7341  0.0684  1.4259
17296TIP3    H273304   1.925   4.398   5.667  1.5799 -1.0278  0.1406
17297TIP3   OH273305   4.740   2.747   3.497 -0.4516 -0.2989  0.5470
17297TIP3    H173306   4.767   2.742   3.405  0.6328  1.4926  0.7390
17297TIP3    H273307   4.759   2.837   3.524 -3.1639  0.0277  1.8081
17298TIP3   OH273308   2.684   3.662  14.012  0.1197 -0.1454  0.0054
17298TIP3    H173309   2.674   3.637  13.920  1.5374 -1.9665  0.2871
17298TIP3    H273310   2.763   3.716  14.013  1.1362 -1.5932  0.3607
17299TIP3   OH273311   4.841   3.018   4.877 -0.0911 -0.3501  0.0277
17299TIP3    H173312   4.885   2.946   4.832 -1.2180  0.4846 -2.5638
17299TIP3    H273313   4.816   3.079   4.808  0.3038  2.3180  2.0403
17300TIP3   OH273314   0.112   3.035  13.172  0.2692 -0.0898 -0.1945
17300TIP3    H173315   0.081   3.000  13.089  0.4120  0.1420 -0.3467
17300TIP3    H273316   0.206   3.049  13.159  0.6590 -1.7146  0.5788
17301TIP3   OH273317   1.994   0.650  11.806  0.5999  0.3665 -0.7264
17301TIP3    H173318   2.078   0.677  11.769 -0.2221  2.2853 -1.3186
17301TIP3    H273319   1.936   0.641  11.731 -0.8154  3.3054 -0.1407
17302TIP3   OH273320   6.403   4.426  13.120 -0.7321  0.2561  0.3016
17302TIP3    H173321   6.362   4.353  13.166  1.0375 -1.0355 -0.0634
17302TIP3    H273322   6.332   4.489  13.108 -2.2564 -1.2491  0.8992
17303TIP3   OH273323   4.800   3.570  12.327 -0.1434 -0.2191  0.2996
17303TIP3    H173324   4.725   3.538  12.375 -0.7345 -0.1340 -0.5351
17303TIP3    H273325   4.860   3.603  12.394 -0.5712 -0.8543  1.0097
17304TIP3   OH273326   1.435   1.027   4.428  0.1165  0.3833 -0.2318
17304TIP3    H173327   1.490   0.974   4.371 -0.1998  0.7391 -0.8701
17304TIP3    H273328   1.404   0.966   4.495 -2.4068 -0.9152 -2.4163
17305TIP3   OH273329   2.885   2.238   4.657 -0.0028  0.0560 -0.1620
17305TIP3    H173330   2.893   2.208   4.748 -1.6803  1.3839  0.4838
17305TIP3    H273331   2.958   2.299   4.646 -0.7221  1.1487  0.8760
17306TIP3   OH273332   5.301   0.101   6.029 -0.0352 -0.1924  0.1166
17306TIP3    H173333   5.323   0.170   5.966 -0.9957 -0.1510 -0.1931
17306TIP3    H273334   5.373   0.102   6.092 -0.6049  1.9296  0.8120
17307TIP3   OH273335   5.029   5.363   3.938  0.7445  0.3802  0.1431
17307TIP3    H173336   5.115   5.336   3.905  0.8680  0.5169  0.3560
17307TIP3    H273337   4.968   5.339   3.868  0.7829 -0.9020  0.5037
17308TIP3   OH273338   3.255   1.959   5.963  0.3366 -0.4116  0.4699
17308TIP3    H173339   3.237   1.873   5.925  0.6701 -0.2091 -0.1691
17308TIP3    H273340   3.246   2.020   5.889 -0.9263  0.2347  1.1172
17309TIP3   OH273341   5.421   3.178   1.260 -0.1618  0.1905 -0.4290
17309TIP3    H173342   5.454   3.156   1.347 -0.6543 -0.5282 -0.4167
17309TIP3    H273343   5.344   3.233   1.277  0.0263  0.4594 -0.4288
17310TIP3   OH273344   1.621   4.575  15.258  0.2790 -0.2682  0.2255
17310TIP3    H173345   1.701   4.608  15.216 -0.3142 -0.9155 -1.4789
17310TIP3    H273346   1.630   4.480  15.255 -1.4574 -0.4441 -1.9442
17311TIP3   OH273347   3.594   1.312   4.459  0.3202  0.0201  0.0711
17311TIP3    H173348   3.656   1.359   4.404  0.7935 -0.3780  0.2501
17311TIP3    H273349   3.638   1.303   4.543  0.8332 -1.9166 -0.3461
17312TIP3   OH273350   6.629   4.077  12.334 -0.0396  0.0479 -0.1924
17312TIP3    H173351   6.613   4.147  12.271  0.3903  0.0868 -0.2646
17312TIP3    H273352   6.588   4.108  12.415 -0.9246 -0.1690 -0.5448
17313TIP3   OH273353   4.520   5.825  15.539 -0.3166 -0.3181  0.0198
17313TIP3    H173354   4.462   5.901  15.529 -0.2255 -0.0714  1.2478
17313TIP3    H273355   4.490   5.782  15.619 -0.9816 -2.1457 -1.1604
17314TIP3   OH273356   0.236   4.423  16.869  0.5455 -0.2764  0.0150
17314TIP3    H173357   0.295   4.498  16.870  1.5984 -1.0651 -0.8531
17314TIP3    H273358   0.191   4.428  16.785  1.5914 -1.3282 -0.6301
17315TIP3   OH273359   1.073   4.933   1.609 -0.1761 -0.3944  0.1341
17315TIP3    H173360   0.980   4.953   1.621 -0.2392 -0.4097 -0.3245
17315TIP3    H273361   1.077   4.884   1.528  0.3174  0.2513 -0.2460
17316TIP3   OH273362   0.049   5.350   2.697 -0.2185  0.7313  0.2928
17316TIP3    H173363   0.012   5.355   2.785 -0.1329  1.1981  0.3044
17316TIP3    H273364  -0.019   5.386   2.640 -1.0200 -1.2141 -0.0756
17317TIP3   OH273365   6.570   0.002  11.274 -0.1600 -0.2275  0.3061
17317TIP3    H173366   6.533   0.090  11.268 -0.2762 -0.3563 -1.7991
17317TIP3    H273367   6.615  -0.010  11.190  3.6340 -0.5768  2.1929
17318TIP3   OH273368   2.851   3.454   5.416 -0.1116 -0.0745 -0.7791
17318TIP3    H173369   2.924   3.410   5.459 -0.2235 -0.8031 -1.3199
17318TIP3    H273370   2.787   3.467   5.486  0.8246  1.2905 -0.1137
17319TIP3   OH273371   5.767   4.894  10.578  0.0597 -0.3696 -0.2813
17319TIP3    H173372   5.682   4.924  10.613 -0.2255 -1.1812 -0.2678
17319TIP3    H273373   5.773   4.935  10.492  0.5287  1.2323  0.4592
17320TIP3   OH273374   4.367   6.214   1.080 -0.1696  0.1587 -0.4560
17320TIP3    H173375   4.283   6.168   1.069 -0.4426  0.5453 -0.0088
17320TIP3    H273376   4.407   6.172   1.157 -0.6186  0.9585  0.2221
17321TIP3   OH273377   6.740   1.923  15.129  0.3472  0.1620 -0.4754
17321TIP3    H173378   6.721   1.844  15.179 -2.3486  0.3907 -0.9734
17321TIP3    H273379   6.723   1.898  15.038 -0.6318  1.2889 -0.6291
17322TIP3   OH273380   1.047   4.309  15.533 -0.4388  0.0463 -0.1272
17322TIP3    H173381   1.087   4.301  15.446 -2.2026  0.6380 -1.0373
17322TIP3    H273382   1.037   4.219  15.563 -0.0636 -0.1773 -0.6398
17323TIP3   OH273383   6.093   1.572  15.464 -0.0767 -0.0515  0.4397
17323TIP3    H173384   6.023   1.609  15.411 -0.1018 -0.4352  0.2014
17323TIP3    H273385   6.052   1.499  15.511 -0.0080  0.1654  0.8412
17324TIP3   OH273386   1.378   4.627  11.289 -0.0301 -0.3171 -0.7265
17324TIP3    H173387   1.471   4.649  11.288  0.0120 -0.2393  1.4119
17324TIP3    H273388   1.345   4.662  11.206  1.3590  1.8756 -0.4365
17325TIP3   OH273389   0.470   5.715  16.307  0.1701  0.0557  0.3409
17325TIP3    H173390   0.555   5.672  16.299  0.2062  0.1416  0.2621
17325TIP3    H273391   0.418   5.655  16.360  0.1115 -0.2504 -0.0571
17326TIP3   OH273392   1.870   2.898   5.065 -0.6395  0.1678  0.4400
17326TIP3    H173393   1.902   2.888   4.975 -2.3517  0.0344 -0.1805
17326TIP3    H273394   1.935   2.955   5.107  1.7984 -2.0912  0.0145
17327TIP3   OH273395   0.998   5.695   3.631  0.2587  0.1044  0.6297
17327TIP3    H173396   1.002   5.689   3.536  0.4670  1.1002  0.5603
17327TIP3    H273397   1.006   5.789   3.650 -1.9771  0.1881  1.5364
17328TIP3   OH273398   1.404   5.283  11.125 -0.0496 -0.2974 -0.1062
17328TIP3    H173399   1.333   5.222  11.103 -1.3867  0.2556  2.3822
17328TIP3    H273400   1.474   5.227  11.158  1.0996 -0.9146 -3.1898
17329TIP3   OH273401   0.475   5.101   4.173 -0.0395  0.0941 -0.4441
17329TIP3    H173402   0.518   5.133   4.253 -0.8791 -0.2945  0.1805
17329TIP3    H273403   0.462   5.180   4.120 -1.2431  0.6965  0.6780
17330TIP3   OH273404   6.283   4.889   1.886  0.0070  0.0636  0.5719
17330TIP3    H173405   6.327   4.806   1.904  1.9414  1.0030  0.4695
17330TIP3    H273406   6.267   4.927   1.972  2.3809  1.1310  0.6362
17331TIP3   OH273407   0.998   6.170  13.456 -0.4790 -0.3007  0.1148
17331TIP3    H173408   0.925   6.229  13.441  0.1321  0.3892 -0.2086
17331TIP3    H273409   0.960   6.096  13.503 -1.5627 -0.3951 -0.8824
17332TIP3   OH273410   3.208   5.178   1.034 -0.1243 -0.1591  0.1230
17332TIP3    H173411   3.289   5.229   1.036 -1.1736  1.7284 -1.6450
17332TIP3    H273412   3.200   5.142   1.122  0.8420  2.5392  1.4251
17333TIP3   OH273413   6.785   3.644   2.885  0.2157 -0.1705 -0.5000
17333TIP3    H173414   6.847   3.633   2.957 -0.2874  0.2821  0.0070
17333TIP3    H273415   6.840   3.671   2.811  0.8913 -1.8150 -0.6287
17334TIP3   OH273416   3.789   0.845  12.586 -0.2015  0.2405  0.2355
17334TIP3    H173417   3.760   0.787  12.656 -2.0402  1.0304  0.1799
17334TIP3    H273418   3.791   0.932  12.625  0.7259  0.4223 -0.1767
17335TIP3   OH273419   0.184   1.282   5.974 -0.2358  0.5941 -0.1113
17335TIP3    H173420   0.132   1.334   6.035 -1.0481  0.5000 -0.6937
17335TIP3    H273421   0.275   1.306   5.992 -0.5874  2.4112 -0.5390
17336TIP3   OH273422   0.467   4.253   0.170 -0.2637  0.4373 -0.6363
17336TIP3    H173423   0.424   4.332   0.205  2.0097  1.5840 -0.2734
17336TIP3    H273424   0.472   4.268   0.076 -3.5716 -1.2555 -1.2363
17337TIP3   OH273425   5.900   1.064  15.608  0.2528 -0.1602 -0.5456
17337TIP3    H173426   5.908   0.969  15.613  2.3933  0.0416  1.2163
17337TIP3    H273427   5.806   1.079  15.596 -0.2708 -2.4558  0.1474
17338TIP3   OH273428   5.173   0.462   3.863  0.0420 -0.2383 -0.2174
17338TIP3    H173429   5.192   0.534   3.803  0.8560  0.2450  0.6031
17338TIP3    H273430   5.145   0.391   3.806  0.1719  0.4132 -1.1189
17339TIP3   OH273431   0.838   4.046  11.656  0.6574 -0.1936  0.5879
17339TIP3    H173432   0.932   4.047  11.639  0.5008  0.4004 -0.4001
17339TIP3    H273433   0.817   4.136  11.681  0.2228 -0.0924 -0.0918
17340TIP3   OH273434   0.187   2.689  13.644  0.1720 -0.2971  0.0785
17340TIP3    H173435   0.258   2.750  13.625 -0.0579 -0.2792 -0.7658
17340TIP3    H273436   0.230   2.606  13.662  0.4069 -0.2759 -0.3894
17341TIP3   OH273437   0.369   1.373  11.028 -0.3559 -0.1536 -0.2108
17341TIP3    H173438   0.306   1.444  11.041  0.1883  0.2465  0.3272
17341TIP3    H273439   0.451   1.418  11.006  1.1581 -0.2232  4.2749
17342TIP3   OH273440   6.607   3.159  13.490  0.0552 -0.0747  0.2370
17342TIP3    H173441   6.516   3.132  13.502 -0.4066  0.5510 -1.4767
17342TIP3    H273442   6.611   3.248  13.525  0.7269 -1.0094  2.7520
17343TIP3   OH273443   0.118   4.347  16.090  0.6223 -0.5408  0.3026
17343TIP3    H173444   0.178   4.395  16.033 -1.5047 -0.4658 -2.0552
17343TIP3    H273445   0.079   4.415  16.146  2.2649 -0.5343  1.5512
17344TIP3   OH273446   5.768   3.411   4.374 -0.0051 -0.1987  0.3045
17344TIP3    H173447   5.755   3.350   4.447 -0.8822 -0.4514 -0.0526
17344TIP3    H273448   5.853   3.452   4.392  1.4749 -2.7976 -0.3533
17345TIP3   OH273449   4.599   1.868   2.886  0.3884  0.5409 -0.5887
17345TIP3    H173450   4.567   1.948   2.928 -1.3109 -0.4337  0.0666
17345TIP3    H273451   4.672   1.840   2.940 -1.0010 -0.0256  1.0846
17346TIP3   OH273452   4.444   3.537  14.714 -1.2471 -0.8279 -0.2757
17346TIP3    H173453   4.404   3.525  14.800 -1.3118  0.0586 -0.1713
17346TIP3    H273454   4.450   3.449  14.677 -0.0847 -1.3547  1.1276
17347TIP3   OH273455   1.028   0.501   3.779  0.0011 -0.1459 -0.5125
17347TIP3    H173456   1.063   0.510   3.690 -0.0574 -1.7217 -0.7174
17347TIP3    H273457   0.950   0.447   3.769 -1.1890  1.3721  0.2532
17348TIP3   OH273458   6.377   3.663   5.925  0.4110  0.0816 -0.0658
17348TIP3    H173459   6.290   3.641   5.957  0.8210 -1.5506  0.0457
17348TIP3    H273460   6.381   3.758   5.928 -1.0934  0.1502  0.6290
17349TIP3   OH273461   4.470   6.058  16.143  0.9284 -0.5486 -0.5502
17349TIP3    H173462   4.422   6.022  16.218  1.2369 -0.5225 -0.3399
17349TIP3    H273463   4.503   5.982  16.097  0.4778 -0.5774 -0.8399
17350TIP3   OH273464   6.255   2.187   4.176 -0.4529 -0.1947  0.4560
17350TIP3    H173465   6.327   2.199   4.114 -0.2891  0.9275  0.8386
17350TIP3    H273466   6.297   2.183   4.261 -0.8035 -0.0423  0.6386
17351TIP3   OH273467   2.821   4.206   4.531  0.1296  0.1362  0.5722
17351TIP3    H173468   2.792   4.288   4.569 -0.3794  0.1207  0.2259
17351TIP3    H273469   2.916   4.205   4.545  0.7980  2.5588 -2.6726
17352TIP3   OH273470   4.311   5.838  12.600 -0.6196  0.1852 -0.4794
17352TIP3    H173471   4.406   5.845  12.611 -0.9209  1.1896  2.2560
17352TIP3    H273472   4.294   5.879  12.516  1.4077 -0.5642 -1.3315
17353TIP3   OH273473   3.935   4.284   6.093 -0.1036  0.6418 -0.0844
17353TIP3    H173474   3.998   4.277   6.021 -0.5220  0.0739 -0.3996
17353TIP3    H273475   3.985   4.262   6.171 -0.1054 -0.6234 -0.4277
17354TIP3   OH273476   3.009   4.104   3.347 -0.3502 -0.1109  0.3280
17354TIP3    H173477   3.033   4.014   3.325 -0.0477 -0.1586  0.8268
17354TIP3    H273478   3.067   4.159   3.293 -1.3286 -0.1955 -0.8411
17355TIP3   OH273479   5.441   6.213   2.308 -0.1741  0.1009  0.2854
17355TIP3    H173480   5.435   6.309   2.303 -2.6709 -0.0144 -0.4170
17355TIP3    H273481   5.399   6.190   2.391 -0.3676 -0.4140  0.0495
17356TIP3   OH273482   1.723   0.280  13.637  0.1748 -0.6738  0.3578
17356TIP3    H173483   1.712   0.355  13.696  0.1757 -1.3282  1.2146
17356TIP3    H273484   1.772   0.314  13.563  1.9935 -0.2799  1.6845
17357TIP3   OH273485   2.136   6.407   2.939 -0.0564  0.0569 -0.0179
17357TIP3    H173486   2.228   6.407   2.962 -0.1180 -0.5378  0.2557
17357TIP3    H273487   2.112   6.499   2.936  1.0911  0.3425 -2.3792
17358TIP3   OH273488   6.525   0.607  14.811 -0.3600  0.7068 -0.4405
17358TIP3    H173489   6.484   0.656  14.740  2.3492  2.3771 -0.9574
17358TIP3    H273490   6.570   0.535  14.768  0.3942  1.0909 -0.2985
17359TIP3   OH273491   1.180   3.399   5.914 -0.2461  0.5160 -0.3439
17359TIP3    H173492   1.243   3.404   5.986 -0.6207  1.3418 -0.0545
17359TIP3    H273493   1.098   3.371   5.956 -0.3223  0.4369 -0.5457
17360TIP3   OH273494   0.030   3.232  14.406 -0.8735 -0.4540 -0.1619
17360TIP3    H173495   0.033   3.197  14.317  2.3097 -1.2484  0.1409
17360TIP3    H273496   0.077   3.315  14.400 -2.6098  0.6196  0.4106
17361TIP3   OH273497   2.988   2.917  15.991  0.0923  0.5804 -0.4107
17361TIP3    H173498   3.053   2.867  16.040 -1.4368  0.9620  2.1376
17361TIP3    H273499   3.025   3.005  15.986  0.0638  0.6501  0.4816
17362TIP3   OH273500   6.539   4.880  11.506  0.2222  0.1085 -0.4170
17362TIP3    H173501   6.491   4.937  11.566  0.1496  0.2378 -0.5934
17362TIP3    H273502   6.597   4.939  11.458 -0.2710  0.1262 -1.0084
17363TIP3   OH273503   1.468   3.657  12.800  0.1708  0.0208  0.8297
17363TIP3    H173504   1.419   3.699  12.871  1.5484  0.3284  1.6396
17363TIP3    H273505   1.494   3.572  12.837 -1.8124 -1.2621 -0.4683
17364TIP3   OH273506   3.656   4.816   0.820 -0.0433 -0.1434  0.5974
17364TIP3    H173507   3.718   4.814   0.893  0.4280 -0.6022  0.1947
17364TIP3    H273508   3.587   4.755   0.845 -0.9668  1.2509  1.5790
17365TIP3   OH273509   4.525   3.553  15.944 -0.5723  0.1252 -0.1566
17365TIP3    H173510   4.537   3.648  15.952  0.0781 -0.0530  1.5702
17365TIP3    H273511   4.466   3.530  16.016  1.6423 -1.1271  1.3904
17366TIP3   OH273512   5.870   0.718  14.843  0.4701  0.2188  0.3592
17366TIP3    H173513   5.888   0.800  14.890  0.1306  0.3461  0.2663
17366TIP3    H273514   5.870   0.742  14.751  0.6330  0.0625  0.3173
17367TIP3   OH273515   4.768   4.152  12.303 -0.9338  0.1749 -0.2625
17367TIP3    H173516   4.787   4.243  12.325  0.1454 -0.1426  0.1964
17367TIP3    H273517   4.748   4.110  12.386  1.5896 -0.6697 -0.0023
17368TIP3   OH273518   1.896   3.176   1.745  0.2951 -0.0345 -0.2701
17368TIP3    H173519   1.884   3.268   1.769  2.4818  0.1714  0.2791
17368TIP3    H273520   1.989   3.170   1.722  0.1371 -2.0598 -0.5138
17369TIP3   OH273521   0.443   6.523   5.403 -0.0636 -0.1702 -0.3330
17369TIP3    H173522   0.347   6.517   5.406  0.0048 -1.4397  2.1986
17369TIP3    H273523   0.461   6.617   5.413 -1.0181  0.1171 -1.1599
17370TIP3   OH273524   5.419   3.366  14.913 -0.0863  0.7030  0.3800
17370TIP3    H173525   5.380   3.446  14.878 -2.6707 -0.7278 -0.2816
17370TIP3    H273526   5.451   3.320  14.836 -2.3259 -0.6932  0.1901
17371TIP3   OH273527   3.490   6.253  14.251  0.4969  0.0440 -0.1724
17371TIP3    H173528   3.403   6.271  14.287  1.2950  1.0557  1.3545
17371TIP3    H273529   3.474   6.195  14.177 -1.4883  0.3666 -0.0367
17372TIP3   OH273530   2.603   4.115  13.926 -0.2641  0.0153  0.2220
17372TIP3    H173531   2.695   4.118  13.901 -0.0647 -0.9182  0.7973
17372TIP3    H273532   2.591   4.191  13.983 -0.4948  1.6258 -1.8503
17373TIP3   OH273533   3.249   2.942   5.201  0.0580  0.1357 -0.2296
17373TIP3    H173534   3.212   2.860   5.167  2.1127 -1.9109  2.1088
17373TIP3    H273535   3.200   2.959   5.281  0.5283  0.4623 -0.0098
17374TIP3   OH273536   5.505   5.698  14.928  0.0952 -0.3210 -0.7500
17374TIP3    H173537   5.552   5.628  14.973 -0.0304 -0.0343 -0.1646
17374TIP3    H273538   5.569   5.769  14.922 -0.0342 -0.1905 -0.5965
17375TIP3   OH273539   5.726   3.377  13.880 -0.3388 -0.3023  0.4801
17375TIP3    H173540   5.677   3.318  13.938  0.8538 -1.6012  0.2255
17375TIP3    H273541   5.704   3.465  13.911 -1.7197 -0.8813  1.2507
17376TIP3   OH273542   5.180   3.772  12.438  0.0641 -0.0336  0.0725
17376TIP3    H173543   5.244   3.766  12.367 -1.0450 -0.0936 -0.9549
17376TIP3    H273544   5.107   3.823  12.401 -0.2918  0.4503  1.3672
17377TIP3   OH273545   5.557   4.184  14.197  0.3717  0.6364  0.0116
17377TIP3    H173546   5.517   4.239  14.264  1.9450  0.7510  0.8922
17377TIP3    H273547   5.533   4.225  14.114  0.4255  1.8856  0.6024
17378TIP3   OH273548   3.570   3.858   5.022 -0.3117  0.3048  0.2506
17378TIP3    H173549   3.568   3.943   4.979 -0.4159  0.0616 -0.2256
17378TIP3    H273550   3.527   3.798   4.961 -1.5446  0.1832  1.2094
17379TIP3   OH273551   4.219   2.823   5.456 -0.0794 -0.4908  0.2087
17379TIP3    H173552   4.277   2.847   5.384  1.5073 -0.2774  1.5037
17379TIP3    H273553   4.144   2.783   5.413  0.2620  0.7005 -1.6208
17380TIP3   OH273554   2.216   5.546  12.920  0.3319  0.2433  0.1425
17380TIP3    H173555   2.272   5.597  12.862  0.6392  0.3733  0.5514
17380TIP3    H273556   2.171   5.484  12.862 -1.5458  2.2460 -0.7002
17381TIP3   OH273557   0.103   3.062   2.873 -0.5657  0.0975 -0.3035
17381TIP3    H173558   0.085   3.155   2.860 -0.9626  0.0288 -0.2488
17381TIP3    H273559   0.038   3.034   2.937  0.6421  0.1791  1.0020
17382TIP3   OH273560   0.702   3.579   4.498 -0.2221  0.1499  0.4246
17382TIP3    H173561   0.768   3.640   4.532 -0.7566 -0.2877  2.4106
17382TIP3    H273562   0.625   3.634   4.483  1.1023  1.1457 -4.2250
17383TIP3   OH273563   0.551   2.335   6.364  0.8065 -0.1231 -0.3858
17383TIP3    H173564   0.578   2.257   6.316  1.5369 -1.1951  1.6481
17383TIP3    H273565   0.617   2.345   6.433 -0.9722  0.4269  1.3329
17384TIP3   OH273566   6.285   0.427   3.031 -0.3887 -0.3887 -0.0130
17384TIP3    H173567   6.315   0.426   2.940  0.7959  0.4964  0.3501
17384TIP3    H273568   6.258   0.518   3.047  2.9313  0.4632  1.5736
17385TIP3   OH273569   2.900   0.440   2.369 -0.1442 -0.4518  0.9713
17385TIP3    H173570   2.919   0.365   2.313 -0.1117 -1.2010  1.9609
17385TIP3    H273571   2.804   0.442   2.374 -0.2370  0.7593 -0.5976
17386TIP3   OH273572   2.855   0.880  14.739  0.3232  0.2821 -0.0769
17386TIP3    H173573   2.940   0.886  14.781 -0.0941 -1.7702  1.2234
17386TIP3    H273574   2.796   0.930  14.796  0.5565  1.3852 -0.7745
17387TIP3   OH273575   6.651   1.117   1.775  0.2105  0.2705  0.5560
17387TIP3    H173576   6.571   1.072   1.746  1.0194 -0.1617 -1.1549
17387TIP3    H273577   6.660   1.191   1.714 -0.4047  2.0662  2.5408
17388TIP3   OH273578   1.780   0.608   1.000  0.0254  0.7075  0.4520
17388TIP3    H173579   1.774   0.528   1.053  0.1233 -0.1531 -0.7934
17388TIP3    H273580   1.785   0.679   1.064  1.0289 -0.3624  1.6073
17389TIP3   OH273581   3.418   0.804   2.309 -0.0532 -0.1120  0.1864
17389TIP3    H173582   3.373   0.748   2.246  0.3620 -0.4336  0.1728
17389TIP3    H273583   3.395   0.893   2.282  2.3523 -0.0700 -2.1903
17390TIP3   OH273584   0.713   4.851  14.157  0.5653  0.0865  0.0045
17390TIP3    H173585   0.675   4.927  14.113  0.2774  0.3077  0.6233
17390TIP3    H273586   0.649   4.781  14.144  0.5955  0.0828 -0.1324
17391TIP3   OH273587   1.969   0.285  11.850 -0.0188  0.4175  0.0811
17391TIP3    H173588   1.875   0.286  11.831 -0.0728 -0.1951  0.2992
17391TIP3    H273589   1.997   0.196  11.830  0.6824  0.8030 -0.7229
17392TIP3   OH273590   3.972   0.661  11.336  0.4376 -0.5143  0.4170
17392TIP3    H173591   3.880   0.640  11.319  0.1420  0.1144  1.1829
17392TIP3    H273592   4.014   0.576  11.347  0.2907 -0.8920 -1.5221
17393TIP3   OH273593   3.438   1.091  14.594 -0.3010 -0.4257 -0.0891
17393TIP3    H173594   3.414   1.053  14.679  0.0276  0.1770  0.2776
17393TIP3    H273595   3.429   1.186  14.607 -0.0167 -0.3190 -0.6594
17394TIP3   OH273596   6.038   3.717   1.282  0.0877 -0.6231 -0.1377
17394TIP3    H173597   5.952   3.758   1.278 -0.4421 -1.7570 -0.6395
17394TIP3    H273598   6.055   3.707   1.376  0.2240  0.6814  0.0012
17395TIP3   OH273599   1.069   2.246  11.946  1.1911 -0.1910  0.2205
17395TIP3    H173600   0.984   2.275  11.911  0.4038 -1.3126  1.1162
17395TIP3    H273601   1.134   2.297  11.898  0.0771 -0.3677 -1.5293
17396TIP3   OH273602   5.164   4.878  13.247  0.1376  0.5427 -0.3279
17396TIP3    H173603   5.218   4.932  13.189  1.1492 -2.2890 -2.2346
17396TIP3    H273604   5.110   4.826  13.188 -1.0005 -0.3497  1.4130
17397TIP3   OH273605   5.758   0.316   2.853  0.0667  0.1946  0.5649
17397TIP3    H173606   5.710   0.288   2.930 -1.9556  2.0057  0.0613
17397TIP3    H273607   5.705   0.387   2.816  1.1858 -0.2982 -2.2322
17398TIP3   OH273608   4.760   4.702  14.329  0.1693 -0.0001  0.0816
17398TIP3    H173609   4.820   4.682  14.256  3.0574  2.4080  1.5343
17398TIP3    H273610   4.730   4.791  14.310  1.0280  0.6916  1.7617
17399TIP3   OH273611   6.325   4.112   1.908  0.6529 -0.8086 -0.5566
17399TIP3    H173612   6.414   4.081   1.894  1.3418  0.4609  0.7647
17399TIP3    H273613   6.288   4.049   1.970  1.0061 -0.7332 -0.2660
17400TIP3   OH273614   3.844   5.564  13.856  0.0581 -0.4944 -0.1124
17400TIP3    H173615   3.932   5.597  13.837  0.3910 -1.1258  0.2909
17400TIP3    H273616   3.852   5.522  13.941 -0.5207 -1.0113 -0.3064
17401TIP3   OH273617   5.497   5.217  15.755  0.1349  0.4273 -0.8350
17401TIP3    H173618   5.515   5.126  15.730  4.8531  1.3793 -1.6932
17401TIP3    H273619   5.506   5.267  15.675 -2.5069  1.7917 -0.3964
17402TIP3   OH273620   4.005   5.660  10.730  0.1560 -0.8130 -0.0928
17402TIP3    H173621   4.081   5.607  10.705  1.0766  0.7058 -0.6798
17402TIP3    H273622   3.934   5.629  10.672  0.4077 -1.9937  0.2075
17403TIP3   OH273623   5.837   4.125  14.964 -0.0429 -0.4569  0.0656
17403TIP3    H173624   5.926   4.154  14.946 -1.2359  2.7675 -1.2232
17403TIP3    H273625   5.800   4.105  14.879 -1.2824  0.5807  0.3448
17404TIP3   OH273626   0.485   5.904   5.495  0.3846 -0.1964 -0.2098
17404TIP3    H173627   0.493   5.996   5.469  0.5520 -0.2648 -0.4009
17404TIP3    H273628   0.545   5.857   5.437  3.5926  0.0586  2.6127
17405TIP3   OH273629   5.072   0.319  12.247  0.1549 -0.4230 -0.4088
17405TIP3    H173630   5.038   0.249  12.303  1.3419  0.4484  1.4982
17405TIP3    H273631   5.016   0.394  12.265  0.5840 -0.1158 -0.3272
17406TIP3   OH273632   5.365   2.570  11.999  0.3030  0.7109 -0.2206
17406TIP3    H173633   5.277   2.532  12.009 -0.0781  1.1575 -1.6327
17406TIP3    H273634   5.424   2.503  12.033 -0.5281 -0.0321 -0.2121
17407TIP3   OH273635   3.832   1.760   4.685  0.2244  0.1841  0.2186
17407TIP3    H173636   3.847   1.667   4.701  1.8809  0.3288 -0.3141
17407TIP3    H273637   3.743   1.765   4.650  1.0791 -1.5678 -2.4897
17408TIP3   OH273638   3.803   1.154   2.726 -0.6092  0.0998 -1.0496
17408TIP3    H173639   3.897   1.153   2.712 -0.5350 -1.0694 -0.5596
17408TIP3    H273640   3.765   1.169   2.640 -0.0108 -0.9090 -1.4963
17409TIP3   OH273641   4.105   0.291  12.715  0.1081 -0.8791  0.3612
17409TIP3    H173642   4.025   0.277  12.766 -0.0512 -1.2941  0.0060
17409TIP3    H273643   4.090   0.243  12.634  0.6303 -0.7723  0.1985
17410TIP3   OH273644   3.023   3.346  16.413 -0.0378  0.4537  0.2337
17410TIP3    H173645   2.970   3.302  16.347 -0.4295  0.0766  0.7990
17410TIP3    H273646   3.020   3.439  16.387 -0.1422  0.3033 -0.3065
17411TIP3   OH273647   0.470   4.723  12.919 -0.1897 -0.0114 -0.3458
17411TIP3    H173648   0.437   4.636  12.897 -0.8915 -0.0740  0.8821
17411TIP3    H273649   0.563   4.719  12.899 -0.0714 -1.2854  0.3811
17412TIP3   OH273650   0.845   3.907   5.089 -0.2611 -0.2319 -0.1727
17412TIP3    H173651   0.871   3.838   5.149 -0.7199 -0.7490 -0.5638
17412TIP3    H273652   0.760   3.879   5.054  0.7813 -0.8663 -2.4303
17413TIP3   OH273653   3.306   5.227   2.726 -0.3388 -0.8583  0.2065
17413TIP3    H173654   3.276   5.308   2.767  0.2680 -1.2392  1.4271
17413TIP3    H273655   3.228   5.173   2.719 -0.8049 -0.0791 -0.8719
17414TIP3   OH273656   6.591   0.931  13.102  0.2098 -0.6082  0.1763
17414TIP3    H173657   6.652   0.998  13.134  0.9335 -2.2700  2.5236
17414TIP3    H273658   6.507   0.954  13.141 -0.1708  0.2741 -1.0664
17415TIP3   OH273659   4.140   4.922  13.878  0.6846 -0.0916  0.2168
17415TIP3    H173660   4.140   5.003  13.827 -0.2141 -0.4185 -0.3089
17415TIP3    H273661   4.086   4.861  13.828  1.3116 -1.0135  0.6320
17416TIP3   OH273662   5.341   2.305  16.908 -0.3270  0.3668  0.5186
17416TIP3    H173663   5.326   2.371  16.840  1.1585  0.1447 -0.0480
17416TIP3    H273664   5.407   2.247  16.872 -1.3451 -1.2697  1.1519
17417TIP3   OH273665   3.308   4.752   5.006  0.6062  0.9683  0.1770
17417TIP3    H173666   3.274   4.788   4.923  0.3113  0.3478  0.0265
17417TIP3    H273667   3.244   4.781   5.071  0.0765  0.2714 -0.0245
17418TIP3   OH273668   2.556   2.912   1.494  0.3901 -0.5278  0.0673
17418TIP3    H173669   2.563   2.818   1.511 -0.2780 -0.6525 -0.2734
17418TIP3    H273670   2.642   2.948   1.513  0.4880 -1.1237  0.7544
17419TIP3   OH273671   2.914   1.196  13.773 -0.7396 -0.4270 -0.0391
17419TIP3    H173672   2.939   1.276  13.820 -0.0849  1.0678 -2.7094
17419TIP3    H273673   2.975   1.129  13.804  1.2826  1.1212 -0.5031
17420TIP3   OH273674   1.441   5.847   0.032 -0.6013  0.0360 -0.1819
17420TIP3    H173675   1.424   5.753   0.044  0.2167 -0.4698 -2.4229
17420TIP3    H273676   1.410   5.865  -0.057 -1.2783  2.0453  0.4221
17421TIP3   OH273677   4.156   4.826  11.499  0.2644 -0.4197 -0.5703
17421TIP3    H173678   4.100   4.775  11.440 -1.4442  0.9480 -0.2199
17421TIP3    H273679   4.095   4.863  11.563  1.8869 -0.6918  1.2310
17422TIP3   OH273680   1.687   4.561   5.116  0.6925  0.3951 -0.2417
17422TIP3    H173681   1.747   4.631   5.143 -1.3205  2.1217 -0.0158
17422TIP3    H273682   1.618   4.606   5.067 -0.8240 -1.4006  0.1334
17423TIP3   OH273683   6.442   3.444  15.139 -0.2021 -0.2189  0.3450
17423TIP3    H173684   6.418   3.400  15.221 -0.6768 -1.5203 -0.4637
17423TIP3    H273685   6.430   3.377  15.072  0.6977  0.6718 -0.7302
17424TIP3   OH273686   3.628   2.775  13.908  0.4566 -0.3203 -0.3669
17424TIP3    H173687   3.616   2.868  13.928 -0.5380 -0.8180  1.5494
17424TIP3    H273688   3.695   2.745  13.970 -0.6594 -1.3032  0.3907
17425TIP3   OH273689   3.389   4.297  12.117 -0.8862 -0.1700  0.1302
17425TIP3    H173690   3.354   4.212  12.141  1.6916 -1.5164 -0.4878
17425TIP3    H273691   3.402   4.343  12.200  1.5055 -2.0612  0.9106
17426TIP3   OH273692   0.080   5.002   3.568 -0.2699  0.4236  0.1514
17426TIP3    H173693   0.109   5.004   3.477  1.7185 -0.3821  0.7120
17426TIP3    H273694   0.160   5.015   3.619 -1.0816 -0.7377  1.8178
17427TIP3   OH273695   5.031   6.725   2.419 -0.1615  0.0338 -0.4894
17427TIP3    H173696   5.016   6.800   2.477  0.3224  0.9392 -1.4792
17427TIP3    H273697   4.985   6.748   2.338  1.4213  0.1040 -1.4319
17428TIP3   OH273698   0.781   2.099  10.279 -0.4680  0.3889 -0.6766
17428TIP3    H173699   0.740   2.178  10.313 -1.5835 -0.9050  1.1973
17428TIP3    H273700   0.708   2.039  10.264  0.3730 -0.3665 -1.8510
17429TIP3   OH273701   5.711   2.775  16.059 -0.2383  0.1461  0.0231
17429TIP3    H173702   5.625   2.745  16.088  0.1724 -0.7185  0.3542
17429TIP3    H273703   5.770   2.701  16.074  0.3341  0.2925 -1.3338
17430TIP3   OH273704   5.957   4.023   2.621  0.2801  0.8976 -0.1301
17430TIP3    H173705   6.048   4.020   2.592  0.3718 -0.1985  0.2361
17430TIP3    H273706   5.919   4.097   2.574  1.2667  1.1469 -0.5509
17431TIP3   OH273707   4.741   4.985   5.313 -0.2721  0.3312 -0.7627
17431TIP3    H173708   4.712   4.954   5.228  0.2212  2.5662 -1.8078
17431TIP3    H273709   4.661   5.010   5.359 -0.6307 -1.8122 -0.1036
17432TIP3   OH273710   5.659   2.825   3.653 -0.1191  0.4986  0.1761
17432TIP3    H173711   5.626   2.798   3.739  2.3061 -0.5829  0.8618
17432TIP3    H273712   5.646   2.920   3.652 -1.5786  0.3408  1.0799
17433TIP3   OH273713   0.071   3.575   0.648 -0.4999  0.3634  0.2515
17433TIP3    H173714   0.005   3.545   0.585  0.2855  0.0187 -0.4353
17433TIP3    H273715   0.087   3.498   0.703  2.2477 -0.9769 -2.1384
17434TIP3   OH273716   1.903   5.346   1.723  0.6165  0.1201  0.2330
17434TIP3    H173717   1.875   5.438   1.718  1.0688  0.4554  2.6323
17434TIP3    H273718   1.822   5.297   1.738  0.5272  0.3093  0.3753
17435TIP3   OH273719   1.436   4.048  12.713  0.3258 -0.7456  0.4554
17435TIP3    H173720   1.450   3.953  12.706 -0.8857 -0.9357  0.4104
17435TIP3    H273721   1.349   4.062  12.677 -0.4726  0.0773  2.5573
17436TIP3   OH273722   1.462   6.348  11.592 -0.7249 -0.1209 -0.3607
17436TIP3    H173723   1.520   6.425  11.589 -1.5318  0.4948 -0.6242
17436TIP3    H273724   1.421   6.347  11.506 -1.1128 -0.5474 -0.1695
17437TIP3   OH273725   3.044   4.417   2.487  0.4808 -0.3865  0.0054
17437TIP3    H173726   2.950   4.434   2.484  0.5358 -0.1266 -0.3613
17437TIP3    H273727   3.058   4.344   2.427  0.3698 -1.1564  0.8933
17438TIP3   OH273728   4.906   4.225   1.369  0.7183 -0.4726  0.3200
17438TIP3    H173729   4.852   4.256   1.441  0.6157 -0.5726  0.2872
17438TIP3    H273730   4.993   4.214   1.407  0.7954  0.0205  0.2866
17439TIP3   OH273731   2.820   5.464   6.158  0.1120  0.3125 -0.2226
17439TIP3    H173732   2.729   5.474   6.184  0.1999  0.7521 -0.0663
17439TIP3    H273733   2.821   5.388   6.100 -0.1761 -0.3432  0.6167
17440TIP3   OH273734   3.880   0.644  16.645  0.7147  0.1120  0.2734
17440TIP3    H173735   3.823   0.578  16.605  0.1251  1.0590 -0.4956
17440TIP3    H273736   3.908   0.604  16.727 -2.8263  0.4275  1.8215
17441TIP3   OH273737   5.175   6.330  16.370  0.4064 -0.0259 -0.0938
17441TIP3    H173738   5.125   6.328  16.288  0.8377  1.3368 -0.4068
17441TIP3    H273739   5.111   6.357  16.436  0.3219 -0.0401 -0.1684
17442TIP3   OH273740   3.248   0.693   5.026 -0.7873 -0.5805 -0.2345
17442TIP3    H173741   3.241   0.773   4.974  0.2073 -0.4974 -0.2691
17442TIP3    H273742   3.264   0.624   4.961 -1.3730 -0.7686 -0.1831
17443TIP3   OH273743   4.686   4.375   1.490  0.4264 -0.0035  0.3190
17443TIP3    H173744   4.682   4.386   1.395  0.2424 -1.4906  0.1354
17443TIP3    H273745   4.604   4.412   1.522  0.4856  0.4907 -0.0973
17444TIP3   OH273746   0.389   5.112  12.086 -0.2514  0.3717 -0.1271
17444TIP3    H173747   0.335   5.173  12.035  0.1964  0.0557 -0.9939
17444TIP3    H273748   0.365   5.026  12.053 -0.0088  0.1510  0.2602
17445TIP3   OH273749   6.242   5.210   1.613  0.2444 -0.4927  0.1017
17445TIP3    H173750   6.258   5.116   1.604  0.5160 -0.7958  2.9019
17445TIP3    H273751   6.328   5.250   1.603  0.0756 -0.4690 -1.4528
17446TIP3   OH273752   5.107   4.896   0.704 -0.4889  0.1242  0.4592
17446TIP3    H173753   5.134   4.818   0.656 -0.2096 -0.6451  1.8089
17446TIP3    H273754   5.070   4.953   0.638 -2.1093 -1.7772 -0.3648
17447TIP3   OH273755   1.641   2.971   4.617  0.4248  0.3445  0.8272
17447TIP3    H173756   1.608   2.961   4.706  0.2540  0.7650  0.8156
17447TIP3    H273757   1.562   2.976   4.563  0.5352 -0.7901  0.5450
17448TIP3   OH273758   0.514   2.344  15.114  0.3339  0.2900 -0.1947
17448TIP3    H173759   0.474   2.317  15.197 -0.5190  0.0274 -0.6725
17448TIP3    H273760   0.445   2.329  15.049  1.1616  0.0210 -1.0231
17449TIP3   OH273761   3.378   6.467  11.682 -0.2444  0.1246  0.1980
17449TIP3    H173762   3.417   6.399  11.736 -0.0948  0.6244  0.7303
17449TIP3    H273763   3.408   6.448  11.593  0.3197 -0.1302  0.4412
17450TIP3   OH273764   3.920   0.629  16.956 -0.2382  0.1181  0.0656
17450TIP3    H173765   3.824   0.628  16.955 -0.2429 -0.0281 -1.2824
17450TIP3    H273766   3.943   0.721  16.945 -0.2435  0.0011 -1.0282
17451TIP3   OH273767   2.912   4.097   2.974 -0.2401 -0.5249  0.3351
17451TIP3    H173768   2.971   4.114   3.048  0.4022 -0.8417 -0.0954
17451TIP3    H273769   2.870   4.014   2.997 -1.4912  0.3308  1.2448
17452TIP3   OH273770   2.514   5.975  12.735 -0.5379 -0.3757 -0.1684
17452TIP3    H173771   2.579   6.004  12.799 -0.8771 -0.6848  0.3301
17452TIP3    H273772   2.543   6.012  12.652 -0.3700  0.4647  0.2545
17453TIP3   OH273773   2.673   5.182  11.974  0.0551 -0.2412 -0.1851
17453TIP3    H173774   2.654   5.105  11.921  1.5087 -0.9624  0.2833
17453TIP3    H273775   2.605   5.245  11.950 -1.0130 -1.5607 -0.7698
17454TIP3   OH273776   2.927   6.223  16.835 -0.4175 -0.0500  0.2616
17454TIP3    H173777   2.900   6.172  16.760  1.7283  1.3027 -1.5757
17454TIP3    H273778   3.015   6.192  16.855 -1.4071 -1.3276  3.1898
17455TIP3   OH273779   5.793   2.068  16.653 -0.3442 -0.2678  0.2497
17455TIP3    H173780   5.748   2.017  16.586 -1.4682  0.1617  0.6433
17455TIP3    H273781   5.769   2.025  16.735  2.6636 -2.0629  0.3442
17456TIP3   OH273782   5.307   6.231   5.740  0.4048  0.2018  0.5500
17456TIP3    H173783   5.264   6.187   5.666  0.7272 -0.8323  0.9542
17456TIP3    H273784   5.257   6.312   5.751 -0.6917 -0.3944  0.2388
17457TIP3   OH273785   3.954   3.972   5.151  0.6255 -0.4919  0.1975
17457TIP3    H173786   3.965   4.062   5.120 -1.0460 -0.4888 -0.5218
17457TIP3    H273787   4.038   3.930   5.136  1.4424  0.9511  0.5622
17458TIP3   OH273788   3.669   4.085  15.352 -0.3569  0.3081  0.0189
17458TIP3    H173789   3.719   4.049  15.278  0.0568 -0.1069  0.4915
17458TIP3    H273790   3.635   4.168  15.319 -1.0804 -0.3703 -0.9899
17459TIP3   OH273791   2.469   5.828  12.258  0.3839  0.3506  0.4124
17459TIP3    H173792   2.524   5.791  12.190  0.4928 -4.0071  2.5428
17459TIP3    H273793   2.411   5.888  12.212  0.8388 -1.8095 -3.3779
17460TIP3   OH273794   5.797   0.259  12.617 -0.5788 -0.0458 -0.0245
17460TIP3    H173795   5.859   0.292  12.553 -1.9035  1.3523 -0.6596
17460TIP3    H273796   5.716   0.306  12.598 -0.8982  0.8646  3.0278
17461TIP3   OH273797   5.927   2.079   3.744 -0.0874 -0.2008 -0.0598
17461TIP3    H173798   5.850   2.045   3.700  0.1346  0.2513 -0.8235
17461TIP3    H273799   5.989   2.006   3.746  0.2523  0.0159 -1.3596
17462TIP3   OH273800   5.565   2.567  11.722 -0.6228  0.0448  0.2961
17462TIP3    H173801   5.595   2.482  11.754 -1.2556 -1.2687 -2.2856
17462TIP3    H273802   5.645   2.614  11.701 -0.2632  0.1176  1.7769
17463TIP3   OH273803   1.199   6.124   2.938  0.2542 -0.5131 -0.0630
17463TIP3    H173804   1.183   6.040   2.894 -0.7369  0.0829 -0.9064
17463TIP3    H273805   1.292   6.123   2.958  0.4562 -1.4207 -0.9282
17464TIP3   OH273806   0.192   2.442  11.934  0.4552 -0.6233  0.3915
17464TIP3    H173807   0.237   2.396  11.864 -0.1842 -0.5087 -0.1065
17464TIP3    H273808   0.204   2.387  12.011 -0.2240 -1.5924 -0.1750
17465TIP3   OH273809   2.001   5.491  16.446  0.2612 -0.4279  0.0554
17465TIP3    H173810   2.020   5.512  16.354  2.5808  3.1512  1.1465
17465TIP3    H273811   1.966   5.573  16.482 -0.8758 -1.8209  2.3546
17466TIP3   OH273812   4.333   0.811   4.684 -0.6676  0.0119  0.0520
17466TIP3    H173813   4.275   0.778   4.616  1.1110  2.0153 -2.6370
17466TIP3    H273814   4.285   0.884   4.723 -0.3840  1.1476 -1.6005
17467TIP3   OH273815   0.646   6.376   4.571  0.2892  0.0924  0.3476
17467TIP3    H173816   0.665   6.414   4.657 -2.5630  1.4194  0.5016
17467TIP3    H273817   0.574   6.315   4.587  0.2534 -0.2594 -0.9968
17468TIP3   OH273818   1.283   5.356   0.880  0.1770  0.0468 -0.3718
17468TIP3    H173819   1.188   5.350   0.889  0.3460 -2.2026  0.7123
17468TIP3    H273820   1.314   5.375   0.969  0.7706 -0.3306 -0.4891
17469TIP3   OH273821   3.485   5.847   2.080  0.0907 -0.0937  0.2171
17469TIP3    H173822   3.407   5.834   2.134 -1.3072 -0.2615 -1.7522
17469TIP3    H273823   3.471   5.930   2.035  1.0578 -0.1109 -0.1542
17470TIP3   OH273824   4.612   0.741   2.019  0.1411 -0.0481  0.1749
17470TIP3    H173825   4.691   0.709   1.974 -0.2050  0.0666 -0.5279
17470TIP3    H273826   4.596   0.827   1.980 -0.3841 -0.1120  0.2433
17471TIP3   OH273827   3.696   4.190  16.741  0.1208  0.0596 -0.4569
17471TIP3    H173828   3.700   4.204  16.646  0.3006 -2.1750 -0.8312
17471TIP3    H273829   3.784   4.162  16.765  0.0259  0.4300  0.3594
17472TIP3   OH273830   1.417   0.164   2.228  0.2295  0.2518 -0.0166
17472TIP3    H173831   1.462   0.204   2.153  0.8542 -0.3273  0.0388
17472TIP3    H273832   1.468   0.086   2.247 -1.8758 -1.4799 -1.1387
17473TIP3   OH273833   0.517   5.680  13.519  0.9020 -0.0204  0.2814
17473TIP3    H173834   0.588   5.618  13.539  2.4090  1.6963  0.4779
17473TIP3    H273835   0.557   5.745  13.461 -0.5130  1.0244  0.4180
17474TIP3   OH273836   6.573   1.027  14.158 -0.0962  0.1843 -0.5422
17474TIP3    H173837   6.615   0.954  14.112 -2.2767 -2.1477  0.9259
17474TIP3    H273838   6.501   1.053  14.101 -0.4538 -0.0746 -0.2064
17475TIP3   OH273839   1.395   6.373   4.583  0.8144  0.1617 -0.0645
17475TIP3    H173840   1.370   6.405   4.670  1.4125  0.3116  0.0638
17475TIP3    H273841   1.362   6.438   4.522 -0.3953 -0.3979 -0.0291
17476TIP3   OH273842   2.084   0.669  12.964  0.0485  0.2804 -0.2732
17476TIP3    H173843   2.139   0.633  13.033 -0.3546 -0.9623 -0.5748
17476TIP3    H273844   2.024   0.728  13.009  0.8128  0.7052  0.2166
17477TIP3   OH273845   1.248   0.172   0.870  0.2387 -0.0590  0.4526
17477TIP3    H173846   1.235   0.097   0.812 -2.2013 -0.5999  1.5690
17477TIP3    H273847   1.179   0.234   0.846 -1.3085 -0.6010  3.1352
17478TIP3   OH273848   3.991   4.822   2.071  0.4959  0.3897  0.4395
17478TIP3    H173849   3.908   4.784   2.100  0.0294  1.5814  0.6968
17478TIP3    H273850   4.002   4.790   1.982  0.0990 -0.3166  0.6343
17479TIP3   OH273851   5.484   2.240  16.001 -0.4287  0.1002  0.0694
17479TIP3    H173852   5.459   2.329  15.979  1.3331  0.8061  0.7089
17479TIP3    H273853   5.416   2.185  15.962 -1.7926  1.7251  0.0436
17480TIP3   OH273854   6.239   1.996   0.986 -0.4592 -0.7311  0.2864
17480TIP3    H173855   6.209   2.022   0.899 -1.0137 -0.4738  0.5514
17480TIP3    H273856   6.326   2.036   0.994 -1.4900  1.5632  0.8966
17481TIP3   OH273857   3.745   4.284   5.340 -0.3862 -0.1494 -0.2054
17481TIP3    H173858   3.669   4.328   5.303 -0.0150  0.9159  0.2403
17481TIP3    H273859   3.743   4.306   5.434  0.0008 -0.8049 -0.0345
17482TIP3   OH273860   2.806   2.944  11.137 -0.3029 -0.5393  0.8588
17482TIP3    H173861   2.716   2.951  11.167  0.0034 -0.4717  1.7923
17482TIP3    H273862   2.823   3.028  11.093 -0.4634 -0.2520  1.3387
17483TIP3   OH273863   0.117   4.714   3.219 -0.0404  0.0795  0.0868
17483TIP3    H173864   0.187   4.734   3.157  0.3533 -2.7726 -0.5153
17483TIP3    H273865   0.161   4.674   3.294 -0.9416 -1.7706 -0.3056
17484TIP3   OH273866   3.556   5.438   5.326 -0.4169 -0.5018 -0.3842
17484TIP3    H173867   3.563   5.347   5.296 -1.2373 -0.8337  0.3578
17484TIP3    H273868   3.625   5.447   5.392 -0.7905 -0.8089  0.0515
17485TIP3   OH273869   3.701   3.293  12.689  0.5528  0.0315 -0.4702
17485TIP3    H173870   3.723   3.335  12.606  0.0921  0.3171 -0.4521
17485TIP3    H273871   3.681   3.366  12.748  1.0736 -0.1611 -0.0527
17486TIP3   OH273872   3.102   4.333   3.689 -0.2309  0.6985  0.5583
17486TIP3    H173873   3.172   4.311   3.627 -1.4946  1.6927 -1.3233
17486TIP3    H273874   3.107   4.428   3.699  0.0805  0.5359  2.2052
17487TIP3   OH273875   2.279   0.320   1.661  0.1706  0.3633  0.6722
17487TIP3    H173876   2.258   0.229   1.638  0.0300  0.3729  0.7642
17487TIP3    H273877   2.215   0.372   1.613  2.0614  0.6064 -1.7863
17488TIP3   OH273878   5.287   6.425  15.845  0.1141  0.1954  0.3254
17488TIP3    H173879   5.294   6.446  15.752 -0.4435  0.6685  0.3816
17488TIP3    H273880   5.315   6.334  15.852  0.8901  0.3893 -0.1924
17489TIP3   OH273881   2.469   0.691  13.584  0.6382 -0.7321  0.3381
17489TIP3    H173882   2.501   0.772  13.545  0.0003 -1.0549 -0.8989
17489TIP3    H273883   2.455   0.632  13.510 -1.2148 -1.1515  0.9667
17490TIP3   OH273884   6.453   5.246  15.011  0.0575  0.2991  0.4782
17490TIP3    H173885   6.387   5.272  14.946  1.1460  2.1770  0.0754
17490TIP3    H273886   6.410   5.177  15.061 -1.5244  0.1494 -0.9883
17491TIP3   OH273887   0.321   1.514   0.707 -0.3989  0.3450  0.2621
17491TIP3    H173888   0.335   1.421   0.691  0.8652  0.7008 -0.9422
17491TIP3    H273889   0.409   1.552   0.703 -0.8451  1.5265  1.2085
17492TIP3   OH273890   2.237   3.320  10.834 -0.0417  0.4937  0.5632
17492TIP3    H173891   2.318   3.370  10.825  0.4250 -0.1615  1.1162
17492TIP3    H273892   2.169   3.381  10.806  0.6727  0.9089 -0.3331
17493TIP3   OH273893   6.287   2.213  13.027 -0.1081 -0.1946  0.4177
17493TIP3    H173894   6.327   2.148  13.085  1.2974  0.6555  0.4488
17493TIP3    H273895   6.361   2.251  12.979 -1.2696 -1.9011 -3.1013
17494TIP3   OH273896   0.238   6.640   3.393 -0.5673 -0.0673 -0.3222
17494TIP3    H173897   0.237   6.608   3.484  0.7475 -1.1538 -0.6685
17494TIP3    H273898   0.270   6.566   3.342  0.0119  0.9688 -1.5060
17495TIP3   OH273899   5.798   0.425   0.891  0.3371  0.1983 -0.2991
17495TIP3    H173900   5.877   0.458   0.847  0.2275 -0.3749 -0.9466
17495TIP3    H273901   5.829   0.393   0.976  0.6855  0.6019 -0.2722
17496TIP3   OH273902   3.315   6.061   1.928  0.3646  0.2140  0.1324
17496TIP3    H173903   3.367   6.021   1.858 -0.2299  2.2912 -1.6123
17496TIP3    H273904   3.234   6.009   1.930 -0.4461  1.2702 -2.1631
17497TIP3   OH273905   4.599   2.584  13.731 -0.5923 -0.5160 -0.1892
17497TIP3    H173906   4.561   2.666  13.697 -1.9949 -0.8743  0.4319
17497TIP3    H273907   4.690   2.606  13.751 -0.5009  0.4547 -1.5323
17498TIP3   OH273908   6.251   1.085  15.224 -0.4910 -0.1761  0.1442
17498TIP3    H173909   6.234   1.176  15.198 -1.6665 -0.6253 -0.7615
17498TIP3    H273910   6.187   1.068  15.293 -0.7290 -0.5179 -0.1597
17499TIP3   OH273911   3.747   6.134   4.989  0.7027  0.2959 -0.0400
17499TIP3    H173912   3.838   6.108   5.000  0.7025  0.2477 -0.1544
17499TIP3    H273913   3.729   6.189   5.065  0.8133  0.2680  0.0070
17500TIP3   OH273914   0.357   6.411  11.891 -0.5342 -0.3331 -0.3087
17500TIP3    H173915   0.432   6.371  11.847 -1.7887 -1.3554 -1.6052
17500TIP3    H273916   0.285   6.405  11.828 -1.7561  0.5026  0.9330
17501TIP3   OH273917   3.043   3.208   1.719 -0.3402 -0.0558 -0.5921
17501TIP3    H173918   3.009   3.273   1.781  0.0343  0.8468 -1.3238
17501TIP3    H273919   2.971   3.194   1.658  0.2578  1.2079 -1.6291
17502TIP3   OH273920   1.697   5.622   4.793  0.0009  0.8141  0.1996
17502TIP3    H173921   1.710   5.620   4.698 -1.1763 -1.7090  0.0137
17502TIP3    H273922   1.769   5.677   4.826  0.2321  2.0312 -2.1360
17503TIP3   OH273923   5.304   4.857  11.730 -0.9476 -0.1324 -0.0016
17503TIP3    H173924   5.349   4.843  11.813  0.5939 -2.4671 -1.1158
17503TIP3    H273925   5.374   4.881  11.669 -1.9353  0.7719 -0.8128
17504TIP3   OH273926   0.435   1.338  16.040  0.2049 -0.2811  0.4077
17504TIP3    H173927   0.353   1.364  15.999 -0.2270 -1.9286  0.1711
17504TIP3    H273928   0.475   1.421  16.069 -1.0179  0.6256 -0.4143
17505TIP3   OH273929   1.452   1.687  12.301 -0.0968  0.1360  0.2837
17505TIP3    H173930   1.498   1.753  12.249 -1.3575 -0.1509 -1.2585
17505TIP3    H273931   1.372   1.669  12.252 -0.2408 -1.8438  1.1648
17506TIP3   OH273932   0.479   5.918  15.846 -0.4125  0.2706  0.4769
17506TIP3    H173933   0.406   5.956  15.798 -0.4552 -0.4985 -0.1039
17506TIP3    H273934   0.484   5.828  15.813  0.1207 -0.0054  1.2876
17507TIP3   OH273935   3.312   5.916  16.685 -0.3648  0.0503  0.6100
17507TIP3    H173936   3.286   5.980  16.619 -0.3999 -1.5691 -1.0107
17507TIP3    H273937   3.258   5.839  16.667  1.4429 -1.3520  0.8677
17508TIP3   OH273938   5.624   0.460   5.016  0.0434 -0.0541 -0.1121
17508TIP3    H173939   5.569   0.408   4.958 -0.8514  1.5459 -0.7722
17508TIP3    H273940   5.566   0.528   5.050  0.6941 -0.5775  2.2453
17509TIP3   OH273941   1.458   2.771  15.427  0.4485  0.1272  0.0139
17509TIP3    H173942   1.532   2.831  15.427  0.8049 -0.3079  0.0753
17509TIP3    H273943   1.398   2.806  15.361 -0.0122  1.3623  1.0451
17510TIP3   OH273944   4.049   2.395  12.631  0.0594 -0.1764  0.3268
17510TIP3    H173945   3.972   2.419  12.579 -1.0410 -1.2062  1.4197
17510TIP3    H273946   4.042   2.450  12.709  0.6957  0.0496  0.2290
17511TIP3   OH273947   2.168   0.611   2.191 -0.5120  0.1193  0.2331
17511TIP3    H173948   2.240   0.671   2.170  0.3987 -0.6603  1.0348
17511TIP3    H273949   2.107   0.664   2.243 -0.6576  0.8596 -0.6770
17512TIP3   OH273950   6.723   5.851  16.271 -0.2512  0.5716  0.2194
17512TIP3    H173951   6.678   5.934  16.259  0.0960  0.7173 -0.0601
17512TIP3    H273952   6.734   5.815  16.183 -1.7978 -0.5254  0.4212
17513TIP3   OH273953   2.891   2.934   3.990  0.2910 -0.1709  0.5122
17513TIP3    H173954   2.901   2.938   3.895 -1.5032  1.3304  0.3408
17513TIP3    H273955   2.981   2.939   4.023  0.9093 -0.0797 -1.0880
17514TIP3   OH273956   1.457   2.300  14.537  0.4214  0.0489  1.2037
17514TIP3    H173957   1.518   2.336  14.602 -2.6014  1.9301  3.2766
17514TIP3    H273958   1.421   2.221  14.578  0.9193 -0.6871  0.2779
17515TIP3   OH273959   1.277   1.641   2.303 -0.1816  0.4133 -0.3844
17515TIP3    H173960   1.367   1.658   2.330 -0.3203 -0.0660  0.3884
17515TIP3    H273961   1.277   1.549   2.274 -0.4871  0.3202 -0.0950
17516TIP3   OH273962   5.459   1.338  13.640  0.6340  0.5767 -0.7452
17516TIP3    H173963   5.421   1.257  13.674 -0.1230  1.5518  0.8493
17516TIP3    H273964   5.550   1.337  13.670  0.5870  0.3743 -0.6109
17517TIP3   OH273965   3.235   1.245   3.777  0.2802  0.4439 -0.4842
17517TIP3    H173966   3.264   1.248   3.868 -1.0124 -0.4603 -0.0126
17517TIP3    H273967   3.315   1.224   3.727  0.7600 -0.3543  0.5765
17518TIP3   OH273968   0.138   1.199   0.851  0.2837  0.1175 -0.1148
17518TIP3    H173969   0.078   1.127   0.868  0.0361  0.0619 -1.1462
17518TIP3    H273970   0.223   1.156   0.837 -0.0013 -0.0463 -1.4188
17519TIP3   OH273971   3.592   5.612   1.339  0.4587 -0.4179  0.5078
17519TIP3    H173972   3.598   5.651   1.252 -2.8321  0.5360  0.5574
17519TIP3    H273973   3.590   5.687   1.399 -1.9330 -0.7114  0.9279
17520TIP3   OH273974   0.188   2.104  13.652 -0.0779 -0.6595 -0.1955
17520TIP3    H173975   0.121   2.172  13.663 -1.4268 -1.9317 -0.3491
17520TIP3    H273976   0.244   2.138  13.582  0.1143  0.9137  0.6621
17521TIP3   OH273977   4.545   0.273  15.555  0.2986 -0.2050 -0.1331
17521TIP3    H173978   4.564   0.254  15.647 -0.8937 -0.2220  0.1203
17521TIP3    H273979   4.555   0.189  15.510 -1.2788 -0.6986  0.3683
17522TIP3   OH273980   3.828   4.136  14.095  0.1399 -0.0934 -0.0077
17522TIP3    H173981   3.877   4.148  14.014 -3.6443 -0.0497 -2.5954
17522TIP3    H273982   3.865   4.057  14.135  2.7781  0.4526 -1.1701
17523TIP3   OH273983   3.205   5.035   1.342  0.2977  0.1129  0.0151
17523TIP3    H173984   3.121   4.991   1.334  0.1254  0.5992 -1.0619
17523TIP3    H273985   3.183   5.123   1.372  0.4583  0.1109  0.1418
17524TIP3   OH273986   2.738   4.141  11.383  0.5459 -0.2719 -0.4530
17524TIP3    H173987   2.776   4.056  11.408  0.4405  0.1763  1.3252
17524TIP3    H273988   2.658   4.118  11.336  0.2736 -1.1733  0.4085
17525TIP3   OH273989   0.243   6.406   1.860  0.0676 -0.3457 -0.5748
17525TIP3    H173990   0.286   6.381   1.942  0.2770  0.1949 -0.5152
17525TIP3    H273991   0.158   6.362   1.863 -0.7557  1.2199  0.8546
17526TIP3   OH273992   1.396   1.803  15.641  0.8175  0.2432  0.3216
17526TIP3    H173993   1.362   1.844  15.562 -0.0529 -1.0197  0.0147
17526TIP3    H273994   1.321   1.801  15.701  1.4791  1.2470  1.2238
17527TIP3   OH273995   2.873   2.227  13.134 -0.4844 -0.4442 -0.0311
17527TIP3    H173996   2.834   2.140  13.123  0.5119 -1.0291  0.9406
17527TIP3    H273997   2.964   2.216  13.107 -0.2775  0.2243  0.3747
17528TIP3   OH273998   3.817   4.288  16.521 -0.2907  0.3973 -0.1353
17528TIP3    H173999   3.793   4.320  16.434  0.0464 -0.2381 -0.4669
17528TIP3    H274000   3.785   4.355  16.581  0.9897  1.6957 -0.8516
17529TIP3   OH274001   2.856   0.999   2.224 -0.5425 -0.0193  0.2762
17529TIP3    H174002   2.845   0.989   2.318 -1.4019  0.2000  0.2032
17529TIP3    H274003   2.906   1.079   2.213 -0.0920 -0.2577  0.5558
17530TIP3   OH274004   3.588   5.578  14.313  0.0101  0.3922 -0.2483
17530TIP3    H174005   3.661   5.587  14.253  1.3395 -2.2164  0.7741
17530TIP3    H274006   3.514   5.552  14.258  0.1639  1.7951 -1.1466
17531TIP3   OH274007   4.740   2.265   0.203 -0.3432 -0.0914 -0.5766
17531TIP3    H174008   4.648   2.239   0.209 -0.6038  0.9513  0.2467
17531TIP3    H274009   4.789   2.191   0.238 -0.8614 -0.7170 -1.1730
17532TIP3   OH274010   1.639   6.168   2.508 -0.6335  0.3642 -0.1051
17532TIP3    H174011   1.726   6.130   2.502 -0.9836 -0.5142  0.3104
17532TIP3    H274012   1.604   6.163   2.418  0.1066  1.6582 -0.5011
17533TIP3   OH274013   3.703   1.624   2.255 -0.1936 -0.3254  0.2461
17533TIP3    H174014   3.762   1.660   2.321 -0.1649 -3.1104  1.8957
17533TIP3    H274015   3.615   1.646   2.287 -0.1460  0.3801 -0.0899
17534TIP3   OH274016   6.373   2.475   4.244 -0.0172  0.6476  0.2049
17534TIP3    H174017   6.464   2.461   4.266 -0.6644 -2.9543  1.1081
17534TIP3    H274018   6.374   2.500   4.151  1.8891  2.6492  0.6824
17535TIP3   OH274019   5.787   0.640  13.934 -0.5451  0.0439  0.6405
17535TIP3    H174020   5.786   0.614  14.026 -0.1864 -0.7477  0.4236
17535TIP3    H274021   5.872   0.613  13.902 -0.6553  0.3516  0.0755
17536TIP3   OH274022   3.767   1.100   4.072  0.1799 -0.4404  0.0431
17536TIP3    H174023   3.846   1.151   4.091 -0.2891  0.1321  0.5161
17536TIP3    H274024   3.724   1.149   4.002 -0.7206  0.3372  1.0965
17537TIP3   OH274025   3.473   4.487  13.761  0.0312  0.5484  0.5318
17537TIP3    H174026   3.432   4.407  13.793  2.0175 -0.2925  1.1224
17537TIP3    H274027   3.547   4.457  13.708 -0.1248  1.9925 -0.5602
17538TIP3   OH274028   3.205   5.022  16.553 -0.0485  0.3665  0.0891
17538TIP3    H174029   3.239   5.060  16.634 -1.3292 -0.2673  0.9512
17538TIP3    H274030   3.112   5.042  16.554 -0.3463 -0.8661 -0.5143
17539TIP3   OH274031   6.308   0.903  10.877 -0.0545  0.0807 -0.0704
17539TIP3    H174032   6.297   0.990  10.838 -0.2349  0.1798  0.1938
17539TIP3    H274033   6.221   0.864  10.873 -0.9070  1.3005  3.0540
17540TIP3   OH274034   0.552   6.406   0.566  0.5322 -0.0167  0.1932
17540TIP3    H174035   0.471   6.356   0.569  1.4522 -1.6183 -0.4097
17540TIP3    H274036   0.547   6.455   0.484 -0.0329  0.3022  0.4111
17541TIP3   OH274037   5.428   5.209   4.962 -0.0686 -0.4898  0.4459
17541TIP3    H174038   5.514   5.228   4.999  0.2025  0.6725 -0.7287
17541TIP3    H274039   5.368   5.210   5.038  0.5538  1.2433  0.9506
17542TIP3   OH274040   4.484   5.358   0.323  0.2021  0.1314  0.0245
17542TIP3    H174041   4.444   5.438   0.357 -0.8789 -0.4221  0.0933
17542TIP3    H274042   4.560   5.389   0.273 -1.8693  1.4873 -2.5354
17543TIP3   OH274043   4.415   1.764   0.754 -0.0384  0.6673 -0.1866
17543TIP3    H174044   4.399   1.750   0.661 -2.8852  0.8753  0.1882
17543TIP3    H274045   4.427   1.859   0.762 -0.2046  0.7011 -0.3140
17544TIP3   OH274046   4.186   2.401  10.371  0.3994 -0.0898  0.6797
17544TIP3    H174047   4.201   2.484  10.327 -0.0611  0.4202  1.4459
17544TIP3    H274048   4.090   2.393  10.374  0.4408 -0.6811  0.5541
17545TIP3   OH274049   4.332   4.413  14.512  0.5011 -0.0106 -0.0934
17545TIP3    H174050   4.369   4.486  14.462 -2.0805  1.4823  0.0261
17545TIP3    H274051   4.337   4.339  14.453  0.6299  0.9258 -1.3009
17546TIP3   OH274052   0.866   3.830  15.666  0.2642 -0.2403  0.3412
17546TIP3    H174053   0.854   3.736  15.656  1.0179 -0.4240  1.1526
17546TIP3    H274054   0.777   3.864  15.679  0.0613 -0.9302  0.8096
17547TIP3   OH274055   4.877   1.103   0.803  0.0626  0.1070 -0.3126
17547TIP3    H174056   4.929   1.035   0.760  0.8007 -0.3138  1.1843
17547TIP3    H274057   4.920   1.185   0.780  1.4592 -0.2318  0.9037
17548TIP3   OH274058   1.821   0.967  12.010 -0.5416  0.0649 -0.1906
17548TIP3    H174059   1.901   0.967  11.958 -1.1617  0.5039 -1.1664
17548TIP3    H274060   1.752   0.992  11.949 -1.2976  0.5758  0.8333
17549TIP3   OH274061   4.725   3.725  15.858 -0.3496 -0.3630  0.4943
17549TIP3    H174062   4.664   3.653  15.842 -1.7261  1.0235 -0.8998
17549TIP3    H274063   4.773   3.735  15.776 -1.0593  1.0473  0.2097
17550TIP3   OH274064   6.314   5.551  16.253  0.0652  0.3582  0.1248
17550TIP3    H174065   6.382   5.559  16.186  1.1251  1.7052  1.2923
17550TIP3    H274066   6.265   5.634  16.248 -1.7704 -0.7244 -0.9251
17551TIP3   OH274067   5.289   6.155  15.888  0.3534  0.7330  0.2842
17551TIP3    H174068   5.291   6.166  15.983  0.3893 -1.1831  0.5406
17551TIP3    H274069   5.360   6.094  15.870 -0.7936 -0.3392 -0.7452
17552TIP3   OH274070   5.706   1.732  13.260 -0.3620  0.1655  0.1614
17552TIP3    H174071   5.790   1.689  13.273 -0.6202 -0.3755  0.0514
17552TIP3    H274072   5.677   1.756  13.348  1.4168  3.3382  0.0573
17553TIP3   OH274073   5.816   2.952   2.347 -0.4064 -0.2027  0.6239
17553TIP3    H174074   5.867   2.873   2.329 -0.0985 -0.0570  0.8708
17553TIP3    H274075   5.862   3.022   2.301 -0.9006 -0.2304  0.0699
17554TIP3   OH274076   4.493   5.051  13.139  0.2634 -0.0653  0.4502
17554TIP3    H174077   4.470   5.002  13.061  0.4649  0.5236  0.0150
17554TIP3    H274078   4.445   5.008  13.210 -1.1776  0.3457 -0.2381
17555TIP3   OH274079   3.882   4.412  12.538  0.1830 -0.4383 -0.0572
17555TIP3    H174080   3.952   4.462  12.496 -0.3870 -0.5649 -1.1759
17555TIP3    H274081   3.836   4.476  12.593  0.5031 -0.1197 -0.1583
17556TIP3   OH274082   1.847   2.095   1.068 -0.0195  0.1956  0.1422
17556TIP3    H174083   1.753   2.080   1.081  0.2230 -0.3919  1.3512
17556TIP3    H274084   1.870   2.038   0.995 -0.3541 -0.6659  0.6943
17557TIP3   OH274085   2.727   4.984   1.032  0.3324  0.0569 -0.1213
17557TIP3    H174086   2.706   4.928   0.957  1.3164 -1.3150  0.5826
17557TIP3    H274087   2.642   5.014   1.065 -0.1480 -0.1062 -1.1899
17558TIP3   OH274088   3.131   4.190   0.243 -0.0678 -0.3677 -0.1355
17558TIP3    H174089   3.097   4.104   0.219 -0.9538  0.2652 -1.2437
17558TIP3    H274090   3.215   4.196   0.199  0.5836 -1.1344  0.9544
17559TIP3   OH274091   1.931   4.259   6.166 -0.4434  0.0098 -0.0450
17559TIP3    H174092   1.898   4.228   6.082 -0.2170  1.2833 -0.6202
17559TIP3    H274093   1.988   4.189   6.196 -0.8822 -0.6599 -0.7283
17560TIP3   OH274094   0.642   4.185  15.783  0.2912 -0.7828  0.6194
17560TIP3    H174095   0.699   4.261  15.780  0.8515 -1.1959  0.6592
17560TIP3    H274096   0.600   4.189  15.869 -2.0640  1.1721 -0.4898
17561TIP3   OH274097   4.672   4.488  16.736 -0.1907 -0.3912  0.0648
17561TIP3    H174098   4.731   4.435  16.682 -0.6038 -0.4554 -0.3300
17561TIP3    H274099   4.729   4.554  16.775  0.1991 -0.6481 -0.0574
17562TIP3   OH274100   5.701   5.822   4.198  0.2471  0.0078  0.6353
17562TIP3    H174101   5.620   5.806   4.246 -0.5501 -1.3128 -1.0418
17562TIP3    H274102   5.708   5.749   4.137  1.9189  0.8866 -0.3096
17563TIP3   OH274103   6.528   2.218   6.167 -0.2765 -0.1761  0.4880
17563TIP3    H174104   6.518   2.219   6.263 -0.7090  1.2351  0.4494
17563TIP3    H274105   6.439   2.227   6.134  0.0213  1.3045 -0.0000
17564TIP3   OH274106   4.029   1.979   1.949 -0.0181  0.2819  0.3320
17564TIP3    H174107   4.043   2.039   2.022 -1.2873  0.8406  0.1391
17564TIP3    H274108   4.021   1.893   1.991 -1.1062  0.6458  0.9088
17565TIP3   OH274109   1.057   5.999  12.641 -0.1073 -0.0890  0.0214
17565TIP3    H174110   0.971   6.027  12.608 -0.7608 -1.6662  0.2544
17565TIP3    H274111   1.042   5.977  12.733  1.0345  1.4791  0.6245
17566TIP3   OH274112   4.930   2.734  16.636  0.0228  0.5128  0.8730
17566TIP3    H174113   4.898   2.746  16.726 -1.3275 -2.0873  0.8139
17566TIP3    H274114   4.862   2.772  16.581  0.1769  0.8509  0.9169
17567TIP3   OH274115   4.649   3.461  15.472 -0.5101 -0.5603 -0.2481
17567TIP3    H174116   4.712   3.396  15.441 -1.1487 -1.2051 -0.2095
17567TIP3    H274117   4.638   3.522  15.399  0.8376  0.0954  0.0587
17568TIP3   OH274118   5.588   6.220  17.172 -0.2119 -0.7479  0.2995
17568TIP3    H174119   5.546   6.271  17.241  0.8902  0.1895  0.2982
17568TIP3    H274120   5.522   6.215  17.102 -0.1950  1.0629  0.1220
17569TIP3   OH274121   4.095   0.703  12.576 -0.0877  0.4405  0.0625
17569TIP3    H174122   4.161   0.769  12.558 -0.1229  0.5409  0.2942
17569TIP3    H274123   4.017   0.752  12.600  0.0793  0.3128  0.8996
17570TIP3   OH274124   1.595   3.593  15.648 -0.0387 -0.3000  0.1219
17570TIP3    H174125   1.687   3.617  15.652 -0.1923  0.2070  0.6725
17570TIP3    H274126   1.549   3.674  15.626 -0.1825 -0.9429 -2.2699
17571TIP3   OH274127   2.213   4.243  11.304  0.0785 -0.5344 -0.4114
17571TIP3    H174128   2.274   4.296  11.356 -0.9010  0.3516 -0.1098
17571TIP3    H274129   2.220   4.278  11.215 -1.2379  0.7979 -0.0380
17572TIP3   OH274130   1.035   3.487   1.788 -0.5646 -0.8840 -0.4556
17572TIP3    H174131   0.964   3.551   1.794  0.7205  0.5014  1.0406
17572TIP3    H274132   1.024   3.431   1.864 -0.4097 -1.0384 -0.5475
17573TIP3   OH274133   4.872   5.985   2.366  0.3756  0.4126  0.1270
17573TIP3    H174134   4.891   6.076   2.343  1.3370  0.4336  0.9486
17573TIP3    H274135   4.822   5.990   2.447 -0.9882  0.2495 -0.6723
17574TIP3   OH274136   3.521   0.869   0.996  0.2986 -0.1192 -0.2726
17574TIP3    H174137   3.546   0.903   1.082  0.4083 -0.4049 -0.1894
17574TIP3    H274138   3.426   0.873   0.995  0.3334  1.5642 -0.8297
17575TIP3   OH274139   5.106   3.868  14.435  0.1902 -0.4092 -0.0472
17575TIP3    H174140   5.078   3.959  14.438 -1.2812 -0.8619  1.4761
17575TIP3    H274141   5.109   3.847  14.342 -2.0297  0.4839 -0.3885
17576TIP3   OH274142   6.306   1.308  17.097 -0.2311 -0.6353  0.0987
17576TIP3    H174143   6.233   1.360  17.132  1.5400  1.8385  0.4317
17576TIP3    H274144   6.352   1.276  17.175  1.3094  1.3172  0.0653
17577TIP3   OH274145   1.610   6.368   3.680  0.0503  0.1079 -0.2233
17577TIP3    H174146   1.648   6.365   3.768  3.4401  0.1867 -1.5153
17577TIP3    H274147   1.607   6.277   3.651  0.9783  0.2282 -0.7482
17578TIP3   OH274148   0.968   3.716  16.361 -0.5793  0.0316  0.1110
17578TIP3    H174149   0.927   3.675  16.438  1.8513 -2.5621  0.1910
17578TIP3    H274150   0.896   3.728  16.299 -2.5072  1.6087  2.4708
17579TIP3   OH274151   5.136   5.818   6.280  0.1496 -0.3616 -0.4044
17579TIP3    H174152   5.082   5.745   6.249 -0.9904  0.2524  0.0763
17579TIP3    H274153   5.077   5.871   6.333  1.4331 -0.0723  0.7941
17580TIP3   OH274154   6.422   5.557   2.462  0.3347 -0.1230 -0.1822
17580TIP3    H174155   6.391   5.599   2.543  1.0359 -0.3131  0.1894
17580TIP3    H274156   6.393   5.616   2.393  2.7413  1.9288  0.4131
17581TIP3   OH274157   4.785   4.910  11.395  0.5904 -0.6305 -0.2986
17581TIP3    H174158   4.823   4.940  11.478  0.7143 -0.0359 -0.5679
17581TIP3    H274159   4.837   4.832  11.373  0.3512 -0.9772  0.3365
17582TIP3   OH274160   6.231   5.953   2.567 -0.6999  0.0859 -0.2966
17582TIP3    H174161   6.271   5.960   2.653 -0.2135  1.9205 -0.6359
17582TIP3    H274162   6.221   6.043   2.537 -0.1629 -0.5111 -2.4633
17583TIP3   OH274163   2.328   1.441   6.502 -0.4844 -0.0822  0.5960
17583TIP3    H174164   2.293   1.363   6.461  0.4599  0.5265 -1.4892
17583TIP3    H274165   2.250   1.487   6.536 -1.3234 -0.5271 -0.6663
17584TIP3   OH274166   0.265   4.211  14.656 -0.4812 -0.2428  1.0982
17584TIP3    H174167   0.182   4.205  14.608 -1.5736 -0.1711  2.9011
17584TIP3    H274168   0.307   4.126  14.642 -0.3010  0.0996 -0.7284
17585TIP3   OH274169   5.410   3.554   4.887 -0.3455  0.1878 -0.2113
17585TIP3    H174170   5.390   3.525   4.976  0.7356 -1.1754 -0.3729
17585TIP3    H274171   5.506   3.549   4.881 -0.2305  2.3775 -0.7750
17586TIP3   OH274172   3.239   4.945  13.191 -0.2839  0.4166 -0.1321
17586TIP3    H174173   3.266   4.888  13.263 -0.2454  1.2280  0.5202
17586TIP3    H274174   3.175   5.004  13.231  1.5248  2.4943 -0.0713
17587TIP3   OH274175   5.462   1.083   4.034 -0.2497 -0.2819  0.3254
17587TIP3    H174176   5.403   1.007   4.028 -0.6566  0.1290 -1.7417
17587TIP3    H274177   5.478   1.107   3.943  1.9331  0.5673  0.8876
17588TIP3   OH274178   1.369   1.752  11.599 -0.7670  0.1904  0.5034
17588TIP3    H174179   1.396   1.833  11.555 -2.2274  0.6127  0.3386
17588TIP3    H274180   1.449   1.721  11.641  0.9422 -0.6558 -2.9785
17589TIP3   OH274181   3.405   6.547   1.368  0.2489 -0.3388  0.0643
17589TIP3    H174182   3.433   6.636   1.391 -0.6435  0.7160 -2.6112
17589TIP3    H274183   3.326   6.532   1.420  0.4271  0.4087  0.5684
17590TIP3   OH274184   4.790   3.575   1.736  0.2690 -0.0378 -0.0028
17590TIP3    H174185   4.808   3.604   1.826 -2.4322  0.1218  0.5962
17590TIP3    H274186   4.802   3.653   1.682 -1.9626  1.0281  0.8805
17591TIP3   OH274187   3.245   0.790   1.064  0.5874  0.1512 -0.1013
17591TIP3    H174188   3.159   0.830   1.052  0.9923  0.7274 -1.2545
17591TIP3    H274189   3.246   0.717   1.002  0.4361 -0.6979  0.8791
17592TIP3   OH274190   0.355   5.245  12.910  0.2372 -0.0593  0.5425
17592TIP3    H174191   0.330   5.191  12.835  1.8883  1.0782 -0.9041
17592TIP3    H274192   0.273   5.275  12.947 -0.6143  0.2061 -1.4710
17593TIP3   OH274193   2.200   5.731   1.990 -0.6709  0.3790 -0.8881
17593TIP3    H174194   2.232   5.813   2.027  1.5637 -0.6339 -0.4318
17593TIP3    H274195   2.170   5.754   1.902  2.1339  1.3280 -1.6960
17594TIP3   OH274196   1.535   5.972  11.792 -0.0533  0.5860 -0.0951
17594TIP3    H174197   1.448   5.946  11.764 -0.3188  1.0765  0.2699
17594TIP3    H274198   1.587   5.974  11.711 -0.6788  1.4793 -0.4844
17595TIP3   OH274199   0.525   0.355   2.311  0.3741  0.6346  0.1249
17595TIP3    H174200   0.567   0.278   2.272  0.5317 -0.0557  1.5801
17595TIP3    H274201   0.472   0.391   2.240  1.2264 -0.1144 -0.9333
17596TIP3   OH274202   2.391   4.958   5.154 -0.0238 -0.2695  0.3045
17596TIP3    H174203   2.299   4.935   5.173 -0.5333  2.6630  1.9525
17596TIP3    H274204   2.397   4.953   5.058 -2.6959  1.8313 -0.1004
17597TIP3   OH274205   0.837   5.165  10.333 -0.0329 -0.4133 -0.4062
17597TIP3    H174206   0.793   5.098  10.282 -0.9680  1.6850 -2.5485
17597TIP3    H274207   0.767   5.208  10.383  0.5719 -1.0676  1.0623
17598TIP3   OH274208   2.715   5.613  16.349 -0.3387 -0.1379  0.1793
17598TIP3    H174209   2.709   5.558  16.271  1.2238  0.7850 -0.6311
17598TIP3    H274210   2.695   5.553  16.421  0.2485 -1.5282 -0.7591
17599TIP3   OH274211   2.426   1.322  16.499 -0.0251  0.0771  0.1101
17599TIP3    H174212   2.370   1.378  16.445 -0.1800  1.0033  1.1984
17599TIP3    H274213   2.365   1.271  16.552  0.1303 -0.7150 -0.4474
17600TIP3   OH274214   3.025   4.305  16.564 -0.3987 -0.0712  0.1144
17600TIP3    H174215   3.036   4.247  16.639  0.1410  0.1259  0.1913
17600TIP3    H274216   2.962   4.260  16.508  0.0204 -0.7406  0.1688
17601TIP3   OH274217   0.165   5.224   0.442 -0.1083  0.2117  0.2850
17601TIP3    H174218   0.195   5.277   0.517 -2.7111  1.0243  0.8565
17601TIP3    H274219   0.085   5.183   0.473 -0.0030 -1.3292 -1.3437
17602TIP3   OH274220   1.201   0.598  12.780  0.3342  0.0866  0.0333
17602TIP3    H174221   1.157   0.605  12.695 -1.4882 -0.6484  0.8785
17602TIP3    H274222   1.287   0.562  12.759 -0.5693 -1.3633 -1.3889
17603TIP3   OH274223   5.644   1.071  16.870  0.1937  0.5022  0.4008
17603TIP3    H174224   5.572   1.025  16.826 -0.2238  0.8325  0.7305
17603TIP3    H274225   5.722   1.019  16.849  0.5131  2.1086 -3.0115
17604TIP3   OH274226   5.564   5.093  12.750 -0.5489 -0.6027  0.0074
17604TIP3    H174227   5.598   5.032  12.684 -1.4119  0.0843 -1.1020
17604TIP3    H274228   5.546   5.173  12.702 -4.6826 -1.2004  0.2309
17605TIP3   OH274229   5.394   5.454   6.036 -0.1325 -0.2469  0.1306
17605TIP3    H174230   5.482   5.471   6.003 -0.0007 -3.0832 -1.2569
17605TIP3    H274231   5.339   5.518   5.992  0.8455 -0.4275 -1.4463
17606TIP3   OH274232   4.721   4.337   5.930  0.0070 -0.4755 -0.1718
17606TIP3    H174233   4.809   4.305   5.951 -0.1036 -1.0336 -0.5250
17606TIP3    H274234   4.721   4.428   5.960 -0.9791 -1.8104  4.8963
17607TIP3   OH274235   2.117   6.230  14.232 -0.3730  0.2784  0.2453
17607TIP3    H174236   2.092   6.259  14.320 -0.7358  1.4069 -0.2029
17607TIP3    H274237   2.183   6.163  14.247 -1.8239 -0.9566  1.4086
17608TIP3   OH274238   5.489   3.216   3.073 -0.0118  0.2154 -0.4759
17608TIP3    H174239   5.447   3.266   3.143 -0.2437  0.4270 -0.7624
17608TIP3    H274240   5.568   3.179   3.114 -2.1104 -3.0153  1.1047
17609TIP3   OH274241   4.740   4.711  12.967 -0.6451 -0.2895  0.4092
17609TIP3    H174242   4.736   4.803  12.991  1.4209 -0.5099  1.8793
17609TIP3    H274243   4.649   4.686  12.950 -1.3506  1.7582  0.9312
17610TIP3   OH274244   5.195   4.244  11.095  0.0353  0.3644  0.0104
17610TIP3    H174245   5.229   4.283  11.176 -2.0721  2.4115  0.0307
17610TIP3    H274246   5.271   4.204  11.054  2.2403  3.4753  0.6727
17611TIP3   OH274247   1.069   1.692  14.358 -0.0954  0.6021 -0.0039
17611TIP3    H174248   1.003   1.761  14.367  0.4019  1.0791  0.0263
17611TIP3    H274249   1.019   1.610  14.357 -0.6275  0.9132  0.7980
17612TIP3   OH274250   1.201   4.146   0.045 -0.5007 -0.5122 -0.5204
17612TIP3    H174251   1.285   4.152   0.090 -0.3498 -0.0229 -0.8633
17612TIP3    H274252   1.222   4.105  -0.039 -0.2572  1.4023 -1.4508
17613TIP3   OH274253   2.277   5.343  10.575  0.1567  0.5009  0.2825
17613TIP3    H174254   2.331   5.421  10.565 -0.2855  0.6199 -1.5248
17613TIP3    H274255   2.211   5.367  10.640 -1.8820  2.8277 -2.3696
17614TIP3   OH274256   2.722   6.297  16.408  0.4554 -0.0512  0.2096
17614TIP3    H174257   2.684   6.361  16.468  1.2473  0.1652  0.5030
17614TIP3    H274258   2.700   6.329  16.320  0.8686  0.6562  0.3556
17615TIP3   OH274259   3.751   1.051  13.124  0.2192 -0.6652 -0.2533
17615TIP3    H174260   3.756   1.003  13.041  1.6202 -0.6164 -0.2156
17615TIP3    H274261   3.795   0.994  13.187 -0.0492 -0.2997  0.2705
17616TIP3   OH274262   4.580   5.335  14.906 -0.3288 -0.1307 -0.4479
17616TIP3    H174263   4.643   5.336  14.978 -0.9996  1.3729  0.1539
17616TIP3    H274264   4.497   5.309  14.947 -0.6332  0.3609 -0.7415
17617TIP3   OH274265   0.160   1.494  10.838  0.2814 -0.4182 -0.3486
17617TIP3    H174266   0.137   1.584  10.816 -0.1989 -0.4412  0.0329
17617TIP3    H274267   0.078   1.456  10.870 -0.2047 -1.7313 -2.8433
17618TIP3   OH274268   3.372   2.052   0.444  0.6401 -0.8904  0.1603
17618TIP3    H174269   3.305   1.983   0.443 -0.4005  0.0845 -0.4387
17618TIP3    H274270   3.348   2.108   0.370  1.2196  0.3283  0.8813
17619TIP3   OH274271   4.642   0.935  14.209  0.3690  0.3013  0.5760
17619TIP3    H174272   4.571   0.883  14.171 -0.1865  1.4305  0.0182
17619TIP3    H274273   4.617   1.026  14.193  2.4946  0.7520 -0.7293
17620TIP3   OH274274   3.662   4.702   3.622  0.2315  0.0333  0.3362
17620TIP3    H174275   3.681   4.706   3.528  0.4221  0.0808  0.3767
17620TIP3    H274276   3.567   4.701   3.627  0.2238 -0.5069  0.1165
17621TIP3   OH274277   0.143   2.346  15.988  0.4654 -0.6205  0.0227
17621TIP3    H174278   0.168   2.403  15.915 -0.1898  0.2864  0.4984
17621TIP3    H274279   0.050   2.361  15.999  0.8088  0.3497  1.9756
17622TIP3   OH274280   5.933   6.168  16.803 -0.1877 -0.1030  0.1339
17622TIP3    H174281   6.012   6.220  16.788 -0.1503 -0.4198 -0.8408
17622TIP3    H274282   5.943   6.092  16.745 -0.9513 -0.4287  0.4107
17623TIP3   OH274283   0.322   4.781   3.936  0.1780  0.0601  0.1849
17623TIP3    H174284   0.398   4.839   3.949 -0.0019  0.7332 -1.5801
17623TIP3    H274285   0.292   4.800   3.848 -2.0129 -0.2601  0.8005
17624TIP3   OH274286   2.155   6.701   4.803  0.7214 -0.4014 -0.3149
17624TIP3    H174287   2.063   6.712   4.780  0.4150  1.0911  1.3685
17624TIP3    H274288   2.202   6.762   4.747  0.3310  0.8918  0.7047
17625TIP3   OH274289   1.794   6.399   6.864 -0.0425  0.1356  0.0875
17625TIP3    H174290   1.827   6.381   6.776  0.2005  0.5899  0.0840
17625TIP3    H274291   1.832   6.331   6.919 -0.7886 -0.6089 -0.2807
17626TIP3   OH274292   4.585   0.803   1.229 -0.4527  0.3270 -0.5770
17626TIP3    H174293   4.541   0.839   1.306  1.1259 -0.2129  0.6374
17626TIP3    H274294   4.546   0.717   1.216 -0.2756  0.1413  0.0582
17627TIP3   OH274295   1.564   0.840   5.970 -0.1566 -0.3812  0.1018
17627TIP3    H174296   1.640   0.889   5.937  0.6135 -0.1807  2.0056
17627TIP3    H274297   1.553   0.872   6.060 -1.3337 -1.7722  0.4856
17628TIP3   OH274298   4.526   3.656   1.200  0.3446 -0.4673 -0.3454
17628TIP3    H174299   4.550   3.703   1.279 -0.2892 -0.9620  0.1418
17628TIP3    H274300   4.487   3.575   1.230 -2.6484  0.5809 -1.0736
17629TIP3   OH274301   4.094   3.830   5.608  0.0179  0.3596  0.0468
17629TIP3    H174302   4.023   3.868   5.555 -0.2798 -1.1510 -0.6951
17629TIP3    H274303   4.073   3.857   5.698 -1.6670 -0.2684 -0.1143
17630TIP3   OH274304   4.889   2.740   0.708  0.1000  0.0752  0.4217
17630TIP3    H174305   4.984   2.727   0.715  0.3034  0.7000 -0.9954
17630TIP3    H274306   4.876   2.834   0.722 -0.3158  0.0018  0.5463
17631TIP3   OH274307   1.861   6.206   5.057 -0.8482  0.0266 -0.4969
17631TIP3    H174308   1.844   6.138   4.992 -3.2405  0.2587 -0.2123
17631TIP3    H274309   1.803   6.278   5.032  2.1091  2.3836 -1.2312
17632TIP3   OH274310   4.617   5.929   3.086 -0.0915 -0.3877  0.3040
17632TIP3    H174311   4.603   5.880   3.005 -0.0804  1.4392 -0.8641
17632TIP3    H274312   4.696   5.980   3.070 -0.7770  0.9406  0.9793
17633TIP3   OH274313   3.837   0.955   1.520 -0.1186  0.3646 -0.5069
17633TIP3    H174314   3.911   1.007   1.550 -0.6650  0.2161  1.1795
17633TIP3    H274315   3.876   0.873   1.489  0.5020  0.6697 -0.5507
17634TIP3   OH274316   4.560   2.806  11.468 -0.0306  1.0449 -0.2680
17634TIP3    H174317   4.622   2.861  11.517  0.1667  0.6936 -0.1131
17634TIP3    H274318   4.616   2.753  11.411 -0.2459  1.2819 -0.6955
17635TIP3   OH274319   4.568   1.635  10.029  0.0902  0.0913 -0.0300
17635TIP3    H174320   4.546   1.695  10.101  0.5473  0.0339  0.1624
17635TIP3    H274321   4.509   1.561  10.041  1.1675 -0.6166  1.1972
17636TIP3   OH274322   5.956   0.894   5.089  0.2383 -0.2850 -0.0751
17636TIP3    H174323   5.952   0.866   5.181 -0.2547 -0.8424 -0.2575
17636TIP3    H274324   5.953   0.990   5.093 -1.6274 -0.3190  0.4296
17637TIP3   OH274325   1.904   5.616  11.101 -0.0139  0.5008 -0.1346
17637TIP3    H174326   1.995   5.624  11.128  0.2955  1.1717 -1.3343
17637TIP3    H274327   1.907   5.599  11.007 -1.0983 -0.9040  0.0326
17638TIP3   OH274328   3.511   5.414  14.597  0.6735 -0.5942 -0.2121
17638TIP3    H174329   3.507   5.324  14.567  1.2228 -0.2734 -1.2949
17638TIP3    H274330   3.526   5.466  14.518  0.0670  0.4804  0.3441
17639TIP3   OH274331   4.477   1.894   5.958  0.4593 -0.0281 -0.1533
17639TIP3    H174332   4.385   1.868   5.959  0.5148 -0.2835 -1.0015
17639TIP3    H274333   4.526   1.812   5.966  0.6315 -0.2328 -2.5921
17640TIP3   OH274334   3.530   3.942   3.966  0.2677 -0.0347  0.0064
17640TIP3    H174335   3.588   3.958   3.891  0.3446  0.7907  0.2391
17640TIP3    H274336   3.587   3.954   4.042 -0.6279  2.8975  0.3384
17641TIP3   OH274337   2.286   0.819   5.924 -0.5678 -0.1910  0.1799
17641TIP3    H174338   2.324   0.758   5.987  1.4280  0.0018 -0.7665
17641TIP3    H274339   2.234   0.764   5.865  1.3326 -1.0769 -0.7602
17642TIP3   OH274340   1.063   1.711  11.969 -0.7400  0.5130  0.3610
17642TIP3    H174341   1.102   1.779  11.913 -0.6557  0.0126 -0.1954
17642TIP3    H274342   1.016   1.654  11.908  0.7243 -0.9891  0.5665
17643TIP3   OH274343   4.083   1.233  14.859  0.2476 -0.6806 -0.4697
17643TIP3    H174344   3.989   1.224  14.844  0.4867 -1.9324 -1.3744
17643TIP3    H274345   4.091   1.252  14.953 -0.9466  0.5054 -0.5864
17644TIP3   OH274346   3.591   3.828  13.823  0.3616  0.4125  0.5967
17644TIP3    H174347   3.522   3.774  13.785  1.1525  0.1374 -0.5125
17644TIP3    H274348   3.672   3.793  13.785  1.1093  0.7235  1.8713
17645TIP3   OH274349   4.684   3.043  15.560  0.2900 -0.3746 -0.1363
17645TIP3    H174350   4.718   3.088  15.482 -0.0424 -0.5763 -0.3969
17645TIP3    H274351   4.744   2.970  15.575  2.1379  1.3451  1.5549
17646TIP3   OH274352   3.427   3.151  13.796  0.4853  0.3302 -0.1038
17646TIP3    H174353   3.435   3.244  13.771  1.3701  0.0934 -0.7814
17646TIP3    H274354   3.357   3.149  13.861 -0.0815  1.3691 -0.6555
17647TIP3   OH274355   3.681   1.524  15.160 -0.0221 -0.0600 -0.3322
17647TIP3    H174356   3.738   1.546  15.087 -1.4283 -0.3648 -1.5777
17647TIP3    H274357   3.604   1.580  15.148 -0.8837 -1.1116  0.0933
17648TIP3   OH274358   6.576   4.905   0.095  0.0071 -0.0183  0.4121
17648TIP3    H174359   6.484   4.913   0.120 -0.2142  1.6939 -0.7720
17648TIP3    H274360   6.576   4.838   0.026 -0.1778 -0.7573  1.1159
17649TIP3   OH274361   6.515   3.028   3.870  0.1887  0.4330 -0.2533
17649TIP3    H174362   6.494   3.122   3.877  0.8826  0.4802  3.5834
17649TIP3    H274363   6.430   2.986   3.855 -0.6596  1.5258  1.1786
17650TIP3   OH274364   5.613   4.377   4.352 -0.2416 -0.5158 -0.2435
17650TIP3    H174365   5.587   4.321   4.424  0.4324 -0.7613 -0.1856
17650TIP3    H274366   5.546   4.446   4.349 -0.2884 -0.5239  0.5852
17651TIP3   OH274367   3.368   5.764   2.541 -0.3332  0.1073 -0.2409
17651TIP3    H174368   3.342   5.847   2.500 -2.8017 -0.5404 -0.1382
17651TIP3    H274369   3.348   5.777   2.634  1.6458  0.2203  0.2170
17652TIP3   OH274370   5.468   5.588  11.174  0.0687 -0.2569  0.1875
17652TIP3    H174371   5.460   5.612  11.082 -2.0809 -0.4439  0.2796
17652TIP3    H274372   5.562   5.596  11.193  0.1834  3.1250 -1.1083
17653TIP3   OH274373   6.049   2.029   0.082  0.4138  0.1702  0.2029
17653TIP3    H174374   5.963   1.994   0.107  0.5462  0.6304  1.3473
17653TIP3    H274375   6.090   1.958   0.033 -2.0120  1.1500 -3.7049
17654TIP3   OH274376   2.281   2.056   4.209  0.5216  0.3594 -0.5286
17654TIP3    H174377   2.288   2.074   4.303  0.3475 -0.0006 -0.4438
17654TIP3    H274378   2.366   2.079   4.173  0.6452  0.3354 -0.2525
17655TIP3   OH274379   2.961   2.509  16.246 -0.4073  0.6585  0.4547
17655TIP3    H174380   2.928   2.578  16.304 -1.1402 -1.5799  2.8953
17655TIP3    H274381   2.905   2.513  16.169 -0.2750  2.8726  0.4129
17656TIP3   OH274382   4.439   2.750  12.472 -0.1884  0.1122 -0.3302
17656TIP3    H174383   4.463   2.688  12.541  0.0474  0.9045  0.3071
17656TIP3    H274384   4.430   2.695  12.394  2.6865 -0.4414 -0.4126
17657TIP3   OH274385   1.716   4.794  15.508 -0.2141  0.0400  0.2597
17657TIP3    H174386   1.760   4.714  15.482  1.1158  0.6391  0.5785
17657TIP3    H274387   1.753   4.815  15.594  0.1440  1.4759 -0.2147
17658TIP3   OH274388   2.808   6.422   5.484  0.0159  0.4308 -0.1425
17658TIP3    H174389   2.731   6.440   5.430  1.5197  1.3657 -2.1059
17658TIP3    H274390   2.851   6.507   5.494  1.3114 -0.2210  0.0843
17659TIP3   OH274391   4.813   3.644  13.010  0.0722 -0.1148 -0.0310
17659TIP3    H174392   4.721   3.658  12.991 -0.3855 -1.1356  1.3622
17659TIP3    H274393   4.834   3.560  12.969  0.6928  0.6125 -1.2732
17660TIP3   OH274394   6.661   1.391   1.996 -0.5936  0.3127 -0.0391
17660TIP3    H174395   6.587   1.386   1.935 -0.2693  1.6765 -0.5924
17660TIP3    H274396   6.688   1.483   1.992 -0.3303  0.3544  1.8988
17661TIP3   OH274397   6.335   5.321   1.894  0.5330  0.6787  0.1039
17661TIP3    H174398   6.411   5.272   1.863  0.3097 -0.5793  1.4277
17661TIP3    H274399   6.371   5.406   1.922  1.3624  0.2931  0.2193
17662TIP3   OH274400   1.015   4.074  16.162 -0.2369  0.5522  0.2112
17662TIP3    H174401   0.946   4.060  16.097 -0.2627 -0.2669  0.4066
17662TIP3    H274402   0.976   4.135  16.226  0.1439  2.2025 -1.0590
17663TIP3   OH274403   2.834   0.455   0.949 -0.2407 -0.2748 -0.4293
17663TIP3    H174404   2.899   0.411   1.005 -0.1270 -1.3888 -1.3978
17663TIP3    H274405   2.762   0.392   0.943 -0.4249 -0.0014 -1.1913
17664TIP3   OH274406   4.608   5.537  13.936 -0.0574  0.5661  0.1513
17664TIP3    H174407   4.603   5.546  13.841  0.6362  0.6642  0.1209
17664TIP3    H274408   4.641   5.621  13.967 -0.6335  0.6640  0.5166
17665TIP3   OH274409   4.856   1.590   2.118 -0.7596  0.1612 -0.2695
17665TIP3    H174410   4.835   1.638   2.199 -2.7412 -0.9629 -0.0559
17665TIP3    H274411   4.949   1.572   2.125 -0.6848  0.9451  1.3102
17666TIP3   OH274412   4.262   5.311  10.961  0.0993 -0.1363  0.2537
17666TIP3    H174413   4.255   5.383  11.023 -1.3448 -0.6615  0.7572
17666TIP3    H274414   4.356   5.299  10.948  0.3797  1.1242  0.9883
17667TIP3   OH274415   3.712   2.444  16.236 -0.0774  0.3751  0.6970
17667TIP3    H174416   3.642   2.465  16.175 -1.5361  1.3696  2.6037
17667TIP3    H274417   3.750   2.529  16.259  1.2914 -0.0954  0.2515
17668TIP3   OH274418   1.526   3.436   4.138 -0.6870 -0.0708  0.1743
17668TIP3    H174419   1.441   3.449   4.095 -2.1050 -1.9735  2.1672
17668TIP3    H274420   1.533   3.510   4.199 -0.7056  0.3152 -0.2863
17669TIP3   OH274421   2.591   4.534  15.181  0.6000 -0.2230 -0.1337
17669TIP3    H174422   2.614   4.499  15.095  0.4179  1.8783 -1.0999
17669TIP3    H274423   2.660   4.502  15.239  0.0095 -2.8010 -0.7029
17670TIP3   OH274424   4.889   2.237  12.898 -0.9460  0.0974  0.0029
17670TIP3    H174425   4.881   2.174  12.969  0.6473 -0.7973 -0.5415
17670TIP3    H274426   4.957   2.298  12.927 -0.9603  0.2853 -0.3460
17671TIP3   OH274427   1.179   5.088  16.966  0.1352 -0.1695 -0.0553
17671TIP3    H174428   1.100   5.112  17.014 -0.9135 -0.2651 -1.6700
17671TIP3    H274429   1.175   4.993  16.959 -0.2011 -0.0977 -1.0690
17672TIP3   OH274430   0.686   4.860  11.814  0.5485  0.2720 -0.2161
17672TIP3    H174431   0.683   4.951  11.787  2.7820  0.6233  0.5266
17672TIP3    H274432   0.621   4.853  11.883  1.0249  1.5536  0.3815
17673TIP3   OH274433   4.529   5.153  16.345 -0.1866  0.3819  0.1541
17673TIP3    H174434   4.519   5.059  16.358  1.4903  0.2290  0.4996
17673TIP3    H274435   4.576   5.184  16.422  0.7941  1.2164 -0.7488
17674TIP3   OH274436   3.766   5.501   0.893  0.6223  0.0431  0.3335
17674TIP3    H174437   3.804   5.442   0.959  0.1882 -1.8810 -1.0375
17674TIP3    H274438   3.841   5.539   0.849  0.9308 -0.1358  0.6972
17675TIP3   OH274439   4.667   5.517  16.915  0.6526  0.5059 -0.0512
17675TIP3    H174440   4.595   5.527  16.977  1.6008 -0.3300  1.2435
17675TIP3    H274441   4.625   5.488  16.834 -0.6914  2.2379 -0.0441
17676TIP3   OH274442   0.186   4.585   4.709  0.3934  0.5897 -0.1590
17676TIP3    H174443   0.183   4.548   4.621  1.3329 -3.8102  1.4073
17676TIP3    H274444   0.240   4.664   4.700  0.3118  0.4051 -3.5029
17677TIP3   OH274445   2.175   1.171   1.382  0.6635 -0.4960 -0.0668
17677TIP3    H174446   2.180   1.201   1.291 -1.5561  0.3989  0.0270
17677TIP3    H274447   2.200   1.248   1.433 -1.7243  0.2839  0.0895
17678TIP3   OH274448   2.180   3.273  15.520 -0.3215 -0.2998  0.2409
17678TIP3    H174449   2.196   3.290  15.613  0.8547 -0.0676  0.0074
17678TIP3    H274450   2.106   3.213  15.519 -0.2774 -0.3860  1.3377
17679TIP3   OH274451   5.332   2.353   6.079  0.1491  0.0718 -0.1863
17679TIP3    H174452   5.354   2.286   6.144  2.3012  1.3304  0.4855
17679TIP3    H274453   5.353   2.313   5.995  1.3828 -0.1677  0.2045
17680TIP3   OH274454   3.515   5.345  15.777  0.3911  0.3966 -0.0268
17680TIP3    H174455   3.557   5.398  15.845  0.0847 -0.7000  1.0493
17680TIP3    H274456   3.432   5.389  15.760 -0.7615 -0.7530  2.2858
17681TIP3   OH274457   4.805   5.378  17.143  0.3329  0.6155  0.8468
17681TIP3    H174458   4.890   5.422  17.145 -0.2088  1.6727  1.8187
17681TIP3    H274459   4.767   5.402  17.059  2.1650 -2.2675 -0.9662
17682TIP3   OH274460   1.373   2.138   3.218 -0.3435  0.3822 -0.4866
17682TIP3    H174461   1.449   2.114   3.165  0.4326  0.8279  0.3846
17682TIP3    H274462   1.298   2.123   3.161  0.1877 -2.4314 -0.6013
17683TIP3   OH274463   6.661   3.727   4.365  0.5417  0.3574 -0.0243
17683TIP3    H174464   6.598   3.670   4.322 -0.4273  1.6106 -0.3113
17683TIP3    H274465   6.646   3.813   4.328  0.6920  1.1918  1.7344
17684TIP3   OH274466   5.002   0.471   0.612 -0.6096 -0.1585  0.1448
17684TIP3    H174467   4.918   0.516   0.603 -0.1931  0.8072  0.9140
17684TIP3    H274468   5.052   0.525   0.673 -0.5677 -2.3518  2.1917
17685TIP3   OH274469   5.451   5.868   0.834 -0.1550  0.0708 -0.7708
17685TIP3    H174470   5.523   5.924   0.864 -2.0261  2.2448 -0.0743
17685TIP3    H274471   5.372   5.909   0.870 -1.7702 -2.2146 -1.4998
17686TIP3   OH274472   4.169   1.890   0.853 -0.1754  0.5237 -0.0146
17686TIP3    H174473   4.263   1.890   0.831 -0.6327  0.1543 -2.2346
17686TIP3    H274474   4.131   1.824   0.794 -1.7494  0.1705  1.3246
17687TIP3   OH274475   4.117   5.097  13.244 -0.2082 -0.1766 -0.0234
17687TIP3    H174476   4.086   5.131  13.159 -1.2291 -0.4916  0.2002
17687TIP3    H274477   4.041   5.105  13.301  0.9176  1.5158  1.3432
17688TIP3   OH274478   6.212   6.011   5.440  0.2743 -0.3544  0.0600
17688TIP3    H174479   6.253   5.958   5.509 -0.5749 -0.1522  0.7424
17688TIP3    H274480   6.185   5.948   5.374  1.3425 -0.5261 -0.2319
17689TIP3   OH274481   2.924   0.977   5.056  0.1005 -0.0507  0.1369
17689TIP3    H174482   2.930   0.892   5.099 -3.2690 -0.5643 -0.1214
17689TIP3    H274483   2.969   0.965   4.972 -1.0656 -1.9170 -0.2807
17690TIP3   OH274484   2.297   1.902   5.848  0.3877  0.0210 -0.2087
17690TIP3    H174485   2.262   1.965   5.786  0.0375 -0.3504 -0.3946
17690TIP3    H274486   2.251   1.920   5.930 -1.0813 -1.1617 -0.7179
17691TIP3   OH274487   5.150   6.085   2.275 -0.0575  0.1357 -0.3220
17691TIP3    H174488   5.112   6.131   2.350 -0.6161 -1.2178  0.2696
17691TIP3    H274489   5.174   5.999   2.309  0.9230 -0.0485 -1.3921
17692TIP3   OH274490   3.989   5.998  15.602  0.2982 -0.0378  0.8258
17692TIP3    H174491   4.022   5.926  15.548  0.5125 -0.2814  1.2812
17692TIP3    H274492   3.967   5.957  15.686  1.6531  0.6310  1.5443
17693TIP3   OH274493   4.503   0.909   2.936 -0.0986 -0.2522 -0.4654
17693TIP3    H174494   4.579   0.871   2.893  0.3040 -0.9003  0.7712
17693TIP3    H274495   4.463   0.836   2.984 -1.1804  0.1982 -0.6524
17694TIP3   OH274496   1.436   0.248   0.610 -0.2199 -0.4860  0.4900
17694TIP3    H174497   1.427   0.276   0.701  1.7530 -0.0789  0.5987
17694TIP3    H274498   1.519   0.286   0.581 -1.4117  0.4554 -1.8995
17695TIP3   OH274499   3.851   5.407  13.380 -0.2713 -0.1803  0.0483
17695TIP3    H174500   3.917   5.469  13.349 -1.1032  1.4696  1.4416
17695TIP3    H274501   3.844   5.423  13.474 -1.4349 -1.5187  0.2307
17696TIP3   OH274502   2.295   2.736  14.145 -0.5446  0.1292  0.6300
17696TIP3    H174503   2.262   2.825  14.156 -2.0547  0.0807 -2.4930
17696TIP3    H274504   2.384   2.748  14.110  0.4126  0.2943  2.9320
17697TIP3   OH274505   1.935   4.704  13.903 -0.0730 -0.3583  0.1151
17697TIP3    H174506   1.960   4.703  13.995 -1.1260  2.2300  0.5056
17697TIP3    H274507   1.908   4.613  13.885  0.0887 -0.9106  2.3602
17698TIP3   OH274508   2.260   6.316  15.329 -0.5817 -0.5654  0.0982
17698TIP3    H174509   2.213   6.368  15.263  2.2251  0.5490 -1.1786
17698TIP3    H274510   2.235   6.226  15.310 -2.9598  0.0032  0.1775
17699TIP3   OH274511   5.799   0.905  11.564 -0.3849 -0.1806 -0.3422
17699TIP3    H174512   5.852   0.906  11.484  0.3519  1.2361  0.1160
17699TIP3    H274513   5.709   0.904  11.533 -0.1415 -2.2175 -1.1486
17700TIP3   OH274514   3.107   0.840   1.338 -0.3725 -0.1037 -0.2098
17700TIP3    H174515   3.163   0.878   1.271 -0.2385 -1.0907 -0.6748
17700TIP3    H274516   3.116   0.745   1.327  1.0455 -0.3692  2.3349
17701TIP3   OH274517   1.250   5.323  11.470 -0.0840  0.4579  0.2235
17701TIP3    H174518   1.237   5.299  11.561  0.5735  0.0488  0.2205
17701TIP3    H274519   1.229   5.416  11.465 -4.7335 -0.3916 -0.1637
17702TIP3   OH274520   3.509   5.787  12.200 -0.0429  0.1626 -0.2204
17702TIP3    H174521   3.477   5.836  12.276  0.5165 -0.1251  0.2169
17702TIP3    H274522   3.574   5.845  12.160  0.1318  0.0569 -0.0944
17703TIP3   OH274523   5.980   1.778  14.240  0.1802  0.3944 -0.0149
17703TIP3    H174524   5.935   1.840  14.183  0.4790  0.4498 -0.1918
17703TIP3    H274525   5.919   1.765  14.313 -1.6102 -2.0380 -1.7650
17704TIP3   OH274526   5.248   5.774  17.024 -0.2718  0.3791 -0.6290
17704TIP3    H174527   5.154   5.763  17.017 -0.1802 -0.0193 -1.3417
17704TIP3    H274528   5.260   5.867  17.045 -0.7724  0.7703 -1.9728
17705TIP3   OH274529   5.336   3.385  15.159  0.4535 -0.0739  0.2085
17705TIP3    H174530   5.400   3.404  15.227  1.3411 -1.0166 -0.3216
17705TIP3    H274531   5.385   3.391  15.077 -0.5152  0.7147 -0.3326
17706TIP3   OH274532   0.845   2.841   4.506 -0.4366  0.0576  0.3111
17706TIP3    H174533   0.782   2.900   4.547 -0.3566  0.3702 -0.0185
17706TIP3    H274534   0.929   2.886   4.513 -0.3696 -0.0294  0.0860
17707TIP3   OH274535   3.963   0.878  15.615 -0.1307 -0.5315  0.5775
17707TIP3    H174536   3.868   0.879  15.628 -0.4957  1.4107 -1.5464
17707TIP3    H274537   3.993   0.957  15.659  0.3826 -0.6575  0.4517
17708TIP3   OH274538   1.558   4.125   3.029 -0.5651  0.3107  0.3358
17708TIP3    H174539   1.474   4.090   3.059 -0.4804 -0.1030  0.1010
17708TIP3    H274540   1.541   4.157   2.941 -0.5512  0.5225  0.4093
17709TIP3   OH274541   6.158   2.073  13.774  0.2155 -0.2228 -0.1073
17709TIP3    H174542   6.205   2.069  13.691 -1.2767  2.5147 -1.2006
17709TIP3    H274543   6.215   2.124  13.831 -0.6744  1.8853 -0.9943
17710TIP3   OH274544   4.053   1.156   3.815 -0.0297 -1.1348  0.1628
17710TIP3    H174545   4.009   1.224   3.763  0.0945 -2.9278 -2.5062
17710TIP3    H274546   4.138   1.145   3.772  0.7455 -1.6341  1.7679
17711TIP3   OH274547   3.144   0.564   1.649 -0.3421 -0.2685  0.4987
17711TIP3    H174548   3.056   0.543   1.616 -0.1122  0.5036 -0.6480
17711TIP3    H274549   3.191   0.480   1.646  0.1681  0.0057 -2.7781
17712TIP3   OH274550   3.850   4.428  11.869 -0.3120  0.0469 -0.1371
17712TIP3    H174551   3.805   4.493  11.815 -1.1128  0.3086  0.8128
17712TIP3    H274552   3.914   4.478  11.918  0.2692 -0.1596 -0.6765
17713TIP3   OH274553   5.385   2.509  15.944 -0.3514 -0.0621 -0.7247
17713TIP3    H174554   5.329   2.582  15.921  2.9292  2.7237 -0.7190
17713TIP3    H274555   5.393   2.513  16.039 -0.8903 -1.1088 -0.6151
17714TIP3   OH274556   6.078   0.275  16.955  0.0179 -0.0967 -0.1496
17714TIP3    H174557   6.079   0.239  17.043  0.4634 -0.1588 -0.1799
17714TIP3    H274558   5.998   0.239  16.915 -1.8648  2.3025  1.1995
17715TIP3   OH274559   5.561   3.670   2.937 -0.2531  0.1479 -0.1117
17715TIP3    H174560   5.487   3.610   2.937 -0.5898  0.5399 -1.5892
17715TIP3    H274561   5.635   3.617   2.966 -0.9084 -0.4831  0.4550
17716TIP3   OH274562   6.530   1.747  11.406 -0.5100 -0.7330  0.1529
17716TIP3    H174563   6.573   1.685  11.464  0.0009 -2.1692 -1.6554
17716TIP3    H274564   6.439   1.746  11.433 -0.0911 -0.4602  1.6616
17717TIP3   OH274565   3.823   3.854   0.359 -0.0641  0.0306  0.2459
17717TIP3    H174566   3.887   3.808   0.414  0.1606 -2.5013 -1.9479
17717TIP3    H274567   3.876   3.896   0.291 -0.4691  1.7127  0.9133
17718TIP3   OH274568   3.496   4.149   4.469 -0.0095 -0.0110  0.1408
17718TIP3    H174569   3.455   4.067   4.442 -2.2718  0.9286  0.4935
17718TIP3    H274570   3.489   4.206   4.393  2.2619 -0.2917 -0.3780
17719TIP3   OH274571   2.495   6.449  12.728  0.1162 -0.1719 -0.4994
17719TIP3    H174572   2.449   6.448  12.812 -3.0610  0.1636 -2.0757
17719TIP3    H274573   2.435   6.406  12.667  2.0909  0.0059 -2.7254
17720TIP3   OH274574   4.321   5.807  16.884 -0.5482 -0.7322  0.9468
17720TIP3    H174575   4.331   5.718  16.852  0.5368 -0.5604  0.7780
17720TIP3    H274576   4.410   5.837  16.900 -0.6203  1.3799 -1.8878
17721TIP3   OH274577   2.415   0.383  11.412 -0.6223  0.0784 -0.2603
17721TIP3    H174578   2.349   0.353  11.351  0.3666 -0.4194 -1.1071
17721TIP3    H274579   2.493   0.398  11.359  0.1667 -0.0401  0.8151
17722TIP3   OH274580   3.189   1.110  16.346 -0.2014  1.0235 -0.7427
17722TIP3    H174581   3.167   1.195  16.309 -2.2962  0.5249 -0.7571
17722TIP3    H274582   3.165   1.116  16.438  0.6762  0.7668 -0.4790
17723TIP3   OH274583   5.908   3.622   0.260 -0.0585  0.4097 -0.6381
17723TIP3    H174584   5.992   3.618   0.306  0.2544 -2.7164 -1.2759
17723TIP3    H274585   5.847   3.577   0.318 -0.5750 -0.0538 -1.5200
17724TIP3   OH274586   0.411   5.100   5.791  0.1575  0.3105  0.1456
17724TIP3    H174587   0.416   5.005   5.799 -0.4190  0.3367  1.0244
17724TIP3    H274588   0.454   5.133   5.870  0.8743  0.7990 -0.4331
17725TIP3   OH274589   3.547   4.952  11.849  0.1276 -0.0765  0.2454
17725TIP3    H174590   3.560   4.905  11.766 -1.9169  0.6501 -0.5435
17725TIP3    H274591   3.482   4.900  11.896  1.4213 -0.5969  1.5538
17726TIP3   OH274592   3.908   0.975  10.856  0.3258 -0.3647 -0.0309
17726TIP3    H174593   3.816   1.000  10.856  0.0509 -1.3259 -0.1899
17726TIP3    H274594   3.950   1.037  10.796 -0.4156 -0.5648 -0.7719
17727TIP3   OH274595   1.161   5.008   2.203  0.1095 -0.4598  0.6948
17727TIP3    H174596   1.106   5.086   2.192  2.7753  1.1694 -2.5841
17727TIP3    H274597   1.164   4.968   2.116  0.0084 -3.5329  1.9720
17728TIP3   OH274598   1.185   3.788   3.932  0.0667  0.4301  0.2108
17728TIP3    H174599   1.102   3.765   3.890  0.6071 -1.2418 -0.0114
17728TIP3    H274600   1.166   3.870   3.979 -1.2916  0.8662 -1.0147
17729TIP3   OH274601   1.186   4.924  13.896 -0.0263  0.1248 -0.2297
17729TIP3    H174602   1.234   4.894  13.819  1.0434  0.4228  0.2978
17729TIP3    H274603   1.096   4.895  13.882  0.6612 -2.1416 -0.3622
17730TIP3   OH274604   0.781   6.100   6.056 -0.1917  0.2958 -0.0652
17730TIP3    H174605   0.754   6.190   6.035  1.1364  1.3156  2.1866
17730TIP3    H274606   0.876   6.100   6.041 -0.1655 -0.7021  0.0882
17731TIP3   OH274607   5.688   6.192  11.794 -0.4697  0.7218  0.8948
17731TIP3    H174608   5.757   6.155  11.739 -1.9062 -0.3332 -0.2933
17731TIP3    H274609   5.732   6.257  11.848  1.0445  1.7503 -1.4403
17732TIP3   OH274610   3.545   4.619   4.978 -0.2130  0.0744  0.1524
17732TIP3    H174611   3.545   4.582   4.889  0.5143 -0.8825  0.5454
17732TIP3    H274612   3.461   4.665   4.983 -0.0445  0.6011 -1.2146
17733TIP3   OH274613   3.918   0.994   5.030 -0.0142  0.0389 -0.2104
17733TIP3    H174614   3.933   0.980   4.936 -1.3340 -0.4114 -0.3677
17733TIP3    H274615   3.921   0.907   5.068  1.9556  0.3411  0.4202
17734TIP3   OH274616   1.134   1.774  16.851  0.1077  0.0162  0.2847
17734TIP3    H174617   1.180   1.691  16.860 -3.0778 -1.7822  1.5656
17734TIP3    H274618   1.191   1.827  16.795  3.0390 -2.3889  0.7423
17735TIP3   OH274619   0.158   5.911   2.021 -0.6370 -0.0463  0.5449
17735TIP3    H174620   0.192   5.823   2.001  1.4426  1.0084 -1.0188
17735TIP3    H274621   0.084   5.922   1.961 -1.5827 -1.0729  1.4782
17736TIP3   OH274622   1.444   0.009   2.510 -0.7425 -0.1944  0.1515
17736TIP3    H174623   1.537  -0.008   2.499 -0.7610 -0.9832  1.1284
17736TIP3    H274624   1.402  -0.039   2.438 -0.4521 -0.4366  0.1406
17737TIP3   OH274625   0.051   1.201  15.611  0.0417  0.8688 -0.1907
17737TIP3    H174626   0.040   1.294  15.592 -1.7730  0.4201 -1.5856
17737TIP3    H274627   0.051   1.159  15.526  0.6682 -0.4339  0.4340
17738TIP3   OH274628   5.859   5.576  14.882  0.1101  0.0806  0.2314
17738TIP3    H174629   5.824   5.663  14.903 -0.7436  0.2332 -1.6450
17738TIP3    H274630   5.930   5.563  14.945 -1.7685  0.7663  2.6272
17739TIP3   OH274631   6.635   4.066   3.025 -0.7273 -0.6084 -0.6613
17739TIP3    H174632   6.584   3.988   3.001 -0.5812 -0.0998 -2.8508
17739TIP3    H274633   6.673   4.096   2.942  0.7884  0.6961  0.4476
17740TIP3   OH274634   2.357   1.079  14.235  0.2933 -0.1201 -0.1199
17740TIP3    H174635   2.333   1.044  14.150  0.5328  0.7071 -0.5356
17740TIP3    H274636   2.304   1.029  14.297 -0.3218 -0.3194 -0.7934
17741TIP3   OH274637   2.289   3.466   1.049  0.8962 -0.4629 -0.3332
17741TIP3    H174638   2.244   3.428   0.972  0.1021  1.9332 -1.1312
17741TIP3    H274639   2.218   3.482   1.111  1.2058 -0.1692 -0.0609
17742TIP3   OH274640   2.500   2.653  14.737  0.0988 -0.2506  0.1353
17742TIP3    H174641   2.477   2.746  14.737  0.6712 -0.0069 -3.0008
17742TIP3    H274642   2.420   2.608  14.710  0.7641 -0.2542 -1.9862
17743TIP3   OH274643   6.118   6.229  13.145  0.7391 -0.0358  0.2436
17743TIP3    H174644   6.163   6.147  13.168 -1.4261 -0.6745  2.7604
17743TIP3    H274645   6.159   6.295  13.201  2.0511  0.5375 -1.3252
17744TIP3   OH274646   1.488   3.172   0.615  0.5866 -0.2183  0.4756
17744TIP3    H174647   1.533   3.110   0.558  0.9886 -1.8451  2.4525
17744TIP3    H274648   1.437   3.118   0.675 -1.9528  1.5104  0.0162
17745TIP3   OH274649   3.632   2.517   2.086  0.4712 -0.4315 -0.0626
17745TIP3    H174650   3.656   2.475   2.003  1.2220  0.5432 -0.3577
17745TIP3    H274651   3.655   2.453   2.153 -0.9262 -1.5824 -0.6289
17746TIP3   OH274652   1.948   0.667   3.728 -0.2325 -0.4126  0.4339
17746TIP3    H174653   2.022   0.691   3.672  0.0684  0.0780  1.0243
17746TIP3    H274654   1.944   0.572   3.724  0.1914 -0.4179  0.0950
17747TIP3   OH274655   2.851   3.833  13.756 -0.0203 -0.0053 -0.6512
17747TIP3    H174656   2.912   3.766  13.787 -0.9939  0.4816  2.7799
17747TIP3    H274657   2.791   3.787  13.697  1.9813 -1.0614 -1.9632
17748TIP3   OH274658   1.548   6.378  12.168  0.4016  0.1630  0.0436
17748TIP3    H174659   1.471   6.328  12.139 -0.6232  2.3556 -1.2506
17748TIP3    H274660   1.602   6.313  12.213 -1.9519 -1.5925  0.5918
17749TIP3   OH274661   2.155   3.401   1.588  0.4514  0.0018  0.3981
17749TIP3    H174662   2.249   3.419   1.579  0.9930 -0.4423  3.9251
17749TIP3    H274663   2.150   3.327   1.648 -2.1881  0.0349  0.3331
17750TIP3   OH274664   6.649   5.790  16.994  0.0801  0.1067 -0.3579
17750TIP3    H174665   6.588   5.731  17.038  0.3196  0.7675  0.9223
17750TIP3    H274666   6.607   5.876  16.999  0.5085  0.3388 -0.6635
17751TIP3   OH274667   6.221   2.383  14.358  0.4076  0.1528 -0.4439
17751TIP3    H174668   6.143   2.414  14.314  0.0074  0.6564  0.5789
17751TIP3    H274669   6.223   2.288  14.342 -1.0329 -0.0504  0.4453
17752TIP3   OH274670   4.446   2.454  11.201 -0.5484 -0.7559  0.3942
17752TIP3    H174671   4.427   2.373  11.154  1.1280 -0.8655 -0.1489
17752TIP3    H274672   4.389   2.450  11.279 -2.5198 -1.0982 -0.9938
17753TIP3   OH274673   6.554   4.764   1.350  0.7811 -0.4024 -0.0258
17753TIP3    H174674   6.520   4.741   1.437  2.2879 -0.7355  0.4995
17753TIP3    H274675   6.543   4.859   1.345 -1.2030 -0.6050 -0.3309
17754TIP3   OH274676   3.467   4.527  11.602  0.0306  0.5341  0.6384
17754TIP3    H174677   3.508   4.510  11.686  0.5882  0.4017  0.3447
17754TIP3    H274678   3.409   4.452  11.587  0.3662  0.2770  0.6371
17755TIP3   OH274679   1.153   5.713  17.191  0.4926 -0.4187  0.3286
17755TIP3    H174680   1.094   5.768  17.242 -0.1305 -1.5343  0.8401
17755TIP3    H274681   1.222   5.688  17.252  0.9384  0.0276  0.0154
17756TIP3   OH274682   5.421   2.853  14.544  0.0462 -0.1984 -0.2044
17756TIP3    H174683   5.372   2.884  14.620 -0.1651  0.4571 -0.5997
17756TIP3    H274684   5.374   2.889  14.469 -0.6487 -2.0903 -0.7312
17757TIP3   OH274685   3.828   6.307   2.028  0.3258 -0.1840  0.3911
17757TIP3    H174686   3.774   6.300   1.949 -0.8319 -0.2959  1.1638
17757TIP3    H274687   3.917   6.287   1.998 -0.1776 -0.8028 -0.7707
17758TIP3   OH274688   0.966   2.781   5.377  0.1000 -0.1004  0.1697
17758TIP3    H174689   1.028   2.708   5.370 -0.5609 -0.6351 -0.2352
17758TIP3    H274690   0.881   2.742   5.356 -0.5252  0.4072  1.6702
17759TIP3   OH274691   3.663   2.391   5.055 -0.4299 -0.4582 -0.1487
17759TIP3    H174692   3.745   2.433   5.030  0.1587 -0.9537  0.8793
17759TIP3    H274693   3.607   2.399   4.978  1.4610 -2.4184 -1.8629
17760TIP3   OH274694   0.099   0.093   3.381  0.2883  0.1353 -0.5773
17760TIP3    H174695   0.024   0.086   3.440  0.7184  1.5264  0.1627
17760TIP3    H274696   0.136   0.004   3.379  0.9763  0.2782  2.2050
17761TIP3   OH274697   3.758   1.721   2.510  0.3553 -0.4207 -0.9194
17761TIP3    H174698   3.686   1.783   2.496  0.9422  0.4366 -0.2365
17761TIP3    H274699   3.738   1.680   2.595  0.1310 -0.9596 -1.2248
17762TIP3   OH274700   1.836   2.810   1.491 -0.0131 -0.3452  0.3128
17762TIP3    H174701   1.772   2.805   1.562  0.3732 -2.2136  0.5751
17762TIP3    H274702   1.783   2.817   1.412 -0.4845  0.1267  0.6650
17763TIP3   OH274703   0.292   1.171  10.861 -0.7831  0.5422 -1.1194
17763TIP3    H174704   0.207   1.197  10.895 -0.1094 -0.1993  1.3143
17763TIP3    H274705   0.353   1.236  10.896  0.1023 -0.9132  0.1538
17764TIP3   OH274706   2.468   1.412   2.886  0.5458  0.2023  0.0479
17764TIP3    H174707   2.496   1.390   2.797  2.0933 -0.9894  0.7821
17764TIP3    H274708   2.536   1.473   2.918  0.3787  0.0768  0.6500
17765TIP3   OH274709   1.006   4.621  16.921 -0.5186  0.3423  0.3281
17765TIP3    H174710   0.913   4.613  16.943 -0.8126  0.7044 -0.6886
17765TIP3    H274711   1.052   4.572  16.989 -1.3931  0.9088  1.3567
17766TIP3   OH274712   6.029   5.296  15.396 -0.1555  0.4576  0.1098
17766TIP3    H174713   6.114   5.280  15.437 -0.4949 -0.3828  0.5240
17766TIP3    H274714   5.967   5.299  15.469 -0.5192  0.7785 -0.2076
17767TIP3   OH274715   0.020   0.085  14.675 -0.3721  0.1594 -0.1551
17767TIP3    H174716   0.030   0.059  14.767 -0.5430 -0.8696 -0.4186
17767TIP3    H274717   0.091   0.148  14.661  2.0733 -2.4027 -0.2946
17768TIP3   OH274718   2.600   2.796  15.885  0.2502  0.0429  0.3713
17768TIP3    H174719   2.510   2.826  15.878 -0.0658  0.1327  3.4329
17768TIP3    H274720   2.650   2.876  15.903  0.8690 -0.0828 -0.7251
17769TIP3   OH274721   0.420   2.781  13.585 -0.0626  0.1162 -0.6989
17769TIP3    H174722   0.477   2.710  13.614 -0.0850  0.0268 -0.8720
17769TIP3    H274723   0.444   2.855  13.640 -0.5954 -0.2437  0.0410
17770TIP3   OH274724   3.342   2.213   0.142 -0.0883 -0.2487 -0.3011
17770TIP3    H174725   3.428   2.179   0.167  0.9518 -0.0149 -3.1770
17770TIP3    H274726   3.301   2.141   0.094 -1.2537 -0.0987  0.4252
17771TIP3   OH274727   3.422   6.590  13.796 -0.1039 -0.2047 -0.3268
17771TIP3    H174728   3.451   6.583  13.705  0.4906 -0.0845 -0.1491
17771TIP3    H274729   3.326   6.591  13.790 -0.0649  0.3282 -0.9884
17772TIP3   OH274730   3.728   4.397  13.025  0.3301  0.7558 -0.0890
17772TIP3    H174731   3.760   4.487  13.033 -1.0131  1.2158  0.4683
17772TIP3    H274732   3.667   4.399  12.951  0.0101  0.3919  0.1587
17773TIP3   OH274733   2.222   5.206   0.818  0.6827 -0.1208 -0.4624
17773TIP3    H174734   2.175   5.139   0.768 -0.2044  0.3265 -0.2543
17773TIP3    H274735   2.308   5.211   0.777  0.5208 -0.8948 -0.9173
17774TIP3   OH274736   2.030   0.444  16.045 -0.2740 -0.1871 -0.1272
17774TIP3    H174737   2.083   0.474  15.971 -1.0005  2.4724  0.3347
17774TIP3    H274738   1.947   0.419  16.007  0.3229 -1.6918 -0.5140
17775TIP3   OH274739   3.006   1.293   0.661  0.3994 -0.1582 -0.1875
17775TIP3    H174740   3.061   1.243   0.721  0.4308  0.7490  0.5524
17775TIP3    H274741   2.999   1.380   0.700  1.4276  0.8606 -2.1014
17776TIP3   OH274742   3.937   4.873  12.636  0.3392 -0.1747 -0.3683
17776TIP3    H174743   3.970   4.836  12.554  2.5264 -1.6409  1.0893
17776TIP3    H274744   3.953   4.966  12.628  1.6294 -0.4422 -1.1342
17777TIP3   OH274745   1.325   1.104  12.425 -0.2441  0.2838  0.3191
17777TIP3    H174746   1.323   1.132  12.517 -1.2416 -1.2095  0.7916
17777TIP3    H274747   1.384   1.029  12.424  0.7367  1.0273 -0.5295
17778TIP3   OH274748   4.096   5.504   0.052 -0.3343 -0.2909 -0.0309
17778TIP3    H174749   4.117   5.567   0.121  0.7289 -0.3541 -0.2690
17778TIP3    H274750   4.053   5.557  -0.016  1.2303  0.3611 -0.5606
17779TIP3   OH274751   3.115   2.077   3.153 -0.0365  0.1778  0.1612
17779TIP3    H174752   3.092   2.063   3.245 -1.4319  2.5681  0.2725
17779TIP3    H274753   3.207   2.103   3.155  0.2969 -0.9794  0.7136
17780TIP3   OH274754   1.780   2.146  14.742  0.3494 -0.4338 -0.5961
17780TIP3    H174755   1.863   2.130  14.788  0.1431 -0.5962 -0.2820
17780TIP3    H274756   1.735   2.210  14.796 -0.5815 -1.7726  0.2690
17781TIP3   OH274757   2.983   6.617   5.603 -0.1958  0.3503 -0.3591
17781TIP3    H174758   3.046   6.644   5.670 -0.6608  0.2832  0.1082
17781TIP3    H274759   2.934   6.697   5.582 -0.4196  0.2497 -0.2201
17782TIP3   OH274760   6.211   3.746  10.791 -0.5860 -0.0872 -0.2015
17782TIP3    H174761   6.229   3.808  10.721  3.3152 -1.6192 -0.7946
17782TIP3    H274762   6.209   3.661  10.748 -1.3278 -0.8084  1.1754
17783TIP3   OH274763   6.118   0.429   6.335 -0.0941  0.2305  0.1960
17783TIP3    H174764   6.134   0.362   6.401 -1.9338 -1.5590 -1.0402
17783TIP3    H274765   6.204   0.449   6.298  0.5071 -1.4551  0.6216
17784TIP3   OH274766   5.908   4.690   1.530 -0.2102 -1.0485 -0.0094
17784TIP3    H174767   5.818   4.665   1.508 -0.4264 -0.8832  0.6714
17784TIP3    H274768   5.908   4.785   1.524 -0.3104 -0.9893  0.8197
17785TIP3   OH274769   4.857   2.790   2.656  0.1984  0.1370 -0.5719
17785TIP3    H174770   4.841   2.873   2.611  1.7184  0.9127  0.1993
17785TIP3    H274771   4.771   2.753   2.671 -0.4909  1.3524 -1.3649
17786TIP3   OH274772   3.118   6.699  16.156 -0.2712 -0.0687  0.2192
17786TIP3    H174773   3.190   6.724  16.098 -0.9190  2.9228  0.5586
17786TIP3    H274774   3.161   6.662  16.233  0.7334 -0.8223 -0.6585
17787TIP3   OH274775   2.921   3.279  10.394  0.8666  0.0015 -0.0413
17787TIP3    H174776   2.972   3.239  10.324  0.6996 -1.1465  0.4741
17787TIP3    H274777   2.974   3.353  10.424  1.5929 -0.3602 -0.4214
17788TIP3   OH274778   5.488   6.737   0.205  0.0380  0.0566  0.2940
17788TIP3    H174779   5.484   6.674   0.133 -2.6810 -0.5447  0.8706
17788TIP3    H274780   5.484   6.822   0.162  0.4711 -0.2249 -0.3255
17789TIP3   OH274781   2.801   6.632   1.836 -0.1403 -0.0194  0.0717
17789TIP3    H174782   2.888   6.636   1.876 -0.7778  0.2602  1.4564
17789TIP3    H274783   2.798   6.708   1.778  0.7571 -0.3802 -0.4821
17790TIP3   OH274784   4.509   1.597  13.856 -0.4526 -0.0841  0.2214
17790TIP3    H174785   4.537   1.545  13.780  0.4719  0.1708  0.3706
17790TIP3    H274786   4.529   1.687  13.831 -2.6222  0.3208 -0.2909
17791TIP3   OH274787   6.095   3.448   4.743  0.1690  0.3476  0.3655
17791TIP3    H174788   6.085   3.465   4.837  0.2117  1.7804  0.1404
17791TIP3    H274789   6.044   3.518   4.701 -0.3920 -0.6597 -0.6827
17792TIP3   OH274790   5.043   2.045  12.749  0.4258 -0.1801 -0.3720
17792TIP3    H174791   5.100   2.112  12.712  0.6492 -0.2847 -0.2199
17792TIP3    H274792   4.986   2.093  12.810  1.6572 -0.3417  0.9662
17793TIP3   OH274793   5.602   5.463   2.175 -0.1124  0.0342 -0.6423
17793TIP3    H174794   5.527   5.404   2.179 -0.4493  0.5487  2.1939
17793TIP3    H274795   5.668   5.423   2.232 -0.2110  2.1551  1.0625
17794TIP3   OH274796   5.141   0.763   4.975  0.2426  0.3816  0.2717
17794TIP3    H174797   5.068   0.785   5.032  0.0446 -2.5856  1.3726
17794TIP3    H274798   5.152   0.668   4.985  3.4284  0.4847 -0.8209
17795TIP3   OH274799   5.690   1.717   2.680 -0.6902 -0.4680  0.3257
17795TIP3    H174800   5.623   1.709   2.749 -1.6924  0.9575 -0.4396
17795TIP3    H274801   5.688   1.631   2.637 -2.9645 -0.1007 -0.4611
17796TIP3   OH274802   5.798   2.640   2.563  0.1787  0.1234  0.0197
17796TIP3    H174803   5.708   2.623   2.590  0.0025  0.1453 -0.5303
17796TIP3    H274804   5.823   2.720   2.609 -0.1301  0.1930  0.0648
17797TIP3   OH274805   5.546   5.485   5.551  0.2720  0.2103 -0.4334
17797TIP3    H174806   5.553   5.560   5.492 -0.7316  1.5318  1.0410
17797TIP3    H274807   5.453   5.483   5.577  0.3575 -1.3053 -0.1123
17798TIP3   OH274808   0.664   6.142   1.032 -0.2033  0.2606  0.0294
17798TIP3    H174809   0.701   6.170   1.115 -0.2688  0.6077 -0.0586
17798TIP3    H274810   0.684   6.212   0.971 -2.2862  1.1920  0.3236
17799TIP3   OH274811   2.004   4.301   3.659  0.2566  0.5695  0.3090
17799TIP3    H174812   2.068   4.342   3.602  1.0567  0.3154  1.0040
17799TIP3    H274813   2.041   4.215   3.679 -1.7171 -0.8893 -1.7402
17800TIP3   OH274814   6.015   2.130   3.433 -0.3949  0.3834  0.3175
17800TIP3    H174815   6.042   2.218   3.458 -2.3079  1.5391 -1.3626
17800TIP3    H274816   6.097   2.082   3.420  0.8669  2.9519 -2.2154
17801TIP3   OH274817   5.371   1.106   2.747  0.3310 -0.0928  0.3533
17801TIP3    H174818   5.448   1.067   2.789  1.9703  2.1886 -0.3690
17801TIP3    H274819   5.339   1.171   2.810 -0.4444 -0.3575  0.2464
17802TIP3   OH274820   0.717   0.984   2.275  0.2540 -0.3827  0.5667
17802TIP3    H174821   0.765   0.904   2.256 -0.0794 -0.3835 -0.3349
17802TIP3    H274822   0.692   1.018   2.189 -1.6120 -0.5372  1.0064
17803TIP3   OH274823   4.370   6.503  15.212 -0.2233  0.2295  0.5137
17803TIP3    H174824   4.418   6.420  15.217 -1.0833 -0.2126  2.0886
17803TIP3    H274825   4.343   6.520  15.302 -0.2794  2.1134  0.1638
17804TIP3   OH274826   4.646   6.617   3.143  0.2616 -0.4622 -0.4673
17804TIP3    H174827   4.612   6.631   3.232  0.9247  0.5424 -0.3510
17804TIP3    H274828   4.585   6.554   3.104 -1.5283  0.9570 -0.1474
17805TIP3   OH274829   5.719   4.914   0.439 -0.4343 -0.4680  0.6822
17805TIP3    H174830   5.686   4.985   0.383 -0.6095  1.2784  2.8754
17805TIP3    H274831   5.808   4.898   0.407 -0.3805  0.7595  0.1469
17806TIP3   OH274832   5.081   1.575   1.233 -0.2514  0.3622 -0.2850
17806TIP3    H174833   5.131   1.601   1.155  0.4361 -2.0028 -0.7135
17806TIP3    H274834   5.029   1.652   1.255 -0.8767  0.9447 -3.3978
17807TIP3   OH274835   6.453   6.558   0.007  0.1427 -0.4215  0.1845
17807TIP3    H174836   6.488   6.542  -0.081 -0.2191 -0.5680  0.0674
17807TIP3    H274837   6.530   6.581   0.059  0.3639 -0.3730 -0.1608
17808TIP3   OH274838   1.508   5.936  16.024 -0.0541 -0.4492  0.3062
17808TIP3    H174839   1.443   5.868  16.041 -0.8258  0.4014  0.8355
17808TIP3    H274840   1.458   6.008  15.983  0.7558 -0.2194 -0.3062
17809TIP3   OH274841   3.665   4.067   0.397  0.5159  1.0433 -0.7303
17809TIP3    H174842   3.713   3.984   0.398 -1.1612 -0.0089  1.3153
17809TIP3    H274843   3.730   4.133   0.373  2.3753 -0.6117 -0.4623
17810TIP3   OH274844   3.690   0.720   5.254  0.0633  0.1429 -0.3598
17810TIP3    H174845   3.692   0.625   5.249  0.0920 -0.1628  3.1282
17810TIP3    H274846   3.597   0.743   5.246 -0.2549 -0.4712  1.1441
17811TIP3   OH274847   0.618   3.728  12.721 -0.0030 -0.2555  0.1862
17811TIP3    H174848   0.695   3.773  12.685 -0.8691  2.2036  1.1901
17811TIP3    H274849   0.567   3.703  12.645  0.6384  0.2740 -0.4350
17812TIP3   OH274850   2.935   0.251   5.474 -0.2042 -0.2987  0.3074
17812TIP3    H174851   2.894   0.329   5.511  0.8560  0.7231 -0.5866
17812TIP3    H274852   3.026   0.254   5.504  0.0915 -0.6586 -0.5055
17813TIP3   OH274853   2.695   3.035  12.223 -0.8219  0.5962 -0.6948
17813TIP3    H174854   2.784   3.013  12.250 -1.2034  0.6282  0.7077
17813TIP3    H274855   2.640   3.000  12.293 -1.8542  1.2277 -1.1612
17814TIP3   OH274856   0.829   5.054   4.179  0.5366 -0.3582 -0.0542
17814TIP3    H174857   0.745   5.100   4.185  1.0092  0.4416  0.7557
17814TIP3    H274858   0.828   5.013   4.092 -0.6917 -0.3832 -0.0466
17815TIP3   OH274859   3.973   3.303  16.237 -0.3714 -0.3745  0.0683
17815TIP3    H174860   3.946   3.230  16.183  0.4880 -0.4916 -0.2191
17815TIP3    H274861   3.927   3.379  16.200 -1.2045 -0.7485  0.3245
17816TIP3   OH274862   4.488   5.896  13.504  0.5709 -0.2430  0.2054
17816TIP3    H174863   4.500   5.955  13.579  2.7105  1.6673 -1.5092
17816TIP3    H274864   4.488   5.953  13.428 -0.8245 -2.1929 -1.3643
17817TIP3   OH274865   2.028   4.404   2.387 -0.5010 -0.4133  0.7593
17817TIP3    H174866   2.017   4.310   2.394  0.4986 -0.7260 -1.1350
17817TIP3    H274867   2.020   4.422   2.293  1.8023  1.0135  0.7529
17818TIP3   OH274868   6.692   0.824  16.233 -0.1079  0.6617 -0.4164
17818TIP3    H174869   6.772   0.798  16.186 -0.6490  1.0515 -1.5880
17818TIP3    H274870   6.622   0.815  16.168 -1.2437 -0.8732  0.9271
17819TIP3   OH274871   6.008   6.703   4.020 -0.0018  0.4181  0.3019
17819TIP3    H174872   6.028   6.741   3.934 -0.6066  0.4519  0.1694
17819TIP3    H274873   6.070   6.632   4.030 -1.3467 -1.0649 -1.1800
17820TIP3   OH274874   2.097   6.798  13.840  0.1111  0.1408  0.5679
17820TIP3    H174875   2.172   6.846  13.805  1.0739 -1.1341  0.8120
17820TIP3    H274876   2.087   6.723  13.781 -1.5048  0.6999  0.0653
17821TIP3   OH274877   0.138   2.401   0.990  0.0452  0.3951  0.5884
17821TIP3    H174878   0.229   2.384   0.962 -0.6231 -1.0230 -0.9160
17821TIP3    H274879   0.113   2.323   1.039 -0.0371  1.2566  1.9625
17822TIP3   OH274880   1.394   0.123  14.806 -0.9342 -0.0746 -0.0394
17822TIP3    H174881   1.473   0.076  14.831 -0.9180  0.3694  0.7702
17822TIP3    H274882   1.376   0.182  14.880 -3.3660 -1.8516  0.9488
17823TIP3   OH274883   4.407   0.201   2.306 -0.5963  0.5387  0.2102
17823TIP3    H174884   4.401   0.293   2.334  2.8974  0.7914  0.5199
17823TIP3    H274885   4.387   0.151   2.386  0.2499  1.1104  0.8007
17824TIP3   OH274886   1.187   5.192  13.688 -0.0624  0.3377 -0.0216
17824TIP3    H174887   1.275   5.161  13.665 -0.6089 -1.6712  0.3554
17824TIP3    H274888   1.132   5.114  13.677 -1.9019  1.6986 -0.8155
17825TIP3   OH274889   6.185   1.974   4.520 -0.1436  0.5167  0.0812
17825TIP3    H174890   6.203   1.900   4.577  2.4673  0.6203 -0.4800
17825TIP3    H274891   6.100   1.954   4.480 -0.2524 -1.3462  1.1548
17826TIP3   OH274892   1.904   2.235   0.354  0.1049 -0.3828  0.2624
17826TIP3    H174893   1.965   2.172   0.316 -1.9711 -0.2390 -3.7755
17826TIP3    H274894   1.831   2.183   0.386 -0.7708 -0.2654 -1.4108
17827TIP3   OH274895   0.597   6.185  16.364 -0.0926 -0.2489 -0.1639
17827TIP3    H174896   0.545   6.214  16.439  1.9226  0.0956  1.2090
17827TIP3    H274897   0.681   6.159  16.403  0.4573 -1.6318 -2.1435
17828TIP3   OH274898   3.676   0.868  16.971 -0.0332  0.6568 -0.2328
17828TIP3    H174899   3.771   0.858  16.958  0.0468  2.6316 -1.7486
17828TIP3    H274900   3.639   0.784  16.946  1.1358  0.7924 -2.7295
17829TIP3   OH274901   0.876   1.827  13.307 -0.0784  0.9369 -0.0353
17829TIP3    H174902   0.892   1.888  13.379  3.5834  0.4049 -0.1984
17829TIP3    H274903   0.871   1.882  13.229  2.1858  1.1757 -0.0565
17830TIP3   OH274904   0.036   2.821   6.352 -0.1102  0.2069  0.9479
17830TIP3    H174905   0.075   2.908   6.344  1.7617 -0.6206  0.4101
17830TIP3    H274906   0.069   2.773   6.275 -0.6634 -1.1433  1.5153
17831TIP3   OH274907   6.036   3.401  14.023 -0.1000 -0.1449 -0.4567
17831TIP3    H174908   6.015   3.326  14.079 -0.4658 -0.9774 -1.6779
17831TIP3    H274909   5.952   3.444  14.007 -0.0802 -0.2227 -0.7847
17832TIP3   OH274910   2.108   1.947  12.002  0.4266 -0.0307  0.4860
17832TIP3    H174911   2.083   1.908  11.918 -1.5248 -1.8016  1.8039
17832TIP3    H274912   2.074   1.887  12.068 -1.0376  2.8992  2.6551
17833TIP3   OH274913   4.209   5.606   6.674  0.9307 -0.3671  0.0199
17833TIP3    H174914   4.126   5.562   6.657  1.4049 -1.3968  0.2985
17833TIP3    H274915   4.259   5.593   6.593  1.1752 -0.5857  0.2057
17834TIP3   OH274916   5.981   0.864   5.353  0.1248 -0.6902  0.0681
17834TIP3    H174917   6.020   0.786   5.393  1.3629  1.0133  2.4531
17834TIP3    H274918   5.944   0.912   5.427 -3.4460 -0.4321 -1.6780
17835TIP3   OH274919   3.476   2.746  10.958  0.2744 -0.0172  0.4603
17835TIP3    H174920   3.389   2.721  10.991 -1.2103  1.4297 -2.0887
17835TIP3    H274921   3.492   2.687  10.885  1.8569 -0.7663  1.3572
17836TIP3   OH274922   2.016   5.381  15.166  0.0545 -0.3047 -0.3727
17836TIP3    H174923   2.082   5.402  15.232  0.2604  0.5496 -0.8201
17836TIP3    H274924   2.036   5.292  15.139  0.4094 -0.4049  0.2047
17837TIP3   OH274925   2.138   6.658   5.619  0.4028 -0.4459  0.3135
17837TIP3    H174926   2.211   6.698   5.572 -0.0390 -0.5621 -0.4987
17837TIP3    H274927   2.157   6.673   5.711  1.0764  0.1784  0.0808
17838TIP3   OH274928   3.223   3.492  16.844 -0.2925  0.0862  0.4802
17838TIP3    H174929   3.261   3.414  16.804 -0.1051 -0.6760  2.0780
17838TIP3    H274930   3.288   3.561  16.830 -0.0146 -0.2895 -0.0788
17839TIP3   OH274931   0.318   0.913  13.262  0.2848 -0.1459  0.3921
17839TIP3    H174932   0.234   0.955  13.279 -0.0874 -0.2912 -0.9865
17839TIP3    H274933   0.381   0.966  13.311 -0.4376  0.7861  0.3474
17840TIP3   OH274934   4.805   4.624  13.479  0.3290 -0.0115  1.0190
17840TIP3    H174935   4.773   4.621  13.389 -0.6445  1.0391  1.3078
17840TIP3    H274936   4.890   4.667  13.472  0.6678 -0.7390  0.5113
17841TIP3   OH274937   0.210   6.145  12.153 -0.6392 -0.3109 -0.4084
17841TIP3    H174938   0.166   6.228  12.132 -1.0477 -0.3671  0.2028
17841TIP3    H274939   0.275   6.170  12.219  0.1033 -0.2684 -1.1392
17842TIP3   OH274940   5.683   6.665   2.236 -0.4240  0.1316 -0.6058
17842TIP3    H174941   5.723   6.690   2.319 -1.0539  0.0773 -0.2768
17842TIP3    H274942   5.755   6.627   2.184 -0.4883 -2.1586  0.8461
17843TIP3   OH274943   1.737   3.018  14.604  0.6541 -0.6240  0.8150
17843TIP3    H174944   1.642   3.027  14.607  0.7871  0.9093  1.2180
17843TIP3    H274945   1.752   2.924  14.606 -0.8805 -0.9374 -0.1907
17844TIP3   OH274946   6.028   5.801   5.712 -0.1842 -0.7595 -0.0701
17844TIP3    H174947   6.005   5.742   5.784 -1.0488 -0.8180 -0.3850
17844TIP3    H274948   6.118   5.827   5.731 -2.0470  4.1060  4.4544
17845TIP3   OH274949   2.095   4.177   2.182 -0.2714 -0.8513  0.2598
17845TIP3    H174950   2.127   4.132   2.104 -1.9671 -1.0420 -0.3567
17845TIP3    H274951   2.085   4.108   2.247 -0.4924 -0.9621  0.1074
17846TIP3   OH274952   6.485   0.569  14.281 -0.5284  0.6723  0.1557
17846TIP3    H174953   6.459   0.477  14.276 -1.4478  0.9123  0.4261
17846TIP3    H274954   6.574   0.567  14.317 -0.5111 -0.1099  0.0792
17847TIP3   OH274955   5.473   0.846   3.312  0.1781 -0.5587  0.3683
17847TIP3    H174956   5.424   0.865   3.232 -0.5299 -0.8440  0.7243
17847TIP3    H274957   5.529   0.772   3.289 -0.4778 -1.0432  0.3016
17848TIP3   OH274958   5.985   3.850   4.716  0.4180 -0.0485 -0.3492
17848TIP3    H174959   5.974   3.775   4.657  2.0226  0.6439 -1.6053
17848TIP3    H274960   5.916   3.911   4.689 -1.2727 -1.2333  1.0657
17849TIP3   OH274961   2.291   1.903  15.074  0.3491  0.0756  0.0903
17849TIP3    H174962   2.318   1.919  15.164 -1.3577  0.7066  0.5285
17849TIP3    H274963   2.372   1.884  15.027  1.6439  2.6780  1.1226
17850TIP3   OH274964   4.761   2.275  10.805  0.4914 -0.2375 -0.1258
17850TIP3    H174965   4.751   2.370  10.793 -1.3210 -0.2024  1.2091
17850TIP3    H274966   4.690   2.237  10.754 -0.9931 -0.6242  2.1020
17851TIP3   OH274967   3.906   2.712  12.808  0.4070  0.3959 -0.2344
17851TIP3    H174968   3.859   2.673  12.734 -0.1236 -1.1049  0.8338
17851TIP3    H274969   3.926   2.637  12.865 -0.0402  1.5960  1.5788
17852TIP3   OH274970   2.529   6.706   1.707  0.1473  0.3271  0.5439
17852TIP3    H174971   2.582   6.752   1.642  0.4571  1.0160  1.2612
17852TIP3    H274972   2.482   6.776   1.753 -0.9517 -0.2382  0.3014
17853TIP3   OH274973   0.673   5.295  16.680 -0.0099  0.1743  0.4867
17853TIP3    H174974   0.651   5.386  16.697 -1.3857  0.1536 -1.0372
17853TIP3    H274975   0.750   5.279  16.735  1.0373  2.6000 -0.1406
17854TIP3   OH274976   4.724   4.923   3.823  0.1993 -0.3315  0.2604
17854TIP3    H174977   4.755   4.955   3.908 -0.6008  0.7881  0.1472
17854TIP3    H274978   4.797   4.869   3.790  1.0007  0.2004  1.1141
17855TIP3   OH274979   6.017   4.147  14.662  1.2304  0.1883 -0.0985
17855TIP3    H174980   6.096   4.202  14.666 -0.1321  2.2958 -0.8149
17855TIP3    H274981   6.001   4.135  14.568 -0.5428  1.7100 -0.0257
17856TIP3   OH274982   4.995   3.812   2.377  0.5482 -0.2324 -0.7088
17856TIP3    H174983   5.024   3.842   2.463 -1.2954 -0.0585 -0.0920
17856TIP3    H274984   5.053   3.856   2.315 -0.8989  3.3229  0.2282
17857TIP3   OH274985   2.760   2.448  14.493 -0.0961  0.1994 -0.1888
17857TIP3    H174986   2.759   2.481  14.583  0.7518  1.2327 -0.5466
17857TIP3    H274987   2.836   2.489  14.453  0.9628 -2.1108 -0.7148
17858TIP3   OH274988   3.853   6.556   1.649 -0.0013 -0.2468  0.1089
17858TIP3    H174989   3.762   6.578   1.666 -0.1994 -0.9439 -0.0297
17858TIP3    H274990   3.850   6.474   1.600  0.6355  0.6626 -1.5448
17859TIP3   OH274991   0.639   1.435   3.707  0.0143 -0.7635 -0.4266
17859TIP3    H174992   0.723   1.390   3.713 -0.0949 -0.8824  0.2774
17859TIP3    H274993   0.577   1.377   3.751  0.0786  0.5611  1.5359
17860TIP3   OH274994   1.778   6.274   0.697 -0.1240  0.2611 -0.2247
17860TIP3    H174995   1.854   6.293   0.641 -0.9347 -0.6684 -1.7227
17860TIP3    H274996   1.803   6.197   0.747  0.4264  0.8026  0.3498
17861TIP3   OH274997   5.140   5.037  12.292 -0.0043 -0.5698  0.0904
17861TIP3    H174998   5.060   4.984  12.285  0.0293 -0.4724 -1.2171
17861TIP3    H274999   5.137   5.095  12.216  0.6574  0.3564  0.7518
17862TIP3   OH275000   2.271   6.052  15.705  0.5992  0.0383  0.0745
17862TIP3    H175001   2.244   6.049  15.797 -0.7518 -0.6457 -0.3283
17862TIP3    H275002   2.220   6.124  15.667  0.8254  0.0331 -0.2424
17863TIP3   OH275003   2.999   3.130   3.291 -0.1901  0.5626 -0.2820
17863TIP3    H175004   2.968   3.183   3.217 -1.0535 -0.2701 -0.5257
17863TIP3    H275005   3.075   3.179   3.324 -0.4996  1.5551 -0.9750
17864TIP3   OH275006   4.702   4.554   3.091 -0.6988 -0.3592 -0.2411
17864TIP3    H175007   4.669   4.637   3.057  1.7977  1.0661  0.5519
17864TIP3    H275008   4.662   4.545   3.178  0.5845  1.1481  0.5549
17865TIP3   OH275009   1.062   5.216  14.080  0.2456 -0.5406 -0.0253
17865TIP3    H175010   1.002   5.224  14.006 -1.6159  1.1116  1.5229
17865TIP3    H275011   1.026   5.142  14.131 -0.3415  0.2472  0.7380
17866TIP3   OH275012   2.698   4.561   3.203  0.4153  0.2495  0.0887
17866TIP3    H175013   2.703   4.488   3.265  1.5647  0.0283 -0.2251
17866TIP3    H275014   2.665   4.522   3.122 -3.7722  1.0322  1.1818
17867TIP3   OH275015   3.042   3.579  14.628  0.0974 -0.1624 -1.6907
17867TIP3    H175016   3.137   3.584  14.638 -0.0119  0.6038 -0.9169
17867TIP3    H275017   3.028   3.518  14.556  1.1568 -0.8287 -1.3418
17868TIP3   OH275018   0.716   4.751   5.034 -0.0824 -0.2073  0.6730
17868TIP3    H175019   0.782   4.694   5.074 -2.3458 -1.5241  2.8323
17868TIP3    H275020   0.652   4.765   5.103 -1.7463  1.5661 -1.1038
17869TIP3   OH275021   4.132   5.093   5.080  0.0103 -0.0044  0.1891
17869TIP3    H175022   4.143   5.042   5.161  0.1418  0.7692  0.6622
17869TIP3    H275023   4.157   5.032   5.010  1.5425 -0.1607  0.8351
17870TIP3   OH275024   5.369   5.158  11.863  0.3701 -0.0775 -0.5733
17870TIP3    H175025   5.348   5.091  11.798  0.7587  0.1681 -0.9574
17870TIP3    H275026   5.451   5.197  11.832  0.3271  0.3451 -0.1721
17871TIP3   OH275027   0.583   5.711  14.836  0.1396 -0.0679  0.0779
17871TIP3    H175028   0.515   5.777  14.853  0.5900  0.2910  0.5243
17871TIP3    H275029   0.570   5.645  14.904 -0.7527 -0.8024 -0.7913
17872TIP3   OH275030   1.096   1.429  17.095  0.2300  0.4258 -0.0737
17872TIP3    H175031   1.054   1.451  17.178  0.9901 -0.0833  0.4639
17872TIP3    H275032   1.170   1.490  17.089 -0.1984  0.8929 -0.7009
17873TIP3   OH275033   1.955   1.391   4.917  0.6085 -0.1409 -0.2411
17873TIP3    H175034   2.037   1.361   4.878  1.7022  1.8807  0.3815
17873TIP3    H275035   1.978   1.411   5.008 -0.8891 -0.7060  0.2897
17874TIP3   OH275036   5.499   0.898  11.474  0.1730 -0.5371 -0.1138
17874TIP3    H175037   5.517   0.870  11.385 -1.1344  1.2933 -1.0316
17874TIP3    H275038   5.413   0.862  11.494 -0.1247  0.1460 -0.1233
17875TIP3   OH275039   2.163   1.478   4.675  0.5348 -0.3922  0.0231
17875TIP3    H175040   2.167   1.570   4.647 -1.9346 -0.0780  0.4601
17875TIP3    H275041   2.095   1.477   4.743  1.0192 -2.4377  0.5345
17876TIP3   OH275042   3.325   4.900  16.236  0.6447 -0.1478  0.0395
17876TIP3    H175043   3.341   4.806  16.245  0.9595 -0.0083  1.0788
17876TIP3    H275044   3.242   4.915  16.280 -0.0644 -0.1238 -1.2562
17877TIP3   OH275045   3.920   5.719  17.135 -0.6511  0.0036 -0.7419
17877TIP3    H175046   3.921   5.754  17.046 -0.5551  1.2915 -0.2696
17877TIP3    H275047   3.860   5.645  17.131 -2.0329  1.0968 -1.5203
17878TIP3   OH275048   6.055   3.718  15.513 -0.4937  0.2556  0.0287
17878TIP3    H175049   6.031   3.626  15.502 -0.1794  0.4186 -2.6094
17878TIP3    H275050   6.002   3.765  15.448  0.3914  1.7628  0.3303
17879TIP3   OH275051   6.591   2.045   0.139 -0.3831 -0.2125 -0.3191
17879TIP3    H175052   6.678   2.067   0.170 -0.7646  1.8657 -0.5951
17879TIP3    H275053   6.544   2.017   0.217  0.0554  0.2873  0.1344
17880TIP3   OH275054   6.772   3.570  15.115  0.6325  0.1829 -0.5717
17880TIP3    H175055   6.794   3.509  15.186  1.2141  0.9079 -0.1174
17880TIP3    H275056   6.681   3.550  15.094  0.2789  0.3079  0.7530
17881TIP3   OH275057   1.967   4.038  11.533  0.0081 -0.1356 -0.1356
17881TIP3    H175058   1.890   4.054  11.480  0.3279 -0.0245 -0.5680
17881TIP3    H275059   1.937   3.977  11.601 -0.5457  0.1925 -0.0804
17882TIP3   OH275060   6.617   0.755  13.449 -0.5232 -0.2334  0.0481
17882TIP3    H175061   6.620   0.744  13.544 -0.8788  1.1451  0.2399
17882TIP3    H275062   6.558   0.829  13.435 -0.2698 -0.2500 -1.2359
17883TIP3   OH275063   3.872   0.610   0.952 -0.1560  0.1036  0.6033
17883TIP3    H175064   3.881   0.573   0.864 -1.9814 -3.1098  1.6024
17883TIP3    H275065   3.960   0.609   0.989  1.0754  3.5266 -1.7316
17884TIP3   OH275066   6.154   0.518  16.075  0.3773 -0.8742  0.4697
17884TIP3    H175067   6.181   0.460  16.147  0.8510  0.6618  1.5764
17884TIP3    H275068   6.059   0.508  16.070  0.4895 -2.0253  0.3746
17885TIP3   OH275069   1.169   4.693   5.407  0.4205  0.1203 -0.2021
17885TIP3    H175070   1.261   4.666   5.398  1.1841  2.4528 -0.0533
17885TIP3    H275071   1.119   4.614   5.386  2.4475 -1.5170  0.7197
17886TIP3   OH275072   1.010   2.112  16.383 -0.3030  0.5749  0.6477
17886TIP3    H175073   1.079   2.179  16.375 -1.0768  1.3909  0.5810
17886TIP3    H275074   1.026   2.052  16.310 -1.2295  2.2571 -1.0276
17887TIP3   OH275075   4.393   0.170  13.178  0.2591 -0.2554  0.6671
17887TIP3    H175076   4.335   0.246  13.178  0.8395  0.1965  0.9567
17887TIP3    H275077   4.343   0.102  13.133  0.4594  0.8569 -1.3612
17888TIP3   OH275078   3.689   0.881  12.051 -0.5434 -0.3109 -0.0339
17888TIP3    H175079   3.757   0.817  12.030 -2.3159 -1.8863 -1.2453
17888TIP3    H275080   3.651   0.850  12.133  0.1825  0.5960  0.6701
17889TIP3   OH275081   6.144   3.148   2.890  0.0701 -0.1068  0.2059
17889TIP3    H175082   6.107   3.161   2.803 -0.0839  0.1942  0.3159
17889TIP3    H275083   6.092   3.204   2.947 -1.2276 -1.8687  0.8610
17890TIP3   OH275084   1.949   3.725  13.544 -0.5824 -0.4678  0.1262
17890TIP3    H175085   1.981   3.777  13.617  1.9638 -1.1494 -0.4235
17890TIP3    H275086   1.855   3.714  13.561 -1.3006  4.0904  0.3727
17891TIP3   OH275087   0.708   5.791  16.073  0.4664 -0.0084  0.3822
17891TIP3    H175088   0.687   5.753  16.158  0.3425  2.4616  1.5360
17891TIP3    H275089   0.660   5.736  16.010  0.3099 -1.6954  1.8963
17892TIP3   OH275090   3.950   6.214   1.186 -0.1966 -0.5071 -0.6781
17892TIP3    H175091   3.887   6.163   1.134 -0.6841  2.8134 -3.7024
17892TIP3    H275092   3.898   6.283   1.226  0.9976  0.0967 -0.1255
17893TIP3   OH275093   1.723   2.096   2.613  0.2581 -0.1040  0.4413
17893TIP3    H175094   1.662   2.112   2.685  0.3459  0.4716  0.3926
17893TIP3    H275095   1.751   2.184   2.585 -0.4711 -0.2649 -0.8954
17894TIP3   OH275096   2.876   6.624   0.143  0.3231  0.0241  0.3773
17894TIP3    H175097   2.867   6.718   0.123  1.5371  0.3791  1.3562
17894TIP3    H275098   2.790   6.587   0.124 -1.1421  1.8809  2.8237
17895TIP3   OH275099   1.006   1.682   4.713  0.0611  0.1297  0.0949
17895TIP3    H175100   1.048   1.761   4.678 -0.9078  1.2408  1.2913
17895TIP3    H275101   1.036   1.678   4.804  2.7127 -2.8022 -0.7443
17896TIP3   OH275102   6.357   3.687  12.550  0.5357 -0.3669  0.1818
17896TIP3    H175103   6.320   3.605  12.585  0.6208 -1.5169 -2.2145
17896TIP3    H275104   6.426   3.658  12.491  2.4500  1.6038  1.3068
17897TIP3   OH275105   3.909   1.772   5.025 -0.2189 -0.0262  0.3369
17897TIP3    H175106   3.946   1.685   5.007  0.3500  0.8193 -3.5653
17897TIP3    H275107   3.984   1.824   5.053 -0.2594 -0.4086  1.1776
17898TIP3   OH275108   1.342   1.194  13.026  0.0870  0.2830 -0.0354
17898TIP3    H175109   1.401   1.198  12.951  0.3430 -0.8221  0.0784
17898TIP3    H275110   1.256   1.178  12.989 -0.2074  2.1118 -0.2156
17899TIP3   OH275111   1.047   2.866   3.193  0.6817 -0.1066 -0.0178
17899TIP3    H175112   1.129   2.904   3.162  0.7224  0.0280  0.2478
17899TIP3    H275113   1.068   2.775   3.214  0.6861 -0.1597 -0.2537
17900TIP3   OH275114   2.200   4.442   1.097 -0.4037  0.0382  0.4893
17900TIP3    H175115   2.173   4.388   1.171 -1.1948  0.4374  0.4986
17900TIP3    H275116   2.278   4.398   1.063 -0.5498 -0.6421  1.0053
17901TIP3   OH275117   3.382   3.883   1.632  0.1931 -0.3860  0.1800
17901TIP3    H175118   3.301   3.836   1.613 -0.9696  1.5955 -0.0631
17901TIP3    H275119   3.396   3.938   1.555  0.4679  1.0192  1.1974
17902TIP3   OH275120   0.385   5.539   2.348 -0.5626 -0.3876  0.2066
17902TIP3    H175121   0.305   5.487   2.347  0.6612 -2.3951 -1.0659
17902TIP3    H275122   0.455   5.475   2.332  1.3952  1.1489  2.0960
17903TIP3   OH275123   2.367   1.129   2.976 -0.6359  0.2574 -0.0738
17903TIP3    H175124   2.389   1.210   2.931 -0.5791 -0.8482 -2.1457
17903TIP3    H275125   2.424   1.128   3.053 -0.2799  1.9109 -0.2865
17904TIP3   OH275126   2.589   3.707  15.138 -0.1405 -0.7003  0.0416
17904TIP3    H175127   2.530   3.778  15.113 -1.7998 -1.5625  1.2946
17904TIP3    H275128   2.635   3.684  15.058 -0.6663  0.7921 -0.7124
17905TIP3   OH275129   5.168   1.997  16.598  0.6511 -0.4902 -0.1997
17905TIP3    H175130   5.168   2.071  16.537  0.1391 -1.8175 -1.8911
17905TIP3    H275131   5.257   1.995  16.633  0.8876  0.4748 -0.7036
17906TIP3   OH275132   3.802   5.545  14.843  0.1714  0.0192  0.2263
17906TIP3    H175133   3.839   5.632  14.827 -0.2161  0.3279  0.9598
17906TIP3    H275134   3.827   5.524  14.933 -0.1701 -0.4161  0.2245
17907TIP3   OH275135   5.654   6.314   4.214  0.2989 -0.7216 -0.3298
17907TIP3    H175136   5.737   6.346   4.248  0.2314 -1.9953  1.1089
17907TIP3    H275137   5.592   6.325   4.286 -0.3167 -1.6709 -0.6928
17908TIP3   OH275138   2.242   0.440  14.775 -0.2339 -0.1298  0.7789
17908TIP3    H175139   2.282   0.394  14.701  0.2696  0.1380  0.8862
17908TIP3    H275140   2.153   0.405  14.779  0.5002 -2.0193  1.6380
17909TIP3   OH275141   4.197   2.687  14.229 -0.2457 -0.4566  0.5498
17909TIP3    H175142   4.109   2.724  14.238  0.1867  0.5634  0.7580
17909TIP3    H275143   4.184   2.592  14.228 -1.2867 -0.3315  1.2239
17910TIP3   OH275144   5.433   1.813  15.413  0.4363 -0.4641 -0.5149
17910TIP3    H175145   5.374   1.755  15.461 -0.6805  0.8305 -0.2543
17910TIP3    H275146   5.493   1.846  15.479 -0.2964  0.3318 -0.2329
17911TIP3   OH275147   4.132   4.879   5.671 -0.1724  0.2666 -0.3626
17911TIP3    H175148   4.124   4.786   5.692 -0.8176 -0.9137 -4.7224
17911TIP3    H275149   4.221   4.902   5.698 -0.3632 -1.2108  1.8311
17912TIP3   OH275150   2.514   1.906  13.240  0.5980  0.2482 -0.4289
17912TIP3    H175151   2.526   1.849  13.316  1.5128  0.3323 -0.5026
17912TIP3    H275152   2.470   1.984  13.275  1.1275  0.3408  0.0350
17913TIP3   OH275153   0.238   1.296   2.023 -0.3642 -0.2258 -0.3337
17913TIP3    H175154   0.164   1.345   1.988  0.2489  1.8260  1.0859
17913TIP3    H275155   0.251   1.225   1.961 -3.1415 -0.3302 -0.9346
17914TIP3   OH275156   0.238   6.552   6.123 -0.1497  0.4881  0.4851
17914TIP3    H175157   0.144   6.568   6.131 -0.7893 -2.6754  0.5512
17914TIP3    H275158   0.272   6.568   6.211 -1.0013 -0.1284  0.9483
17915TIP3   OH275159   2.421   5.429   4.615 -0.3345  0.7087 -0.7197
17915TIP3    H175160   2.494   5.432   4.677  0.2779 -3.3227 -0.9973
17915TIP3    H275161   2.435   5.504   4.558  1.2524  2.3447  1.6198
17916TIP3   OH275162   1.640   6.305   5.902 -0.5010  0.6894 -0.5969
17916TIP3    H175163   1.616   6.365   5.832 -0.8499  0.8855 -0.3099
17916TIP3    H275164   1.610   6.219   5.871  0.9581  0.4549 -1.4938
17917TIP3   OH275165   4.402   6.504  14.230  0.0801  0.2621  0.5685
17917TIP3    H175166   4.425   6.425  14.279  0.2411  0.2197  0.4245
17917TIP3    H275167   4.306   6.508  14.234 -0.0437 -0.7712 -0.6906
17918TIP3   OH275168   2.190   6.700   3.807  0.2698  0.0675 -0.4781
17918TIP3    H175169   2.201   6.672   3.716 -0.0134 -0.9461 -0.2173
17918TIP3    H275170   2.138   6.780   3.802  1.2673  0.6844 -1.2630
17919TIP3   OH275171   2.439   2.353   5.383 -0.1208  0.0311 -0.0569
17919TIP3    H175172   2.409   2.353   5.474  1.4839  1.7319  0.5388
17919TIP3    H275173   2.358   2.363   5.332 -1.1487 -1.9023  1.0685
17920TIP3   OH275174   2.105   6.452   1.206 -0.1647 -0.4174  0.3608
17920TIP3    H175175   2.135   6.515   1.141  0.2858 -0.7817  0.2073
17920TIP3    H275176   2.182   6.399   1.226 -0.4569 -0.7209  0.7164
17921TIP3   OH275177   5.046   6.331   1.846 -0.4704 -0.5074 -0.1993
17921TIP3    H175178   5.142   6.333   1.851 -0.4772  0.4333 -0.2399
17921TIP3    H275179   5.028   6.293   1.760 -0.1542 -1.5456  0.1780
17922TIP3   OH275180   6.283   5.476  12.313  0.1091 -0.2309  0.0057
17922TIP3    H175181   6.261   5.440  12.400 -0.9106 -1.9974 -0.9047
17922TIP3    H275182   6.368   5.438  12.292 -0.0390 -0.5127 -0.1024
17923TIP3   OH275183   4.469   0.999   1.073  0.1896 -0.8031 -0.0435
17923TIP3    H175184   4.506   0.928   1.126  1.8071  0.0722  0.0659
17923TIP3    H275185   4.538   1.019   1.009 -0.5174  0.2140 -0.5202
17924TIP3   OH275186   5.243   5.121  15.269 -0.0833  0.1252  0.1821
17924TIP3    H175187   5.175   5.086  15.211  0.0514  3.7765 -2.5623
17924TIP3    H275188   5.325   5.100  15.224  0.2734 -0.0457  0.9079
17925TIP3   OH275189   3.290   3.613  11.308 -0.2150 -0.0550 -0.2095
17925TIP3    H175190   3.259   3.620  11.218 -0.0907 -0.1846 -0.2638
17925TIP3    H275191   3.385   3.608  11.300 -0.1394  0.8909 -0.0077
17926TIP3   OH275192   3.985   3.288  17.158 -0.0546  0.0966 -0.3187
17926TIP3    H175193   3.982   3.221  17.090 -0.4138 -0.7753  0.5287
17926TIP3    H275194   3.912   3.266  17.216  0.3722  0.6873  0.4654
17927TIP3   OH275195   5.086   5.607   0.935 -1.0744  0.7681 -0.1039
17927TIP3    H175196   4.991   5.595   0.931 -0.7733 -2.9291  0.2909
17927TIP3    H275197   5.099   5.664   1.010 -2.9556  0.7172  0.3221
17928TIP3   OH275198   5.425   1.674   5.548 -0.3184 -0.4794 -0.0323
17928TIP3    H175199   5.330   1.684   5.551 -0.4295 -1.2929 -0.5731
17928TIP3    H275200   5.442   1.594   5.597  0.3817  1.1908  2.6602
17929TIP3   OH275201   1.917   3.432   3.768 -0.2640  0.7143  0.1368
17929TIP3    H175202   1.903   3.512   3.718  2.2208  2.3486  1.8743
17929TIP3    H275203   1.847   3.432   3.833 -0.7604  0.9960 -0.3844
17930TIP3   OH275204   1.121   5.041   0.454  0.5686 -0.2319 -0.2538
17930TIP3    H175205   1.124   5.106   0.383 -0.3311  0.2908  0.1540
17930TIP3    H275206   1.167   5.083   0.527 -0.1923  0.0602  0.0767
17931TIP3   OH275207   6.733   5.273   4.345  0.0431  0.2555 -0.3162
17931TIP3    H175208   6.762   5.242   4.259  0.2492  0.5202 -0.3422
17931TIP3    H275209   6.735   5.368   4.338  1.5480  0.3024  0.4737
17932TIP3   OH275210   2.986   4.954  11.661  0.1044 -0.2616 -0.4010
17932TIP3    H175211   3.056   4.898  11.627  0.1882  0.2382 -1.0709
17932TIP3    H275212   3.031   5.019  11.714 -0.1705 -2.3389  2.6599
17933TIP3   OH275213   3.753   3.387  13.198  0.5236 -0.4512 -0.0910
17933TIP3    H175214   3.785   3.463  13.247  0.8701 -0.2355 -0.6426
17933TIP3    H275215   3.712   3.332  13.264  0.3605  0.1682  0.3339
17934TIP3   OH275216   2.220   3.398  13.059 -0.7973  0.0202 -0.3486
17934TIP3    H175217   2.273   3.422  12.984  2.2503  0.0977  1.6480
17934TIP3    H275218   2.195   3.481  13.099  2.0954  0.1216  1.5309
17935TIP3   OH275219   5.542   6.551  15.948  0.3354  0.1123  0.2336
17935TIP3    H175220   5.462   6.509  15.914 -0.1259  2.3054 -1.7052
17935TIP3    H275221   5.520   6.644  15.949  2.1123  0.5512  1.9897
17936TIP3   OH275222   4.252   2.576  12.840  0.2454  0.0616  0.5013
17936TIP3    H175223   4.318   2.595  12.907  2.9983  0.1192 -2.0057
17936TIP3    H275224   4.235   2.483  12.848  1.1668 -0.0932  0.7597
17937TIP3   OH275225   4.400   3.635  16.844 -0.0824 -0.0632 -0.1026
17937TIP3    H175226   4.344   3.563  16.873 -0.1365  0.4937  1.2525
17937TIP3    H275227   4.339   3.700  16.810  0.0735 -1.5371 -3.6306
17938TIP3   OH275228   1.295   2.819   0.692 -0.5417 -0.4701 -0.2770
17938TIP3    H175229   1.345   2.891   0.731 -2.2527  1.8868 -2.1246
17938TIP3    H275230   1.360   2.764   0.650  0.7652  0.4892  0.4294
17939TIP3   OH275231   5.709   6.206   0.244 -0.4294  0.1600 -0.0883
17939TIP3    H175232   5.718   6.144   0.316 -0.5754 -0.4529 -0.5884
17939TIP3    H275233   5.638   6.170   0.190 -0.7940  0.9758 -0.1683
17940TIP3   OH275234   4.658   1.599  11.862  0.3290  0.1572  0.1244
17940TIP3    H175235   4.688   1.689  11.874  2.3553 -0.5970  1.3594
17940TIP3    H275236   4.642   1.591  11.768 -0.7744  2.0138  0.1086
17941TIP3   OH275237   1.490   6.371  10.670 -0.4071 -0.1045  0.0801
17941TIP3    H175238   1.423   6.439  10.675  0.3941  0.8533 -1.4880
17941TIP3    H275239   1.479   6.332  10.583  0.1700 -0.8968  0.3470
17942TIP3   OH275240   3.386   5.664  14.528 -0.2638  0.3218  0.1349
17942TIP3    H175241   3.441   5.654  14.450  0.9743 -0.8400  1.1019
17942TIP3    H275242   3.330   5.586  14.528  0.2200 -0.0409  0.7388
17943TIP3   OH275243   0.705   0.757   0.176 -0.0700  0.2532  0.5402
17943TIP3    H175244   0.630   0.771   0.118 -0.9414  0.3295  1.6300
17943TIP3    H275245   0.674   0.691   0.239  1.2210 -0.6495  0.2674
17944TIP3   OH275246   2.891   1.003   2.506  0.1248 -0.0350  0.1678
17944TIP3    H175247   2.953   0.930   2.497  0.3631  0.2745 -0.8620
17944TIP3    H275248   2.830   0.975   2.574  1.1630 -0.5193  0.9215
17945TIP3   OH275249   6.780   5.370   1.585 -0.1457  0.1634 -0.1554
17945TIP3    H175250   6.794   5.382   1.679 -0.6190  0.6544 -0.1405
17945TIP3    H275251   6.817   5.449   1.545 -1.9449  1.0729 -0.1789
17946TIP3   OH275252   3.042   2.781  11.974  0.3251 -0.0715  0.0900
17946TIP3    H175253   3.130   2.762  11.942  1.0487 -2.3535  2.9983
17946TIP3    H275254   2.987   2.714  11.935  0.5423 -0.7048  0.8532
17947TIP3   OH275255   1.701   6.337  10.413 -0.4454  0.2974 -0.1812
17947TIP3    H175256   1.617   6.299  10.386 -0.6048  0.5479 -0.0414
17947TIP3    H275257   1.709   6.418  10.362 -1.1307  1.1983  1.0846
17948TIP3   OH275258   6.499   5.074  10.670  0.2876  0.3744 -0.3698
17948TIP3    H175259   6.582   5.063  10.717 -0.2613  0.8029  0.7492
17948TIP3    H275260   6.505   5.161  10.631 -0.2092  1.0435  0.9777
17949TIP3   OH275261   2.746   0.483  17.174 -0.9045  0.0718 -0.2234
17949TIP3    H175262   2.822   0.442  17.134 -1.8091  0.2015 -2.1713
17949TIP3    H275263   2.764   0.577  17.171 -0.8120  0.0646  0.0469
17950TIP3   OH275264   5.014   2.035  14.453 -1.1310  0.4470 -0.2785
17950TIP3    H175265   5.057   2.056  14.536 -2.3619  1.9072  0.0380
17950TIP3    H275266   4.922   2.021  14.476 -0.8703 -3.1005 -0.8652
17951TIP3   OH275267   2.239   2.832  11.016 -0.2948 -0.2915 -0.0440
17951TIP3    H175268   2.224   2.925  11.031 -0.4006 -0.2230 -0.5399
17951TIP3    H275269   2.187   2.812  10.938  1.8520 -0.1512 -1.5876
17952TIP3   OH275270   6.497   5.151   5.515 -0.2586  0.1094 -0.1610
17952TIP3    H175271   6.544   5.174   5.594  2.6390 -1.4560 -1.2900
17952TIP3    H275272   6.509   5.057   5.506  0.8268  0.4235 -3.1581
17953TIP3   OH275273   2.246   5.095  12.289 -0.4956  0.1438  0.2331
17953TIP3    H175274   2.329   5.061  12.323  0.3012  1.0581 -0.6954
17953TIP3    H275275   2.181   5.029  12.311  1.1600 -2.7562 -2.6688
17954TIP3   OH275276   4.029   2.914  12.230  0.5199  0.0516  0.9323
17954TIP3    H175277   4.046   2.926  12.323  0.0363 -1.0497  1.1845
17954TIP3    H275278   4.052   2.998  12.189 -0.1266  0.8430  2.1538
17955TIP3   OH275279   6.005   0.133  14.201  0.6581  0.2500  0.2777
17955TIP3    H175280   6.062   0.062  14.232 -0.2518  0.2298  2.0621
17955TIP3    H275281   6.042   0.212  14.240  0.0339  0.3559  0.6719
17956TIP3   OH275282   4.359   3.289   3.068 -0.9669 -0.1107  0.1197
17956TIP3    H175283   4.292   3.222   3.051 -0.0331 -1.2995  0.9922
17956TIP3    H275284   4.313   3.356   3.118 -1.6972 -0.5538  0.0565
17957TIP3   OH275285   5.936   1.439  11.546  0.2123 -0.3962 -0.3509
17957TIP3    H175286   5.918   1.513  11.488 -0.6077  1.1259  1.7170
17957TIP3    H275287   6.026   1.415  11.527  0.9807  2.0670 -0.1643
17958TIP3   OH275288   3.444   3.812  12.440  0.1878 -0.9550  0.1294
17958TIP3    H175289   3.406   3.751  12.378  1.1371 -2.7291  1.1893
17958TIP3    H275290   3.445   3.896  12.395 -2.9588 -1.2467 -0.6869
17959TIP3   OH275291   2.210   5.307  11.555 -0.8510 -0.1678  0.5446
17959TIP3    H175292   2.245   5.225  11.589 -1.2058 -1.0224 -1.0598
17959TIP3    H275293   2.117   5.304  11.574 -0.9972 -0.5071 -0.1907
17960TIP3   OH275294   5.134   3.413   4.395 -0.4343  0.2241 -0.2633
17960TIP3    H175295   5.084   3.344   4.439  0.8670 -1.0136 -0.6250
17960TIP3    H275296   5.136   3.384   4.303  0.3327  0.6262 -0.3716
17961TIP3   OH275297   0.539   0.928   5.055 -0.2903 -0.0806 -0.2474
17961TIP3    H175298   0.570   0.839   5.039 -0.5546 -0.2231  0.0275
17961TIP3    H275299   0.549   0.940   5.149  0.9759  0.6472 -0.4648
17962TIP3   OH275300   2.027   6.481   5.006 -0.7595  0.1620  0.1498
17962TIP3    H175301   1.987   6.508   5.089 -0.1168  0.1516  0.4708
17962TIP3    H275302   1.955   6.484   4.943 -0.6162  3.5176 -0.0632
17963TIP3   OH275303   0.384   3.606  15.965 -0.5830  0.0523  0.2839
17963TIP3    H175304   0.299   3.596  16.007 -0.2640  3.1486  1.9980
17963TIP3    H275305   0.364   3.642  15.878 -1.0478 -1.1580 -0.1279
17964TIP3   OH275306   0.185   0.035  11.137  0.1535 -0.8284 -0.3840
17964TIP3    H175307   0.231   0.114  11.107 -0.3180  0.1420  1.3115
17964TIP3    H275308   0.254  -0.026  11.160  0.5456 -0.3985 -0.4041
17965TIP3   OH275309   3.829   0.486  10.545 -0.0954  0.1564  0.2057
17965TIP3    H175310   3.829   0.411  10.485  0.0158  1.3996 -1.4141
17965TIP3    H275311   3.905   0.538  10.520 -1.6421  2.1868 -0.5541
17966TIP3   OH275312   2.709   2.562  13.533 -0.7192  0.3280 -0.1203
17966TIP3    H175313   2.786   2.515  13.502 -1.1354 -0.3123 -0.2054
17966TIP3    H275314   2.680   2.614  13.458 -1.3537 -0.7368 -0.6428
17967TIP3   OH275315   6.221   1.760   4.686 -0.8137 -0.0392  0.0818
17967TIP3    H175316   6.173   1.677   4.684 -0.8851 -0.0217  0.7555
17967TIP3    H275317   6.313   1.735   4.692 -0.8693 -0.0856  0.9515
17968TIP3   OH275318   2.723   1.460   6.433  0.0972  0.1430 -0.2857
17968TIP3    H175319   2.745   1.545   6.470  0.3485 -0.8437  2.0702
17968TIP3    H275320   2.807   1.413   6.431 -0.1411 -0.2636 -0.9363
17969TIP3   OH275321   4.717   2.110  13.104  0.7818 -0.6214 -0.1745
17969TIP3    H175322   4.784   2.138  13.167  0.2504  0.0550  0.1075
17969TIP3    H275323   4.654   2.060  13.157  1.6552 -2.2755 -0.6518
17970TIP3   OH275324   4.591   3.024   1.485  0.9010 -0.0676 -0.8124
17970TIP3    H175325   4.665   3.014   1.545  0.5878  0.8091 -0.2603
17970TIP3    H275326   4.565   3.116   1.493  1.2379  0.2296 -2.7789
17971TIP3   OH275327   2.549   4.263   2.532 -0.1196  0.3547  0.4225
17971TIP3    H175328   2.548   4.191   2.595  2.3462  2.2861  2.9385
17971TIP3    H275329   2.612   4.236   2.465 -0.2759 -0.4079  0.5796
17972TIP3   OH275330   4.601   4.707  15.067 -0.1024  0.8092  0.9973
17972TIP3    H175331   4.542   4.665  15.130  0.0409 -1.2933 -0.1694
17972TIP3    H275332   4.684   4.661  15.077 -0.0729  0.4384 -0.6672
17973TIP3   OH275333   0.472   5.948  16.140  0.6762 -0.5141  0.0485
17973TIP3    H175334   0.469   5.913  16.051  1.4535 -0.5040  0.0201
17973TIP3    H275335   0.503   5.875  16.193  1.1554 -0.2225  0.1662
17974TIP3   OH275336   5.023   1.042   4.096  0.0786  0.0787  0.0291
17974TIP3    H175337   5.115   1.061   4.115 -0.0838  0.4135  0.4903
17974TIP3    H275338   5.021   0.947   4.085  0.4082  0.0160  0.4496
17975TIP3   OH275339   2.577   5.518   5.949  0.0005  0.3726 -0.1345
17975TIP3    H175340   2.563   5.484   6.037 -1.1895  0.9277 -0.0930
17975TIP3    H275341   2.545   5.448   5.891  1.4812 -0.3047 -0.1592
17976TIP3   OH275342   3.678   1.177  16.869  0.3498 -0.0851 -0.6540
17976TIP3    H175343   3.708   1.087  16.855 -1.6393 -0.6445 -1.7902
17976TIP3    H275344   3.691   1.220  16.784  0.7177  0.5273 -0.2952
17977TIP3   OH275345   0.375   5.485   3.711 -0.3699  0.2831  0.2653
17977TIP3    H175346   0.292   5.484   3.665 -0.8164  0.1500  1.0553
17977TIP3    H275347   0.366   5.418   3.779 -0.2859  1.4900  1.5092
17978TIP3   OH275348   6.707   6.553  11.630  0.0595 -0.1455  0.1027
17978TIP3    H175349   6.695   6.498  11.553  0.4171  1.3610 -1.0955
17978TIP3    H275350   6.661   6.635  11.608 -1.2058 -0.2345  2.1667
17979TIP3   OH275351   2.773   2.283   1.080 -0.2977  0.5428 -0.4440
17979TIP3    H175352   2.735   2.288   0.992  0.7067  1.1037 -0.8636
17979TIP3    H275353   2.863   2.256   1.065 -0.6894 -1.5572  0.5810
17980TIP3   OH275354   6.738   5.713  16.532 -0.1807  0.1810  0.1809
17980TIP3    H175355   6.757   5.765  16.454 -0.6709 -1.1345 -0.8519
17980TIP3    H275356   6.814   5.656  16.541 -0.1093  0.3562  0.7044
17981TIP3   OH275357   5.039   0.301  14.304  0.4304 -0.1898  0.0911
17981TIP3    H175358   4.981   0.311  14.228  0.2587  1.3888  0.4057
17981TIP3    H275359   5.075   0.388  14.319  1.2574 -0.7010  1.2106
17982TIP3   OH275360   5.234   2.161   1.295  0.4095 -0.0478 -0.1345
17982TIP3    H175361   5.313   2.113   1.322  0.4230 -0.0307 -0.1420
17982TIP3    H275362   5.231   2.151   1.200  0.5332  0.1462 -0.1620
17983TIP3   OH275363   4.510   4.928  11.373  0.9093 -0.2212  0.3962
17983TIP3    H175364   4.605   4.918  11.378  0.7801 -0.9692  1.6146
17983TIP3    H275365   4.476   4.839  11.383  0.0624  0.0696  0.1915
17984TIP3   OH275366   0.588   4.622  14.049  0.2870  0.4260  0.1075
17984TIP3    H175367   0.666   4.567  14.047  0.8085  1.1651 -0.3699
17984TIP3    H275368   0.558   4.625  13.958  0.9239  1.8179 -0.0947
17985TIP3   OH275369   1.441   2.249  15.204  0.1008  0.4304 -0.2724
17985TIP3    H175370   1.374   2.311  15.231 -0.3031  0.2425 -0.8179
17985TIP3    H275371   1.523   2.289  15.231 -0.2326  0.6460  0.4379
17986TIP3   OH275372   3.016   3.649  14.896  0.3366 -0.2105 -0.0469
17986TIP3    H175373   3.054   3.737  14.900  1.3389 -0.5674 -1.3220
17986TIP3    H275374   3.026   3.622  14.805 -3.0045 -0.3536 -0.5178
17987TIP3   OH275375   4.064   0.565  13.428  0.4234  0.3172  0.2319
17987TIP3    H175376   4.083   0.644  13.479 -0.3211  1.4440 -1.1276
17987TIP3    H275377   3.969   0.567  13.416  0.5767  0.1326 -1.1910
17988TIP3   OH275378   2.924   0.241   2.603  0.5577 -0.0113 -0.3784
17988TIP3    H175379   3.016   0.223   2.622  1.1029  1.3042 -1.5618
17988TIP3    H275380   2.921   0.253   2.508 -1.0213 -0.9631 -0.4883
17989TIP3   OH275381   4.340   5.254   4.277  0.4924  0.2068  0.0833
17989TIP3    H175382   4.421   5.266   4.327 -0.0658  1.1067  0.7877
17989TIP3    H275383   4.281   5.208   4.337  0.3266 -0.0609 -0.2796
17990TIP3   OH275384   6.482   2.043  12.110 -0.7935 -0.6509  0.0506
17990TIP3    H175385   6.543   2.114  12.087 -2.1951 -0.4230 -3.6994
17990TIP3    H275386   6.537   1.978  12.153  1.8551  0.1676 -1.7704
17991TIP3   OH275387   1.877   6.011   2.948  0.7641  0.1876 -0.4267
17991TIP3    H175388   1.879   6.067   3.026 -1.4677 -1.2732  0.7474
17991TIP3    H275389   1.937   5.939   2.969  0.4469 -0.0142 -0.2118
17992TIP3   OH275390   1.400   0.984   1.207  0.9822  0.3172  0.2159
17992TIP3    H175391   1.359   0.922   1.267  0.2373  2.9893  2.6689
17992TIP3    H275392   1.494   0.974   1.224  0.8604  0.0481  0.7609
17993TIP3   OH275393   1.562   2.851  14.338 -0.4664 -0.4164 -0.1713
17993TIP3    H175394   1.558   2.907  14.416 -1.6052  2.6486 -2.1972
17993TIP3    H275395   1.485   2.878  14.286  1.2506 -0.8669 -3.1902
17994TIP3   OH275396   2.993   4.058   5.393  0.0631 -0.5421 -0.1405
17994TIP3    H175397   2.906   4.066   5.355 -0.0284  0.0395  0.1810
17994TIP3    H275398   3.022   3.969   5.369 -0.9794 -1.0841  0.5306
17995TIP3   OH275399   0.505   1.343  13.718 -0.5570  0.2532  0.5678
17995TIP3    H175400   0.479   1.330  13.810  1.4483  0.9638  1.2902
17995TIP3    H275401   0.585   1.291  13.708 -0.7072  0.2508 -0.7683
17996TIP3   OH275402   0.677   0.383  17.092 -0.0004  0.0669 -0.1844
17996TIP3    H175403   0.690   0.295  17.057  0.9441 -0.0353  0.3783
17996TIP3    H275404   0.761   0.427  17.076  0.0786  0.3524  0.9739
17997TIP3   OH275405   0.654   5.300   3.510 -0.2161  0.6310 -0.0042
17997TIP3    H175406   0.580   5.354   3.537 -0.7759 -0.9311  1.8299
17997TIP3    H275407   0.732   5.352   3.530 -0.7669  1.4614  0.0107
17998TIP3   OH275408   1.063   0.369   0.786  0.9507  0.4006  0.0685
17998TIP3    H175409   1.079   0.462   0.799  0.3073  0.6491 -0.7886
17998TIP3    H275410   0.971   0.356   0.812  1.4505 -0.3047  1.6100
17999TIP3   OH275411   4.520   2.380   3.795  0.1766  0.5145  0.3352
17999TIP3    H175412   4.597   2.406   3.845  0.5095  1.2084 -0.5091
17999TIP3    H275413   4.446   2.407   3.849  0.5316  1.2186  0.4855
18000TIP3   OH275414   6.788   4.046   3.819  0.0825  0.2099  0.8286
18000TIP3    H175415   6.809   4.108   3.749  1.7530 -0.5813  0.5696
18000TIP3    H275416   6.823   3.962   3.788 -0.1870 -0.4002  2.1089
18001TIP3   OH275417   3.528   0.064  11.228 -0.3267  0.0271 -0.0752
18001TIP3    H175418   3.480   0.146  11.218  0.5713  0.4996 -0.6269
18001TIP3    H275419   3.620   0.088  11.215  0.2966 -0.5195  2.6913
18002TIP3   OH275420   3.899   4.435   3.923  0.2341 -0.2780 -0.2248
18002TIP3    H175421   3.848   4.501   3.971  0.2273 -0.9108  0.6497
18002TIP3    H275422   3.987   4.472   3.919 -0.2322  0.7929 -1.6863
18003TIP3   OH275423   5.118   2.541   3.555 -0.0588 -0.1295 -0.1098
18003TIP3    H175424   5.079   2.571   3.473  1.4755  2.1467 -0.0948
18003TIP3    H275425   5.078   2.597   3.622 -0.5347 -1.2719  0.5848
18004TIP3   OH275426   3.395   1.518   1.175 -0.0802 -0.0911  0.0441
18004TIP3    H175427   3.303   1.525   1.148  0.2601  0.7412 -0.9690
18004TIP3    H275428   3.391   1.505   1.270 -1.2255  1.9070  0.3321
18005TIP3   OH275429   6.181   2.417  13.745  0.2929 -0.2273 -0.0121
18005TIP3    H175430   6.270   2.430  13.711  0.5993 -0.1112  0.8023
18005TIP3    H275431   6.124   2.451  13.676  0.8683 -0.4784 -0.6317
18006TIP3   OH275432   0.256   2.541  15.756 -0.5463 -0.0850 -0.8012
18006TIP3    H175433   0.311   2.601  15.707  1.0131 -1.0976 -0.3622
18006TIP3    H275434   0.187   2.596  15.793  0.3742  1.2821 -1.0636
18007TIP3   OH275435   0.315   2.277   0.468  0.1259 -0.1983 -0.1696
18007TIP3    H175436   0.394   2.330   0.475  0.8131 -1.3828  2.4258
18007TIP3    H275437   0.330   2.221   0.392  1.2402  0.4203 -0.4282
18008TIP3   OH275438   4.793   2.900   5.334 -0.3424  0.2887 -0.2630
18008TIP3    H175439   4.861   2.909   5.267 -0.6393  1.6640 -0.4109
18008TIP3    H275440   4.715   2.872   5.287  0.1332 -1.5014 -0.0645
18009TIP3   OH275441   6.355   5.211   3.927 -0.1653  0.0017  0.1831
18009TIP3    H175442   6.420   5.156   3.971  0.7896  1.0690  0.1664
18009TIP3    H275443   6.273   5.195   3.975 -0.2424 -2.3702 -0.6252
18010TIP3   OH275444   1.887   6.723   1.264 -0.2393 -0.5769 -0.3421
18010TIP3    H175445   1.944   6.699   1.337 -1.2447 -0.1351  0.6065
18010TIP3    H275446   1.884   6.644   1.210  2.2442 -0.2437 -1.1081
18011TIP3   OH275447   0.310   1.636  13.061  0.0631 -0.0392  0.1284
18011TIP3    H175448   0.377   1.582  13.103  0.5098 -0.6985 -1.3543
18011TIP3    H275449   0.235   1.631  13.120  0.6088 -1.0356  0.7700
18012TIP3   OH275450   1.170   2.035   4.180  0.4355  0.1644  0.1171
18012TIP3    H175451   1.113   2.047   4.256 -0.7939 -0.1821 -0.7316
18012TIP3    H275452   1.242   1.981   4.213 -0.3168 -0.3692  0.9333
18013TIP3   OH275453   5.977   0.059   1.442  0.1717 -0.1604  0.1770
18013TIP3    H175454   5.942   0.144   1.468  0.9987  0.3638 -0.3814
18013TIP3    H275455   5.900   0.004   1.429 -0.3621  0.4211  0.7898
18014TIP3   OH275456   1.659   1.517  13.749 -0.0530 -0.0462  0.1720
18014TIP3    H175457   1.700   1.602  13.739  0.5173 -0.2621  0.6489
18014TIP3    H275458   1.689   1.467  13.673 -0.3294  0.1506 -0.0685
18015TIP3   OH275459   6.620   2.825   0.743 -0.1040  0.2771 -0.0563
18015TIP3    H175460   6.555   2.797   0.807  1.9145 -0.5290  1.7685
18015TIP3    H275461   6.627   2.751   0.682 -0.4937  0.1460  0.0560
18016TIP3   OH275462   0.815   2.359  11.223  0.5553  0.0607  0.5322
18016TIP3    H175463   0.823   2.398  11.136  0.8282  1.3320  1.0990
18016TIP3    H275464   0.761   2.281  11.210  0.8632  0.0480 -0.8184
18017TIP3   OH275465   2.886   2.971  14.789  0.1804  0.0211 -0.4946
18017TIP3    H175466   2.911   2.937  14.703  1.9600  0.5349 -0.2114
18017TIP3    H275467   2.878   2.893  14.845 -1.5821 -0.3690 -1.2288
18018TIP3   OH275468   1.778   4.330  12.462  0.9783  0.5307 -0.2017
18018TIP3    H175469   1.818   4.394  12.402 -0.1632  0.7740 -0.7194
18018TIP3    H275470   1.845   4.263  12.472  1.1746  0.4483 -1.8248
18019TIP3   OH275471   2.656   5.761  12.037  0.0170 -0.1749  0.4859
18019TIP3    H175472   2.656   5.719  11.951 -0.9880 -1.0895  0.9024
18019TIP3    H275473   2.748   5.777  12.057  0.4413 -2.2013  0.2977
18020TIP3   OH275474   3.805   1.633   0.513 -0.5758 -0.0927 -0.0738
18020TIP3    H175475   3.747   1.567   0.551 -0.8553  0.1569 -0.0602
18020TIP3    H275476   3.746   1.702   0.484 -0.5663 -1.0520 -2.6262
18021TIP3   OH275477   5.533   3.081   4.652  0.5093  0.3446 -0.4933
18021TIP3    H175478   5.486   3.065   4.570  1.7386 -0.3879 -1.0877
18021TIP3    H275479   5.511   3.171   4.675 -0.0123  0.4974 -1.5229
18022TIP3   OH275480   1.576   4.562  14.616  0.4141  0.1262  0.1441
18022TIP3    H175481   1.591   4.625  14.687 -0.2358 -0.4576  0.8099
18022TIP3    H275482   1.540   4.485  14.659 -1.3488  0.2745 -0.9888
18023TIP3   OH275483   1.325   4.819   4.951 -0.5602  0.2698  0.3712
18023TIP3    H175484   1.414   4.823   4.985 -0.4391 -0.0718  0.1046
18023TIP3    H275485   1.333   4.848   4.860 -0.5146 -0.9476 -0.0237
18024TIP3   OH275486   3.615   3.518  13.783  0.7412 -0.0559 -0.1318
18024TIP3    H175487   3.541   3.473  13.823 -0.4191 -0.3772 -2.4486
18024TIP3    H275488   3.668   3.548  13.857 -1.6690  0.1898  1.6229
18025TIP3   OH275489   2.924   4.982  12.437 -0.2434 -0.3527 -0.8773
18025TIP3    H175490   2.941   5.059  12.383  0.9571 -1.1959 -1.7700
18025TIP3    H275491   3.010   4.961  12.474 -0.4501 -1.5320 -1.0359
18026TIP3   OH275492   1.256   5.391  15.062 -0.1931  0.6153 -0.2192
18026TIP3    H175493   1.201   5.316  15.086 -0.1962  0.6670 -0.0606
18026TIP3    H275494   1.194   5.464  15.054 -0.2659  0.4829 -0.9345
18027TIP3   OH275495   4.925   0.779  16.895  0.4350  0.4621 -0.7496
18027TIP3    H175496   4.892   0.725  16.967 -1.8337  4.3198  1.4158
18027TIP3    H275497   4.866   0.761  16.822 -0.0898 -0.1321 -0.1840
18028TIP3   OH275498   0.838   6.688   3.529  0.4629 -0.3925  0.4017
18028TIP3    H175499   0.893   6.747   3.581  3.2009 -0.0079 -2.6097
18028TIP3    H275500   0.879   6.602   3.540  0.6677 -0.4255 -0.5203
18029TIP3   OH275501   6.764   0.702  16.588 -0.0490 -0.4095  0.8792
18029TIP3    H175502   6.800   0.747  16.512 -2.7614  0.6621  0.1066
18029TIP3    H275503   6.805   0.745  16.663  1.4728 -0.4189  0.1008
18030TIP3   OH275504   2.786   6.193   1.273 -0.2297 -0.4652 -0.2320
18030TIP3    H175505   2.804   6.287   1.271 -0.1267 -0.4893 -1.4314
18030TIP3    H275506   2.708   6.183   1.219 -0.1785 -1.0866 -0.1978
18031TIP3   OH275507   3.673   1.813  14.813 -0.4116 -0.0662 -0.5370
18031TIP3    H175508   3.711   1.899  14.826 -1.2244  0.0990  0.9595
18031TIP3    H275509   3.584   1.820  14.848 -0.4488 -1.5340 -0.2745
18032TIP3   OH275510   5.751   1.943   0.049  0.4925  0.3312 -0.4887
18032TIP3    H175511   5.772   2.017  -0.008 -0.3668  0.2700 -0.8911
18032TIP3    H275512   5.672   1.905   0.012 -1.1124  1.3287  1.6880
18033TIP3   OH275513   2.921   5.584  15.446 -0.3792 -0.2338  0.2518
18033TIP3    H175514   2.847   5.593  15.507 -0.4897  0.6774 -0.0073
18033TIP3    H275515   2.996   5.615  15.496 -0.2734 -0.5829  0.3100
18034TIP3   OH275516   5.219   0.635  14.633 -0.0444  0.5794  0.2125
18034TIP3    H175517   5.261   0.550  14.619 -0.0014  0.6746 -0.2638
18034TIP3    H275518   5.288   0.690  14.669 -0.4355  0.0301  1.9004
18035TIP3   OH275519   6.307   0.289   3.791 -0.6688 -0.4998  0.3379
18035TIP3    H175520   6.281   0.341   3.868 -0.7555 -0.8632  0.5574
18035TIP3    H275521   6.228   0.284   3.738 -0.0755  1.5611 -0.8466
18036TIP3   OH275522   3.549   5.322   2.635  0.0129  0.0645 -0.1700
18036TIP3    H175523   3.457   5.305   2.655  0.2200 -1.1152 -0.1627
18036TIP3    H275524   3.565   5.409   2.671 -0.4281 -0.7365  2.0920
18037TIP3   OH275525   3.348   4.681   1.982  0.2379 -0.0089  0.4071
18037TIP3    H175526   3.373   4.750   2.044 -0.5085  0.4114  0.2612
18037TIP3    H275527   3.297   4.619   2.034  1.8277 -1.0578  0.7878
18038TIP3   OH275528   3.808   3.553   3.376 -0.0539 -0.1676  0.3166
18038TIP3    H175529   3.829   3.585   3.288  1.2556 -1.3112  0.1688
18038TIP3    H275530   3.778   3.463   3.362  1.8144 -0.9698  1.1364
18039TIP3   OH275531   2.360   1.996   3.913  0.0471 -0.3425  0.1247
18039TIP3    H175532   2.412   2.022   3.990  0.4691 -0.3154 -0.1649
18039TIP3    H275533   2.270   2.018   3.936  0.2513  0.2571  0.3589
18040TIP3   OH275534   4.912   1.982   4.866  0.0698 -0.6910  0.3999
18040TIP3    H175535   4.872   2.018   4.946  1.7072  2.6440 -0.0976
18040TIP3    H275536   4.867   2.027   4.795  0.1568 -1.9695 -0.4921
18041TIP3   OH275537   3.481   2.239  12.881  0.0429 -1.0309  0.1923
18041TIP3    H175538   3.473   2.313  12.942  0.2575 -0.7723 -0.0962
18041TIP3    H275539   3.459   2.162  12.935 -1.4051 -0.6523  0.2053
18042TIP3   OH275540   1.042   4.874   4.284  0.1512 -0.1530  0.5998
18042TIP3    H175541   0.968   4.932   4.302  0.9439  0.8297  0.7778
18042TIP3    H275542   1.002   4.788   4.270 -1.2460  0.7420 -1.4518
18043TIP3   OH275543   5.064   0.780   1.717 -0.0517  0.4054 -0.3259
18043TIP3    H175544   5.104   0.852   1.668 -0.6554  2.0379  1.4329
18043TIP3    H275545   5.131   0.752   1.779  0.5005 -1.2414 -1.5897
18044TIP3   OH275546   3.834   1.341  12.591 -0.3416 -0.3377  0.5270
18044TIP3    H175547   3.898   1.396  12.636  0.8756 -0.8531 -0.5215
18044TIP3    H275548   3.779   1.403  12.543 -0.7000  0.1127  1.4887
18045TIP3   OH275549   4.328   0.456  16.732  0.7232  1.2083 -0.6014
18045TIP3    H175550   4.420   0.481  16.737  0.4481  1.9097  1.5309
18045TIP3    H275551   4.294   0.470  16.820 -1.1953  0.0105 -1.1002
18046TIP3   OH275552   2.899   0.475  11.337  0.2923 -0.1940  0.2684
18046TIP3    H175553   2.916   0.518  11.420  2.7871  2.0665 -1.2474
18046TIP3    H275554   2.921   0.541  11.271 -1.9347 -1.7289 -2.2330
18047TIP3   OH275555   3.591   2.405   0.156  0.0036 -0.4061 -0.3520
18047TIP3    H175556   3.590   2.321   0.201 -0.4376  0.1378  0.7046
18047TIP3    H275557   3.523   2.397   0.088 -0.5994 -0.6446  0.2644
18048TIP3   OH275558   4.773   2.897  10.961 -0.4314  0.0598  0.0111
18048TIP3    H175559   4.799   2.983  10.993 -1.3287  0.1956  0.4275
18048TIP3    H275560   4.792   2.899  10.867  0.1185  0.4853  0.1308
18049TIP3   OH275561   1.860   5.891  11.701 -0.7813 -0.1391  1.0811
18049TIP3    H175562   1.872   5.970  11.649 -2.3610  0.8979  2.2130
18049TIP3    H275563   1.917   5.904  11.777  0.3311 -0.9383  0.4065
18050TIP3   OH275564   6.742   5.932   1.822 -0.1124 -0.8194  0.6938
18050TIP3    H175565   6.721   6.024   1.809  2.0907 -0.1255  1.6122
18050TIP3    H275566   6.657   5.887   1.816 -1.3351  1.3201  0.9573
18051TIP3   OH275567   1.420   3.233   5.531 -0.3006  0.2918 -0.3332
18051TIP3    H175568   1.360   3.286   5.585  1.5455  2.2471 -0.0827
18051TIP3    H275569   1.366   3.204   5.457 -2.3692 -0.7356  1.4349
18052TIP3   OH275570   5.413   4.425  17.185  0.1944  0.5777  0.3271
18052TIP3    H175571   5.477   4.480  17.141  0.9325  0.3993  1.1446
18052TIP3    H275572   5.350   4.402  17.117  0.7416  1.1453 -0.3839
18053TIP3   OH275573   4.516   2.804  15.212 -0.2751 -0.3496  0.2760
18053TIP3    H175574   4.498   2.851  15.293 -2.3565 -1.6495  0.6455
18053TIP3    H275575   4.600   2.760  15.228  0.0630  0.5760  1.1352
18054TIP3   OH275576   1.054   2.634   4.052  1.1159 -0.5122  0.1600
18054TIP3    H175577   0.997   2.570   4.094 -0.3692  0.8322  0.3085
18054TIP3    H275578   0.996   2.709   4.034  2.7126  0.6756 -0.2410
18055TIP3   OH275579   2.614   1.001  14.055  0.7994 -0.4297  0.3596
18055TIP3    H175580   2.660   0.992  13.971  1.3909 -1.3529  0.7738
18055TIP3    H275581   2.627   1.093  14.079  1.2866 -0.3498 -0.1788
18056TIP3   OH275582   3.294   4.198   2.844  0.2182  0.3031  0.2722
18056TIP3    H175583   3.219   4.145   2.815  0.8866 -1.3088  1.3181
18056TIP3    H275584   3.273   4.287   2.816 -0.6450 -0.5916 -2.2332
18057TIP3   OH275585   4.787   0.470  15.506  0.7450 -0.3629  0.0628
18057TIP3    H175586   4.779   0.397  15.445  1.7031 -1.2312  0.9314
18057TIP3    H275587   4.828   0.431  15.584 -2.0037  0.2819  1.9757
18058TIP3   OH275588   3.076   6.366   4.086 -0.2008 -0.2589 -0.1317
18058TIP3    H175589   3.148   6.353   4.025  0.0259 -3.3871  0.6840
18058TIP3    H275590   3.001   6.387   4.029  0.3742 -1.4268 -1.3810
18059TIP3   OH275591   3.075   4.879   1.746 -0.4076 -0.0312  0.0139
18059TIP3    H175592   3.044   4.795   1.779  1.4383 -0.7274  0.0380
18059TIP3    H275593   3.117   4.920   1.822 -0.6422  0.6126 -0.1951
18060TIP3   OH275594   2.669   5.247   4.903  0.4078  0.4276  0.5283
18060TIP3    H175595   2.688   5.333   4.866 -1.2571  0.9159  0.7479
18060TIP3    H275596   2.598   5.262   4.964  0.4385 -1.0347  0.9653
18061TIP3   OH275597   0.692   1.594   3.453  0.2448  0.1112 -0.4473
18061TIP3    H175598   0.622   1.553   3.503  1.4748 -0.8976  0.4959
18061TIP3    H275599   0.772   1.572   3.500  1.3422  0.0898 -2.2221
18062TIP3   OH275600   3.753   4.604  14.652 -0.0274 -0.8628  0.4797
18062TIP3    H175601   3.751   4.535  14.586  0.1097 -0.4414  0.0313
18062TIP3    H275602   3.783   4.682  14.605 -1.4627 -0.1604  0.6566
18063TIP3   OH275603   2.575   5.089  12.378  0.2782  0.0064 -0.2818
18063TIP3    H175604   2.572   5.183  12.360  2.0863  0.1540 -0.0154
18063TIP3    H275605   2.619   5.083  12.463  0.6445 -1.1040 -0.5371
18064TIP3   OH275606   6.650   0.411  13.942  0.0291  0.1266  0.1027
18064TIP3    H175607   6.573   0.355  13.951 -1.8905  2.9175  2.2263
18064TIP3    H275608   6.628   0.492  13.986  2.9694  2.3768 -2.0899
18065TIP3   OH275609   1.975   6.404   5.740  0.0222 -0.5538  0.7972
18065TIP3    H175610   1.934   6.489   5.754 -0.2173 -0.3770 -0.7705
18065TIP3    H275611   1.904   6.349   5.708  0.8422 -0.3786 -1.4826
18066TIP3   OH275612   4.163   2.912  14.782  0.6718 -0.2612 -0.2070
18066TIP3    H175613   4.103   2.970  14.829  0.3586  0.0186 -0.9340
18066TIP3    H275614   4.186   2.845  14.846 -0.8837 -0.7129 -0.0630
18067TIP3   OH275615   4.498   6.776   1.861 -0.2645  0.0246 -0.4630
18067TIP3    H175616   4.526   6.699   1.811  0.5368  0.4697 -0.7182
18067TIP3    H275617   4.573   6.796   1.918 -1.0587 -0.3021  0.7228
18068TIP3   OH275618   2.035   0.772   2.942 -0.3977  0.5691  0.0325
18068TIP3    H175619   1.990   0.839   2.891  2.2206  1.9727 -0.6205
18068TIP3    H275620   2.127   0.799   2.942  1.0946 -3.6314 -1.3271
18069TIP3   OH275621   2.569   1.641  12.914 -0.3054  0.7528 -0.1838
18069TIP3    H175622   2.479   1.641  12.882 -0.4443  1.4408  0.1961
18069TIP3    H275623   2.620   1.678  12.842  0.1870 -2.4422 -1.6928
18070TIP3   OH275624   1.340   5.619   6.615  0.1445 -0.0031 -0.6292
18070TIP3    H175625   1.263   5.581   6.573 -0.5095 -0.4582  0.9341
18070TIP3    H275626   1.414   5.582   6.567 -0.5696 -0.4178 -1.4446
18071TIP3   OH275627   4.652   1.530  15.973 -0.1110 -0.1305 -0.7940
18071TIP3    H175628   4.681   1.565  16.057 -0.9354 -2.0799  0.3840
18071TIP3    H275629   4.576   1.583  15.950 -0.1711  0.1200 -0.0626
18072TIP3   OH275630   0.989   0.832  11.182 -0.5092 -0.8545  0.4557
18072TIP3    H175631   0.999   0.922  11.152 -0.4218 -0.7417  0.8232
18072TIP3    H275632   1.034   0.779  11.115 -3.5114 -0.9512 -1.7198
18073TIP3   OH275633   2.339   0.436   2.370  0.4076 -0.2700 -0.2579
18073TIP3    H175634   2.245   0.449   2.361  0.5145  0.3280 -0.5834
18073TIP3    H275635   2.349   0.343   2.388 -0.1836 -0.5709 -1.3577
18074TIP3   OH275636   1.818   4.770   0.532  0.3868 -0.4934 -0.3310
18074TIP3    H175637   1.797   4.855   0.494 -1.6873 -0.1369  1.4377
18074TIP3    H275638   1.901   4.746   0.491  0.1305  1.5102 -2.2405
18075TIP3   OH275639   6.630   1.466  11.888  0.0592  0.0119 -0.2664
18075TIP3    H175640   6.587   1.436  11.968  0.6003 -0.0784 -0.0033
18075TIP3    H275641   6.559   1.496  11.832 -0.1650  4.2549  1.9176
18076TIP3   OH275642   0.606   5.760  15.189 -0.2606  0.2015 -0.0378
18076TIP3    H175643   0.548   5.771  15.265  1.1029 -1.6699  1.3509
18076TIP3    H275644   0.674   5.827  15.202  0.1857 -0.3641  0.6435
18077TIP3   OH275645   3.623   1.257  15.247 -0.0981 -0.1667 -0.2821
18077TIP3    H175646   3.628   1.266  15.342 -0.1460  1.7906 -0.4232
18077TIP3    H275647   3.669   1.334  15.213 -1.3922 -0.0118 -1.8331
18078TIP3   OH275648   6.776   2.370   5.436  0.5457  0.6602  0.1126
18078TIP3    H175649   6.789   2.285   5.478  3.0886  0.4457 -0.9193
18078TIP3    H275650   6.798   2.354   5.344  0.3852  2.2853 -0.2258
18079TIP3   OH275651   1.385   2.603   0.495 -0.5146  0.2800 -0.5143
18079TIP3    H175652   1.478   2.582   0.503 -0.4743  1.1088  1.6655
18079TIP3    H275653   1.342   2.518   0.486  0.2391 -0.3392  1.2708
18080TIP3   OH275654   3.131   5.241  15.667  0.4760  0.4442 -0.2996
18080TIP3    H175655   3.080   5.234  15.587  1.9837  1.5876 -1.4122
18080TIP3    H275656   3.087   5.182  15.729 -0.4119 -0.8685 -2.1061
18081TIP3   OH275657   4.003   0.101  17.182 -0.3950 -0.1686 -0.3899
18081TIP3    H175658   4.042   0.022  17.219  0.3330  0.4005  0.0818
18081TIP3    H275659   3.998   0.084  17.088 -0.7798 -1.0011 -0.2203
18082TIP3   OH275660   3.371   2.972   4.359  0.1667 -0.4404 -0.0555
18082TIP3    H175661   3.408   2.894   4.402 -0.8553  0.3397  2.3723
18082TIP3    H275662   3.421   3.045   4.395 -1.1680  0.2973  0.3659
18083TIP3   OH275663   2.142   1.577   1.492 -0.1823 -0.2945  0.1920
18083TIP3    H175664   2.217   1.527   1.462 -0.8069 -1.7744  0.9716
18083TIP3    H275665   2.150   1.578   1.588 -1.9602 -1.9129  0.4276
18084TIP3   OH275666   2.993   0.119   5.817  0.2967  0.2355  0.4815
18084TIP3    H175667   2.932   0.054   5.854  0.7153  0.4068  1.5171
18084TIP3    H275668   2.940   0.199   5.810  0.6306  0.6838  2.3966
18085TIP3   OH275669   2.708   5.525   2.248  0.0922 -0.1255 -0.0803
18085TIP3    H175670   2.685   5.532   2.155  0.6764 -2.3053 -0.4379
18085TIP3    H275671   2.789   5.475   2.250  0.0169 -0.2591  1.6170
18086TIP3   OH275672   0.087   6.291  16.178  0.5154  0.0418  0.0795
18086TIP3    H175673   0.090   6.332  16.091  0.5451 -1.0944 -0.4703
18086TIP3    H275674  -0.002   6.309  16.210  0.7807  1.2087  0.1963
18087TIP3   OH275675   2.629   3.875  17.098 -0.1762  0.0098 -0.6232
18087TIP3    H175676   2.620   3.953  17.044  0.2113 -1.0449 -2.2881
18087TIP3    H275677   2.639   3.804  17.035 -3.1653 -1.7868  0.7571
18088TIP3   OH275678   5.127   5.992  16.200 -0.3294 -0.7292  0.0908
18088TIP3    H175679   5.180   6.068  16.177  1.2672 -2.1427 -1.1444
18088TIP3    H275680   5.048   6.029  16.240  0.2342  1.5774 -0.7801
18089TIP3   OH275681   4.190   3.859   5.099  0.7533 -0.1971 -0.4833
18089TIP3    H175682   4.174   3.794   5.031 -0.5962 -0.8454  0.4144
18089TIP3    H275683   4.285   3.872   5.097  1.0720 -2.2063 -0.6840
18090TIP3   OH275684   6.237   3.951  12.559  0.1116 -0.2483 -0.4219
18090TIP3    H175685   6.174   3.974  12.627  0.1259 -1.3276 -0.0084
18090TIP3    H275686   6.255   3.858  12.575  0.2073 -0.4888 -1.8291
18091TIP3   OH275687   1.425   4.103   4.548  0.4751 -0.1938 -0.4658
18091TIP3    H175688   1.331   4.103   4.528  0.4112 -0.7538 -0.1776
18091TIP3    H275689   1.438   4.181   4.601 -0.1087 -0.8937  0.7416
18092TIP3   OH275690   4.341   5.685  15.705 -0.4091 -0.3791 -0.9237
18092TIP3    H175691   4.290   5.674  15.785 -0.0457 -0.3843 -0.6915
18092TIP3    H275692   4.369   5.597  15.682 -0.2704 -0.3393 -0.9021
18093TIP3   OH275693   0.849   4.284  13.446  0.1498 -0.2979 -0.2925
18093TIP3    H175694   0.813   4.311  13.361  2.4853  2.1046 -0.6719
18093TIP3    H275695   0.809   4.344  13.509 -0.5392 -1.1793  0.1306
18094TIP3   OH275696   6.650   3.777  16.889 -0.4162  0.1895  0.4538
18094TIP3    H175697   6.682   3.836  16.957  0.2548 -0.4519  0.6987
18094TIP3    H275698   6.634   3.834  16.814  1.0432  0.5759  0.4076
18095TIP3   OH275699   2.349   6.244   4.291 -0.5232 -0.0430 -0.3059
18095TIP3    H175700   2.291   6.178   4.328 -0.1455 -0.8935 -1.1827
18095TIP3    H275701   2.331   6.324   4.341 -1.8248 -0.5070 -0.0061
18096TIP3   OH275702   5.716   3.993   0.248 -0.1917 -0.7048  0.2948
18096TIP3    H175703   5.789   3.956   0.199  0.1311 -1.3655  1.2491
18096TIP3    H275704   5.642   3.988   0.187  0.1016 -1.8886  0.0056
18097TIP3   OH275705   4.565   6.579   4.514 -0.2885 -0.1438 -0.3643
18097TIP3    H175706   4.571   6.611   4.424 -0.8743  0.7894 -0.0869
18097TIP3    H275707   4.641   6.618   4.558 -0.3571 -0.0807 -0.3025
18098TIP3   OH275708   1.626   6.723  12.016  0.0698  0.0727 -0.4316
18098TIP3    H175709   1.695   6.751  12.075  2.6532 -0.6626 -2.8739
18098TIP3    H275710   1.553   6.782  12.035  2.6918  3.6655 -0.3609
18099TIP3   OH275711   6.131   3.556   2.417  0.2199  0.0834 -0.5219
18099TIP3    H175712   6.115   3.466   2.388 -1.3374  1.1811 -3.4558
18099TIP3    H275713   6.074   3.567   2.494 -2.3997 -0.4524 -2.2529
18100TIP3   OH275714   2.204   4.055   1.489 -0.1417  0.4403  0.3905
18100TIP3    H175715   2.260   4.015   1.555  1.5340  2.1771  0.1105
18100TIP3    H275716   2.251   4.134   1.462 -1.0474  0.1288 -2.4532
18101TIP3   OH275717   4.466   4.346   3.692  0.0153 -0.3803 -0.3077
18101TIP3    H175718   4.448   4.380   3.605  1.0110  2.3149  0.4329
18101TIP3    H275719   4.507   4.261   3.677  1.8009  0.7632 -2.5735
18102TIP3   OH275720   1.733   2.572  15.603 -0.2294  0.2720  0.4757
18102TIP3    H175721   1.827   2.591  15.614 -0.2614  1.4308 -0.9204
18102TIP3    H275722   1.690   2.628  15.667 -0.0759  1.8133 -0.7062
18103TIP3   OH275723   1.629   1.670   5.874 -0.8778  0.0103 -0.3343
18103TIP3    H175724   1.686   1.665   5.951 -1.3182 -1.8381 -0.0809
18103TIP3    H275725   1.689   1.680   5.800 -0.2998 -0.5914  0.0473
18104TIP3   OH275726   4.334   5.115   3.506  0.0691  0.0209 -0.1288
18104TIP3    H175727   4.390   5.063   3.564  0.2022  1.0181  0.6805
18104TIP3    H275728   4.247   5.076   3.516  0.4159 -0.9069 -0.6188
18105TIP3   OH275729   1.734   4.852   5.887  0.0220  0.2045 -0.4761
18105TIP3    H175730   1.810   4.904   5.859 -0.5162  1.0892 -0.3455
18105TIP3    H275731   1.691   4.907   5.953  0.1526 -0.9787  0.6223
18106TIP3   OH275732   1.689   1.112  17.142  0.0417  0.7166  0.3905
18106TIP3    H175733   1.641   1.144  17.219 -0.8266  1.3411 -0.3840
18106TIP3    H275734   1.620   1.094  17.078  0.8911  2.3989 -1.0424
18107TIP3   OH275735   4.386   6.615   2.342 -0.3934  0.0749 -0.3904
18107TIP3    H175736   4.366   6.647   2.254  0.3841  2.2870  0.1868
18107TIP3    H275737   4.480   6.631   2.353 -0.1321 -1.6558  0.3032
18108TIP3   OH275738   1.078   0.991  12.544 -0.2384 -0.1313 -0.0297
18108TIP3    H175739   1.119   1.053  12.605 -0.2106 -0.5117  0.3451
18108TIP3    H275740   1.150   0.935  12.515 -0.5708 -1.2389  1.1576
18109TIP3   OH275741   2.979   0.167  14.478  0.0107 -0.4781  0.5768
18109TIP3    H175742   2.938   0.109  14.414 -0.9493  1.3844 -0.5918
18109TIP3    H275743   3.055   0.203  14.433 -0.2626  0.2985  0.7165
18110TIP3   OH275744   2.740   4.268   0.355 -0.6314  0.3015  0.6781
18110TIP3    H175745   2.653   4.299   0.332 -0.8156 -1.2474 -0.9711
18110TIP3    H275746   2.790   4.275   0.273 -0.2887 -2.2121  0.5885
18111TIP3   OH275747   5.930   0.696  16.324 -0.1942  0.5129 -0.2750
18111TIP3    H175748   5.928   0.790  16.305 -1.6582  0.6591  0.4273
18111TIP3    H275749   5.963   0.690  16.413  1.1966  0.2443 -0.7905
18112TIP3   OH275750   1.146   6.643  12.510 -0.1126  0.1440 -0.5069
18112TIP3    H175751   1.201   6.717  12.485  0.1510  0.5714  1.2130
18112TIP3    H275752   1.093   6.625  12.433 -0.6067  2.5203 -0.7856
18113TIP3   OH275753   3.986   5.974   0.026 -0.3921  0.0852 -0.1331
18113TIP3    H175754   3.958   5.888  -0.005  0.9200 -0.9185  1.3050
18113TIP3    H275755   4.056   6.000  -0.035 -1.6172  0.7315 -1.3002
18114TIP3   OH275756   1.440   6.188  13.043  0.2000 -0.0732  0.3100
18114TIP3    H175757   1.398   6.176  13.128 -0.0702 -0.0434  0.1841
18114TIP3    H275758   1.373   6.161  12.980 -0.2513  1.6320  0.0236
18115TIP3   OH275759   5.863   4.358  12.259 -0.0164  0.0064  0.4658
18115TIP3    H175760   5.793   4.401  12.308 -0.5958  0.8547 -1.0370
18115TIP3    H275761   5.886   4.282  12.312 -0.0526  1.2710  2.4306
18116TIP3   OH275762   3.312   0.924  15.330  0.3732 -0.0998 -0.3299
18116TIP3    H175763   3.351   0.840  15.304 -0.2049  0.0966 -1.9231
18116TIP3    H275764   3.368   0.990  15.289 -0.2296  0.2433 -0.6059
18117TIP3   OH275765   2.498   3.011   4.444  0.0388  0.3463  0.2097
18117TIP3    H175766   2.488   2.981   4.534  3.5917  0.0526  0.6677
18117TIP3    H275767   2.519   2.932   4.394  0.0338  0.7776 -0.4948
18118TIP3   OH275768   3.432   3.368  13.539 -0.7830  0.2614  0.3496
18118TIP3    H175769   3.432   3.419  13.458  2.0624 -0.6094 -0.3271
18118TIP3    H275770   3.481   3.288  13.517  2.0662  0.9345  3.3810
18119TIP3   OH275771   3.757   6.802  14.169 -0.4463 -0.2091 -0.0303
18119TIP3    H175772   3.775   6.803  14.075  1.3939  0.0040  0.2745
18119TIP3    H275773   3.664   6.823  14.177 -0.5780 -0.0325 -1.7899
18120TIP3   OH275774   2.706   0.486  16.025 -0.1454 -0.0840  0.9008
18120TIP3    H175775   2.772   0.544  15.988 -0.5722 -0.9408 -1.3923
18120TIP3    H275776   2.753   0.404  16.043 -0.4998 -0.6423 -0.5854
18121TIP3   OH275777   4.496   5.658   0.059 -0.1968 -0.4611  0.0867
18121TIP3    H175778   4.478   5.587  -0.003 -2.6127 -0.1358  0.3511
18121TIP3    H275779   4.516   5.614   0.141 -0.7744 -0.8474  0.0210
18122TIP3   OH275780   6.317   4.644  10.634 -0.3853 -0.1896 -0.3295
18122TIP3    H175781   6.260   4.657  10.558 -0.1757  1.4045 -0.2416
18122TIP3    H275782   6.396   4.604  10.597 -0.0123  1.1869 -1.0894
18123TIP3   OH275783   6.608   3.766  11.244 -0.3502  0.5793  0.4851
18123TIP3    H175784   6.666   3.803  11.310  1.4971 -1.6733  0.2327
18123TIP3    H275785   6.624   3.817  11.165  0.3424  0.7935  0.7650
18124TIP3   OH275786   4.103   5.072   0.903  0.5915  0.0640 -0.4350
18124TIP3    H175787   4.088   5.106   0.815 -1.6738  0.9142  0.2087
18124TIP3    H275788   4.143   4.986   0.889 -0.8062 -0.3539 -2.3519
18125TIP3   OH275789   4.648   6.389  11.130  0.2892  0.0073 -0.5064
18125TIP3    H175790   4.685   6.415  11.046 -1.2704 -1.4813 -1.7167
18125TIP3    H275791   4.604   6.306  11.112  0.0403 -0.4206  1.8298
18126TIP3   OH275792   3.544   1.072   0.674  0.0414  0.0238  0.0576
18126TIP3    H175793   3.576   1.022   0.599  0.3720  1.7060 -0.9733
18126TIP3    H275794   3.520   1.158   0.638 -0.8181  0.5193  1.6925
18127TIP3   OH275795   5.549   4.853   0.028  0.0489 -0.1925  0.5264
18127TIP3    H175796   5.628   4.834   0.078 -0.0051 -0.4119  0.5266
18127TIP3    H275797   5.581   4.887  -0.056  0.1432 -0.5366  0.4248
18128TIP3   OH275798   4.383   3.607  11.443 -0.0688  0.4205 -0.0478
18128TIP3    H175799   4.392   3.559  11.361 -0.6058 -0.6098  0.4781
18128TIP3    H275800   4.363   3.697  11.416 -2.0992 -0.2709 -1.0671
18129TIP3   OH275801   1.114   0.591   1.422 -0.2149  0.1291 -0.5177
18129TIP3    H175802   1.140   0.500   1.422  1.9464  0.7031 -0.6706
18129TIP3    H275803   1.136   0.623   1.510 -2.5928  0.1373  0.1698
18130TIP3   OH275804   3.045   6.083   6.536  0.4392 -0.7273  0.8313
18130TIP3    H175805   3.048   6.161   6.479  0.1889 -0.9067  0.5677
18130TIP3    H275806   2.989   6.109   6.608  2.6851  0.3552  2.3152
18131TIP3   OH275807   5.051   4.295  13.434  0.2120 -0.1852  0.3863
18131TIP3    H175808   5.055   4.277  13.340  2.9633  2.2844 -0.1221
18131TIP3    H275809   5.032   4.389  13.439  0.8324 -0.1267  2.2550
18132TIP3   OH275810   0.179   5.860   5.984 -0.0400  0.5416  0.0613
18132TIP3    H175811   0.113   5.883   5.919  0.5485 -0.1237 -0.7963
18132TIP3    H275812   0.136   5.795   6.039  0.1239 -0.4481 -0.9477
18133TIP3   OH275813   2.566   5.975  14.030  0.4205  0.2915  0.2130
18133TIP3    H175814   2.501   5.946  13.965 -0.1725 -0.5939  1.1631
18133TIP3    H275815   2.515   5.995  14.108  1.2490 -0.0360  0.8564
18134TIP3   OH275816   5.956   4.117  16.235 -0.3151  0.0997 -0.6076
18134TIP3    H175817   6.051   4.126  16.238 -0.2215 -0.6408 -1.1808
18134TIP3    H275818   5.927   4.185  16.174  0.0177 -0.7825 -1.7889
18135TIP3   OH275819   0.357   6.132   5.104 -0.1162 -0.3363  0.5215
18135TIP3    H175820   0.299   6.060   5.081 -1.3382  0.8398 -0.1834
18135TIP3    H275821   0.438   6.113   5.057 -0.2744 -1.4486  0.6726
18136TIP3   OH275822   3.775   2.824  16.499 -0.0810  0.2357  0.2215
18136TIP3    H175823   3.800   2.734  16.523  0.7632  0.4155  0.0650
18136TIP3    H275824   3.738   2.816  16.411  0.1394  0.0520  0.1427
18137TIP3   OH275825   5.845   5.328  15.616  0.5937  0.0713 -0.3046
18137TIP3    H175826   5.831   5.371  15.701  1.2267  0.1823 -0.2557
18137TIP3    H275827   5.781   5.256  15.616  0.9625 -0.2781  0.5069
18138TIP3   OH275828   3.829   4.296   0.477 -0.2333  0.4877  0.3732
18138TIP3    H175829   3.765   4.366   0.488 -0.7980  0.5590 -2.5111
18138TIP3    H275830   3.907   4.340   0.444 -1.3283 -0.2290 -3.8314
18139TIP3   OH275831   4.515   5.450   3.788  0.4111  0.0717  0.2215
18139TIP3    H175832   4.601   5.478   3.757 -0.1676  1.1821 -0.4358
18139TIP3    H275833   4.522   5.355   3.794  1.5377  0.1048 -0.2567
18140TIP3   OH275834   4.763   3.310  13.311  0.1386  0.2889 -0.5619
18140TIP3    H175835   4.816   3.348  13.240  2.4773 -0.3782  0.7297
18140TIP3    H275836   4.787   3.360  13.388 -1.4134  0.1596  0.0354
18141TIP3   OH275837   4.044   1.741  12.266  0.1923  0.1205  0.1105
18141TIP3    H175838   3.995   1.661  12.249 -1.2535  1.2695 -1.4171
18141TIP3    H275839   4.100   1.752  12.189  1.8079 -0.3522  1.1466
18142TIP3   OH275840   1.976   3.925   4.255  0.1207  0.4871  0.5329
18142TIP3    H175841   1.997   4.018   4.269  0.4245  0.3653  0.8955
18142TIP3    H275842   2.024   3.879   4.324  0.8247 -0.0386 -0.2830
18143TIP3   OH275843   3.599   5.061  13.421  0.0129  0.0886  0.0116
18143TIP3    H175844   3.580   5.144  13.464 -0.4679  0.0428 -0.1055
18143TIP3    H275845   3.515   5.034  13.383 -0.2992 -1.3770  1.6138
18144TIP3   OH275846   3.438   0.281  11.586  0.4562  0.1380 -0.1948
18144TIP3    H175847   3.413   0.250  11.674  2.4200  1.7262  0.9946
18144TIP3    H275848   3.501   0.216  11.555  1.3779  0.6773  0.5073
18145TIP3   OH275849   6.486   4.260  11.087 -0.2895  0.3918  0.0019
18145TIP3    H175850   6.517   4.343  11.123  0.1676  0.1964  0.0565
18145TIP3    H275851   6.473   4.204  11.164 -2.9644  1.1712  0.2292
18146TIP3   OH275852   1.094   6.116   3.427  0.4514 -0.0676  0.3648
18146TIP3    H175853   1.170   6.170   3.450  0.3246  0.2011  0.1647
18146TIP3    H275854   1.095   6.112   3.331 -0.9848  1.7266  0.2160
18147TIP3   OH275855   0.389   3.260  16.508 -0.0353 -0.1257 -0.5813
18147TIP3    H175856   0.305   3.267  16.554  0.7580 -0.5681  1.0018
18147TIP3    H275857   0.395   3.340  16.456 -0.4104  1.0197  1.0700
18148TIP3   OH275858   4.259   3.571   2.667  0.2069  0.1710 -0.0356
18148TIP3    H175859   4.341   3.619   2.677  1.1213 -1.3170 -0.0120
18148TIP3    H275860   4.200   3.611   2.731  0.8479  1.3716 -0.1596
18149TIP3   OH275861   2.783   5.080  13.867  0.3292  0.8372  0.6972
18149TIP3    H175862   2.875   5.084  13.892  0.0967  2.3282  1.4002
18149TIP3    H275863   2.779   5.125  13.783  0.0306  2.1727  1.4002
18150TIP3   OH275864   3.169   2.970   0.586  0.3748  0.5239  0.7188
18150TIP3    H175865   3.077   2.965   0.611  0.8666  0.6682  2.6930
18150TIP3    H275866   3.193   2.880   0.563  0.2065  0.1309  2.0171
18151TIP3   OH275867   0.642   5.161   3.786  0.1463 -0.5656 -0.0673
18151TIP3    H175868   0.682   5.205   3.710 -1.6357 -1.3808 -1.5494
18151TIP3    H275869   0.583   5.227   3.823  2.7054  0.6821  2.1988
18152TIP3   OH275870   0.085   0.314   1.848  0.2749  0.3890  0.3315
18152TIP3    H175871   0.178   0.325   1.867  0.4256 -0.8934  0.3711
18152TIP3    H275872   0.076   0.344   1.757  0.7723  0.2820  0.2436
18153TIP3   OH275873   2.897   5.360  11.432 -0.1934 -0.3655 -0.6218
18153TIP3    H175874   2.949   5.282  11.413 -0.8476 -0.7243 -0.9456
18153TIP3    H275875   2.858   5.385  11.348  1.1593  1.1773 -0.8511
18154TIP3   OH275876   3.451   5.235   3.025  0.0417  0.4567  0.1754
18154TIP3    H175877   3.467   5.191   2.941  1.2518  1.8931 -0.3801
18154TIP3    H275878   3.431   5.325   3.001  0.6163  0.9300  1.4397
18155TIP3   OH275879   0.551   4.854   1.067 -0.6553 -0.1952 -0.1256
18155TIP3    H175880   0.569   4.773   1.019 -0.6146  1.4392 -3.0945
18155TIP3    H275881   0.636   4.878   1.105 -0.4781 -1.0981  0.0738
18156TIP3   OH275882   1.835   6.738   5.536  0.0792  0.1938  0.1736
18156TIP3    H175883   1.924   6.765   5.558 -0.1001  0.4925  0.5379
18156TIP3    H275884   1.792   6.724   5.621 -0.7377  1.7448  0.0493
18157TIP3   OH275885   3.115   3.472   2.153  0.3932  0.3510  0.5889
18157TIP3    H175886   3.051   3.521   2.102 -0.1118 -0.4613  0.4199
18157TIP3    H275887   3.062   3.409   2.202  1.1617 -1.3037 -0.6413
18158TIP3   OH275888   4.466   1.591   0.968 -0.1202  0.1372 -0.0810
18158TIP3    H175889   4.450   1.638   0.886 -0.9436 -1.3177 -0.7969
18158TIP3    H275890   4.504   1.656   1.026 -0.4880  1.4735 -1.2865
18159TIP3   OH275891   5.125   1.019  12.256 -0.2248  0.2904  0.5151
18159TIP3    H175892   5.184   1.019  12.181 -2.2718  2.7335 -1.2841
18159TIP3    H275893   5.167   1.076  12.320 -0.4327  1.8690 -0.6769
18160TIP3   OH275894   4.591   3.429  11.458 -0.0261 -0.6381  0.2992
18160TIP3    H175895   4.612   3.476  11.377  0.0929 -0.5433  0.3852
18160TIP3    H275896   4.498   3.448  11.473  0.0471 -0.3449  0.3896
18161TIP3   OH275897   4.642   2.744   5.955 -0.1172 -0.0681 -0.3163
18161TIP3    H175898   4.637   2.737   6.050  2.1078 -0.9229 -0.1887
18161TIP3    H275899   4.697   2.821   5.939 -1.5307  0.8359 -0.9752
18162TIP3   OH275900   0.272   1.756   5.237 -0.2293 -0.6666 -0.2545
18162TIP3    H175901   0.210   1.690   5.268 -2.8993  0.7169 -2.2050
18162TIP3    H275902   0.291   1.809   5.314 -1.1134 -1.4196  0.5086
18163TIP3   OH275903   3.188   6.736   1.704  0.2824  0.0986  0.3963
18163TIP3    H175904   3.273   6.774   1.725 -0.5504  1.7005  1.1083
18163TIP3    H275905   3.180   6.746   1.609  1.1051 -0.5481  0.2596
18164TIP3   OH275906   0.498   2.318  12.303 -0.2088 -0.4397 -0.0375
18164TIP3    H175907   0.559   2.367  12.248 -0.9967 -2.3001 -2.8018
18164TIP3    H275908   0.430   2.382  12.326 -0.1984  0.3174 -1.8690
18165TIP3   OH275909   4.174   5.190   4.475 -0.4639 -0.2490  0.0763
18165TIP3    H175910   4.101   5.133   4.497 -0.2636 -0.6330 -0.2413
18165TIP3    H275911   4.228   5.192   4.554 -0.8212  0.0486  0.3163
18166TIP3   OH275912   0.678   3.847   0.665  0.0793  0.0962  0.6556
18166TIP3    H175913   0.594   3.891   0.658  0.4510  0.8201  0.6963
18166TIP3    H275914   0.696   3.843   0.759  0.2546  0.2506  0.6281
18167TIP3   OH275915   4.492   0.515  15.720 -0.1475  0.5530  0.5310
18167TIP3    H175916   4.561   0.510  15.786 -0.3042 -0.5012  0.6445
18167TIP3    H275917   4.422   0.565  15.761 -0.6435 -0.9156  1.5735
18168TIP3   OH275918   5.113   4.423   1.936  0.0400 -0.2841 -0.1012
18168TIP3    H175919   5.090   4.348   1.991  2.5099 -1.5550 -0.6590
18168TIP3    H275920   5.203   4.405   1.907 -0.3035  1.5218 -2.5780
18169TIP3   OH275921   5.273   5.239   1.268 -0.4055 -0.0769 -0.4794
18169TIP3    H175922   5.228   5.291   1.201 -0.7832  0.9240  0.5305
18169TIP3    H275923   5.210   5.232   1.340  0.5210  0.1095  0.3710
18170TIP3   OH275924   6.560   2.841   2.158 -0.6062 -0.1819 -0.9789
18170TIP3    H175925   6.515   2.904   2.214 -1.7102 -0.7681 -1.1988
18170TIP3    H275926   6.500   2.825   2.086  0.1383 -0.6422 -1.5165
18171TIP3   OH275927   4.510   2.355   5.397  0.3198 -0.2159 -0.0302
18171TIP3    H175928   4.477   2.265   5.393  1.0891 -0.4708 -0.7141
18171TIP3    H275929   4.543   2.373   5.309  1.6094  0.1821  0.5114
18172TIP3   OH275930   6.712   2.546   2.113  0.1671 -0.3214  0.6835
18172TIP3    H175931   6.678   2.457   2.105  0.6712 -0.4760  0.2602
18172TIP3    H275932   6.635   2.598   2.139 -0.0693 -0.9195  1.2173
18173TIP3   OH275933   4.771   5.677  15.123  0.3333  0.8256  0.2209
18173TIP3    H175934   4.750   5.757  15.075 -0.1958  1.2403  1.1029
18173TIP3    H275935   4.702   5.670  15.189  1.1530  0.3931  1.0602
18174TIP3   OH275936   1.785   4.143  13.773  0.0041  0.1678 -0.6963
18174TIP3    H175937   1.813   4.152  13.682 -0.5488  0.2053 -0.8636
18174TIP3    H275938   1.690   4.143  13.769 -0.0273 -0.6209 -0.1972
18175TIP3   OH275939   1.702   3.835  15.834  0.1136 -0.4352 -0.4811
18175TIP3    H175940   1.746   3.824  15.918  0.2152  0.8882 -0.3286
18175TIP3    H275941   1.661   3.751  15.816 -1.7311 -0.1765  1.9793
18176TIP3   OH275942   4.073   1.519  15.474 -0.1573 -0.0499 -0.2300
18176TIP3    H175943   4.035   1.594  15.519 -0.8600 -0.5098 -0.0353
18176TIP3    H275944   4.002   1.484  15.420  0.1958 -0.4920 -0.4214
18177TIP3   OH275945   4.495   0.612  13.499 -0.0017  0.3139  0.3359
18177TIP3    H175946   4.538   0.695  13.520  0.1067 -0.1992  2.3906
18177TIP3    H275947   4.446   0.590  13.578  1.5075 -2.5066  0.6320
18178TIP3   OH275948   4.618   2.109  15.511 -0.1564  0.7745  0.1896
18178TIP3    H175949   4.529   2.120  15.478 -0.0967 -0.1104 -0.2878
18178TIP3    H275950   4.672   2.102  15.432  0.1637 -0.0393  0.4785
18179TIP3   OH275951   4.695   2.980  14.840  0.3314 -0.3482 -0.7283
18179TIP3    H175952   4.626   3.041  14.812  1.1143  0.4199 -1.0122
18179TIP3    H275953   4.773   3.009  14.794  1.6724  0.9541  2.1348
18180TIP3   OH275954   1.381   0.204  14.388 -0.6873 -0.0958 -0.2252
18180TIP3    H175955   1.329   0.268  14.339  0.2282  0.7889 -0.0494
18180TIP3    H275956   1.386   0.128  14.329 -0.0988  0.7362 -1.2757
18181TIP3   OH275957   0.079   0.870   2.782  0.6641 -0.0658 -0.3522
18181TIP3    H175958   0.163   0.831   2.806  0.6741 -0.7458 -1.4492
18181TIP3    H275959   0.014   0.815   2.825  0.7176 -0.6894 -1.0595
18182TIP3   OH275960   1.874   2.041   3.935  0.2748  0.3667 -0.1189
18182TIP3    H175961   1.899   1.952   3.911  1.7741  1.0121 -1.0889
18182TIP3    H275962   1.795   2.031   3.988  2.1006 -1.7715  2.4729
18183TIP3   OH275963   4.629   1.806  13.719  0.3241  0.0809 -0.3516
18183TIP3    H175964   4.652   1.869  13.787  0.1038 -0.4959  0.2759
18183TIP3    H275965   4.711   1.788  13.673  0.4929  0.3985 -0.1748
18184TIP3   OH275966   1.377   6.197  12.070  0.3636 -0.3478  0.3268
18184TIP3    H175967   1.359   6.217  11.978 -1.0548  0.3937  0.7344
18184TIP3    H275968   1.381   6.102  12.074  1.2221 -0.3619 -0.6305
18185TIP3   OH275969   3.612   3.524   0.011 -0.1615 -0.6074 -0.3386
18185TIP3    H175970   3.645   3.435   0.022 -2.2353 -1.4338 -0.3262
18185TIP3    H275971   3.611   3.560   0.099  1.6716 -0.1369 -0.4609
18186TIP3   OH275972   0.805   4.260   2.790 -0.5897 -0.8126  0.2031
18186TIP3    H175973   0.765   4.316   2.724 -0.6657 -0.6707  0.3701
18186TIP3    H275974   0.837   4.321   2.856  0.1812 -0.8979 -0.0771
18187TIP3   OH275975   5.679   1.286  16.679 -0.4247 -0.2476 -0.4985
18187TIP3    H175976   5.765   1.328  16.677 -0.7424  0.6456  1.7466
18187TIP3    H275977   5.683   1.225  16.752 -1.7947  0.0536 -0.1377
18188TIP3   OH275978   4.576   4.332   5.710  0.0768  0.1572  0.1291
18188TIP3    H175979   4.631   4.304   5.783 -1.0002  0.8222  1.2170
18188TIP3    H275980   4.534   4.412   5.740 -1.4323 -0.2821 -0.7079
18189TIP3   OH275981   2.236   0.088  16.772  0.1128 -0.3990  0.6595
18189TIP3    H175982   2.191   0.160  16.817  1.0413  0.2398  0.5904
18189TIP3    H275983   2.297   0.131  16.712  1.4308 -1.2164  1.3568
18190TIP3   OH275984   5.454   3.553  13.803 -0.2751  0.2389 -1.1374
18190TIP3    H175985   5.544   3.546  13.770 -0.5094  0.5536 -1.8586
18190TIP3    H275986   5.455   3.634  13.854  0.1309 -0.3359 -0.2021
18191TIP3   OH275987   5.574   4.577  11.223  0.6616 -0.1796  0.1952
18191TIP3    H175988   5.652   4.522  11.218  0.4701 -0.8588  2.8250
18191TIP3    H275989   5.568   4.601  11.316  0.5019  4.0214 -0.7038
18192TIP3   OH275990   0.265   6.555  14.497  0.0442  0.0189 -0.0089
18192TIP3    H175991   0.298   6.642  14.473  0.7687 -0.2175  0.1273
18192TIP3    H275992   0.169   6.566  14.498  0.0342  0.4096 -1.5590
18193TIP3   OH275993   3.799   3.328  15.944  0.0401  0.2957 -0.6761
18193TIP3    H175994   3.879   3.377  15.962 -0.0079  0.7165 -1.5785
18193TIP3    H275995   3.734   3.395  15.922 -0.4778 -0.0634 -0.2774
18194TIP3   OH275996   1.217   0.043   3.121  0.4755 -0.2423 -0.2474
18194TIP3    H175997   1.150   0.048   3.052 -0.0589  0.7813  0.3230
18194TIP3    H275998   1.299   0.034   3.073  0.3154  2.3404 -1.1468
18195TIP3   OH275999   1.770   5.224  15.093  0.4935  0.1453  0.2419
18195TIP3    H176000   1.768   5.206  15.187 -0.7422 -0.6635  0.0800
18195TIP3    H276001   1.686   5.264  15.074  0.4417 -0.3344 -0.6292
18196TIP3   OH276002   4.332   4.443   4.871 -0.3901 -0.1993 -0.3059
18196TIP3    H176003   4.255   4.395   4.839 -0.0999 -0.7999 -0.1297
18196TIP3    H276004   4.397   4.375   4.885 -0.0830  0.2179  0.3004
18197TIP3   OH276005   2.259   5.458  16.641  0.3597 -0.6400 -0.4194
18197TIP3    H176006   2.270   5.378  16.589  0.0505 -0.4281 -0.8183
18197TIP3    H276007   2.275   5.529  16.579  0.4872 -0.3883 -0.1009
18198TIP3   OH276008   5.209   3.461  10.800  0.4110 -0.4219 -0.4354
18198TIP3    H176009   5.206   3.408  10.720  3.5404 -0.7437 -0.4604
18198TIP3    H276010   5.195   3.551  10.769 -2.3270 -0.8759 -0.7340
18199TIP3   OH276011   3.810   3.849   1.051  0.2006 -0.3226  0.1588
18199TIP3    H176012   3.896   3.875   1.019  0.5606 -1.8769 -0.2078
18199TIP3    H276013   3.748   3.895   0.995  0.8052 -0.2568 -0.4610
18200TIP3   OH276014   3.424   5.875   5.121  0.6076 -0.1513  0.3096
18200TIP3    H176015   3.476   5.855   5.043 -2.1716  0.5805 -1.8951
18200TIP3    H276016   3.396   5.789   5.154 -1.2535 -0.4479 -1.8246
18201TIP3   OH276017   3.165   3.374   4.799 -0.7041 -0.5646 -0.7256
18201TIP3    H176018   3.103   3.307   4.826 -2.1044  0.9152 -0.0821
18201TIP3    H276019   3.227   3.380   4.872 -1.3471 -0.2734 -0.1931
18202TIP3   OH276020   1.999   0.506  14.618  0.3117  0.5969 -0.5816
18202TIP3    H176021   1.914   0.464  14.610  0.9647 -0.8914 -0.1039
18202TIP3    H276022   2.059   0.448  14.570  1.5325  0.0185  1.4921
18203TIP3   OH276023   4.495   5.674  10.938 -0.1901  0.2684 -0.0943
18203TIP3    H176024   4.560   5.744  10.937 -0.4672  0.5523  0.9297
18203TIP3    H276025   4.425   5.705  10.882  0.2656  0.2352 -0.6947
18204TIP3   OH276026   2.522   0.947  10.605  0.1157  0.3157  0.1091
18204TIP3    H176027   2.603   0.975  10.562  0.0726 -0.6862 -0.6263
18204TIP3    H276028   2.523   0.852  10.601  0.6206  0.0668  3.2514
18205TIP3   OH276029   4.118   6.368  11.581  0.2516 -0.1785 -0.1542
18205TIP3    H176030   4.212   6.351  11.573  0.3274 -0.3321  0.9016
18205TIP3    H276031   4.113   6.458  11.612  0.1501 -0.8134  1.7956
18206TIP3   OH276032   1.879   6.465   4.451  0.3497  0.0105  0.3489
18206TIP3    H176033   1.903   6.460   4.359  1.2883  0.5674  0.5481
18206TIP3    H276034   1.785   6.484   4.450  0.1557 -0.8905 -0.4673
18207TIP3   OH276035   0.994   0.870   1.550  0.0939 -0.0868 -0.5316
18207TIP3    H176036   0.996   0.793   1.607 -0.9655  1.2169  1.3592
18207TIP3    H276037   0.906   0.869   1.513  0.7006 -0.7964 -2.0494
18208TIP3   OH276038   5.552   0.314  13.124 -0.3457 -0.2874  1.1465
18208TIP3    H176039   5.589   0.401  13.132 -0.6461 -0.0208 -0.1588
18208TIP3    H276040   5.470   0.318  13.172  0.4402 -0.3683  2.5423
18209TIP3   OH276041   4.363   3.119   6.473 -0.3183 -0.8240  0.6065
18209TIP3    H176042   4.413   3.107   6.554 -0.0463 -0.2082  0.5321
18209TIP3    H276043   4.351   3.214   6.466 -1.3053 -0.9443  0.5038
18210TIP3   OH276044   4.749   3.501  14.816 -0.5749  1.0417 -0.3992
18210TIP3    H176045   4.737   3.531  14.726  1.2827  1.4380 -0.5714
18210TIP3    H276046   4.714   3.412  14.817 -0.0798  0.8023 -1.6892
18211TIP3   OH276047   0.791   2.191  10.586  0.6277  0.4699  0.1858
18211TIP3    H176048   0.776   2.141  10.666 -0.6313  0.4479 -0.0429
18211TIP3    H276049   0.715   2.249  10.579  0.7901  0.5785 -0.9157
18212TIP3   OH276050   4.567   2.750  15.831  0.5321 -0.4576 -0.7240
18212TIP3    H176051   4.477   2.773  15.808  0.3141 -0.9647 -0.3985
18212TIP3    H276052   4.572   2.655  15.818  0.6931 -0.6057  0.3418
18213TIP3   OH276053   4.997   1.188   5.622 -0.5528  0.0793 -0.3077
18213TIP3    H176054   4.939   1.188   5.699 -0.1417  1.2300  0.0224
18213TIP3    H276055   5.070   1.244   5.647  1.4025 -2.3209 -0.2361
18214TIP3   OH276056   3.427   1.764   5.041  1.2746  0.2221  0.5810
18214TIP3    H176057   3.453   1.779   4.951 -0.0611  1.3053  0.3291
18214TIP3    H276058   3.473   1.831   5.091  1.6128 -0.0446  0.6247
18215TIP3   OH276059   1.156   1.254   4.562 -0.4258  0.3963  0.3387
18215TIP3    H176060   1.168   1.208   4.479  0.1295 -0.5598  0.9205
18215TIP3    H276061   1.092   1.322   4.543 -0.4928  0.0409 -0.8079
18216TIP3   OH276062   4.110   2.949  12.481 -0.4234 -0.1983 -0.3060
18216TIP3    H176063   4.132   2.879  12.542  1.8970  0.1257 -0.6635
18216TIP3    H276064   4.075   3.019  12.535  0.1822 -0.4860  0.4756
18217TIP3   OH276065   6.620   4.163  13.346 -0.2321  0.3353  0.4141
18217TIP3    H176066   6.559   4.102  13.306 -0.1069  1.3034 -1.3533
18217TIP3    H276067   6.705   4.142  13.306  0.2276  0.2762  1.3892
18218TIP3   OH276068   2.079   5.425   0.797 -0.7665 -0.1769 -0.5289
18218TIP3    H176069   2.115   5.477   0.869  2.2952 -2.1344 -0.4574
18218TIP3    H276070   2.116   5.338   0.810 -1.9818 -1.2068 -3.2078
18219TIP3   OH276071   3.149   1.403  17.131  0.2222 -0.6394  0.0378
18219TIP3    H176072   3.118   1.373  17.046  0.0087  1.6765 -0.7882
18219TIP3    H276073   3.209   1.335  17.161 -0.6213 -2.0798 -1.3898
18220TIP3   OH276074   1.631   3.114  15.959 -0.9039 -0.4049 -0.0594
18220TIP3    H176075   1.598   3.176  16.024 -0.9722  1.0907 -1.4714
18220TIP3    H276076   1.611   3.154  15.875 -0.0051 -1.8739 -1.0152
18221TIP3   OH276077   1.926   6.615   6.076  0.0794 -0.0128  0.2294
18221TIP3    H176078   1.929   6.705   6.042 -0.4576  0.0370  0.2959
18221TIP3    H276079   1.852   6.575   6.030 -0.2865 -0.1270  0.9020
18222TIP3   OH276080   0.195   4.095   1.490  0.0449 -0.2249  0.2811
18222TIP3    H176081   0.215   4.083   1.583 -1.6068 -2.4605  0.4461
18222TIP3    H276082   0.106   4.062   1.481 -1.0448  2.8648 -1.5808
18223TIP3   OH276083   6.114   3.344  15.869 -0.0416  0.2076  0.1640
18223TIP3    H176084   6.069   3.340  15.953  1.7373 -1.3635  1.1275
18223TIP3    H276085   6.090   3.429  15.832 -1.7128  0.4791  1.7527
18224TIP3   OH276086   6.800   4.072   2.195  0.3720 -0.3587  0.0482
18224TIP3    H176087   6.717   4.052   2.151  0.1620  2.0290 -0.7709
18224TIP3    H276088   6.782   4.149   2.248  2.1264  0.3585 -0.3222
18225TIP3   OH276089   2.546   5.687  11.044 -0.0562  0.3028 -0.2308
18225TIP3    H176090   2.570   5.609  11.094 -0.6124  0.8456  0.9403
18225TIP3    H276091   2.622   5.704  10.988 -0.1385 -1.3608 -0.9107
18226TIP3   OH276092   2.402   0.702   2.902  0.0102 -0.1827 -0.7634
18226TIP3    H176093   2.464   0.669   2.836 -1.2696 -2.9209 -0.7652
18226TIP3    H276094   2.449   0.696   2.985  0.1005 -1.4350 -0.8758
18227TIP3   OH276095   2.493   0.382  12.169  0.2460 -0.3441 -0.0896
18227TIP3    H176096   2.567   0.392  12.228  1.3420  1.3436 -1.6620
18227TIP3    H276097   2.418   0.416  12.218  0.7730 -0.6677  0.9610
18228TIP3   OH276098   2.249   2.560   2.798  0.0901 -0.1250  0.2474
18228TIP3    H176099   2.198   2.639   2.784 -1.4222 -1.1276 -0.1175
18228TIP3    H276100   2.328   2.591   2.843  0.3657  1.7933 -1.3996
18229TIP3   OH276101   3.847   5.948   0.260 -0.4620  0.0772 -0.2024
18229TIP3    H176102   3.897   5.950   0.178  0.0486 -1.4803  0.0415
18229TIP3    H276103   3.913   5.930   0.327 -1.1639 -0.6581  0.2906
18230TIP3   OH276104   5.319   5.339   1.625 -0.1036  0.0647 -0.0899
18230TIP3    H176105   5.272   5.257   1.638  0.6319 -0.4944 -0.7926
18230TIP3    H276106   5.367   5.326   1.543  1.0546  0.6982  0.4608
18231TIP3   OH276107   0.089   2.505   2.398 -0.0540 -0.5224  0.2891
18231TIP3    H176108   0.064   2.594   2.373 -0.2322 -0.8934 -0.9209
18231TIP3    H276109   0.009   2.467   2.436 -0.4302 -0.6567 -0.6102
18232TIP3   OH276110   6.067   1.942  16.417 -0.3393 -0.4172  0.5688
18232TIP3    H176111   6.005   1.894  16.472 -1.2818 -0.9644 -0.9265
18232TIP3    H276112   6.082   2.024  16.464 -1.6691 -0.5542  1.2831
18233TIP3   OH276113   1.410   3.760   3.025 -0.0952  0.1818 -0.1588
18233TIP3    H176114   1.415   3.850   2.993  0.6308  0.6475  1.1706
18233TIP3    H276115   1.328   3.757   3.074  0.1192  0.2883  0.2179
18234TIP3   OH276116   5.577   4.055   3.463  0.0782  0.3039  0.2727
18234TIP3    H176117   5.524   4.130   3.435  3.1625  1.9817 -1.6286
18234TIP3    H276118   5.567   3.992   3.391  1.5073  1.1398 -0.7058
18235TIP3   OH276119   6.639   3.569  16.437  0.5097  0.5312  0.0030
18235TIP3    H176120   6.716   3.571  16.494  1.0616  1.7478 -0.7471
18235TIP3    H276121   6.674   3.540  16.352 -0.1301 -0.3128  0.0167
18236TIP3   OH276122   0.755   0.529   0.725 -0.1482 -0.0133 -0.3031
18236TIP3    H176123   0.807   0.593   0.775  1.6070 -0.5426 -1.3615
18236TIP3    H276124   0.766   0.447   0.774 -2.8782  0.5122  1.3854
18237TIP3   OH276125   1.518   6.063   0.212  0.0647 -0.3342 -0.5657
18237TIP3    H176126   1.494   5.976   0.180 -2.6025  0.4035 -0.8139
18237TIP3    H276127   1.493   6.061   0.305 -0.0066  0.1407 -0.5729
18238TIP3   OH276128   1.727   2.610   3.505  0.0926 -0.0937  0.0328
18238TIP3    H176129   1.694   2.529   3.545  3.3406 -2.0087 -0.7856
18238TIP3    H276130   1.771   2.656   3.577 -1.8228  1.0760  0.5160
18239TIP3   OH276131   4.548   1.831  11.077 -0.1212  0.4610 -0.1876
18239TIP3    H176132   4.546   1.812  11.171 -0.3519  0.7041 -0.1439
18239TIP3    H276133   4.639   1.853  11.059 -0.4413  2.3998  0.3751
18240TIP3   OH276134   2.934   4.500   2.897  0.0750  0.3765  0.1514
18240TIP3    H176135   2.871   4.445   2.942  0.5548  0.0928  0.4910
18240TIP3    H276136   2.886   4.580   2.876 -0.5634 -0.0866 -0.1602
18241TIP3   OH276137   0.852   2.516  12.008  0.1069 -0.4157 -0.7509
18241TIP3    H176138   0.907   2.543  11.934  0.8461 -0.2407 -0.1488
18241TIP3    H276139   0.900   2.544  12.085 -1.0104  0.0532 -0.2099
18242TIP3   OH276140   4.530   4.950  14.250  0.0693  0.0899 -0.1855
18242TIP3    H176141   4.508   4.917  14.337 -0.5595  1.7701  0.3321
18242TIP3    H276142   4.534   4.871  14.195  2.3662 -1.2572  1.6953
18243TIP3   OH276143   2.172   1.931  13.600 -0.5720 -0.5573  0.4054
18243TIP3    H176144   2.212   1.858  13.553 -1.4084 -0.8780  0.1677
18243TIP3    H276145   2.108   1.967  13.538 -1.2822 -0.6279  1.0760
18244TIP3   OH276146   3.516   4.122   4.969 -0.4194  0.1710  0.3466
18244TIP3    H176147   3.532   4.182   4.896 -0.8504  0.5958  0.5910
18244TIP3    H276148   3.458   4.171   5.027 -0.7460 -0.4758  0.5717
18245TIP3   OH276149   2.641   6.733  14.723 -0.4327 -0.1636  0.0029
18245TIP3    H176150   2.560   6.708  14.767  0.1938 -0.9395  0.7445
18245TIP3    H276151   2.707   6.731  14.792  0.3736 -0.3454 -0.7623
18246TIP3   OH276152   5.233   5.423  16.903  0.4814 -0.1949  0.2129
18246TIP3    H176153   5.177   5.354  16.867 -0.0850  0.1381  0.4421
18246TIP3    H276154   5.261   5.389  16.988 -0.4743  0.1886  0.7006
18247TIP3   OH276155   6.433   0.958  15.565 -0.5156  0.6263  0.2507
18247TIP3    H176156   6.416   1.027  15.629 -1.0996  1.2047 -0.5027
18247TIP3    H276157   6.347   0.936  15.531 -0.3407 -0.5388  0.5282
18248TIP3   OH276158   6.661   5.304   3.710 -0.0253  0.5242  0.6375
18248TIP3    H176159   6.628   5.393   3.723 -0.6314  0.5250 -0.6921
18248TIP3    H276160   6.725   5.313   3.639  0.3906 -0.0145  0.9332
18249TIP3   OH276161   3.386   0.706   6.778  0.1030  0.2884  0.4810
18249TIP3    H176162   3.408   0.799   6.778 -2.1252  0.8553  0.8609
18249TIP3    H276163   3.327   0.695   6.703 -0.5009 -0.6006  1.0694
18250TIP3   OH276164   5.497   0.448   2.825  0.7487  0.1843 -0.7584
18250TIP3    H176165   5.491   0.493   2.909 -1.1776 -0.8580 -0.2814
18250TIP3    H276166   5.407   0.426   2.802  1.4297 -1.7460 -1.8848
18251TIP3   OH276167   4.432   0.321   3.287 -0.4564 -0.4810  0.1946
18251TIP3    H176168   4.403   0.331   3.196 -1.3594  0.0742  0.5255
18251TIP3    H276169   4.367   0.370   3.338  1.6898  1.8242  0.9113
18252TIP3   OH276170   2.258   1.719   4.591 -0.1210  0.5344 -0.4678
18252TIP3    H176171   2.333   1.732   4.650  0.2172 -0.2266 -0.7224
18252TIP3    H276172   2.293   1.736   4.504 -0.9404  3.0207 -0.3872
18253TIP3   OH276173   4.134   0.691   4.501  0.3162 -0.2601 -0.1174
18253TIP3    H176174   4.166   0.601   4.510 -0.8672 -0.8549 -1.5088
18253TIP3    H276175   4.134   0.706   4.406  1.7372  1.6944  0.1401
18254TIP3   OH276176   6.516   4.112   3.315  0.1049 -0.0614 -0.0780
18254TIP3    H176177   6.525   4.094   3.409  1.6016  0.2280 -0.1406
18254TIP3    H276178   6.604   4.101   3.281 -0.1458  1.2809 -1.2078
18255TIP3   OH276179   6.638   3.629  13.064 -0.2770 -0.3026 -0.0127
18255TIP3    H176180   6.726   3.651  13.034  0.3245 -0.3856  1.6004
18255TIP3    H276181   6.637   3.533  13.065 -0.7917 -0.3265 -1.0934
18256TIP3   OH276182   5.629   1.564  13.054 -0.1974  0.1350 -0.0053
18256TIP3    H176183   5.580   1.573  13.136  0.7520 -2.6055  0.9913
18256TIP3    H276184   5.710   1.612  13.069  0.2102 -0.8095  0.9323
18257TIP3   OH276185   4.461   6.375   0.591  0.2081 -0.0002  0.4994
18257TIP3    H176186   4.490   6.455   0.545 -0.8037 -0.9293 -1.9160
18257TIP3    H276187   4.517   6.306   0.556 -1.3186 -0.9252 -0.2277
18258TIP3   OH276188   6.425   0.442   4.307 -0.3827  0.0232 -0.5674
18258TIP3    H176189   6.473   0.393   4.241 -1.5396 -0.0248 -1.4019
18258TIP3    H276190   6.375   0.376   4.355 -0.2213  0.1522 -0.2182
18259TIP3   OH276191   3.817   3.629  13.342  0.3815  0.1785 -0.1541
18259TIP3    H176192   3.774   3.714  13.344 -1.7277 -0.8256  1.4143
18259TIP3    H276193   3.868   3.630  13.261  0.8019  3.0664  0.0488
18260TIP3   OH276194   2.588   2.849   3.988  0.4396 -0.2409 -0.1245
18260TIP3    H176195   2.531   2.913   4.031  0.2694 -0.4865  0.0123
18260TIP3    H276196   2.676   2.874   4.017  0.3904  0.0500 -0.2234
18261TIP3   OH276197   4.384   2.723  16.670  0.0952  0.0548 -0.0787
18261TIP3    H176198   4.461   2.667  16.658  0.1405  0.0978  0.0160
18261TIP3    H276199   4.317   2.664  16.704  0.6304  0.3896  1.6635
18262TIP3   OH276200   2.592   0.076   5.935  0.0692  0.2250  0.0831
18262TIP3    H176201   2.677   0.037   5.914  0.2959  0.1412  1.0994
18262TIP3    H276202   2.572   0.043   6.023 -0.7462  0.7038  0.0841
18263TIP3   OH276203   1.449   0.056  11.188  0.1275  0.0792  0.2086
18263TIP3    H176204   1.487   0.000  11.120 -1.4142  0.0349 -0.6578
18263TIP3    H276205   1.429   0.138  11.143 -1.0705 -0.0108  0.5547
18264TIP3   OH276206   4.675   2.786  12.991  0.0117  0.1560  0.0121
18264TIP3    H176207   4.751   2.727  12.988 -0.0728  0.0714 -1.5254
18264TIP3    H276208   4.694   2.852  12.924 -0.6403  0.9493  0.5916
18265TIP3   OH276209   1.275   6.342  13.571  0.1554 -0.0840 -0.2544
18265TIP3    H176210   1.270   6.374  13.481 -0.8975 -1.5793 -0.7722
18265TIP3    H276211   1.239   6.413  13.624 -0.5960  0.2484 -1.1820
18266TIP3   OH276212   5.731   2.498   4.427  0.0994  0.1353  0.4159
18266TIP3    H176213   5.821   2.478   4.401  0.0709  0.1116  0.3372
18266TIP3    H276214   5.688   2.412   4.434 -0.0531  0.1718 -0.0302
18267TIP3   OH276215   3.370   2.715  12.333  0.1927 -0.2610  0.2030
18267TIP3    H176216   3.396   2.803  12.304 -0.6724  0.4005  1.3516
18267TIP3    H276217   3.356   2.724  12.427  0.7711 -1.8169  0.4629
18268TIP3   OH276218   6.358   1.718   0.232  0.2403  0.1426  0.2146
18268TIP3    H176219   6.448   1.720   0.202  0.3752 -2.6587  0.0920
18268TIP3    H276220   6.363   1.744   0.324  0.9419  1.3186 -0.1384
18269TIP3   OH276221   5.495   0.471  14.231 -0.1155 -0.2696  0.2103
18269TIP3    H176222   5.451   0.386  14.223  0.5530 -0.5681 -0.5620
18269TIP3    H276223   5.427   0.536  14.213 -1.1252 -0.5048  2.7598
18270TIP3   OH276224   3.479   5.126   0.672 -0.4820  0.1810  0.0131
18270TIP3    H176225   3.425   5.203   0.657 -0.0176  0.3191 -1.0411
18270TIP3    H276226   3.529   5.147   0.751 -2.2357 -0.1288  1.2590
18271TIP3   OH276227   4.595   4.176  12.038 -0.1377  0.5708  0.4213
18271TIP3    H176228   4.654   4.130  11.977  0.2843  1.9519 -0.2776
18271TIP3    H276229   4.631   4.158  12.125 -0.4163 -0.9811  0.2354
18272TIP3   OH276230   4.667   2.836  12.104 -0.4986 -0.3544 -0.0953
18272TIP3    H176231   4.596   2.791  12.149  0.5661 -0.4406  1.6146
18272TIP3    H276232   4.676   2.790  12.021 -0.7419 -2.0264  0.7551
18273TIP3   OH276233   3.988   2.744  16.165 -0.9698 -0.0055 -0.4513
18273TIP3    H176234   4.054   2.678  16.184 -0.3989  0.1243 -1.8555
18273TIP3    H276235   4.023   2.825  16.202 -1.2113 -0.2776  0.4000
18274TIP3   OH276236   3.385   2.875  17.126 -0.0029  0.0189  0.1836
18274TIP3    H176237   3.436   2.799  17.152  0.8724  0.2965 -0.6335
18274TIP3    H276238   3.406   2.888  17.033 -0.5957  0.8951  0.1520
18275TIP3   OH276239   5.638   2.288   2.093  0.0884 -0.0596 -0.0216
18275TIP3    H176240   5.614   2.363   2.146 -1.3987 -0.0534 -0.6520
18275TIP3    H276241   5.656   2.218   2.156 -2.0908 -0.1929  0.5452
18276TIP3   OH276242   4.689   4.902  11.960 -0.4801  0.1753  0.1443
18276TIP3    H176243   4.741   4.965  12.010  0.4958 -0.4320 -0.0705
18276TIP3    H276244   4.598   4.923  11.981 -0.1544  1.3276  0.4594
18277TIP3   OH276245   1.197   3.265   3.418  0.0253  0.2102  0.2844
18277TIP3    H176246   1.229   3.175   3.421 -0.4159  0.0730  1.3116
18277TIP3    H276247   1.266   3.315   3.462 -0.4535  0.1304  1.1508
18278TIP3   OH276248   2.609   0.213   3.154 -0.1930  0.0980  0.2396
18278TIP3    H176249   2.686   0.159   3.136  0.9682  1.5754  0.5585
18278TIP3    H276250   2.603   0.273   3.080 -0.6605  0.4003  0.5120
18279TIP3   OH276251   3.552   6.006  16.785  0.2768  0.7360  0.2120
18279TIP3    H176252   3.472   5.966  16.750  0.1316  0.7614  0.5077
18279TIP3    H276253   3.611   5.933  16.802  1.0727  0.8282 -1.8033
18280TIP3   OH276254   3.067   0.468   6.576  0.2643 -0.6090  0.4173
18280TIP3    H176255   2.977   0.492   6.600  1.2787  2.7144  1.5595
18280TIP3    H276256   3.096   0.410   6.646 -0.7582 -1.1122  0.4378
18281TIP3   OH276257   4.801   3.193  15.368  0.2670  0.3378 -0.7573
18281TIP3    H176258   4.843   3.271  15.332  0.0334  0.1153 -1.5409
18281TIP3    H276259   4.784   3.138  15.291  0.9701 -0.7498 -0.1674
18282TIP3   OH276260   1.905   5.260   5.206  0.7379 -0.0386 -0.3528
18282TIP3    H176261   1.970   5.218   5.263  0.6493 -0.1447 -0.3297
18282TIP3    H276262   1.902   5.351   5.236  1.5171  0.1843 -0.9234
18283TIP3   OH276263   0.625   3.477   1.646  0.0323 -0.1399 -0.1672
18283TIP3    H176264   0.677   3.477   1.566  0.1922 -0.2169 -0.0631
18283TIP3    H276265   0.578   3.394   1.645  1.0743 -0.7515  0.4935
18284TIP3   OH276266   5.585   3.020   1.886  0.6668  0.0011 -0.5566
18284TIP3    H176267   5.511   3.000   1.830  0.0866 -1.6834  0.7134
18284TIP3    H276268   5.560   3.101   1.931  0.4253  0.4558 -1.5015
18285TIP3   OH276269   6.181   2.175  14.958 -0.0325  0.3589  0.5034
18285TIP3    H176270   6.198   2.240  15.026 -0.5662  0.0438  0.9431
18285TIP3    H276271   6.089   2.149  14.971 -1.1965  2.5496 -2.2424
18286TIP3   OH276272   5.500   6.440   6.316 -0.2396 -0.2603  0.0465
18286TIP3    H176273   5.411   6.444   6.281 -0.7804 -1.3195  1.2250
18286TIP3    H276274   5.554   6.479   6.247 -1.2851 -1.8466 -1.7650
18287TIP3   OH276275   0.442   1.094  10.375  0.3698 -0.1346 -0.2388
18287TIP3    H176276   0.372   1.151  10.408  1.2893  0.8659  0.0679
18287TIP3    H276277   0.409   1.005  10.386 -0.8868  0.3283 -0.2038
18288TIP3   OH276278   3.226   0.621   3.438 -0.7622 -0.3207 -0.1879
18288TIP3    H176279   3.140   0.625   3.480 -0.2208 -0.3066  0.9704
18288TIP3    H276280   3.260   0.710   3.447  0.0842 -0.7372  0.9721
18289TIP3   OH276281   6.263   1.802  14.742 -0.3022 -0.0974 -0.2630
18289TIP3    H176282   6.237   1.709  14.745  1.2993 -0.5677  0.0224
18289TIP3    H276283   6.281   1.825  14.833  1.1920 -0.1004 -0.5285
18290TIP3   OH276284   5.966   0.351   3.744 -0.3296 -0.2339 -0.0436
18290TIP3    H176285   5.875   0.323   3.753 -0.8430  1.1261 -0.6730
18290TIP3    H276286   5.997   0.362   3.834 -0.3970 -1.8332  0.1947
18291TIP3   OH276287   5.695   4.692   4.901 -0.1236 -0.0478  0.1244
18291TIP3    H176288   5.790   4.689   4.899 -0.0972  0.4264  0.5778
18291TIP3    H276289   5.668   4.602   4.920  0.2216 -0.2471 -0.3308
18292TIP3   OH276290   2.602   1.462  11.989 -0.1838  0.0310 -0.3559
18292TIP3    H176291   2.593   1.369  12.010 -0.3729  0.5254  2.0900
18292TIP3    H276292   2.532   1.479  11.925 -0.7974 -1.2940 -0.0786
18293TIP3   OH276293   1.557   3.937   0.768 -0.0785  0.2461 -0.8602
18293TIP3    H176294   1.605   4.020   0.776 -0.4367  0.6027 -2.2097
18293TIP3    H276295   1.609   3.875   0.819 -1.2198  1.8300  2.5894
18294TIP3   OH276296   4.996   0.563  13.475  0.1901  0.3648 -0.0518
18294TIP3    H176297   5.054   0.559  13.551  0.9344  0.2275 -0.6241
18294TIP3    H276298   4.908   0.560  13.513  0.5207 -2.0574  0.7102
18295TIP3   OH276299   1.631   5.945   5.510  0.3368 -0.2949 -0.3821
18295TIP3    H176300   1.545   5.931   5.549  0.1325 -2.0887 -1.3259
18295TIP3    H276301   1.693   5.909   5.573  0.0064 -3.2136 -1.5600
18296TIP3   OH276302   1.605   3.550   4.903 -0.6335 -0.2952  0.4990
18296TIP3    H176303   1.677   3.534   4.964  0.3316  1.6276 -0.0325
18296TIP3    H276304   1.586   3.465   4.864  0.9842 -0.9511  1.0630
18297TIP3   OH276305   1.657   0.447   0.211  0.3676 -0.0940 -0.5708
18297TIP3    H176306   1.745   0.450   0.172  0.6869  3.4880  0.0873
18297TIP3    H276307   1.664   0.500   0.291 -1.5659 -2.8187  1.5858
18298TIP3   OH276308   2.344   6.741   5.435  0.3009  0.1372  0.4662
18298TIP3    H176309   2.347   6.837   5.433 -0.5185  0.1691  0.3857
18298TIP3    H276310   2.426   6.715   5.477  1.4312  0.7898 -1.2498
18299TIP3   OH276311   1.190   3.731  14.426 -0.0487  0.0836  0.2617
18299TIP3    H176312   1.192   3.645  14.383 -0.6559  0.2233 -0.0565
18299TIP3    H276313   1.149   3.789  14.362 -0.7015  0.3615  0.9131
18300TIP3   OH276314   4.683   0.043   4.969  0.2347 -0.0505 -0.1547
18300TIP3    H176315   4.625  -0.029   4.994  0.4082  0.7967  3.0041
18300TIP3    H276316   4.626   0.104   4.922 -0.9283 -0.2746  0.9193
18301TIP3   OH276317   3.160   3.609  13.151  0.1352  0.2073 -0.1499
18301TIP3    H176318   3.165   3.699  13.119  0.6124 -0.4716 -2.1644
18301TIP3    H276319   3.067   3.590  13.155  0.0272  0.8205  0.4337
18302TIP3   OH276320   2.053   5.339  15.598  0.1291 -0.6376  0.0311
18302TIP3    H176321   1.967   5.377  15.580 -0.6130 -1.5526  1.4768
18302TIP3    H276322   2.114   5.412  15.588 -0.9905  0.4012  0.5246
18303TIP3   OH276323   1.329   0.624  16.232  0.0276 -0.3665  0.0626
18303TIP3    H176324   1.251   0.594  16.184 -0.0586 -0.0442 -0.0031
18303TIP3    H276325   1.345   0.555  16.296 -0.7951 -0.0711  0.6096
18304TIP3   OH276326   4.928   0.063   4.034 -0.5544 -0.5071  0.0649
18304TIP3    H176327   4.875  -0.014   4.011  1.4481 -2.4283  1.4812
18304TIP3    H276328   4.921   0.069   4.129 -2.3428  2.4403 -0.1377
18305TIP3   OH276329   0.042   1.497   3.197  0.1898  0.0173  0.8047
18305TIP3    H176330   0.135   1.522   3.203  0.1265  0.2637  0.7515
18305TIP3    H276331   0.002   1.534   3.275 -0.2628  1.6397 -0.1643
18306TIP3   OH276332   0.794   1.043   0.001 -0.3529 -0.3711 -0.2315
18306TIP3    H176333   0.796   1.012   0.091  0.5331  0.7665  0.1694
18306TIP3    H276334   0.764   1.134   0.007  1.0739  0.1794 -0.9165
18307TIP3   OH276335   0.094   5.510  12.511  0.0178  0.3095 -0.8655
18307TIP3    H176336   0.014   5.560  12.498 -1.3932 -1.6952 -0.3479
18307TIP3    H276337   0.140   5.515  12.428 -1.1773  0.5898 -1.5291
18308TIP3   OH276338   1.544   2.871   2.876 -0.3689 -0.0417  0.3862
18308TIP3    H176339   1.491   2.917   2.812 -1.0240  1.0955  1.6882
18308TIP3    H276340   1.541   2.779   2.849 -1.4618  0.2776 -0.6220
18309TIP3   OH276341   2.378   6.021   1.775  0.4815 -0.5247  0.2308
18309TIP3    H176342   2.440   6.042   1.705 -0.5421 -0.5276 -0.7063
18309TIP3    H276343   2.341   6.106   1.800  0.7436 -0.5404  0.6833
18310TIP3   OH276344   2.454   3.308  14.437 -0.2100 -0.4921 -0.3183
18310TIP3    H176345   2.545   3.281  14.447  0.1330  0.2981 -1.1669
18310TIP3    H276346   2.457   3.403  14.435 -0.7448 -0.4561 -2.7394
18311TIP3   OH276347   3.607   4.144   0.693 -0.3144  0.3433  0.1855
18311TIP3    H176348   3.637   4.152   0.602  1.0468  1.0039  0.6720
18311TIP3    H276349   3.527   4.197   0.696 -0.5807  0.0063 -0.7171
18312TIP3   OH276350   3.035   2.970  13.766  0.4318  0.2095 -0.1547
18312TIP3    H176351   3.088   3.050  13.760 -0.3697  0.8772  1.1424
18312TIP3    H276352   2.997   2.960  13.679  0.9795  0.9401 -0.4921
18313TIP3   OH276353   0.051   3.891   5.000  0.2401  0.7137  0.4252
18313TIP3    H176354  -0.007   3.966   4.992 -0.0701  0.3146 -1.6101
18313TIP3    H276355   0.128   3.914   4.947  1.2937  0.6131  1.8504
18314TIP3   OH276356   6.469   1.218  12.730 -0.0467 -0.1333  0.4404
18314TIP3    H176357   6.485   1.127  12.753  1.2896  0.4702  2.0864
18314TIP3    H276358   6.553   1.250  12.698 -0.5213  0.5168 -0.2057
18315TIP3   OH276359   0.040   0.205  17.077 -0.5014 -0.1695  0.1340
18315TIP3    H176360   0.120   0.204  17.129  0.4793  0.3930 -1.2881
18315TIP3    H276361  -0.002   0.288  17.098  0.3302  0.4463 -0.5724
18316TIP3   OH276362   3.470   3.597  11.650 -0.0869  0.2403 -0.4292
18316TIP3    H176363   3.469   3.664  11.581  1.8334  1.2521  0.4503
18316TIP3    H276364   3.511   3.521  11.609 -0.3788  0.3021 -0.8411
18317TIP3   OH276365   3.802   5.757  15.322  0.2569  0.4976 -0.2533
18317TIP3    H176366   3.896   5.739  15.326 -0.0312 -1.0900  0.4020
18317TIP3    H276367   3.775   5.726  15.235  0.1643 -0.1003 -0.0174
18318TIP3   OH276368   3.071   1.896   5.750  0.3342  0.2408 -0.1706
18318TIP3    H176369   2.997   1.878   5.692 -0.3735  1.0444  0.4625
18318TIP3    H276370   3.093   1.811   5.788 -0.2583 -0.0051 -0.3660
18319TIP3   OH276371   3.454   2.099   1.326  0.1111  0.1205  0.8026
18319TIP3    H176372   3.493   2.168   1.378  1.3150  0.3869 -0.3987
18319TIP3    H276373   3.452   2.133   1.237  1.5007 -1.6565  0.0222
18320TIP3   OH276374   2.582   4.116   6.423  0.2385  0.6456 -0.6051
18320TIP3    H176375   2.505   4.072   6.387  0.2093 -1.5498  1.8235
18320TIP3    H276376   2.650   4.103   6.356 -0.4656 -0.9596 -1.0649
18321TIP3   OH276377   3.527   0.336  14.322 -0.1732  0.1410 -0.1753
18321TIP3    H176378   3.504   0.424  14.292  0.0825 -0.3473 -1.9405
18321TIP3    H276379   3.621   0.341  14.339 -0.4680  0.6375  1.4176
18322TIP3   OH276380   0.715   5.401   2.302  0.5406 -0.2401  0.5977
18322TIP3    H176381   0.797   5.359   2.326  0.7343 -0.0604  0.2569
18322TIP3    H276382   0.742   5.481   2.257  0.1826 -0.4199  0.0587
18323TIP3   OH276383   4.961   2.226   6.023  0.2417 -0.0455 -0.0119
18323TIP3    H176384   5.028   2.158   6.021  0.9552  0.6374 -1.8630
18323TIP3    H276385   4.878   2.177   6.030  0.8622 -0.8462  3.7655
18324TIP3   OH276386   5.703   1.244   3.968 -0.4075  0.6809  0.1287
18324TIP3    H176387   5.687   1.212   4.057  0.4264  0.1354  0.1043
18324TIP3    H276388   5.646   1.191   3.913  0.6708 -0.5391  0.1331
18325TIP3   OH276389   5.657   4.410  13.132 -0.1570 -0.4132  0.1372
18325TIP3    H176390   5.709   4.413  13.051 -0.0587  0.2102  0.2212
18325TIP3    H276391   5.568   4.430  13.103 -0.0810  0.0389  0.2181
18326TIP3   OH276392   5.671   6.325   2.862  0.0106  0.1154 -0.0703
18326TIP3    H176393   5.741   6.380   2.827 -0.4318  0.1668 -0.8943
18326TIP3    H276394   5.635   6.375   2.936  1.4478 -0.3294  0.9676
18327TIP3   OH276395   6.716   2.428  13.336 -0.2267 -0.7321 -0.2295
18327TIP3    H176396   6.677   2.478  13.408 -1.2219  0.5216 -1.5867
18327TIP3    H276397   6.643   2.377  13.300  0.3461 -1.6498 -0.1261
18328TIP3   OH276398   3.806   3.468  13.593 -0.3533  0.2398 -0.1515
18328TIP3    H176399   3.820   3.535  13.527 -1.5958  0.8360  0.1633
18328TIP3    H276400   3.742   3.506  13.654 -0.4841 -0.9137  0.4711
18329TIP3   OH276401   0.800   5.153  13.228 -0.2679  0.2826 -0.1101
18329TIP3    H176402   0.746   5.225  13.260 -0.7379 -0.1327  0.0335
18329TIP3    H276403   0.764   5.133  13.142 -1.2595 -0.9296  0.5664
18330TIP3   OH276404   4.221   4.265   5.184  0.3992 -0.5549  0.2652
18330TIP3    H176405   4.215   4.308   5.099  1.7574 -2.5876 -0.9460
18330TIP3    H276406   4.144   4.295   5.232  0.3452  1.7592 -1.1176
18331TIP3   OH276407   3.978   3.061   2.016 -0.4535  0.2899  0.0997
18331TIP3    H176408   3.896   3.025   1.982  0.6805 -1.2981 -1.0269
18331TIP3    H276409   4.025   2.986   2.052  0.4312  1.2132  0.9361
18332TIP3   OH276410   5.026   2.550   3.268 -0.0628 -0.8324  0.7532
18332TIP3    H176411   4.991   2.544   3.179  0.4592  2.0557  0.2708
18332TIP3    H276412   4.975   2.486   3.318 -0.3383 -2.5847 -1.5645
18333TIP3   OH276413   0.388   0.255  16.591  0.4527 -0.7168 -0.3971
18333TIP3    H176414   0.321   0.233  16.527  0.2518 -1.3031  0.0120
18333TIP3    H276415   0.398   0.350  16.583 -0.4317 -0.6220 -0.4598
18334TIP3   OH276416   1.893   2.778   4.550 -0.1001  0.1008 -0.0433
18334TIP3    H176417   1.823   2.728   4.591  0.1355 -0.1309  0.0773
18334TIP3    H276418   1.850   2.859   4.520 -0.0314  0.8551  1.7656
18335TIP3   OH276419   0.056   3.137   2.177  0.1711 -0.2798  0.6799
18335TIP3    H176420   0.051   3.047   2.210 -0.3745 -0.3124  0.5236
18335TIP3    H276421   0.061   3.127   2.081 -1.6415 -0.1210  0.5328
18336TIP3   OH276422   1.544   6.766   3.022 -0.1594 -0.5811  0.5577
18336TIP3    H176423   1.503   6.786   2.937 -0.6651 -0.2885  0.8677
18336TIP3    H276424   1.602   6.840   3.038 -1.3641  0.2413  1.2806
18337TIP3   OH276425   0.320   3.992  11.035  0.1598 -0.3200 -0.1266
18337TIP3    H176426   0.377   3.918  11.055 -0.3588 -0.7023 -0.0456
18337TIP3    H276427   0.242   3.952  10.995 -0.8332  0.0292  1.3871
18338TIP3   OH276428   2.561   3.048  13.456  0.7030  0.1713  0.2274
18338TIP3    H176429   2.506   3.114  13.414 -0.1827  0.9616  2.5129
18338TIP3    H276430   2.517   2.965  13.439 -1.1735  0.7661  1.8570
18339TIP3   OH276431   3.829   1.673  16.251 -0.0161  0.0131 -0.7553
18339TIP3    H176432   3.877   1.752  16.226  1.1764 -0.8374 -1.1981
18339TIP3    H276433   3.750   1.675  16.196 -0.5697  1.4488  0.0209
18340TIP3   OH276434   0.570   5.649   4.966  0.5093 -0.6241 -0.3164
18340TIP3    H176435   0.483   5.678   4.939  1.2212  3.5455  1.0800
18340TIP3    H276436   0.625   5.667   4.890  0.5401 -0.9597 -0.3747
18341TIP3   OH276437   6.265   5.526   3.645 -0.3408  0.1201  0.3423
18341TIP3    H176438   6.257   5.539   3.551  0.9217  0.7208  0.2949
18341TIP3    H276439   6.261   5.432   3.657  1.5812 -0.1202 -0.5693
18342TIP3   OH276440   1.864   3.178   1.467  0.2293  0.6437  0.3467
18342TIP3    H176441   1.863   3.204   1.559  0.2962  0.5476  0.3742
18342TIP3    H276442   1.926   3.106   1.463 -0.1691  0.3019  0.3160
18343TIP3   OH276443   3.460   2.047  16.967 -0.2909 -0.8970 -0.2857
18343TIP3    H176444   3.513   2.105  17.022  1.1728 -1.3293 -1.1534
18343TIP3    H276445   3.447   1.969  17.019  1.2074 -1.3621 -0.5491
18344TIP3   OH276446   1.574   5.118   5.687 -0.5031  0.5594  0.2285
18344TIP3    H176447   1.662   5.084   5.675 -1.5416 -2.1746 -0.3332
18344TIP3    H276448   1.578   5.165   5.771  1.5162  0.7337  0.0798
18345TIP3   OH276449   2.976   1.144   2.895  0.4434 -0.7237  0.3055
18345TIP3    H176450   3.042   1.204   2.931  0.0776 -1.2043  1.8603
18345TIP3    H276451   3.023   1.062   2.884 -0.0456 -1.3374  2.3048
18346TIP3   OH276452   1.709   3.002  12.294 -0.1396 -0.2684 -0.2716
18346TIP3    H176453   1.792   3.011  12.341 -0.7881  3.0908  0.5475
18346TIP3    H276454   1.733   3.009  12.201  0.6495 -1.4104 -0.1669
18347TIP3   OH276455   3.654   6.108  13.675 -0.5681  0.4818 -0.5015
18347TIP3    H176456   3.721   6.176  13.682  0.3783 -0.5598  1.2981
18347TIP3    H276457   3.698   6.035  13.632  0.0270 -0.7725  2.0417
18348TIP3   OH276458   1.986   6.664   2.152 -0.5986  0.5666 -0.2710
18348TIP3    H176459   1.948   6.576   2.152 -0.0810  0.3396  0.1643
18348TIP3    H276460   2.080   6.649   2.145 -0.2588  0.9472  2.3985
18349TIP3   OH276461   3.084   5.090   2.735 -0.2063  0.4310 -0.2416
18349TIP3    H176462   3.056   5.055   2.820 -1.1012  0.8916 -0.3411
18349TIP3    H276463   3.034   5.041   2.670  1.2777 -0.6908 -0.5883
18350TIP3   OH276464   2.937   4.759   5.645 -0.1788  0.5889  0.1659
18350TIP3    H176465   2.850   4.719   5.640 -0.1969  0.6781 -0.2493
18350TIP3    H276466   2.998   4.688   5.629 -0.2041  0.6851 -0.3663
18351TIP3   OH276467   5.098   0.807  11.373  0.0021 -0.5147  0.7723
18351TIP3    H176468   5.133   0.724  11.340 -1.4726 -1.2873  1.0511
18351TIP3    H276469   5.148   0.825  11.453  0.8994 -0.6910  0.2579
18352TIP3   OH276470   3.517   3.392   3.365 -0.2519 -0.2763 -0.1166
18352TIP3    H176471   3.480   3.409   3.452  0.7845 -1.4061  0.5893
18352TIP3    H276472   3.564   3.309   3.376  0.2660 -0.2043 -1.6499
18353TIP3   OH276473   0.804   4.035  12.557 -0.2995  0.4720 -0.1435
18353TIP3    H176474   0.711   4.029  12.538 -0.1172  1.9932 -1.7369
18353TIP3    H276475   0.845   4.057  12.473  1.4724  0.0736  0.5583
18354TIP3   OH276476   0.650   0.286  12.321 -0.2886  0.1045 -0.3942
18354TIP3    H176477   0.723   0.262  12.264 -0.5418  0.6394 -0.9582
18354TIP3    H276478   0.690   0.301  12.407 -0.0395 -1.7213 -0.1393
18355TIP3   OH276479   5.513   3.633  14.723  0.4476  0.4704  0.4340
18355TIP3    H176480   5.585   3.585  14.682  1.9255  2.4524  0.5206
18355TIP3    H276481   5.506   3.713  14.671  0.1713  1.5545  2.0661
18356TIP3   OH276482   4.556   1.564   3.013 -0.0375 -0.5656 -0.9098
18356TIP3    H176483   4.493   1.525   3.075  0.7988 -1.3127 -0.5005
18356TIP3    H276484   4.601   1.631   3.065 -0.3073 -0.2089 -1.1300
18357TIP3   OH276485   6.124   2.530  16.328  0.2066  0.4063 -0.0140
18357TIP3    H176486   6.124   2.622  16.302 -0.3992  0.0654 -1.3397
18357TIP3    H276487   6.196   2.522  16.390 -0.3747  1.9720  0.9152
18358TIP3   OH276488   2.327   3.326   6.440  0.3143  0.2205  0.2906
18358TIP3    H176489   2.286   3.299   6.359 -0.5597  1.7592  0.1803
18358TIP3    H276490   2.394   3.260   6.457  0.1003 -0.4472 -1.3506
18359TIP3   OH276491   1.000   3.100   1.265  0.3097 -0.4103 -0.9507
18359TIP3    H176492   0.954   3.043   1.327  2.6610 -1.6104 -0.2019
18359TIP3    H276493   0.930   3.148   1.221 -1.8185 -3.4964 -1.2804
18360TIP3   OH276494   2.588   5.806   2.461  0.1611  0.1414 -0.5081
18360TIP3    H176495   2.671   5.762   2.443  0.1768  0.4213 -1.1333
18360TIP3    H276496   2.525   5.765   2.402 -0.5338 -1.2256  1.1105
18361TIP3   OH276497   3.407   0.266   4.078 -0.0189  0.6437  0.3394
18361TIP3    H176498   3.319   0.233   4.098 -0.4144  0.2518 -1.7410
18361TIP3    H276499   3.463   0.189   4.084 -0.3959  0.1836 -1.3533
18362TIP3   OH276500   3.107   1.570   5.675 -0.7955 -0.2086  0.4578
18362TIP3    H176501   3.034   1.627   5.651  1.1325  1.4533 -1.9846
18362TIP3    H276502   3.114   1.508   5.601 -0.0755 -0.7019  0.9314
18363TIP3   OH276503   6.451   3.267   2.916 -0.1211 -0.4715 -0.1291
18363TIP3    H176504   6.377   3.305   2.963  0.2654 -1.4762  1.3529
18363TIP3    H276505   6.463   3.325   2.841 -1.9083  0.1527  0.0075
18364TIP3   OH276506   2.252   2.174   3.376  0.1992  0.2626 -0.3938
18364TIP3    H176507   2.174   2.228   3.364  0.0309 -0.0617 -0.7977
18364TIP3    H276508   2.241   2.136   3.464 -0.0111  0.3558 -0.3793
18365TIP3   OH276509   2.447   2.726   3.220 -0.8291 -0.0613 -0.0246
18365TIP3    H176510   2.435   2.758   3.310  1.2122 -1.9889  1.0383
18365TIP3    H276511   2.529   2.766   3.192 -1.0180 -0.1519 -0.7110
18366TIP3   OH276512   2.878   0.203  11.321 -0.5764 -0.0228  0.0374
18366TIP3    H176513   2.874   0.175  11.230  1.5122  0.1792 -0.1552
18366TIP3    H276514   2.886   0.298  11.316 -0.7956  0.0193  0.4516
18367TIP3   OH276515   5.295   2.502  11.387 -0.0802 -0.5748  0.1040
18367TIP3    H176516   5.348   2.427  11.360 -1.9651 -2.4134  1.1511
18367TIP3    H276517   5.294   2.496  11.483 -2.7764 -1.1738  0.1306
18368TIP3   OH276518   3.462   1.075   1.774  0.1792  0.3349  0.4344
18368TIP3    H176519   3.376   1.041   1.798  0.9827 -0.5104  2.3180
18368TIP3    H276520   3.521   1.000   1.783  1.4323  1.3760  1.2119
18369TIP3   OH276521   4.476   1.362  16.310  0.9028 -0.0344 -0.0030
18369TIP3    H176522   4.564   1.387  16.337  0.2214  0.4450  1.9813
18369TIP3    H276523   4.423   1.441  16.323 -0.3271 -1.0515  1.5597
18370TIP3   OH276524   2.859   3.437   3.534 -0.2338 -0.0726 -0.2792
18370TIP3    H176525   2.877   3.527   3.506 -0.7077 -0.3222 -1.4803
18370TIP3    H276526   2.815   3.446   3.618 -0.5903  0.8451 -0.5504
18371TIP3   OH276527   5.792   6.203   5.638 -0.5908  0.3756  0.1690
18371TIP3    H176528   5.733   6.148   5.587  1.5502 -0.0378 -2.0926
18371TIP3    H276529   5.832   6.143   5.701 -0.2870 -0.0879 -0.4466
18372TIP3   OH276530   6.293   4.927  17.079 -0.0557  0.2087  0.1679
18372TIP3    H176531   6.277   4.860  17.013  0.3266  1.0028 -0.7514
18372TIP3    H276532   6.217   4.985  17.073 -0.4547 -0.1909  1.0557
18373TIP3   OH276533   2.365   0.093  13.799  0.5115  0.0265 -0.1952
18373TIP3    H176534   2.429   0.091  13.871  1.6481 -0.0474 -1.1613
18373TIP3    H276535   2.407   0.148  13.732 -0.4857  0.0300 -0.8252
18374TIP3   OH276536   1.298   0.885   5.807 -0.7083  1.1780 -0.1221
18374TIP3    H176537   1.357   0.853   5.875  0.1775 -0.2261 -1.4927
18374TIP3    H276538   1.210   0.872   5.843 -0.2986 -0.5363  0.3519
18375TIP3   OH276539   2.840   6.487   3.542 -0.0144  0.1727  0.4044
18375TIP3    H176540   2.871   6.573   3.513  1.3742 -0.5492 -0.3748
18375TIP3    H276541   2.841   6.433   3.463 -1.1780 -0.4934  0.8175
18376TIP3   OH276542   5.959   1.001   3.312  0.1051 -0.2546 -0.2632
18376TIP3    H176543   5.905   1.046   3.377 -0.5597 -0.3025 -0.7710
18376TIP3    H276544   6.045   1.042   3.320 -0.2594  0.5001 -0.1069
18377TIP3   OH276545   3.451   4.656   3.804  0.2081  0.1862 -0.2764
18377TIP3    H176546   3.364   4.629   3.776 -0.2011 -1.4973  2.2458
18377TIP3    H276547   3.507   4.581   3.782 -0.1880 -1.3484  3.2674
18378TIP3   OH276548   5.663   6.354   3.674 -0.7134  0.0400  0.3880
18378TIP3    H176549   5.735   6.291   3.671 -2.1785 -1.6579 -0.9272
18378TIP3    H276550   5.653   6.375   3.767 -0.4911 -2.0608  0.9266
18379TIP3   OH276551   6.555   5.779   5.793  0.1241 -0.1635 -0.0342
18379TIP3    H176552   6.577   5.857   5.844 -1.2395 -0.5277  1.1765
18379TIP3    H276553   6.639   5.750   5.755  0.7875  1.3746  0.2061
18380TIP3   OH276554   5.835   2.605   2.012  0.6809  0.2978  0.0190
18380TIP3    H176555   5.798   2.596   2.100 -0.5382 -0.6643 -0.5652
18380TIP3    H276556   5.857   2.515   1.987  0.2825  0.4608 -0.9599
18381TIP3   OH276557   0.377   2.051   4.576  0.6830 -0.0130 -0.2324
18381TIP3    H176558   0.419   2.092   4.652 -3.0611  3.3509  0.3277
18381TIP3    H276559   0.321   1.983   4.613  1.8208 -1.1295 -0.4899
18382TIP3   OH276560   2.677   0.748   0.221  0.0978  0.1863 -0.0646
18382TIP3    H176561   2.765   0.765   0.189 -0.5064  0.8874 -1.4075
18382TIP3    H276562   2.686   0.668   0.273  1.1880 -0.8518 -1.7442
18383TIP3   OH276563   1.353   6.565  14.049 -0.0451 -0.2013  0.3812
18383TIP3    H176564   1.324   6.655  14.028 -0.3131 -0.1913  0.7919
18383TIP3    H276565   1.409   6.541  13.975  0.0574  0.3183  0.2820
18384TIP3   OH276566   4.231   3.671  11.150 -0.2213 -1.0408 -0.6080
18384TIP3    H176567   4.209   3.622  11.229  1.7239 -1.6488 -0.3836
18384TIP3    H276568   4.223   3.606  11.079 -1.1676 -0.7145 -0.8029
18385TIP3   OH276569   0.882   5.660   2.684 -0.2326  0.2720 -0.4561
18385TIP3    H176570   0.968   5.637   2.720 -0.4490 -0.0985 -0.1817
18385TIP3    H276571   0.874   5.754   2.700 -0.8675 -0.1026  1.6121
18386TIP3   OH276572   0.657   5.938   2.914 -0.1133  0.0217  0.2342
18386TIP3    H176573   0.679   5.862   2.968  0.8628  1.2099  1.5870
18386TIP3    H276574   0.591   5.906   2.853  0.1303 -1.8525  0.8970
18387TIP3   OH276575   0.971   2.403  16.687  0.6428  0.4408  0.0905
18387TIP3    H176576   0.915   2.458  16.740 -0.7400 -0.8202  0.0185
18387TIP3    H276577   0.920   2.384  16.609  1.9190  0.7619 -0.8666
18388TIP3   OH276578   6.780   2.624  14.599  0.1582  0.0626 -0.1661
18388TIP3    H176579   6.726   2.605  14.522  1.2742  0.0692 -0.9801
18388TIP3    H276580   6.836   2.547  14.607 -0.2311 -0.1249  0.9173
18389TIP3   OH276581   2.934   6.534  13.276  0.3128  0.0404  0.2617
18389TIP3    H176582   3.021   6.497  13.265  0.3484  0.8603 -3.7001
18389TIP3    H276583   2.876   6.457  13.283  1.1295 -0.5160  1.2280
18390TIP3   OH276584   2.122   5.580  16.223  0.0449 -0.5842  0.3174
18390TIP3    H176585   2.217   5.573  16.213  0.0087 -1.5115  0.5562
18390TIP3    H276586   2.102   5.669  16.193  1.0020 -0.3191  0.4202
18391TIP3   OH276587   4.541   2.897   2.201  0.2661  0.2512  0.2734
18391TIP3    H176588   4.506   2.979   2.166 -1.0871 -0.2022  0.4766
18391TIP3    H276589   4.510   2.896   2.292  2.3198  0.6351  1.0239
18392TIP3   OH276590   2.048   5.373   0.367 -0.0354  0.0456  0.4592
18392TIP3    H176591   2.027   5.349   0.457  1.4150 -1.4396  0.4483
18392TIP3    H276592   2.099   5.453   0.375 -1.2969  0.8455  0.8113
18393TIP3   OH276593   3.671   2.227   3.425 -0.1974  0.7833 -0.1974
18393TIP3    H176594   3.708   2.314   3.413 -0.1480  0.7161 -0.5345
18393TIP3    H276595   3.589   2.229   3.376  0.3057  0.3123 -1.0886
18394TIP3   OH276596   5.778   3.181  15.600  0.6829  0.7483 -0.2852
18394TIP3    H176597   5.766   3.135  15.517  2.0851  0.2848 -0.2533
18394TIP3    H276598   5.710   3.144  15.657  0.5799  0.0928 -0.8160
18395TIP3   OH276599   2.146   2.418  14.968 -0.0909 -0.2797 -0.4734
18395TIP3    H176600   2.162   2.510  14.992  0.0273  0.5643 -3.4238
18395TIP3    H276601   2.180   2.368  15.042  1.4161  1.9955  0.4962
18396TIP3   OH276602   3.522   3.978   1.375  0.0055  0.4305 -0.0605
18396TIP3    H176603   3.451   4.011   1.320  0.6209  0.1765 -1.0476
18396TIP3    H276604   3.601   4.009   1.332  0.5012  0.5835  0.9444
18397TIP3   OH276605   5.485   1.854  11.430 -0.3994  0.3757 -0.7116
18397TIP3    H176606   5.423   1.809  11.488 -0.8131 -0.5947 -1.8475
18397TIP3    H276607   5.465   1.820  11.343  1.2838  0.5483 -1.2121
18398TIP3   OH276608   6.239   3.826  12.823 -0.0543  0.0753 -0.4384
18398TIP3    H176609   6.286   3.782  12.894 -1.1582  1.3315  1.1549
18398TIP3    H276610   6.162   3.772  12.807  0.9744 -1.0464 -1.8294
18399TIP3   OH276611   6.787   6.502  15.276 -0.0718 -0.3682 -0.5089
18399TIP3    H176612   6.741   6.583  15.255 -1.1947 -0.6866  0.6313
18399TIP3    H276613   6.719   6.435  15.280  0.7933 -1.3287 -1.0990
18400TIP3   OH276614   1.669   4.327  15.371  0.9804  0.4079 -0.2322
18400TIP3    H176615   1.647   4.264  15.303 -1.2234  0.5491  0.2666
18400TIP3    H276616   1.610   4.306  15.443 -0.6655  3.5841 -0.4172
18401TIP3   OH276617   2.343   2.958  15.960 -0.2295  0.0295  0.0390
18401TIP3    H176618   2.374   2.955  16.050  0.1256  0.9670 -0.0366
18401TIP3    H276619   2.298   2.875  15.947  2.8023 -1.7567 -0.0361
18402TIP3   OH276620   0.818   4.931   0.786 -0.0567  0.4764 -0.0359
18402TIP3    H176621   0.909   4.912   0.808 -0.3406 -0.3576  0.4953
18402TIP3    H276622   0.822   4.974   0.700  0.7993 -0.0902 -0.2963
18403TIP3   OH276623   6.777   3.285  11.840  0.3988  0.3625  0.1459
18403TIP3    H176624   6.811   3.294  11.930  0.4679  0.6174  0.0956
18403TIP3    H276625   6.855   3.287  11.785  0.2878  1.2514  0.0077
18404TIP3   OH276626   5.371   5.784   4.300 -0.4159 -0.3911  0.1871
18404TIP3    H176627   5.315   5.861   4.298 -0.0691 -0.1517 -0.4608
18404TIP3    H276628   5.429   5.799   4.374 -2.0387 -1.2570  1.7215
18405TIP3   OH276629   3.389   1.983   2.601 -0.3080  0.4300  0.4893
18405TIP3    H176630   3.481   1.977   2.573 -0.8490 -3.3586 -1.1158
18405TIP3    H276631   3.350   2.045   2.539  0.5107 -0.6206 -1.1556
18406TIP3   OH276632   2.298   3.497   3.214  0.0467 -0.0704 -0.2641
18406TIP3    H176633   2.312   3.418   3.161 -1.2998 -1.1880  0.9611
18406TIP3    H276634   2.386   3.530   3.231  0.6191 -1.0682 -1.1479
18407TIP3   OH276635   2.840   1.112  14.595  0.3144  0.2724  0.5690
18407TIP3    H176636   2.841   1.020  14.621  1.3446 -0.7959 -2.7177
18407TIP3    H276637   2.748   1.137  14.595 -0.0101 -0.8951  1.1267
18408TIP3   OH276638   5.984   2.826  16.609 -0.1057 -0.4643  0.0156
18408TIP3    H176639   6.012   2.837  16.700 -0.2929 -2.7023  0.4147
18408TIP3    H276640   6.030   2.894  16.561  0.2876  0.5432  1.7242
18409TIP3   OH276641   2.030   6.756  15.778  0.4393 -0.2063 -0.6716
18409TIP3    H176642   2.079   6.764  15.860 -0.4876 -0.7254 -0.0464
18409TIP3    H276643   2.041   6.841  15.736  0.8883  0.0902  0.0213
18410TIP3   OH276644   3.374   6.288   0.100 -0.0268  0.1731 -0.0325
18410TIP3    H176645   3.294   6.326   0.137  2.1156  1.2029  4.0738
18410TIP3    H276646   3.444   6.315   0.160  3.3616 -1.3488 -2.9190
18411TIP3   OH276647   0.530   3.769   4.425  0.3046  0.1362 -0.1044
18411TIP3    H176648   0.505   3.861   4.426  1.6076  0.5978 -2.6800
18411TIP3    H276649   0.479   3.731   4.353  1.4145 -0.6230 -0.5144
18412TIP3   OH276650   2.848   4.572   4.036  0.4285  0.6628 -0.1169
18412TIP3    H176651   2.849   4.658   3.994 -2.4388 -0.8191 -3.8082
18412TIP3    H276652   2.913   4.521   3.988  2.1018  0.6224  2.0399
18413TIP3   OH276653   0.046   4.906   1.445  0.6392  0.2940  0.0398
18413TIP3    H176654   0.104   4.869   1.511 -0.9670 -1.6040  0.4714
18413TIP3    H276655   0.055   4.846   1.370 -1.4817 -0.6670  0.4942
18414TIP3   OH276656   0.901   3.749  13.026  0.1547  0.1701  0.3606
18414TIP3    H176657   0.967   3.692  13.065  1.6407  1.9655  0.6325
18414TIP3    H276658   0.919   3.745  12.932 -0.5801 -0.7688  0.2482
18415TIP3   OH276659   2.199   2.631   3.509  0.2315  0.2503 -0.3841
18415TIP3    H176660   2.121   2.620   3.563  0.3042  0.3896 -0.2485
18415TIP3    H276661   2.175   2.696   3.443  0.0259 -0.1884 -0.7488
18416TIP3   OH276662   1.300   2.597   5.111  0.1640  0.4934  1.4358
18416TIP3    H176663   1.214   2.554   5.104  0.8029 -0.7876  1.1704
18416TIP3    H276664   1.310   2.616   5.204 -0.3626  0.5392  1.4860
18417TIP3   OH276665   5.858   2.134   2.500  0.0971  0.1339  0.0081
18417TIP3    H176666   5.827   2.110   2.413 -0.0716 -0.8668  0.3340
18417TIP3    H276667   5.827   2.064   2.557  2.0285 -0.3757  0.5220
18418TIP3   OH276668   2.212   0.045  16.433  0.1289 -0.0659 -0.0809
18418TIP3    H176669   2.271   0.113  16.400  1.3354 -1.0294  0.0066
18418TIP3    H276670   2.143   0.038  16.367  0.1952  0.9615 -0.2742
18419TIP3   OH276671   5.558   6.023   3.096  0.3671  0.2416 -0.3646
18419TIP3    H176672   5.605   6.034   3.179  0.0792  0.1590 -0.1892
18419TIP3    H276673   5.622   6.048   3.029 -0.4927  4.1762  0.0156
18420TIP3   OH276674   1.554   1.018   4.770 -0.0786  0.7343  0.0553
18420TIP3    H176675   1.560   0.946   4.833 -1.3612  1.1110  0.6464
18420TIP3    H276676   1.489   0.990   4.706  1.1924  0.3686 -1.1328
18421TIP3   OH276677   3.054   6.667  14.182  0.4771  0.4688 -0.0315
18421TIP3    H176678   3.098   6.747  14.152 -0.4161 -0.1654 -3.3838
18421TIP3    H276679   3.102   6.596  14.139 -0.4463 -0.6071  0.6700
18422TIP3   OH276680   1.053   1.040  11.876 -0.1020 -0.5349  0.4930
18422TIP3    H176681   1.110   1.113  11.899  0.0858 -0.7553  0.7271
18422TIP3    H276682   0.989   1.078  11.815 -0.1911 -0.1069  0.8501
18423TIP3   OH276683   4.996   1.512  17.192  0.5061 -0.0016  0.8105
18423TIP3    H176684   5.019   1.479  17.279 -0.4543 -1.1501  0.6530
18423TIP3    H276685   5.067   1.483  17.135  1.5934  1.5077  1.3343
18424TIP3   OH276686   0.247   3.488  16.306  0.3422 -0.3239 -0.4053
18424TIP3    H176687   0.333   3.501  16.266 -0.1349  0.3361 -1.2639
18424TIP3    H276688   0.220   3.401  16.277  0.1729 -0.0109 -1.2046
18425TIP3   OH276689   5.723   1.432   5.036  0.3142 -0.2415 -0.5478
18425TIP3    H176690   5.797   1.459   4.982  0.9163 -2.1297 -0.7574
18425TIP3    H276691   5.669   1.511   5.045  0.8396  0.4585 -2.8384
18426TIP3   OH276692   4.252   2.691  11.054 -0.2344  0.3581 -0.1811
18426TIP3    H176693   4.157   2.691  11.070 -0.5311  1.3943 -1.7079
18426TIP3    H276694   4.285   2.762  11.108 -0.3879  0.2889  0.0072
18427TIP3   OH276695   6.521   2.083  14.888  0.0678  0.4220  0.2160
18427TIP3    H176696   6.516   1.988  14.880 -0.1587  0.3969  0.6126
18427TIP3    H276697   6.516   2.099  14.983 -0.3234  0.8511  0.1256
18428TIP3   OH276698   5.835   3.971   2.354 -0.4585  0.1856 -0.2547
18428TIP3    H176699   5.847   3.928   2.439 -1.3823 -1.0253 -0.7099
18428TIP3    H276700   5.798   4.056   2.377  1.6418  0.9257  0.6718
18429TIP3   OH276701   5.805   6.045  13.768  0.3961 -0.0307 -0.2403
18429TIP3    H176702   5.831   5.968  13.718  0.0633  0.1351 -0.6848
18429TIP3    H276703   5.786   6.111  13.701  1.0341  0.5517  0.1449
18430TIP3   OH276704   1.680   2.832   1.708  0.1481  0.3582 -0.4748
18430TIP3    H176705   1.734   2.845   1.786 -0.1258 -0.9964 -0.0357
18430TIP3    H276706   1.650   2.920   1.685 -0.2683  0.7232  1.3228
18431TIP3   OH276707   6.181   5.746  17.089  0.3118 -0.1326  0.0001
18431TIP3    H176708   6.102   5.692  17.088 -0.8031  1.4195 -0.3745
18431TIP3    H276709   6.239   5.706  17.025 -0.0408 -1.4568  0.4786
18432TIP3   OH276710   6.761   3.425   6.886 -0.6678 -0.0106  0.0706
18432TIP3    H176711   6.688   3.407   6.826 -0.6499  0.3405 -0.0612
18432TIP3    H276712   6.807   3.342   6.894 -0.5585 -0.0164 -0.5541
18433TIP3   OH276713   5.823   6.607   2.502 -0.0599 -0.3332  0.2003
18433TIP3    H176714   5.848   6.621   2.594  2.3684 -0.2076 -0.4123
18433TIP3    H276715   5.887   6.544   2.469 -0.2475  0.4056 -1.6918
18434TIP3   OH276716   4.215   0.865  11.784 -0.2311  0.1736  0.2501
18434TIP3    H176717   4.185   0.835  11.698 -0.8841  0.0079  0.5326
18434TIP3    H276718   4.138   0.903  11.825 -0.1224 -0.4831  1.0872
18435TIP3   OH276719   4.143   0.496   5.102 -0.6216  0.2201 -0.3137
18435TIP3    H176720   4.152   0.591   5.097  0.8558  0.2496  1.6522
18435TIP3    H276721   4.090   0.481   5.180 -0.6973 -0.5704 -0.5093
18436TIP3   OH276722   1.809   0.047  14.624  0.1110  0.1755  0.7905
18436TIP3    H176723   1.775   0.129  14.587  0.3526  0.2303  0.6889
18436TIP3    H276724   1.790  -0.018  14.557  0.0422  0.1718  0.8128
18437TIP3   OH276725   6.658   5.078  15.092 -0.1303 -0.1640  0.0318
18437TIP3    H176726   6.623   5.166  15.078  0.9024  0.0170 -1.7313
18437TIP3    H276727   6.584   5.020  15.075 -1.0884  0.3336  2.1718
18438TIP3   OH276728   1.127   5.905  13.291  0.0710 -0.9353 -0.4379
18438TIP3    H176729   1.052   5.965  13.287 -0.2419 -1.4016 -2.7389
18438TIP3    H276730   1.183   5.942  13.359 -0.5013  1.5312 -1.1809
18439TIP3   OH276731   3.785   1.188  10.563 -0.3428 -0.1080 -0.3206
18439TIP3    H176732   3.708   1.171  10.509  0.0097 -0.5737 -0.6950
18439TIP3    H276733   3.852   1.129  10.527 -0.5649 -1.6919  1.6956
18440TIP3   OH276734   1.003   3.296   0.853 -0.8751 -0.0248 -0.3892
18440TIP3    H176735   1.017   3.208   0.816 -2.1586  0.0007 -0.9588
18440TIP3    H276736   1.029   3.356   0.783  2.5265  0.1693  0.8535
18441TIP3   OH276737   1.558   6.549   5.766 -0.1124 -0.3714  0.4097
18441TIP3    H176738   1.513   6.607   5.705 -0.7999 -0.4442  0.8364
18441TIP3    H276739   1.573   6.603   5.844 -0.7213 -0.7452  0.7957
18442TIP3   OH276740   1.374   2.186   6.582 -0.2732  0.3924 -0.1472
18442TIP3    H176741   1.366   2.269   6.630  0.2637 -0.6956  1.9339
18442TIP3    H276742   1.446   2.202   6.521  0.5796  1.1532  0.9931
18443TIP3   OH276743   2.525   0.301  11.839 -0.6012 -0.5659 -0.2800
18443TIP3    H176744   2.540   0.388  11.802  2.1566 -1.3948 -1.3212
18443TIP3    H276745   2.462   0.260  11.779  0.0851 -0.1736 -1.2866
18444TIP3   OH276746   4.317   1.111   1.619  0.9112 -0.5468  0.2805
18444TIP3    H176747   4.345   1.135   1.707  2.0143 -2.5259  0.5260
18444TIP3    H276748   4.222   1.117   1.621  0.9417 -0.3316  1.5137
18445TIP3   OH276749   1.869   3.291   5.794 -0.0571  0.3545  0.0969
18445TIP3    H176750   1.891   3.342   5.716  0.4843  0.6473  0.4291
18445TIP3    H276751   1.779   3.262   5.779  0.7740 -1.5752 -1.6850
18446TIP3   OH276752   0.913   2.166  16.112  0.2101 -0.2140  0.2382
18446TIP3    H176753   0.977   2.224  16.153 -0.1107  0.3694 -0.0614
18446TIP3    H276754   0.836   2.222  16.098  0.8324  0.0870 -2.5719
18447TIP3   OH276755   6.190   5.794   0.552 -0.2018  0.1183 -0.3179
18447TIP3    H176756   6.103   5.833   0.541 -0.0256  0.4543 -0.5651
18447TIP3    H276757   6.173   5.700   0.559 -0.8583  0.3610  2.8257
18448TIP3   OH276758   5.364   2.972   3.388 -0.4395  0.3027  0.0219
18448TIP3    H176759   5.377   2.893   3.441  0.2683  1.3046  1.4230
18448TIP3    H276760   5.291   3.017   3.430 -3.1107 -1.1276 -2.7409
18449TIP3   OH276761   2.955   0.737   3.408 -0.4265  0.0555 -1.0842
18449TIP3    H176762   2.921   0.824   3.391 -0.3574 -0.1899 -2.5604
18449TIP3    H276763   2.967   0.734   3.503  0.1766  1.8725 -1.0709
18450TIP3   OH276764   6.628   6.777  14.022  0.3027 -0.3684  0.2628
18450TIP3    H176765   6.667   6.802  13.939  0.6600  0.1831  0.5881
18450TIP3    H276766   6.538   6.810  14.018  0.5742  0.4089  0.4258
18451TIP3   OH276767   4.045   4.147  13.045  1.1754 -0.1347  0.4848
18451TIP3    H176768   4.108   4.186  12.984  0.6500  0.0089  0.0190
18451TIP3    H276769   4.012   4.222  13.095 -0.6323  0.2448 -1.1433
18452TIP3   OH276770   0.238   6.249  11.025 -0.1461 -0.0105 -0.0265
18452TIP3    H176771   0.248   6.259  10.930 -0.5981  1.3900  0.0499
18452TIP3    H276772   0.328   6.244  11.058  0.0287  0.1167 -0.4740
18453TIP3   OH276773   5.175   4.379   0.714 -0.0935 -0.7328 -0.2204
18453TIP3    H176774   5.255   4.330   0.730 -0.2715 -0.5679  1.3510
18453TIP3    H276775   5.204   4.462   0.677  0.4645 -0.6504  0.3958
18454TIP3   OH276776   2.657   4.256  13.311  0.6923  0.3910  0.3662
18454TIP3    H176777   2.606   4.272  13.390 -1.0965 -1.0671 -0.4276
18454TIP3    H276778   2.697   4.341  13.291 -2.9661  2.2106  0.0052
18455TIP3   OH276779   4.032   5.712  15.176 -0.2258  0.1117 -0.3581
18455TIP3    H176780   4.068   5.627  15.151 -0.2050 -0.4114  1.3567
18455TIP3    H276781   4.009   5.753  15.092  2.9445 -0.1045 -1.4499
18456TIP3   OH276782   1.997   4.220  15.485  0.2056 -0.1337 -0.1902
18456TIP3    H176783   1.920   4.208  15.429 -0.1892  0.5861  0.1902
18456TIP3    H276784   2.036   4.303  15.456 -0.8897  1.0679  1.5923
18457TIP3   OH276785   2.675   2.696   0.048 -0.4054  0.2267  0.3926
18457TIP3    H176786   2.596   2.651   0.018 -1.2829  0.8287  1.6993
18457TIP3    H276787   2.740   2.681  -0.021 -2.1191  1.0432 -1.4720
18458TIP3   OH276788   3.108   5.353  11.980  0.1093 -0.0990 -0.3987
18458TIP3    H176789   3.182   5.387  12.031  0.4234  0.4843 -1.2100
18458TIP3    H276790   3.096   5.418  11.910 -2.0109  0.4879  0.4361
18459TIP3   OH276791   1.516   2.349  14.104  0.5668 -0.0926 -0.1117
18459TIP3    H176792   1.595   2.332  14.052  1.1084  0.8474  0.3725
18459TIP3    H276793   1.528   2.438  14.137 -1.4753  0.7376 -1.4009
18460TIP3   OH276794   5.076   4.168  12.293  0.1601 -0.1748 -0.7840
18460TIP3    H176795   4.982   4.182  12.279  0.1637 -0.1449 -0.7790
18460TIP3    H276796   5.118   4.237  12.241  0.1661  0.1535 -0.3503
18461TIP3   OH276797   3.069   2.726   3.502  0.2344 -0.8805 -0.1091
18461TIP3    H176798   3.133   2.698   3.567  1.4827  3.1401  0.6865
18461TIP3    H276799   3.092   2.817   3.483 -2.3807 -0.7121 -3.4391
18462TIP3   OH276800   4.941   6.625   5.564 -0.4025  0.1579  0.2146
18462TIP3    H176801   5.030   6.660   5.567 -1.2863  2.9436 -1.5669
18462TIP3    H276802   4.943   6.561   5.493  0.2186  0.0924  0.2844
18463TIP3   OH276803   4.617   2.218  16.010 -0.5537 -0.9670  0.1514
18463TIP3    H176804   4.554   2.173  15.954 -2.5679  0.9766  0.7219
18463TIP3    H276805   4.565   2.252  16.082  1.5847 -1.3101  1.9498
18464TIP3   OH276806   5.118   3.174  14.846  0.0489  0.2098 -0.2155
18464TIP3    H176807   5.107   3.206  14.936 -1.7393  0.6804 -0.5637
18464TIP3    H276808   5.175   3.239  14.804 -0.2005  0.7054  0.2055
18465TIP3   OH276809   1.394   1.246  14.727 -0.3243 -0.1923  0.0162
18465TIP3    H176810   1.390   1.209  14.816 -0.1946 -1.6040 -0.5286
18465TIP3    H276811   1.393   1.169  14.670 -0.3730  0.6944 -1.2128
18466TIP3   OH276812   6.720   3.261  11.047 -0.1888 -0.0788 -0.5321
18466TIP3    H176813   6.815   3.268  11.033  0.1444 -1.8494  0.4636
18466TIP3    H276814   6.692   3.192  10.988 -0.7666  0.0870 -0.4559
18467TIP3   OH276815   3.883   5.690   3.244  0.0890 -0.5773  0.3532
18467TIP3    H176816   3.875   5.746   3.321  0.7065 -0.4152  0.3010
18467TIP3    H276817   3.898   5.751   3.172 -0.0193 -0.7602  0.1757
18468TIP3   OH276818   1.881   1.784  15.820  0.4270 -0.0535 -0.2262
18468TIP3    H176819   1.818   1.721  15.785  0.2195 -0.6892  1.2511
18468TIP3    H276820   1.832   1.834  15.885  1.1082  0.3377  0.0010
18469TIP3   OH276821   0.745   0.434  12.540  0.0663  0.4275  0.0812
18469TIP3    H176822   0.676   0.494  12.568 -0.0561  0.9778 -1.3209
18469TIP3    H276823   0.821   0.460  12.591 -0.1114  1.4902 -0.1638
18470TIP3   OH276824   1.125   2.010   3.401 -0.2462  0.2118 -0.0638
18470TIP3    H176825   1.060   1.993   3.333 -1.6314  1.5402  0.8550
18470TIP3    H276826   1.081   2.069   3.462  1.6183  0.6426  0.9544
18471TIP3   OH276827   3.437   0.025   1.783  0.3440  0.6349  0.6522
18471TIP3    H176828   3.466   0.110   1.750 -4.0491  2.6876  1.4243
18471TIP3    H276829   3.468   0.023   1.874  0.0339  1.6520  0.7841
18472TIP3   OH276830   5.604   4.338  12.864 -0.4528  0.7348 -0.3818
18472TIP3    H176831   5.599   4.433  12.869 -1.4285  0.6328  1.1008
18472TIP3    H276832   5.513   4.310  12.848 -0.0344  0.0784 -1.8003
18473TIP3   OH276833   2.261   0.662  14.116  0.2213 -0.1494 -0.0479
18473TIP3    H176834   2.274   0.567  14.119  3.7325  0.2121  0.7756
18473TIP3    H276835   2.339   0.696  14.072 -1.6268  2.3576 -1.7539
18474TIP3   OH276836   3.262   0.195   2.055  0.3438  0.6457 -0.5536
18474TIP3    H176837   3.306   0.247   2.122  1.5853 -0.4771 -0.4544
18474TIP3    H276838   3.333   0.157   2.003 -0.4038 -2.0755  0.2408
18475TIP3   OH276839   6.132   2.471  12.827 -0.0196 -0.1259  0.2633
18475TIP3    H176840   6.158   2.463  12.919 -0.0068  0.3005  0.3013
18475TIP3    H276841   6.074   2.548  12.826 -3.0648 -2.2330  0.5891
18476TIP3   OH276842   3.241   4.104  12.247 -0.1001 -0.2873  0.8923
18476TIP3    H176843   3.218   4.014  12.223 -0.5491 -0.6137  2.4317
18476TIP3    H276844   3.272   4.098  12.337  0.7953  0.9755  0.6934
18477TIP3   OH276845   6.601   5.719   0.810  0.0334  0.0645  0.6612
18477TIP3    H176846   6.547   5.753   0.739  1.1002  0.5321  0.0456
18477TIP3    H276847   6.689   5.753   0.792  0.7056 -1.3090  1.1926
18478TIP3   OH276848   1.433   5.996  15.646  0.0943  0.1819  0.2295
18478TIP3    H176849   1.485   6.077  15.644 -1.1655  0.9999 -0.4325
18478TIP3    H276850   1.374   6.003  15.571  0.5920 -1.8041 -0.4170
18479TIP3   OH276851   3.169   1.621  12.510  0.1132 -0.0290 -0.2059
18479TIP3    H176852   3.111   1.587  12.442  0.1042  2.5375 -1.6053
18479TIP3    H276853   3.232   1.551  12.525 -1.9434 -2.0137 -0.2778
18480TIP3   OH276854   5.830   5.483  13.433  0.0491  0.1691  0.2757
18480TIP3    H176855   5.862   5.448  13.350  1.3060  2.5996 -0.3656
18480TIP3    H276856   5.903   5.471  13.493 -0.4378 -0.5342  0.7443
18481TIP3   OH276857   2.470   1.541   5.965 -0.0065  0.3765  0.2957
18481TIP3    H176858   2.512   1.546   6.050  0.4097 -0.6207  0.1618
18481TIP3    H276859   2.397   1.480   5.978  0.3963 -0.2247 -0.1795
18482TIP3   OH276860   5.514   0.078  12.736  0.8428  0.4416 -0.0732
18482TIP3    H176861   5.539   0.161  12.778  1.2155  0.4932 -0.3873
18482TIP3    H276862   5.539   0.011  12.800  0.8847  0.5489  0.0256
18483TIP3   OH276863   2.649   3.288  16.758  0.2327  0.2579 -0.4700
18483TIP3    H176864   2.734   3.277  16.802 -0.2889 -0.4443  0.3871
18483TIP3    H276865   2.594   3.219  16.795 -1.0033  1.3101 -0.3055
18484TIP3   OH276866   1.542   6.427   0.426  0.0370 -0.2202  0.2436
18484TIP3    H176867   1.467   6.436   0.366 -0.7971  0.7438  1.3838
18484TIP3    H276868   1.553   6.332   0.436 -0.2352 -0.3881 -0.9055
18485TIP3   OH276869   2.054   3.512   4.015  0.1179  0.3124  0.1061
18485TIP3    H176870   1.975   3.567   4.012  0.2752  0.6274  1.1955
18485TIP3    H276871   2.033   3.438   3.958 -0.2794  1.2622 -1.0149
18486TIP3   OH276872   1.098   4.508  15.888 -0.3247  0.2091 -0.3140
18486TIP3    H176873   1.049   4.532  15.809  0.4456 -0.4278 -0.9992
18486TIP3    H276874   1.127   4.418  15.872  4.3320  1.7018 -1.6693
18487TIP3   OH276875   3.907   3.311  15.028  0.1095  0.1746  0.6355
18487TIP3    H176876   3.832   3.308  14.969  0.2914  2.9144  0.1273
18487TIP3    H276877   3.960   3.384  14.995  1.8493 -0.2616  2.3152
18488TIP3   OH276878   4.466   6.360  12.654  0.3773  0.7218  0.0990
18488TIP3    H176879   4.513   6.279  12.634  0.2800 -0.5098  4.1576
18488TIP3    H276880   4.384   6.331  12.695 -0.4923  2.9163  0.0500
18489TIP3   OH276881   6.281   5.065  11.295 -0.6805  0.1938  0.6520
18489TIP3    H176882   6.206   5.043  11.351 -1.6824  0.2473 -0.5918
18489TIP3    H276883   6.241   5.088  11.211  0.6875  1.3318  0.2822
18490TIP3   OH276884   1.309   5.333  12.104  0.4964  0.3681 -0.0374
18490TIP3    H176885   1.322   5.293  12.018  0.5906  2.0928 -0.8649
18490TIP3    H276886   1.220   5.368  12.101  1.1267  2.0337 -0.1396
18491TIP3   OH276887   6.587   3.782   4.618  0.3151 -0.7785 -0.3041
18491TIP3    H176888   6.606   3.771   4.525  0.2548 -1.6573 -0.2159
18491TIP3    H276889   6.592   3.694   4.655 -2.8535 -0.9850 -0.0728
18492TIP3   OH276890   3.762   1.112  13.480  0.2814 -0.6662 -0.1562
18492TIP3    H176891   3.734   1.203  13.465 -0.1590 -0.6859  0.4516
18492TIP3    H276892   3.689   1.074  13.529  0.5523 -1.2910 -0.2407
18493TIP3   OH276893   2.944   6.780  16.410 -0.3767 -0.2614  0.7962
18493TIP3    H176894   3.008   6.731  16.359 -1.8206 -0.7035 -0.6450
18493TIP3    H276895   2.936   6.731  16.492  1.1397 -0.1681  1.0240
18494TIP3   OH276896   4.419   6.476   4.006  0.4880 -0.4844 -0.2120
18494TIP3    H176897   4.397   6.569   3.999 -1.6836 -0.9870 -0.7352
18494TIP3    H276898   4.511   6.472   3.980  0.7445  1.5453  0.1769
18495TIP3   OH276899   5.107   2.869   0.507  0.1950 -0.0941  0.2911
18495TIP3    H176900   5.166   2.933   0.467  0.1651 -1.4894 -2.1760
18495TIP3    H276901   5.022   2.913   0.508  0.5736  0.6480  0.5659
18496TIP3   OH276902   1.932   4.083   3.968  0.0699  0.8970 -0.0398
18496TIP3    H176903   1.986   4.088   3.889  0.0958 -0.7335 -0.1448
18496TIP3    H276904   1.875   4.008   3.954 -0.8006  1.3405  0.9719
18497TIP3   OH276905   0.259   4.484   6.573  0.1334  0.0949  0.1346
18497TIP3    H176906   0.324   4.448   6.513  1.8023  1.0007  1.3020
18497TIP3    H276907   0.270   4.433   6.653  0.3622  1.1314  0.7870
18498TIP3   OH276908   4.637   1.455   2.441  0.5155  0.1310  0.1783
18498TIP3    H176909   4.559   1.409   2.472  0.3906  0.4458  0.3315
18498TIP3    H276910   4.619   1.547   2.457  1.0222  0.1886  0.4606
18499TIP3   OH276911   6.443   1.598  12.985 -0.8030  0.1772  0.1446
18499TIP3    H176912   6.492   1.520  13.012  0.0844  0.6208 -0.1605
18499TIP3    H276913   6.361   1.563  12.949 -0.6918 -0.5785  0.5931
18500TIP3   OH276914   3.617   5.132  15.460  0.3008  0.4129  0.0292
18500TIP3    H176915   3.628   5.069  15.531  1.0688 -1.4308 -1.6338
18500TIP3    H276916   3.531   5.170  15.475  0.1337 -0.4683  1.5105
18501TIP3   OH276917   2.572   5.455   1.998 -0.0896  0.0082 -0.1187
18501TIP3    H176918   2.481   5.429   1.979 -0.0507  1.2172 -2.1993
18501TIP3    H276919   2.617   5.450   1.913  2.3152 -2.3393  1.1523
18502TIP3   OH276920   6.457   5.999   2.761 -0.3784 -0.0543 -0.2733
18502TIP3    H176921   6.410   6.028   2.839 -2.1704 -0.3771 -1.1579
18502TIP3    H276922   6.488   5.911   2.782 -2.3919 -0.8662 -0.4739
18503TIP3   OH276923   2.530   5.083   1.922  0.4020  0.0953  0.3359
18503TIP3    H176924   2.467   5.153   1.906  0.5732  0.1649 -0.0561
18503TIP3    H276925   2.476   5.008   1.950  0.3000  0.6270  1.5963
18504TIP3   OH276926   4.472   6.564  11.292  0.5055 -0.3309 -0.3221
18504TIP3    H176927   4.415   6.636  11.265 -0.9530 -1.6615 -1.0121
18504TIP3    H276928   4.560   6.591  11.265  0.2936  1.8665  0.9319
18505TIP3   OH276929   6.771   5.565  13.685  0.0494 -0.0444  0.0948
18505TIP3    H176930   6.796   5.606  13.768 -0.1873  1.0949 -0.3783
18505TIP3    H276931   6.854   5.537  13.646  0.2439  0.2945  0.2687
18506TIP3   OH276932   3.248   2.029   5.554 -0.3859 -0.4311  0.4964
18506TIP3    H176933   3.296   1.965   5.501 -0.7550 -0.6902  0.4767
18506TIP3    H276934   3.180   1.979   5.597 -0.4339 -0.1178  0.7869
18507TIP3   OH276935   2.372   4.006   3.724  0.0325  0.0369 -0.4583
18507TIP3    H176936   2.445   4.049   3.768  0.3301 -1.5047  0.6379
18507TIP3    H276937   2.341   3.941   3.787 -0.7175 -0.9912 -1.8256
18508TIP3   OH276938   6.696   5.673   3.235  0.0720  0.3591  0.3828
18508TIP3    H176939   6.652   5.696   3.317 -1.1317  1.4590 -0.5369
18508TIP3    H276940   6.654   5.593   3.206 -0.1958  0.5199  0.3298
18509TIP3   OH276941   3.267   2.522  11.511  1.0827  0.0636  0.0982
18509TIP3    H176942   3.181   2.483  11.500  1.8495 -1.5408 -0.5619
18509TIP3    H276943   3.250   2.614  11.533 -0.7694 -0.2053 -0.1061
18510TIP3   OH276944   2.227   6.200  16.914  0.3187 -0.0266  0.1150
18510TIP3    H176945   2.309   6.184  16.960  0.7679 -1.5838 -1.1154
18510TIP3    H276946   2.206   6.115  16.874 -1.7502  0.4157  0.1792
18511TIP3   OH276947   4.816   4.378  14.829  0.0816 -0.6762 -0.1925
18511TIP3    H176948   4.750   4.414  14.888  1.4691 -0.4095  1.2713
18511TIP3    H276949   4.797   4.285  14.825 -0.5500 -0.5608 -0.0327
18512TIP3   OH276950   5.501   3.043   2.367  0.6255 -0.3157  0.4545
18512TIP3    H176951   5.484   3.136   2.382 -1.6366 -0.4985 -0.6440
18512TIP3    H276952   5.594   3.033   2.387  1.0532  2.2720  0.1529
18513TIP3   OH276953   6.136   2.880   0.950 -0.6505 -0.4824  0.3758
18513TIP3    H176954   6.100   2.848   1.033  1.5339 -1.4677  1.0204
18513TIP3    H276955   6.138   2.975   0.959 -1.7383 -0.4934  0.8571
18514TIP3   OH276956   6.278   5.894   3.955 -0.2612 -0.1456 -0.3597
18514TIP3    H176957   6.262   5.802   3.932  2.5565 -1.0531  0.8685
18514TIP3    H276958   6.268   5.897   4.050  2.5257  0.0507 -0.0001
18515TIP3   OH276959   2.339   2.234   1.401 -0.0936  0.8245  0.7346
18515TIP3    H176960   2.246   2.212   1.403  0.0459  0.1588  0.1432
18515TIP3    H276961   2.352   2.274   1.315  0.2873  0.3390  0.5595
18516TIP3   OH276962   1.019   4.687  13.413  0.0758 -0.0835 -0.4639
18516TIP3    H176963   0.938   4.735  13.435 -0.7981 -1.7343  0.0627
18516TIP3    H276964   1.089   4.745  13.442 -0.9562  0.4922  1.0063
18517TIP3   OH276965   6.099   0.004  14.928 -0.2458 -0.4614  0.5588
18517TIP3    H176966   6.081   0.091  14.961  2.2339  0.1946  0.3469
18517TIP3    H276967   6.112  -0.050  15.007 -0.2676 -0.3084  0.6658
18518TIP3   OH276968   4.214   4.834   0.870 -0.4687 -0.3144  0.0126
18518TIP3    H176969   4.302   4.844   0.906 -0.1740  1.7821 -1.0863
18518TIP3    H276970   4.217   4.753   0.820  0.8815 -0.2433 -0.0561
18519TIP3   OH276971   1.514   6.271  15.673  0.0046 -0.1025 -0.3151
18519TIP3    H176972   1.588   6.332  15.677 -1.9272  2.5699 -1.8713
18519TIP3    H276973   1.453   6.302  15.740 -1.8368  1.0334 -2.3577
18520TIP3   OH276974   5.204   5.727   0.195 -0.1868  0.7297  0.5966
18520TIP3    H176975   5.166   5.761   0.276 -1.2549  1.0741 -0.0448
18520TIP3    H276976   5.162   5.642   0.183  0.4176  0.4037  0.7020
18521TIP3   OH276977   5.432   3.793  13.905  0.0026 -0.3820  0.2615
18521TIP3    H176978   5.369   3.757  13.967  0.3122 -1.4685 -0.0336
18521TIP3    H276979   5.457   3.877  13.942 -0.6015 -0.5451  1.0673
18522TIP3   OH276980   5.059   3.811   6.466  0.8844  0.0797 -0.1149
18522TIP3    H176981   4.976   3.792   6.509  1.0907  1.3888  0.8984
18522TIP3    H276982   5.093   3.889   6.510  2.1394  0.2085 -1.2285
18523TIP3   OH276983   5.055   4.429  15.454 -0.0007 -1.5592 -0.1132
18523TIP3    H176984   5.056   4.425  15.549  0.5567 -0.3806 -0.0476
18523TIP3    H276985   5.125   4.370  15.427  1.5297 -0.0475  0.3418
18524TIP3   OH276986   1.460   4.116  12.984  0.2673 -0.1586 -0.2316
18524TIP3    H176987   1.510   4.036  13.001  0.3670 -0.3813 -1.4605
18524TIP3    H276988   1.421   4.102  12.898 -0.1590  0.9007 -0.2288
18525TIP3   OH276989   1.731   3.805   5.157 -0.4387 -0.2442  0.4628
18525TIP3    H176990   1.670   3.841   5.222 -0.4676 -1.3563  1.0788
18525TIP3    H276991   1.808   3.782   5.208 -0.5921 -1.4580  0.1664
18526TIP3   OH276992   5.818   5.334   3.990  0.3692  0.3874 -0.2838
18526TIP3    H176993   5.775   5.297   3.913  0.2243 -0.3268  0.1294
18526TIP3    H276994   5.841   5.257   4.043  0.5056  0.8734  0.3643
18527TIP3   OH276995   3.609   0.378  17.085  0.1132 -0.0467 -0.2685
18527TIP3    H176996   3.623   0.454  17.141 -0.5479 -0.0026 -0.1602
18527TIP3    H276997   3.531   0.335  17.120  0.1242 -0.4361 -0.6996
18528TIP3   OH276998   6.552   3.729  16.024 -0.9964  0.1232  0.4131
18528TIP3    H176999   6.563   3.635  16.040 -2.0294  0.1536  1.3975
18528TIP3    H277000   6.600   3.771  16.096 -0.9037  0.3348  0.2267
18529TIP3   OH277001   0.541   3.251   5.396 -0.4830 -0.0594  0.4058
18529TIP3    H177002   0.544   3.197   5.475 -2.7150 -1.6970 -0.5463
18529TIP3    H277003   0.548   3.189   5.324 -2.3634  0.9526 -0.7198
18530TIP3   OH277004   0.289   4.731  13.642 -0.4479 -0.4098  0.4845
18530TIP3    H177005   0.202   4.773  13.642 -0.7185 -0.9590  0.8300
18530TIP3    H277006   0.281   4.661  13.576 -0.8420 -1.6034  1.7575
18531TIP3   OH277007   1.385   6.020  12.578  0.2117 -0.1929  0.2642
18531TIP3    H177008   1.383   6.116  12.583 -0.7101 -0.0385 -1.8801
18531TIP3    H277009   1.408   6.002  12.487 -0.2231 -2.0208  0.4819
18532TIP3   OH277010   3.883   6.606  16.833  0.3494 -0.5833 -0.0143
18532TIP3    H177011   3.918   6.547  16.767 -1.0244 -0.9458 -0.4519
18532TIP3    H277012   3.842   6.549  16.898 -0.3862 -0.1516 -0.0866
18533TIP3   OH277013   6.436   6.468  11.513 -0.1113 -0.0249  0.1656
18533TIP3    H177014   6.464   6.514  11.434 -0.2838 -1.4382 -0.7512
18533TIP3    H277015   6.469   6.379  11.502 -0.7209 -0.4216  1.3805
18534TIP3   OH277016   1.837   0.628  11.579  0.0066  0.2065  0.7952
18534TIP3    H177017   1.842   0.702  11.518 -0.6378  1.7854  2.5844
18534TIP3    H277018   1.756   0.583  11.555  0.1349  0.3707  0.0301
18535TIP3   OH277019   2.452   3.799   4.952 -0.2359 -0.4787 -0.1908
18535TIP3    H177020   2.531   3.782   5.004 -1.4468 -0.5579  1.7185
18535TIP3    H277021   2.424   3.713   4.923 -0.2949 -0.5835  0.1716
18536TIP3   OH277022   1.576   5.451  14.141  0.2936 -0.1652 -0.1027
18536TIP3    H177023   1.572   5.540  14.177 -0.9777 -0.2533  0.0502
18536TIP3    H277024   1.551   5.461  14.049 -0.4769 -0.4239  0.0688
18537TIP3   OH277025   1.731   1.982   1.635  0.1838 -0.0507 -0.8400
18537TIP3    H177026   1.811   2.005   1.588  1.0401 -0.7681  0.2541
18537TIP3    H277027   1.675   2.059   1.624  0.9238  0.3777 -1.7873
18538TIP3   OH277028   4.885   3.323  12.497 -0.0630 -0.0100  0.1249
18538TIP3    H177029   4.799   3.364  12.486  0.2502  0.2038 -1.7754
18538TIP3    H277030   4.925   3.327  12.410  1.7660 -0.3582  0.9102
18539TIP3   OH277031   2.025   2.958  14.476  0.6112  0.4967 -0.3996
18539TIP3    H177032   1.946   3.009  14.496  0.5362 -0.4448  2.0565
18539TIP3    H277033   2.082   3.018  14.428 -0.3756  2.1535  0.4377
18540TIP3   OH277034   3.075   6.361   0.300 -0.1130 -0.0683  0.6194
18540TIP3    H177035   3.081   6.271   0.266  1.3984  0.6317 -1.0882
18540TIP3    H277036   3.007   6.356   0.367 -0.0929 -2.4811  0.5456
18541TIP3   OH277037   2.213   1.450  15.724  0.6435  0.4206  0.1982
18541TIP3    H177038   2.279   1.430  15.790  1.1894  0.8956 -0.1846
18541TIP3    H277039   2.140   1.392  15.743  1.4280 -0.5739  0.2445
18542TIP3   OH277040   1.621   3.485  10.510 -0.0043  0.3616 -0.2897
18542TIP3    H177041   1.686   3.459  10.574  0.2518  1.1587 -0.2149
18542TIP3    H277042   1.606   3.406  10.457 -0.3283 -0.3482  0.8199
18543TIP3   OH277043   0.452   6.388  12.705 -0.3685  0.0578 -0.0810
18543TIP3    H177044   0.449   6.373  12.800 -1.8511 -1.2618 -0.2996
18543TIP3    H277045   0.385   6.456  12.690  0.0610  0.4679 -0.1546
18544TIP3   OH277046   1.904   3.018  12.459 -0.0299  0.2899 -0.4429
18544TIP3    H177047   1.957   3.094  12.485 -0.3463  0.6887 -0.9547
18544TIP3    H277048   1.879   2.978  12.543  0.1519  0.7399 -0.1654
18545TIP3   OH277049   2.366   0.187   2.446 -0.0709  0.3091  0.5539
18545TIP3    H177050   2.302   0.151   2.508 -0.5529 -0.2225 -0.2403
18545TIP3    H277051   2.435   0.120   2.442 -0.9856 -0.5952 -0.9518
18546TIP3   OH277052   1.817   4.679  13.584  0.0048  0.5056  0.3643
18546TIP3    H177053   1.824   4.639  13.498  1.0397 -1.1362  1.1556
18546TIP3    H277054   1.743   4.635  13.626 -0.0183  0.7563  0.5939
18547TIP3   OH277055   0.481   0.025  15.729  0.6115 -0.1890 -0.3097
18547TIP3    H177056   0.393   0.042  15.762 -0.1049 -0.8055 -1.8479
18547TIP3    H277057   0.483  -0.069  15.711  0.6424  0.2488 -2.8565
18548TIP3   OH277058   2.082   5.510  12.655 -0.3592  0.2214  0.2195
18548TIP3    H177059   2.019   5.441  12.633  0.7944 -0.8148  0.0411
18548TIP3    H277060   2.148   5.505  12.586  0.5840  0.4283  1.0841
18549TIP3   OH277061   5.922   1.957   2.096  0.1094 -0.4836  0.1480
18549TIP3    H177062   5.927   1.932   2.004  1.9912  2.4265 -0.6470
18549TIP3    H277063   5.968   1.886   2.142 -1.0748 -2.1016 -1.0179
18550TIP3   OH277064   3.201   6.104  10.709 -0.4489 -0.3405  0.4972
18550TIP3    H177065   3.192   6.161  10.632  2.1114 -0.7695 -0.1921
18550TIP3    H277066   3.207   6.015  10.672  1.8343 -0.4605  1.0644
18551TIP3   OH277067   1.539   6.588   0.940 -0.1236  0.0569 -1.0057
18551TIP3    H177068   1.526   6.595   0.845 -2.0980 -1.2180 -0.8887
18551TIP3    H277069   1.460   6.545   0.972  0.2158  1.0099  1.3277
18552TIP3   OH277070   0.360   4.618  10.831  0.2293  0.4641  0.3246
18552TIP3    H177071   0.447   4.586  10.806  0.3921  2.3911 -1.9250
18552TIP3    H277072   0.373   4.711  10.850 -1.4489  1.0334 -1.0431
18553TIP3   OH277073   5.617   5.116   4.132  0.1364  0.0230 -0.0927
18553TIP3    H177074   5.634   5.030   4.094  0.5752  0.7910 -1.7177
18553TIP3    H277075   5.648   5.109   4.222  0.8695 -1.2920 -0.4267
18554TIP3   OH277076   2.725   3.685  16.912 -0.1864  0.2161  0.2778
18554TIP3    H177077   2.670   3.654  16.840  1.9418 -0.9358 -0.9332
18554TIP3    H277078   2.794   3.736  16.871  1.0915 -0.4689  1.4669
18555TIP3   OH277079   2.231   4.583  13.420 -0.6701  0.1984  0.6376
18555TIP3    H177080   2.192   4.588  13.507 -0.7653  0.2700  0.5906
18555TIP3    H277081   2.305   4.643  13.423 -0.0909 -0.5189  0.9712
18556TIP3   OH277082   4.025   0.815  14.663  0.6571 -0.3366 -0.1060
18556TIP3    H177083   3.934   0.813  14.690  0.3769 -2.2650 -1.0430
18556TIP3    H277084   4.057   0.726  14.678  2.4069  0.3134  0.2457
18557TIP3   OH277085   3.433   0.604   1.141 -0.5724 -0.0167  0.1942
18557TIP3    H177086   3.383   0.550   1.080  0.2045 -0.0604 -0.4355
18557TIP3    H277087   3.387   0.688   1.142  0.1797  0.4675 -1.5911
18558TIP3   OH277088   5.888   2.367   1.486  0.3293 -0.3398 -0.4449
18558TIP3    H177089   5.808   2.335   1.529  0.1706 -0.5103 -0.8667
18558TIP3    H277090   5.877   2.343   1.394  0.7886 -0.2061 -0.5349
18559TIP3   OH277091   5.470   4.413   1.439 -0.2748  0.4810 -0.1955
18559TIP3    H177092   5.422   4.446   1.363 -1.0865  0.7571  0.4142
18559TIP3    H277093   5.483   4.320   1.421  0.8022  0.8371 -1.3037
18560TIP3   OH277094   5.236   1.744   5.152 -0.1289  0.3533 -0.2700
18560TIP3    H177095   5.151   1.786   5.144  0.6032  1.6258 -2.0829
18560TIP3    H277096   5.295   1.797   5.098  1.2870 -1.8687 -1.0801
18561TIP3   OH277097   6.090   1.924   5.080  0.0020 -0.0033 -0.6595
18561TIP3    H177098   6.181   1.918   5.050 -0.0199  2.1056 -1.3168
18561TIP3    H277099   6.043   1.862   5.025  0.7510  0.2850 -1.6558
18562TIP3   OH277100   6.656   5.746   1.067 -0.1531 -0.2745 -0.4248
18562TIP3    H177101   6.562   5.730   1.060 -0.0150 -1.1130 -0.4220
18562TIP3    H277102   6.683   5.774   0.979 -0.2526 -0.8863 -0.6543
18563TIP3   OH277103   2.745   3.395   3.820 -0.3107 -0.2328  0.6233
18563TIP3    H177104   2.778   3.320   3.868 -1.3356  0.0391  1.8005
18563TIP3    H277105   2.731   3.462   3.887 -0.7938  0.5176 -0.2064
18564TIP3   OH277106   6.663   4.305  11.401  0.5344 -0.5402 -0.0351
18564TIP3    H177107   6.583   4.254  11.387  0.8116 -0.5285 -1.9591
18564TIP3    H277108   6.643   4.391  11.365  0.9596 -0.1028  0.7553
18565TIP3   OH277109   4.116   0.389  11.342 -0.0151  0.1748 -0.3112
18565TIP3    H177110   4.077   0.310  11.305 -2.2537  0.5025  1.1225
18565TIP3    H277111   4.152   0.361  11.426 -0.7914  0.6503  0.1880
18566TIP3   OH277112   1.855   3.170  14.223 -0.8304  0.0650 -0.4515
18566TIP3    H177113   1.792   3.109  14.185 -0.6688 -0.7182  0.5008
18566TIP3    H277114   1.928   3.172  14.161 -1.2223 -0.0344 -0.9157
18567TIP3   OH277115   6.724   0.302  10.856  0.3307 -0.0366 -0.1635
18567TIP3    H177116   6.732   0.224  10.802  0.6168  0.6025 -1.0625
18567TIP3    H277117   6.664   0.359  10.807 -0.3061  0.0941  0.7412
18568TIP3   OH277118   4.786   2.545   4.370 -0.2707  0.5708 -0.2297
18568TIP3    H177119   4.745   2.604   4.307  1.5247  0.4650 -1.5870
18568TIP3    H277120   4.858   2.505   4.322 -0.1954 -1.2133  1.2616
18569TIP3   OH277121   5.256   2.667   3.141 -0.2016 -0.2020  0.1573
18569TIP3    H177122   5.226   2.717   3.066 -1.4324 -3.7568 -1.9861
18569TIP3    H277123   5.175   2.637   3.183  0.4057 -1.6681  0.3562
18570TIP3   OH277124   2.049   1.101  14.510  0.1263  0.0962  0.5128
18570TIP3    H177125   2.024   1.008  14.507  1.5957 -0.3217  0.2805
18570TIP3    H277126   2.119   1.104  14.575  3.9991 -0.0318 -3.2430
18571TIP3   OH277127   0.444   4.910   2.752 -0.1687 -0.1658  0.0365
18571TIP3    H177128   0.368   4.880   2.703  0.9914  0.8036 -2.4869
18571TIP3    H277129   0.413   4.988   2.799 -1.1310 -0.7154  0.3266
18572TIP3   OH277130   0.940   2.199  14.350 -0.2140  0.0069 -0.3351
18572TIP3    H177131   0.961   2.114  14.389  0.5268  0.7906  1.0704
18572TIP3    H277132   0.882   2.179  14.277 -2.1743 -1.5283  1.5171
18573TIP3   OH277133   2.683   5.063   0.283 -0.4940 -0.9454  0.0310
18573TIP3    H177134   2.589   5.057   0.303 -1.1050  1.1532 -1.8063
18573TIP3    H277135   2.708   5.151   0.311  0.5995 -0.9947 -0.7172
18574TIP3   OH277136   2.170   0.344   0.553 -0.2959  0.6650  0.0134
18574TIP3    H177137   2.233   0.370   0.620 -0.7461 -0.2756  0.8289
18574TIP3    H277138   2.092   0.397   0.571  0.3291  2.0687 -1.1971
18575TIP3   OH277139   6.127   0.112  12.324  0.1075  0.5683 -0.2023
18575TIP3    H177140   6.075   0.116  12.405  0.5621  2.6724  0.0595
18575TIP3    H277141   6.207   0.066  12.349 -0.6494 -0.7100 -0.0410
18576TIP3   OH277142   4.794   4.166  13.412 -0.3892 -0.3368 -0.5959
18576TIP3    H177143   4.749   4.239  13.454  0.1439 -0.3492  0.0078
18576TIP3    H277144   4.881   4.201  13.390 -0.7225 -0.2666 -1.8783
18577TIP3   OH277145   4.479   2.101   6.689  0.0132 -0.1819  0.5515
18577TIP3    H177146   4.395   2.094   6.646  1.1615 -0.5038 -1.7888
18577TIP3    H277147   4.529   2.164   6.636  1.5451 -0.6603  1.3413
18578TIP3   OH277148   0.834   2.365  13.704  0.4598  0.3953 -0.3377
18578TIP3    H177149   0.881   2.286  13.733 -0.1679  0.6826  1.5406
18578TIP3    H277150   0.904   2.426  13.680  1.1824  1.0093  2.8916
18579TIP3   OH277151   3.504   5.473   3.657  0.2754 -0.5367 -0.1855
18579TIP3    H177152   3.443   5.417   3.608 -0.0714 -0.5741  0.2880
18579TIP3    H277153   3.506   5.554   3.606 -0.6416 -0.3119  0.1174
18580TIP3   OH277154   4.028   1.830  14.860  0.3053 -0.1932  0.0739
18580TIP3    H177155   3.977   1.752  14.879  1.6319 -0.8086  1.2816
18580TIP3    H277156   4.118   1.806  14.880  1.2053  0.6793 -2.4310
18581TIP3   OH277157   6.340   4.083   2.962 -0.6918  0.0783 -0.1370
18581TIP3    H177158   6.382   4.049   2.883 -0.8796 -0.8560  0.1430
18581TIP3    H277159   6.348   4.178   2.955  0.3484 -0.0334 -0.6963
18582TIP3   OH277160   1.507   3.643  16.115  0.7146  0.7646  0.2497
18582TIP3    H177161   1.458   3.586  16.056 -0.8621  2.3227 -0.0584
18582TIP3    H277162   1.475   3.621  16.202 -0.0014  1.2571  0.1169
18583TIP3   OH277163   2.598   3.696   0.622  0.4073 -0.2716  0.7449
18583TIP3    H177164   2.580   3.763   0.688  0.2889  1.4486 -0.9130
18583TIP3    H277165   2.538   3.717   0.550 -0.0336 -2.5605  0.3934
18584TIP3   OH277166   6.656   6.479   2.414  0.1154  0.4159  0.0019
18584TIP3    H177167   6.681   6.564   2.377  0.2262 -0.5546 -2.2937
18584TIP3    H277168   6.692   6.415   2.353 -1.0992 -1.2660  0.9748
18585TIP3   OH277169   1.461   5.809  13.227 -0.0036 -0.0050 -0.0989
18585TIP3    H177170   1.457   5.774  13.316  0.0356 -1.9678 -0.8261
18585TIP3    H277171   1.372   5.800  13.193  0.4130 -1.1492 -0.9226
18586TIP3   OH277172   3.613   4.203   1.867 -0.2368 -0.2007 -0.2568
18586TIP3    H177173   3.530   4.156   1.879 -0.1672 -0.0980  0.7075
18586TIP3    H277174   3.609   4.237   1.778  0.8639 -4.3120 -2.1051
18587TIP3   OH277175   1.726   4.464   2.017 -0.4118  0.0547  0.0641
18587TIP3    H177176   1.753   4.514   2.094 -0.9933 -0.7544  0.8010
18587TIP3    H277177   1.762   4.376   2.031 -0.8156 -0.1905 -0.4186
18588TIP3   OH277178   4.277   5.818  13.241 -0.8936 -0.4725 -0.3418
18588TIP3    H177179   4.310   5.908  13.235 -1.7275 -0.2290 -1.6132
18588TIP3    H277180   4.354   5.764  13.225 -0.3583 -0.0104  0.5396
18589TIP3   OH277181   2.255   0.622  11.699  0.2138  0.4151 -0.7106
18589TIP3    H177182   2.341   0.659  11.716 -0.0217  0.4040  0.6051
18589TIP3    H277183   2.251   0.613  11.604  1.4532  0.9023 -0.8248
18590TIP3   OH277184   3.353   0.349   2.256 -0.1795  0.5335  0.1807
18590TIP3    H177185   3.345   0.308   2.342 -2.2127  1.6647  0.5966
18590TIP3    H277186   3.445   0.377   2.251  0.9448 -2.6631  0.4469
18591TIP3   OH277187   1.229   4.380  15.286 -0.0153  0.3187 -0.2219
18591TIP3    H177188   1.278   4.430  15.351  0.2511 -0.7890  0.4532
18591TIP3    H277189   1.273   4.294  15.284 -1.4555 -0.4484 -0.1497
18592TIP3   OH277190   5.760   6.177  11.249 -0.5560 -0.3096  0.0850
18592TIP3    H177191   5.804   6.182  11.164 -2.0414 -1.5687 -0.8024
18592TIP3    H277192   5.829   6.150  11.310  0.2342 -0.7098 -0.9642
18593TIP3   OH277193   5.529   2.178  16.762 -0.4026  0.3524 -0.0149
18593TIP3    H177194   5.496   2.096  16.725 -2.3481  0.6521  0.9566
18593TIP3    H277195   5.538   2.236  16.686 -0.1491 -0.3824 -0.5559
18594TIP3   OH277196   0.601   1.258   4.919 -0.3063 -0.3484 -0.0475
18594TIP3    H177197   0.582   1.175   4.964  1.2845 -0.5899  0.2391
18594TIP3    H277198   0.607   1.322   4.989 -3.3876  0.4683 -0.3901
18595TIP3   OH277199   3.201   0.170  11.975  0.1652  0.2417  0.0736
18595TIP3    H177200   3.139   0.108  11.936  0.1973  0.0416  0.3381
18595TIP3    H277201   3.262   0.190  11.904  0.1297  0.0007 -0.0273
18596TIP3   OH277202   6.389   1.579   4.585  0.1057  0.2236  0.6072
18596TIP3    H177203   6.397   1.540   4.672 -1.6637 -0.5392  0.4589
18596TIP3    H277204   6.380   1.505   4.526 -0.8644  0.7764  0.0347
18597TIP3   OH277205   6.693   2.106  15.721 -0.1188  0.1872  0.4631
18597TIP3    H177206   6.754   2.084  15.650  1.4417  1.3431  1.3869
18597TIP3    H277207   6.635   2.171  15.682 -0.1717 -0.2181 -0.1582
18598TIP3   OH277208   1.250   2.976   3.045 -0.1638  0.8215 -0.3193
18598TIP3    H177209   1.278   2.910   2.982 -0.0175  0.3045  0.2806
18598TIP3    H277210   1.332   3.017   3.074  0.2596 -1.7945  2.6627
18599TIP3   OH277211   0.408   0.800   4.210 -0.4498 -0.0274  0.4690
18599TIP3    H177212   0.383   0.792   4.118 -1.4937 -0.2067  0.7555
18599TIP3    H277213   0.497   0.763   4.213 -1.1996 -2.0320 -0.1047
18600TIP3   OH277214   2.026   2.571  12.236  0.5009 -0.0677 -0.2627
18600TIP3    H177215   2.119   2.595  12.238  0.4419  0.2860 -1.1650
18600TIP3    H277216   2.013   2.534  12.149  0.1509 -1.6497  0.4295
18601TIP3   OH277217   1.159   4.926   1.920 -0.0228  0.0847  0.4793
18601TIP3    H177218   1.165   4.839   1.880  0.2406 -0.6355  2.0326
18601TIP3    H277219   1.189   4.986   1.851 -0.3157 -1.0243 -0.6552
18602TIP3   OH277220   4.077   5.015   1.170  0.2275 -0.1355 -0.6812
18602TIP3    H177221   4.023   5.074   1.222  1.2801  1.6722 -1.5555
18602TIP3    H277222   4.051   5.030   1.080  2.0428  0.7032 -1.1119
18603TIP3   OH277223   5.936   4.142  11.917  0.4899  0.1434  0.0234
18603TIP3    H177224   5.954   4.055  11.954  0.6581  0.1726  0.0080
18603TIP3    H277225   6.016   4.192  11.932  0.4320  0.2636 -0.0673
18604TIP3   OH277226   3.281   3.117   0.367 -0.3150 -0.0515 -0.1928
18604TIP3    H177227   3.263   3.051   0.299 -2.8615 -0.2214  0.5402
18604TIP3    H277228   3.262   3.072   0.449  0.7445  0.7633  0.5083
18605TIP3   OH277229   2.286   5.392  11.154 -0.1966 -0.0396  0.0430
18605TIP3    H177230   2.335   5.431  11.082 -0.4390  0.8758  0.3528
18605TIP3    H277231   2.217   5.341  11.112 -0.3194  0.4645 -0.3796
18606TIP3   OH277232   2.239   5.868   3.686 -0.2101 -0.1989 -0.2919
18606TIP3    H177233   2.199   5.793   3.642 -3.4837  1.0467  0.2628
18606TIP3    H277234   2.284   5.915   3.617  0.7218 -1.8799 -0.8997
18607TIP3   OH277235   5.880   0.129  15.261  0.1739 -0.0326 -0.1995
18607TIP3    H177236   5.917   0.211  15.226  1.0741  0.2916  1.4174
18607TIP3    H277237   5.954   0.085  15.302 -1.0885  0.5806  3.0702
18608TIP3   OH277238   3.575   6.495  13.991 -0.3300 -0.0428 -0.0310
18608TIP3    H177239   3.559   6.402  13.976  0.6207 -0.0621 -1.0810
18608TIP3    H277240   3.533   6.539  13.917  0.3086  0.2627 -0.2182
18609TIP3   OH277241   6.124   2.564   5.881 -0.3433 -0.2501  0.3460
18609TIP3    H177242   6.065   2.564   5.805  0.9047  0.4435 -0.6801
18609TIP3    H277243   6.078   2.514   5.948 -2.1736  0.4410 -0.3377
18610TIP3   OH277244   4.650   6.209  10.634  0.1735 -0.2362  0.2498
18610TIP3    H177245   4.605   6.143  10.580 -0.9464  0.5949  0.1349
18610TIP3    H277246   4.670   6.163  10.716  0.0540 -0.9241 -0.0956
18611TIP3   OH277247   4.078   1.005   2.582  0.6774 -0.0764 -0.0171
18611TIP3    H177248   4.109   1.079   2.529  3.2228 -0.9648  0.0854
18611TIP3    H277249   4.155   0.977   2.632 -0.6187 -1.7921  1.1429
18612TIP3   OH277250   0.435   5.927   0.476 -0.1611 -0.0803 -0.3939
18612TIP3    H177251   0.365   5.958   0.533 -1.2577 -1.4883 -0.9148
18612TIP3    H277252   0.465   6.005   0.429 -2.5851  0.3222 -1.4202
18613TIP3   OH277253   3.522   2.116  12.642 -0.0236 -0.1415  0.4064
18613TIP3    H177254   3.533   2.175  12.567  0.7832 -0.6898  0.0862
18613TIP3    H277255   3.518   2.174  12.718  2.8390  0.2830  0.3395
18614TIP3   OH277256   0.893   2.903  15.992 -0.1065  0.4112  0.2780
18614TIP3    H177257   0.808   2.907  16.035 -0.3872  0.3576 -0.2661
18614TIP3    H277258   0.883   2.838  15.923  0.7101 -0.4271  0.9216
18615TIP3   OH277259   2.383   2.057  12.312  0.3468 -0.4497  0.2051
18615TIP3    H177260   2.326   2.049  12.388  1.3216 -0.3375  0.9755
18615TIP3    H277261   2.397   1.967  12.283 -1.6777 -0.3912 -1.1500
18616TIP3   OH277262   2.684   6.453   2.116  0.0815  0.0548  0.3024
18616TIP3    H177263   2.627   6.483   2.046  2.7697  0.4393 -1.8605
18616TIP3    H277264   2.760   6.511   2.113  1.1184 -1.0580  2.3646
18617TIP3   OH277265   1.463   3.493  16.852 -0.1413 -1.1699 -0.0275
18617TIP3    H177266   1.497   3.475  16.940  0.3665  1.3562  0.3672
18617TIP3    H277267   1.396   3.426  16.838 -0.8980 -1.0770  2.6750
18618TIP3   OH277268   3.451   0.446  11.372 -0.2676 -0.3429  0.2462
18618TIP3    H177269   3.412   0.381  11.314 -3.4866  0.9288  0.7747
18618TIP3    H277270   3.451   0.405  11.458  1.6391 -1.1014 -0.0747
18619TIP3   OH277271   1.341   5.100  15.368  0.2239 -0.3214  0.5515
18619TIP3    H177272   1.391   5.036  15.317 -0.1659 -1.8159  1.9813
18619TIP3    H277273   1.383   5.102  15.454 -0.2262  0.8151  0.7737
18620TIP3   OH277274   6.620   4.357   1.893 -0.2378  0.4178  0.0786
18620TIP3    H177275   6.561   4.328   1.962 -0.3824 -0.5892 -0.4474
18620TIP3    H277276   6.586   4.316   1.814  0.3640  0.9485 -0.4603
18621TIP3   OH277277   3.129   2.362   4.804  0.0321 -0.1379  0.0242
18621TIP3    H177278   3.102   2.279   4.844 -1.8084 -1.4793 -3.5200
18621TIP3    H277279   3.121   2.426   4.875 -3.2411 -2.1786  1.7743
18622TIP3   OH277280   5.067   5.546   3.180  0.0799 -0.2829  0.0654
18622TIP3    H177281   4.998   5.603   3.214  0.4168  1.2720 -1.6729
18622TIP3    H277282   5.024   5.462   3.166 -0.8777  0.0129  1.0727
18623TIP3   OH277283   5.329   1.190   5.588 -0.5517 -0.0892  0.5647
18623TIP3    H177284   5.296   1.237   5.512  1.6413 -0.0800 -0.4808
18623TIP3    H277285   5.352   1.103   5.554  0.5279 -0.0584  1.1652
18624TIP3   OH277286   3.277   1.760   2.205  0.3796  0.3832  0.0906
18624TIP3    H177287   3.263   1.851   2.230 -2.2994 -0.1808  0.9489
18624TIP3    H277288   3.245   1.754   2.115  1.9864  0.5678 -0.5258
18625TIP3   OH277289   3.716   4.779   1.321  0.5938 -0.2764  0.3292
18625TIP3    H177290   3.671   4.835   1.384 -0.7455 -1.5176  0.5315
18625TIP3    H277291   3.772   4.723   1.374 -0.2451 -1.0639  0.3924
18626TIP3   OH277292   1.319   5.470   4.484  0.0288 -0.0272 -0.3832
18626TIP3    H177293   1.273   5.436   4.407 -0.0934  1.0284 -0.7833
18626TIP3    H277294   1.249   5.500   4.542  0.1019 -1.0699  0.2935
18627TIP3   OH277295   3.150   1.042  13.777  0.1290  0.0550  0.1022
18627TIP3    H177296   3.205   0.999  13.842  0.4736 -0.0811 -0.2742
18627TIP3    H277297   3.171   0.998  13.694 -0.2470  0.2743 -0.1147
18628TIP3   OH277298   1.767   5.828  15.624 -0.1562  0.7501  0.8123
18628TIP3    H177299   1.765   5.924  15.631 -1.8737  0.9682 -1.4865
18628TIP3    H277300   1.814   5.811  15.543  1.1860 -0.4702  1.7882
18629TIP3   OH277301   5.048   0.849   0.801 -0.1657  0.2119 -0.4224
18629TIP3    H177302   5.042   0.919   0.866  0.5231  0.2963 -0.4421
18629TIP3    H277303   5.114   0.789   0.837 -0.1545 -0.0048 -0.7993
18630TIP3   OH277304   0.762   3.498   3.788 -0.7264  0.2399 -0.2414
18630TIP3    H177305   0.734   3.481   3.878 -2.4643  0.9500 -0.6045
18630TIP3    H277306   0.816   3.577   3.795 -0.9476  0.3589  0.1662
18631TIP3   OH277307   1.441   1.319   2.384 -0.0474  0.0998 -0.4060
18631TIP3    H177308   1.477   1.396   2.428 -1.8628 -0.5402  2.4243
18631TIP3    H277309   1.393   1.355   2.309 -0.0824  1.6241  0.3167
18632TIP3   OH277310   1.959   2.654  12.712  0.1402 -0.8762 -0.3035
18632TIP3    H177311   1.961   2.617  12.800 -0.5466 -0.1937  0.0081
18632TIP3    H277312   1.914   2.738  12.722 -0.8775 -1.2528 -1.4760
18633TIP3   OH277313   2.067   6.177  11.330  0.3511  0.1697  0.4844
18633TIP3    H177314   2.093   6.235  11.258 -0.5000 -0.7823 -0.6415
18633TIP3    H277315   2.083   6.089  11.295  2.1112 -0.3080  2.3246
18634TIP3   OH277316   3.501   2.773  15.531  0.8386  0.2560 -0.5348
18634TIP3    H177317   3.442   2.784  15.457 -0.3149 -0.2173  0.2881
18634TIP3    H277318   3.474   2.691  15.572  0.2064  1.3988  1.4814
18635TIP3   OH277319   2.440   1.909   2.474  0.1118  0.2110  0.5014
18635TIP3    H177320   2.526   1.930   2.511 -0.3899  0.7069  1.4547
18635TIP3    H277321   2.402   1.995   2.454 -0.2320  0.0025  0.2638
18636TIP3   OH277322   5.737   4.649  16.081 -0.1558  0.0113  0.0606
18636TIP3    H177323   5.708   4.715  16.018  0.9457 -0.7290 -1.2648
18636TIP3    H277324   5.825   4.678  16.106  0.6332 -1.2900 -1.0780
18637TIP3   OH277325   2.176   0.705  15.455 -0.0229 -0.2993  0.4308
18637TIP3    H177326   2.215   0.667  15.533  0.1411 -0.6757  0.1678
18637TIP3    H277327   2.231   0.781  15.435 -1.4584  1.2527  2.0533
18638TIP3   OH277328   6.745   3.481   1.318  0.0456  0.2345 -0.2953
18638TIP3    H177329   6.821   3.430   1.293 -0.1643  0.9822 -2.7079
18638TIP3    H277330   6.671   3.438   1.274 -0.5774  0.8925  0.0769
18639TIP3   OH277331   6.263   6.166  16.003  0.5383  0.1333 -0.0525
18639TIP3    H177332   6.181   6.144  15.958  0.0582 -0.2705  0.9687
18639TIP3    H277333   6.262   6.262  16.008  0.0718  0.1304  0.0325
18640TIP3   OH277334   6.112   0.078   0.651 -0.0752 -0.1014 -0.4818
18640TIP3    H177335   6.024   0.059   0.682  0.5063 -2.9008 -0.3268
18640TIP3    H277336   6.128   0.015   0.581  2.0890 -0.2195  0.0296
18641TIP3   OH277337   3.406   4.377  11.169 -0.0965 -0.7024 -0.0446
18641TIP3    H177338   3.476   4.423  11.124  0.8757 -0.5499  1.5424
18641TIP3    H277339   3.450   4.319  11.231 -1.2959  0.8391  2.4334
18642TIP3   OH277340   5.173   3.669   3.512  0.3230 -0.7182 -0.0439
18642TIP3    H177341   5.241   3.607   3.539  0.9022  0.3331  1.0584
18642TIP3    H277342   5.221   3.748   3.488 -0.4049 -0.6373 -1.2956
18643TIP3   OH277343   4.214   5.964  12.377 -0.6181 -0.3993  1.0009
18643TIP3    H177344   4.144   6.013  12.333 -0.0368  1.0603  1.6079
18643TIP3    H277345   4.294   6.010  12.353 -0.0998 -0.7404  2.0220
18644TIP3   OH277346   5.584   3.904  11.927 -0.3257  0.0183 -0.2978
18644TIP3    H177347   5.647   3.976  11.928  0.9633 -1.0822 -0.2685
18644TIP3    H277348   5.606   3.853  11.849 -0.5694 -0.9049  0.2238
18645TIP3   OH277349   2.218   5.449  14.884  0.1531 -0.0043 -0.5125
18645TIP3    H177350   2.133   5.407  14.868 -0.3201 -0.0565  1.7796
18645TIP3    H277351   2.275   5.378  14.913  0.4087  0.3317 -0.1840
18646TIP3   OH277352   6.053   0.738  15.230  0.2388  0.0710  0.5282
18646TIP3    H177353   6.001   0.693  15.297  0.3958 -0.2432  0.4417
18646TIP3    H277354   6.136   0.758  15.274 -1.2470  4.1539  2.0097
18647TIP3   OH277355   3.476   2.428  13.084  0.2504 -0.4319 -0.7303
18647TIP3    H177356   3.554   2.378  13.109  0.4313 -0.7435 -1.8532
18647TIP3    H277357   3.421   2.429  13.163  2.3949  1.8158  0.9222
18648TIP3   OH277358   6.216   5.281   5.282  0.5704 -0.3735 -0.4279
18648TIP3    H177359   6.223   5.205   5.341  0.2557 -0.3018 -0.2969
18648TIP3    H277360   6.163   5.344   5.331  0.7753 -0.0949 -0.5663
18649TIP3   OH277361   4.036   6.758   3.090  0.0952  0.1762  0.1610
18649TIP3    H177362   4.126   6.764   3.123  0.1715  0.3674 -0.0760
18649TIP3    H277363   4.007   6.849   3.083  0.5325  0.2233 -1.4926
18650TIP3   OH277364   0.312   2.360   3.199  0.3308 -0.4300  0.1007
18650TIP3    H177365   0.384   2.338   3.258 -1.4674 -0.5696  2.4121
18650TIP3    H277366   0.299   2.454   3.211  0.0652 -0.4294 -0.1812
18651TIP3   OH277367   6.368   1.732  15.645  0.5008  0.5274  0.0071
18651TIP3    H177368   6.456   1.753  15.677  0.7756 -0.1750 -0.2607
18651TIP3    H277369   6.376   1.643  15.610 -0.8682 -0.5265  2.1614
18652TIP3   OH277370   3.981   6.382   6.364  0.1365 -0.1047 -0.1467
18652TIP3    H177371   3.933   6.460   6.393  0.9736  0.1586  0.6017
18652TIP3    H277372   3.915   6.312   6.363 -1.4821  1.1837 -4.0803
18653TIP3   OH277373   6.555   4.154  12.586 -0.1686 -0.6649  0.1872
18653TIP3    H177374   6.545   4.239  12.629  1.2470 -0.6694  0.5591
18653TIP3    H277375   6.582   4.094  12.656 -0.5378 -1.2917 -0.1925
18654TIP3   OH277376   3.028   6.025  14.376 -0.3344 -0.2159  0.4645
18654TIP3    H177377   3.062   5.937  14.393  0.2579  0.0270  0.5719
18654TIP3    H277378   3.094   6.084  14.414  1.7421  0.4561 -3.5993
18655TIP3   OH277379   5.776   0.136  16.987 -0.4030 -0.6170  0.5257
18655TIP3    H177380   5.841   0.068  16.972 -1.4885 -1.0144 -3.4959
18655TIP3    H277381   5.692   0.091  16.979 -1.1458  0.8707 -0.5248
18656TIP3   OH277382   1.439   0.214   2.863 -0.1392 -0.1376  0.5768
18656TIP3    H177383   1.424   0.227   2.957  0.0802  1.0767  0.4637
18656TIP3    H277384   1.453   0.303   2.829 -0.0686 -0.5806 -0.5780
18657TIP3   OH277385   0.148   3.407  13.175 -0.3708  0.0193 -0.4552
18657TIP3    H177386   0.199   3.348  13.230 -1.2374 -0.4796 -0.1665
18657TIP3    H277387   0.197   3.489  13.175  1.0262 -0.7806 -1.1334
18658TIP3   OH277388   3.708   0.299  14.007 -0.4345 -0.5573  0.1135
18658TIP3    H177389   3.720   0.205  14.020  0.3642 -0.9648 -2.9494
18658TIP3    H277390   3.650   0.306  13.932  0.6716  1.3410 -0.6431
18659TIP3   OH277391   1.750   4.297   5.681  0.1286 -0.5156  0.3936
18659TIP3    H177392   1.698   4.378   5.682 -0.8635 -1.1207 -0.5751
18659TIP3    H277393   1.689   4.230   5.651  1.1839 -1.4634  0.3256
18660TIP3   OH277394   3.104   5.701   2.322 -0.1717 -0.0115  0.1683
18660TIP3    H177395   3.069   5.708   2.411 -1.0788  1.5478 -0.2830
18660TIP3    H277396   3.158   5.780   2.311 -0.9334  0.3701 -1.0197
18661TIP3   OH277397   4.825   1.703  14.635 -0.7962 -0.5294 -0.4174
18661TIP3    H177398   4.903   1.686  14.582  0.1346  2.6070 -0.2996
18661TIP3    H277399   4.848   1.675  14.723 -0.5575 -1.3705 -0.7385
18662TIP3   OH277400   4.071   1.647  10.924 -0.0025 -0.3115  0.0804
18662TIP3    H177401   4.150   1.696  10.899 -0.5587  0.0610 -1.0114
18662TIP3    H277402   4.004   1.679  10.864 -1.7690  1.5625  2.8122
18663TIP3   OH277403   6.125   2.987   4.310  0.3854  0.6292  0.0743
18663TIP3    H177404   6.102   2.900   4.278  0.1544 -0.0187  1.8902
18663TIP3    H277405   6.159   2.973   4.398 -0.8269  2.4722  0.9081
18664TIP3   OH277406   1.363   2.951   2.675  0.8362 -0.1476  0.0914
18664TIP3    H177407   1.275   2.929   2.707 -0.0348  0.9304 -1.4280
18664TIP3    H277408   1.364   2.920   2.585  2.1056 -0.3228  0.1597
18665TIP3   OH277409   2.794   3.210  13.630  0.0817  0.3089  0.2158
18665TIP3    H177410   2.812   3.299  13.601  1.1976 -0.1761 -0.7069
18665TIP3    H277411   2.740   3.172  13.561  1.7011 -0.4674 -0.6883
18666TIP3   OH277412   4.373   2.265   4.947 -0.1556  0.1512 -0.3515
18666TIP3    H177413   4.468   2.272   4.937  0.0257 -1.0615  0.3006
18666TIP3    H277414   4.352   2.177   4.915 -1.0726  0.4504 -0.5828
18667TIP3   OH277415   4.659   0.761   4.779  0.2094 -0.2093 -0.2489
18667TIP3    H177416   4.674   0.852   4.805  2.1492 -0.6523  0.3335
18667TIP3    H277417   4.694   0.756   4.690  0.4437 -0.4768 -0.1407
18668TIP3   OH277418   2.766   2.188  14.664 -0.2414  0.3163 -0.0826
18668TIP3    H177419   2.704   2.153  14.728 -2.4602  1.4316 -1.5103
18668TIP3    H277420   2.799   2.268  14.705 -0.0931 -0.0194  0.4764
18669TIP3   OH277421   1.599   6.376   4.832 -0.7457  0.0170  0.2390
18669TIP3    H177422   1.507   6.397   4.852 -0.7423  0.5963 -0.3254
18669TIP3    H277423   1.594   6.294   4.783 -1.0596  0.6088 -0.7479
18670TIP3   OH277424   5.994   6.176  10.776  0.1433  0.0758  0.3218
18670TIP3    H177425   6.002   6.270  10.789 -0.0730  0.1589 -0.1157
18670TIP3    H277426   6.027   6.161  10.687 -0.7207 -0.1223  0.0207
18671TIP3   OH277427   3.924   0.015  10.996 -0.2064 -0.8631 -0.1848
18671TIP3    H177428   3.981   0.002  10.920 -1.0014 -0.4348 -0.8691
18671TIP3    H277429   3.984   0.026  11.069  0.6691  1.2400 -1.1466
18672TIP3   OH277430   3.690   0.448  14.802  0.0772  0.4491  0.2903
18672TIP3    H177431   3.782   0.421  14.795 -0.1422 -0.3546  0.4772
18672TIP3    H277432   3.674   0.498  14.722  0.1968 -0.8730 -0.5952
18673TIP3   OH277433   4.825   3.801   0.575 -0.4319 -0.0468 -0.1053
18673TIP3    H177434   4.858   3.861   0.508  0.9290 -0.1383  0.4437
18673TIP3    H277435   4.761   3.747   0.530  0.4000 -0.0546 -1.3119
18674TIP3   OH277436   0.555   2.458  11.309 -0.0054  0.0697  0.1440
18674TIP3    H177437   0.550   2.404  11.229 -0.5294 -2.2253  1.6246
18674TIP3    H277438   0.465   2.480  11.329 -0.0437 -0.7722  0.9672
18675TIP3   OH277439   4.422   1.733   0.492 -0.0933  0.4744 -0.3139
18675TIP3    H177440   4.462   1.667   0.435  1.6582  0.5971  0.7324
18675TIP3    H277441   4.453   1.817   0.457 -0.3035  0.6273 -0.1357
18676TIP3   OH277442   5.743   5.878  15.760 -0.0031 -0.7430  0.1542
18676TIP3    H177443   5.731   5.783  15.766 -3.1269 -0.4993 -0.5959
18676TIP3    H277444   5.765   5.893  15.668  0.6021 -0.7401  0.2983
18677TIP3   OH277445   3.750   4.962  14.242 -0.3825 -0.1994  0.1186
18677TIP3    H177446   3.657   4.943  14.256 -0.9193  1.7967 -0.4516
18677TIP3    H277447   3.755   5.057  14.241  1.8016 -0.2473  0.8347
18678TIP3   OH277448   2.950   1.055   4.716  0.6003 -0.5353 -0.1962
18678TIP3    H177449   3.007   1.048   4.639  0.9254  0.8681 -0.1032
18678TIP3    H277450   2.867   1.089   4.682  0.0126 -1.9462 -0.2302
18679TIP3   OH277451   4.039   6.663   0.112 -0.0960  0.3782 -0.2830
18679TIP3    H177452   3.960   6.613   0.092 -0.6325  0.8317  0.5993
18679TIP3    H277453   4.088   6.606   0.172  1.4046 -0.8897 -2.5658
18680TIP3   OH277454   4.032   4.382   2.127  0.1227 -0.3763  0.2597
18680TIP3    H177455   4.087   4.304   2.138  0.8791 -0.0916 -1.1583
18680TIP3    H277456   3.955   4.349   2.080  0.1448 -0.3937  0.2348
18681TIP3   OH277457   2.612   1.098  12.377  1.0346 -0.1240 -0.1159
18681TIP3    H177458   2.606   1.169  12.441  0.9493 -0.0617 -0.1926
18681TIP3    H277459   2.526   1.056  12.380  1.5449 -1.1665  1.0107
18682TIP3   OH277460   5.833   4.818  14.819  0.2192  0.0534 -0.1267
18682TIP3    H177461   5.774   4.894  14.815 -1.3454 -1.1440 -0.7017
18682TIP3    H277462   5.779   4.745  14.790  1.6158 -1.3378  0.6788
18683TIP3   OH277463   1.477   0.497  13.228  0.2792 -0.5601  0.7700
18683TIP3    H177464   1.383   0.485  13.219  0.2235  1.1581 -1.9090
18683TIP3    H277465   1.488   0.549  13.308 -1.2588  1.2525 -0.1461
18684TIP3   OH277466   3.873   1.316   3.705  0.1311  0.0957  0.2064
18684TIP3    H177467   3.790   1.307   3.753  1.4621  1.3009  2.9208
18684TIP3    H277468   3.865   1.254   3.633 -3.3072  0.4789  0.0877
18685TIP3   OH277469   4.629   4.431   0.350 -0.4768  0.3834  0.0987
18685TIP3    H177470   4.547   4.477   0.329 -1.6388 -1.2742  0.7968
18685TIP3    H277471   4.604   4.369   0.418  1.2305 -0.6586 -0.1883
18686TIP3   OH277472   4.699   2.863  14.444  0.7929 -0.2085 -0.4902
18686TIP3    H177473   4.653   2.946  14.432  0.1729 -0.2093  1.4199
18686TIP3    H277474   4.636   2.796  14.417  0.5846 -0.1203 -0.2225
18687TIP3   OH277475   6.426   4.208  15.700 -0.0486 -0.3638  0.7996
18687TIP3    H177476   6.343   4.182  15.660  1.0825 -1.4648 -1.0069
18687TIP3    H277477   6.436   4.149  15.775 -1.4300  0.6039  1.7923
18688TIP3   OH277478   2.040   3.631   6.267  0.8456  0.2780 -0.9998
18688TIP3    H177479   2.049   3.653   6.360  0.8212 -0.2631 -0.8681
18688TIP3    H277480   2.103   3.688   6.223  1.1090  0.2845 -0.6170
18689TIP3   OH277481   6.411   2.063  13.228  0.3982 -0.2415 -0.2506
18689TIP3    H177482   6.471   2.006  13.275  1.5598 -0.0238 -1.4124
18689TIP3    H277483   6.375   2.121  13.295  2.3403  0.3602  0.3387
18690TIP3   OH277484   1.123   1.382  12.114  0.3672 -0.4916 -0.1306
18690TIP3    H177485   1.172   1.464  12.109  0.1036 -0.3941 -1.3823
18690TIP3    H277486   1.123   1.348  12.024 -1.4995 -0.6901 -0.0897
18691TIP3   OH277487   4.424   3.091  14.809  0.0448 -0.2765 -0.5158
18691TIP3    H177488   4.367   3.148  14.861 -1.5008 -1.6679 -0.5803
18691TIP3    H277489   4.426   3.009  14.857  0.6024 -0.8026 -1.4097
18692TIP3   OH277490   0.725   4.582  10.990 -0.1801  0.2004 -0.2572
18692TIP3    H177491   0.731   4.566  10.896 -0.8248  1.1002 -0.4607
18692TIP3    H277492   0.708   4.676  10.998  1.5190  0.4599  0.8300
18693TIP3   OH277493   5.321   2.841   5.210 -0.7713 -0.1119  0.2384
18693TIP3    H177494   5.330   2.757   5.166 -0.6373 -1.6662  2.9625
18693TIP3    H277495   5.283   2.819   5.295 -0.3239  2.5466  1.2348
18694TIP3   OH277496   1.204   0.815  14.023  0.0629 -0.4254  0.5723
18694TIP3    H177497   1.199   0.905  13.990 -0.4397 -1.4772 -2.4690
18694TIP3    H277498   1.112   0.790  14.036  0.1522 -0.8511  0.3766
18695TIP3   OH277499   2.996   0.968  13.363 -0.1472 -0.3227 -0.3570
18695TIP3    H177500   3.066   1.027  13.333 -0.6502  0.1615 -0.6018
18695TIP3    H277501   2.977   0.913  13.288  0.0750 -0.5618 -0.2406
18696TIP3   OH277502   4.927   4.650  14.112 -0.0530 -0.1151 -0.6430
18696TIP3    H177503   5.008   4.692  14.083  1.1592 -2.0902 -0.2382
18696TIP3    H277504   4.918   4.572  14.058 -2.4092  0.6840 -1.5651
18697TIP3   OH277505   4.009   3.743  10.985  0.0511  0.0885 -0.3923
18697TIP3    H177506   4.040   3.742  10.894  2.1464  0.2870  0.2571
18697TIP3    H277507   4.088   3.726  11.037 -1.2688 -0.8954  1.3680
18698TIP3   OH277508   4.700   5.706  12.315  0.0726 -0.1527 -0.5587
18698TIP3    H177509   4.739   5.794  12.316 -0.1481 -0.0349  1.2681
18698TIP3    H277510   4.773   5.648  12.338 -0.0373 -0.3209 -0.6426
18699TIP3   OH277511   3.760   1.316  13.814  0.0392 -0.1320 -0.2548
18699TIP3    H177512   3.825   1.268  13.865  1.9629  0.9216 -1.5682
18699TIP3    H277513   3.676   1.280  13.842  1.2422 -2.7999  0.2818
18700TIP3   OH277514   0.303   6.366   0.046  0.3899  0.0749 -0.3747
18700TIP3    H177515   0.353   6.448   0.044  3.2143 -1.5141 -0.7897
18700TIP3    H277516   0.257   6.365  -0.038  0.6173  1.0348 -0.5306
18701TIP3   OH277517   4.474   6.461   0.252 -0.1449  0.7588 -0.1390
18701TIP3    H177518   4.507   6.485   0.166  2.0324 -2.1608 -0.2826
18701TIP3    H277519   4.529   6.509   0.314  1.4161 -0.5706 -0.4293
18702TIP3   OH277520   4.385   3.677   1.541 -0.0379  0.5110  0.9652
18702TIP3    H177521   4.417   3.611   1.602  0.2245  0.2912  0.5944
18702TIP3    H277522   4.302   3.642   1.508  1.1858 -0.7634 -0.9785
18703TIP3   OH277523   2.299   1.068  16.575 -0.1630 -0.6820 -0.4956
18703TIP3    H177524   2.240   0.997  16.602 -2.3594  1.5308  1.0083
18703TIP3    H277525   2.375   1.059  16.632 -1.5701 -0.3998  1.5607
18704TIP3   OH277526   6.523   1.524   0.712 -0.1000  0.7293  0.3243
18704TIP3    H177527   6.434   1.492   0.697 -0.0805  0.6919  0.2905
18704TIP3    H277528   6.534   1.519   0.807  0.2206 -0.2152  0.2481
18705TIP3   OH277529   0.828   6.051   4.201  0.0707 -0.0677 -0.1605
18705TIP3    H177530   0.779   6.124   4.237 -1.0971 -0.8062 -0.1830
18705TIP3    H277531   0.863   6.005   4.277  2.1622  1.3565 -0.1826
18706TIP3   OH277532   3.348   1.236   0.581 -0.2021 -0.1911  0.2268
18706TIP3    H177533   3.308   1.253   0.496  2.2299 -0.3834 -1.0355
18706TIP3    H277534   3.294   1.284   0.643 -1.3910  0.8729 -1.5464
18707TIP3   OH277535   2.596   0.838   4.734 -0.0193  0.5127  0.1720
18707TIP3    H177536   2.692   0.831   4.736 -0.0698 -0.2318  0.3595
18707TIP3    H277537   2.570   0.776   4.665 -0.4891 -0.9461  1.5892
18708TIP3   OH277538   5.082   3.391  11.459  0.5424 -0.1022  0.3701
18708TIP3    H177539   5.103   3.469  11.510  1.0623  0.0325 -0.0427
18708TIP3    H277540   5.165   3.366  11.418  0.2959 -0.6479  0.1947
18709TIP3   OH277541   1.628   5.732  11.629  0.1847 -0.1293 -0.4407
18709TIP3    H177542   1.590   5.733  11.541  0.9489  0.1964 -0.7734
18709TIP3    H277543   1.661   5.821  11.642 -1.2609  0.2776  0.7838
18710TIP3   OH277544   4.720   5.215  10.443  0.0526  0.4353  0.4827
18710TIP3    H177545   4.637   5.196  10.488 -0.3835 -0.3848 -0.6420
18710TIP3    H277546   4.761   5.130  10.430 -0.3855  0.5065 -1.6922
18711TIP3   OH277547   0.800   4.707  14.656 -0.2661  0.1455 -0.1254
18711TIP3    H177548   0.827   4.740  14.741  0.5662  2.2679 -1.1218
18711TIP3    H277549   0.721   4.656  14.673  0.5409 -0.4950  2.0285
18712TIP3   OH277550   4.295   6.638  12.466  0.0514 -0.8401 -0.5525
18712TIP3    H177551   4.382   6.679  12.470  0.1537 -1.1440  1.1688
18712TIP3    H277552   4.275   6.616  12.557 -2.0241 -0.3953 -0.8564
18713TIP3   OH277553   2.375   6.396  14.438  0.0898 -0.5374 -0.3140
18713TIP3    H177554   2.471   6.397  14.431  0.0673  0.0450 -0.5559
18713TIP3    H277555   2.353   6.303  14.440  0.4589 -0.7561 -3.1302
18714TIP3   OH277556   0.360   0.180   3.001  0.0368  0.0482  0.4744
18714TIP3    H177557   0.293   0.179   2.932  0.5347  2.2812 -0.1286
18714TIP3    H277558   0.311   0.200   3.081 -0.2285  0.1453  0.2922
18715TIP3   OH277559   0.166   2.369   0.135  0.1008  0.0036 -0.7039
18715TIP3    H177560   0.179   2.463   0.148 -0.5071 -0.0518  0.4650
18715TIP3    H277561   0.248   2.338   0.096  0.3516  0.9900 -0.9801
18716TIP3   OH277562   2.339   5.059  10.452 -0.6146  0.5757 -0.4272
18716TIP3    H177563   2.252   5.034  10.419  0.2078  1.9137 -4.0625
18716TIP3    H277564   2.327   5.145  10.491 -0.9924  0.5295 -0.4408
18717TIP3   OH277565   5.151   3.679   4.354 -0.0745 -0.3859  0.7591
18717TIP3    H177566   5.243   3.681   4.380  0.2753 -0.1736 -0.4272
18717TIP3    H277567   5.126   3.587   4.360  0.9984 -0.8788 -1.4356
18718TIP3   OH277568   6.214   1.445   0.854 -0.3355  0.1945  0.2758
18718TIP3    H177569   6.157   1.476   0.924 -1.7235 -0.6916 -0.4181
18718TIP3    H277570   6.219   1.518   0.792 -1.6400 -0.0830 -0.1873
18719TIP3   OH277571   1.082   2.264   4.790 -0.2457  0.3354  0.3618
18719TIP3    H177572   1.177   2.254   4.796 -0.3171 -0.2479  0.5865
18719TIP3    H277573   1.047   2.178   4.814 -0.8313  0.5538  0.3115
18720TIP3   OH277574   4.738   1.791   5.341 -0.1922  0.6226  0.8624
18720TIP3    H177575   4.699   1.813   5.425 -1.9421  3.4184 -0.5179
18720TIP3    H277576   4.676   1.732   5.299 -0.9461  1.7183  0.3641
18721TIP3   OH277577   2.983   3.250  13.814 -0.4515 -0.6622 -1.0192
18721TIP3    H177578   2.926   3.222  13.742 -0.1698 -2.0086 -0.7550
18721TIP3    H277579   2.937   3.222  13.893 -0.6869  0.6684 -0.6655
18722TIP3   OH277580   1.032   1.369  11.135 -0.2409 -0.4101 -0.4617
18722TIP3    H177581   1.091   1.385  11.061 -0.7368 -0.1580 -0.8120
18722TIP3    H277582   0.971   1.443  11.132 -2.6992 -2.3431 -2.1957
18723TIP3   OH277583   0.442   6.528  13.556 -0.1177  0.1952 -0.1843
18723TIP3    H177584   0.473   6.484  13.636  0.7196  1.9782  0.5327
18723TIP3    H277585   0.346   6.523  13.562 -0.0566 -0.2330  0.6056
18724TIP3   OH277586   0.504   1.968   4.069  0.8064 -0.3708  0.6216
18724TIP3    H177587   0.517   1.885   4.024 -0.7023 -1.0480  1.3823
18724TIP3    H277588   0.448   1.947   4.144  1.1661  1.1700  1.3677
18725TIP3   OH277589   2.159   1.655  16.576 -0.3058  0.2019  0.4500
18725TIP3    H177590   2.209   1.675  16.655 -0.0168  0.7048  0.1437
18725TIP3    H277591   2.083   1.712  16.580 -1.0614 -0.8376  1.1070
18726TIP3   OH277592   5.809   1.704  16.020  0.0923 -0.6467 -0.4665
18726TIP3    H177593   5.899   1.679  15.999  0.1250 -0.5968 -0.3848
18726TIP3    H277594   5.779   1.634  16.078 -0.1331 -1.0007 -1.0057
18727TIP3   OH277595   2.286   3.157   3.674 -0.0558  0.0969  0.0967
18727TIP3    H177596   2.248   3.072   3.651 -0.7635 -0.5101  3.0488
18727TIP3    H277597   2.380   3.140   3.680  0.4884  0.7716 -3.8542
18728TIP3   OH277598   0.879   4.441  14.292  0.2438  0.0455 -0.2324
18728TIP3    H177599   0.917   4.508  14.348 -0.8229  1.7115 -1.4159
18728TIP3    H277600   0.815   4.396  14.347 -1.1820  2.0111 -0.2158
18729TIP3   OH277601   3.315   2.701   4.939 -0.0744 -0.0761  0.3726
18729TIP3    H177602   3.345   2.662   5.021  1.8609  0.5924  0.0317
18729TIP3    H277603   3.222   2.721   4.954 -0.2745 -1.7386  1.6892
18730TIP3   OH277604   4.465   0.303   4.398 -0.3138  0.4741 -0.3696
18730TIP3    H177605   4.418   0.251   4.463 -0.5206  1.1935  0.0713
18730TIP3    H277606   4.556   0.275   4.407 -0.6447 -1.0403 -1.3362
18731TIP3   OH277607   4.280   1.649   2.558  0.1006 -0.0956 -0.1849
18731TIP3    H177608   4.185   1.660   2.566  0.1154  1.5316 -1.6465
18731TIP3    H277609   4.313   1.665   2.647 -0.8945  0.7464  0.0604
18732TIP3   OH277610   6.658   4.305  15.947  0.4073 -0.4318 -0.3468
18732TIP3    H177611   6.754   4.308  15.956  0.6013  0.2637 -2.1099
18732TIP3    H277612   6.632   4.228  15.996  2.0132 -1.2555 -0.7010
18733TIP3   OH277613   2.022   3.293  12.511  0.6743  0.0226  0.2497
18733TIP3    H177614   1.956   3.313  12.577  0.8741  0.9537  0.1742
18733TIP3    H277615   2.104   3.324  12.548  0.6332  1.6213 -0.8848
18734TIP3   OH277616   4.420   5.679   1.268  0.7614 -0.0284  0.1017
18734TIP3    H177617   4.377   5.652   1.348 -0.6859  1.3203 -0.1686
18734TIP3    H277618   4.489   5.614   1.254 -0.8895 -2.0305  0.8004
18735TIP3   OH277619   2.641   3.627  12.641  0.0491  0.5365  0.8844
18735TIP3    H177620   2.568   3.682  12.612 -0.7509 -0.3133  1.2591
18735TIP3    H277621   2.612   3.538  12.626  1.8819  0.1757 -1.0664
18736TIP3   OH277622   0.375   2.932  12.157 -0.7059 -0.1684  0.4489
18736TIP3    H177623   0.452   2.937  12.213 -0.5925 -0.5292  0.3265
18736TIP3    H277624   0.379   3.011  12.103  0.9668 -1.3853 -1.3491
18737TIP3   OH277625   5.187   0.668   2.822  0.2874 -0.2349  0.2190
18737TIP3    H177626   5.187   0.574   2.807 -0.1654 -0.5059  1.7853
18737TIP3    H277627   5.177   0.678   2.917 -3.5642  1.4151 -0.1846
18738TIP3   OH277628   6.524   4.090  11.889 -0.0108 -0.0963  0.3575
18738TIP3    H177629   6.594   4.121  11.946  0.8123 -1.4889  0.1341
18738TIP3    H277630   6.446   4.137  11.920  0.9580  1.3264  0.7349
18739TIP3   OH277631   0.840   6.504   1.183  0.3373  0.5923  0.2551
18739TIP3    H177632   0.831   6.599   1.187 -1.8327  0.4897 -0.8341
18739TIP3    H277633   0.933   6.489   1.164 -0.0557  2.7749 -4.9310
18740TIP3   OH277634   2.672   6.039   7.088  1.0262 -0.7418  0.2845
18740TIP3    H177635   2.663   6.109   7.153 -1.2209 -1.5327  0.9279
18740TIP3    H277636   2.698   6.084   7.008  0.3759  0.7355  0.8590
18741TIP3   OH277637   3.582   6.559   2.707  0.0677 -0.3404  0.4874
18741TIP3    H177638   3.619   6.476   2.680  0.1793 -0.3050  0.5336
18741TIP3    H277639   3.650   6.601   2.760  0.1721 -0.0368  0.1152
18742TIP3   OH277640   4.952   2.574  13.401  0.0040 -0.2849  0.3668
18742TIP3    H177641   4.863   2.589  13.434 -0.1167 -0.2662  0.0393
18742TIP3    H277642   5.001   2.652  13.426 -0.4691  0.4247 -0.8130
18743TIP3   OH277643   1.281   2.476  12.276  0.6481 -0.3600 -0.5477
18743TIP3    H177644   1.233   2.514  12.349 -0.0771 -2.2093 -0.0044
18743TIP3    H277645   1.345   2.543  12.252  1.1515  0.1827  2.0108
18744TIP3   OH277646   4.492   4.045  14.740 -1.0520  0.4037  0.1426
18744TIP3    H177647   4.522   3.954  14.738 -1.2499  0.3398  0.0094
18744TIP3    H277648   4.555   4.093  14.687 -1.4503  0.1895 -0.5401
18745TIP3   OH277649   6.777   1.251  15.274 -0.0088  0.8493 -0.1975
18745TIP3    H177650   6.795   1.243  15.180 -0.6562 -0.1248 -0.2498
18745TIP3    H277651   6.802   1.166  15.311 -2.4236  0.1576  0.0386
18746TIP3   OH277652   0.307   5.276  14.007  1.0308  0.1425 -0.5908
18746TIP3    H177653   0.362   5.345  14.044  0.1283  0.6024 -0.0572
18746TIP3    H277654   0.252   5.321  13.943  0.1986  0.0098  0.0040
18747TIP3   OH277655   1.901   3.621  12.029  0.1262 -0.0491 -0.2063
18747TIP3    H177656   1.838   3.613  12.101  0.4155  1.8208  0.3070
18747TIP3    H277657   1.847   3.632  11.951 -0.1840 -0.4492 -0.0524
18748TIP3   OH277658   0.640   5.313   0.811  0.6796  0.1241 -0.5100
18748TIP3    H177659   0.719   5.278   0.853  1.5010  2.5409  0.1574
18748TIP3    H277660   0.597   5.237   0.773  2.6149 -1.4698  0.3031
18749TIP3   OH277661   3.180   0.522  11.519  0.3013  0.1681 -0.2210
18749TIP3    H177662   3.222   0.549  11.436  0.9532  0.6633  0.2555
18749TIP3    H277663   3.183   0.427  11.517  0.5709  0.1806 -0.6481
18750TIP3   OH277664   0.589   3.750  14.770 -0.1407  1.0023 -0.2165
18750TIP3    H177665   0.639   3.784  14.695  0.5110  0.3085 -0.1094
18750TIP3    H277666   0.614   3.658  14.775  0.0324  1.1089  1.0296
18751TIP3   OH277667   0.931   2.728   0.303 -0.7508  0.7294 -0.5785
18751TIP3    H177668   0.844   2.716   0.341 -0.3070  0.7280  0.4504
18751TIP3    H277669   0.915   2.728   0.208 -1.8544  0.6281 -0.4098
18752TIP3   OH277670   4.088   0.073   1.564 -0.2307 -0.1798  0.0243
18752TIP3    H177671   4.006   0.035   1.535  0.4927 -0.9233 -1.1398
18752TIP3    H277672   4.150   0.000   1.564  1.3293  0.9629 -2.8234
18753TIP3   OH277673   6.625   2.670  15.631 -0.0083  0.0010  0.3757
18753TIP3    H177674   6.681   2.679  15.708 -0.1013 -1.5652  0.6537
18753TIP3    H277675   6.686   2.671  15.557  0.5846 -2.6665  0.7222
18754TIP3   OH277676   2.592   0.546  14.987  0.3266  0.0833 -0.2432
18754TIP3    H177677   2.594   0.574  14.895  0.6512 -0.3536 -0.3687
18754TIP3    H277678   2.579   0.452  14.983 -1.7195  0.3005  0.1954
18755TIP3   OH277679   4.802   0.968   1.217  0.3276 -0.8273 -0.1223
18755TIP3    H177680   4.719   0.920   1.222 -0.4334  0.4851  0.1592
18755TIP3    H277681   4.854   0.918   1.153 -0.9019 -1.3228 -0.7706
18756TIP3   OH277682   2.987   4.501  15.926 -0.4088 -0.2995 -0.3297
18756TIP3    H177683   2.958   4.592  15.922 -0.1644 -0.2219 -3.6602
18756TIP3    H277684   2.911   4.450  15.896 -0.2128 -1.0997  0.4903
18757TIP3   OH277685   1.008   0.369  13.581  0.3366  0.3351 -0.2614
18757TIP3    H177686   0.927   0.393  13.626 -1.1512 -2.7528 -1.0367
18757TIP3    H277687   1.077   0.394  13.642 -1.3031  1.1475  1.3561
18758TIP3   OH277688   6.454   2.133  16.551 -0.4878  0.3209  0.4531
18758TIP3    H177689   6.407   2.198  16.498  2.5240  0.3905 -2.4639
18758TIP3    H277690   6.481   2.066  16.489  0.2711 -1.4955  2.6086
18759TIP3   OH277691   6.718   5.154  15.818 -0.7052 -0.7037 -0.2121
18759TIP3    H177692   6.638   5.160  15.869 -0.6062 -1.7684  0.0852
18759TIP3    H277693   6.701   5.085  15.754  0.0146 -1.0344 -0.0591
18760TIP3   OH277694   4.971   5.992  15.364  0.1810 -0.2095  0.3194
18760TIP3    H177695   5.054   5.948  15.347 -0.0226 -0.9221  1.0835
18760TIP3    H277696   4.909   5.920  15.378  0.0650  0.2717  2.7224
18761TIP3   OH277697   6.507   5.475   4.983  0.0547  0.4359 -0.6866
18761TIP3    H177698   6.490   5.491   5.075 -1.8501  2.6999 -1.3286
18761TIP3    H277699   6.574   5.539   4.959 -1.3494  1.7072 -1.3870
18762TIP3   OH277700   3.502   5.759   4.549 -0.1221 -0.5134  0.5719
18762TIP3    H177701   3.509   5.765   4.454  1.7637 -1.5139  0.6030
18762TIP3    H277702   3.552   5.834   4.582 -0.0144 -0.6746  0.7763
18763TIP3   OH277703   5.905   4.255   2.496  0.1450  0.0170 -0.1279
18763TIP3    H177704   5.938   4.331   2.543 -1.8001 -0.4549  2.2022
18763TIP3    H277705   5.857   4.291   2.422 -0.0748  1.0324  0.4854
18764TIP3   OH277706   3.364   2.539  15.573 -0.1845  0.1499  0.2819
18764TIP3    H177707   3.379   2.452  15.536  0.4125  0.2505  0.2716
18764TIP3    H277708   3.272   2.557  15.556 -0.0466 -0.0201 -0.7038
18765TIP3   OH277709   5.491   4.422   3.138 -0.6278  0.5453  0.6206
18765TIP3    H177710   5.537   4.373   3.070 -1.5315  1.4573 -0.7304
18765TIP3    H277711   5.559   4.473   3.181  0.2600 -1.5349  1.7871
18766TIP3   OH277712   5.686   4.569   0.919 -0.0390 -0.2091 -0.3837
18766TIP3    H177713   5.649   4.582   0.832 -1.5352 -1.5908 -0.0041
18766TIP3    H277714   5.720   4.480   0.918  1.8674  0.4722 -0.1831
18767TIP3   OH277715   5.886   1.027  10.727 -0.0474  0.2686  0.6888
18767TIP3    H177716   5.827   0.952  10.713 -1.3709  1.4992 -0.7311
18767TIP3    H277717   5.968   1.001  10.685 -0.4605 -0.4223  0.2891
18768TIP3   OH277718   2.307   5.565   4.876 -0.5536 -0.1289 -0.4327
18768TIP3    H177719   2.305   5.647   4.827  0.8631  1.5035  2.0287
18768TIP3    H277720   2.355   5.504   4.819 -0.9032  0.9621 -1.9556
18769TIP3   OH277721   0.989   3.081  15.738 -0.4677  0.2332  0.1432
18769TIP3    H177722   0.974   3.069  15.832 -0.7684  0.7987  0.1767
18769TIP3    H277723   0.957   3.000  15.699 -1.3372  0.4062  0.4462
18770TIP3   OH277724   3.502   6.660  12.073 -0.2180 -0.1202 -0.5372
18770TIP3    H177725   3.586   6.617  12.091  0.0492  0.6716  0.1705
18770TIP3    H277726   3.497   6.662  11.977  0.4018 -0.4965 -0.5841
18771TIP3   OH277727   5.513   2.031   1.369 -0.0050  0.6201 -0.0283
18771TIP3    H177728   5.506   1.996   1.457  1.1665  1.6147  0.4892
18771TIP3    H277729   5.519   1.954   1.313  0.2492 -0.0222  0.8581
18772TIP3   OH277730   5.284   0.083   3.483 -0.7800 -0.9389  0.1837
18772TIP3    H177731   5.322   0.138   3.415 -0.8207 -1.9190 -0.6555
18772TIP3    H277732   5.191   0.077   3.461 -0.5744 -2.2973 -0.4489
18773TIP3   OH277733   5.343   3.592  13.059 -0.0723  0.1299 -0.4514
18773TIP3    H177734   5.287   3.642  13.118  0.9617  1.3205 -0.4383
18773TIP3    H277735   5.347   3.504  13.097  0.5071  0.8480  1.2183
18774TIP3   OH277736   2.342   3.682  15.552  0.0193 -0.1623 -0.5183
18774TIP3    H177737   2.376   3.768  15.579  0.8668 -0.1294 -1.6051
18774TIP3    H277738   2.414   3.642  15.504 -0.2757 -1.6070  0.1789
18775TIP3   OH277739   0.549   5.768   0.665  0.0519  0.3193  0.1124
18775TIP3    H177740   0.532   5.675   0.649  2.6119  0.0006 -1.2682
18775TIP3    H277741   0.515   5.813   0.588  2.4972  0.0018 -1.2341
18776TIP3   OH277742   1.652   3.831  12.232 -0.1087 -0.0090  0.0980
18776TIP3    H177743   1.624   3.740  12.223  1.8597 -0.5701 -1.1797
18776TIP3    H277744   1.647   3.866  12.144 -1.9145  1.5210  0.7587
18777TIP3   OH277745   5.957   6.066   5.840 -0.7554 -0.5247 -0.0301
18777TIP3    H177746   5.964   5.982   5.794  2.1116 -0.2950 -0.2056
18777TIP3    H277747   5.972   6.045   5.932 -0.7174 -0.2785  0.0208
18778TIP3   OH277748   1.943   2.404  15.507 -0.2494 -0.2831 -0.0793
18778TIP3    H177749   2.009   2.375  15.570  0.0402  1.0711  0.2819
18778TIP3    H277750   1.866   2.424  15.560 -0.3474 -0.1348 -0.2753
18779TIP3   OH277751   4.839   2.904   1.012  0.3932 -0.1156  0.1728
18779TIP3    H177752   4.873   2.955   0.939  0.1857  1.4143  1.1037
18779TIP3    H277753   4.908   2.841   1.032  0.4329 -0.5837 -1.3476
18780TIP3   OH277754   0.047   4.216   1.938 -0.4473 -0.4577 -0.2392
18780TIP3    H177755   0.048   4.212   2.034  0.2993  1.2840 -0.1473
18780TIP3    H277756  -0.014   4.287   1.918 -1.4986 -1.5777 -1.1191
18781TIP3   OH277757   6.252   4.797  11.467  0.2688  0.6283 -0.4541
18781TIP3    H177758   6.218   4.735  11.531  1.4631 -0.1116 -0.4998
18781TIP3    H277759   6.306   4.858  11.518  2.2943 -0.7345 -0.8428
18782TIP3   OH277760   6.450   1.388   0.278  0.0099  0.0884 -0.8930
18782TIP3    H177761   6.382   1.431   0.227 -0.3523  0.8725  0.2046
18782TIP3    H277762   6.457   1.300   0.241 -0.3347  0.5826 -2.1678
18783TIP3   OH277763   2.485   4.044   5.088 -0.2176 -0.2015 -0.1425
18783TIP3    H177764   2.475   3.953   5.061  1.2669 -0.3564 -0.2347
18783TIP3    H277765   2.543   4.083   5.022 -2.6304  1.4591 -1.4443
18784TIP3   OH277766   4.851   3.189  10.958 -0.7475 -0.1449  0.3525
18784TIP3    H177767   4.946   3.192  10.949 -0.9233  3.1310 -2.8585
18784TIP3    H277768   4.834   3.220  11.047  1.1496 -0.2864  0.7962
18785TIP3   OH277769   3.275   3.697   2.710 -0.0956  0.2839  0.1669
18785TIP3    H177770   3.190   3.732   2.736  0.4995  0.5397  1.9121
18785TIP3    H277771   3.330   3.774   2.699 -0.0612  0.1184 -0.9317
18786TIP3   OH277772   5.583   1.528   2.350  0.5474 -0.5130 -0.4243
18786TIP3    H177773   5.642   1.602   2.332 -0.0855  0.3697  0.9971
18786TIP3    H277774   5.539   1.512   2.267  0.9410  0.4881 -0.8411
18787TIP3   OH277775   0.080   1.651  13.225 -0.4286 -0.6634  0.0771
18787TIP3    H177776  -0.011   1.671  13.205  0.1566  1.3989 -0.8680
18787TIP3    H277777   0.104   1.715  13.292  0.0111 -2.0220  1.2742
18788TIP3   OH277778   3.543   4.936  14.615 -0.3989  0.8741 -0.0277
18788TIP3    H177779   3.592   4.894  14.544  0.4668  0.7129  0.6408
18788TIP3    H277780   3.499   4.864  14.659 -2.8211  1.1954 -1.7403
18789TIP3   OH277781   3.105   1.905   0.958 -0.7430  0.4942 -0.2857
18789TIP3    H177782   3.139   1.994   0.953  0.3095  0.1935  1.0144
18789TIP3    H277783   3.094   1.889   1.051  0.0150 -1.0683 -0.4319
18790TIP3   OH277784   1.627   6.382   2.730 -0.0288  0.3503 -0.1381
18790TIP3    H177785   1.570   6.381   2.654  0.9650  1.3135 -0.9252
18790TIP3    H277786   1.641   6.289   2.751  0.7037  0.0068 -1.9306
18791TIP3   OH277787   1.936   0.230   4.338  0.2617 -0.1762  0.2434
18791TIP3    H177788   1.975   0.145   4.361  0.3820 -0.1874  0.0066
18791TIP3    H277789   1.985   0.294   4.389  0.3478 -0.2268  0.2249
18792TIP3   OH277790   0.591   1.314  12.687  0.0098 -0.1997  0.0302
18792TIP3    H177791   0.624   1.310  12.597 -0.9043  1.0387 -0.3819
18792TIP3    H277792   0.565   1.405  12.699 -1.0195 -0.6228  1.1457
18793TIP3   OH277793   5.042   3.833   3.731 -0.0855  0.1784 -0.0666
18793TIP3    H177794   5.063   3.754   3.681  1.3453  0.3670  0.1781
18793TIP3    H277795   5.067   3.905   3.674 -2.3386  0.5298 -0.6966
18794TIP3   OH277796   0.331   4.189  15.334 -0.3641 -0.2152 -0.2298
18794TIP3    H177797   0.343   4.284  15.336  1.2654 -0.3548 -1.2970
18794TIP3    H277798   0.271   4.175  15.261 -1.2226  0.0195  0.4120
18795TIP3   OH277799   3.420   4.846   6.118  0.0705  0.6120  0.4572
18795TIP3    H177800   3.417   4.940   6.101 -0.5977  0.7160  1.0972
18795TIP3    H277801   3.329   4.822   6.135  0.3220 -0.0257  0.9402
18796TIP3   OH277802   1.816   0.917   3.805  0.1502 -0.3142  0.7694
18796TIP3    H177803   1.858   0.841   3.765  0.4130 -0.8454  2.0163
18796TIP3    H277804   1.763   0.881   3.875 -0.0504  0.6199  1.1107
18797TIP3   OH277805   4.664   3.224  10.073  0.8078  0.5181  0.4697
18797TIP3    H177806   4.724   3.167  10.121  1.0357  0.2095 -0.1829
18797TIP3    H277807   4.611   3.266  10.142 -1.3162 -2.5389  0.9241
18798TIP3   OH277808   0.278   1.815  14.469  0.1898  0.8033  0.7309
18798TIP3    H177809   0.354   1.872  14.465  1.6687 -1.1600 -0.4351
18798TIP3    H277810   0.280   1.779  14.558  2.3695 -1.3967 -0.1019
18799TIP3   OH277811   1.720   3.202  13.264 -0.2212  0.3883  0.5577
18799TIP3    H177812   1.796   3.149  13.286 -1.4140 -1.6090  0.0985
18799TIP3    H277813   1.677   3.155  13.192 -2.1316  1.1880  1.0945
18800TIP3   OH277814   0.116   3.278  13.447  0.6444  0.2262  0.7630
18800TIP3    H177815   0.180   3.234  13.390 -0.9029 -0.4004 -0.5922
18800TIP3    H277816   0.035   3.228  13.434 -0.0011  0.6385  2.8573
18801TIP3   OH277817   0.410   2.762  13.186  0.3345 -0.3102 -0.4278
18801TIP3    H177818   0.318   2.760  13.162  0.4684  0.4307 -1.0544
18801TIP3    H277819   0.412   2.802  13.273  0.0366 -0.7273 -0.2246
18802TIP3   OH277820   3.978   6.361   3.271 -0.3049  0.5704 -0.4545
18802TIP3    H177821   3.950   6.318   3.351 -0.1236 -0.0915 -0.7441
18802TIP3    H277822   3.988   6.453   3.296  0.2072  0.2967  0.4033
18803TIP3   OH277823   5.461   4.683  14.257 -0.3153 -0.0326  0.2699
18803TIP3    H177824   5.488   4.749  14.193 -0.4265  1.3101  1.5455
18803TIP3    H277825   5.453   4.602  14.207 -0.2628  0.9388 -1.3729
18804TIP3   OH277826   4.914   3.831  14.661 -0.5083  0.0363  0.2316
18804TIP3    H177827   4.926   3.896  14.592  0.0878  0.4174  0.6773
18804TIP3    H277828   4.995   3.779  14.660 -1.0037 -0.7524 -0.1640
18805TIP3   OH277829   4.462   3.520  11.206  0.3007  0.0293  0.1695
18805TIP3    H177830   4.524   3.537  11.136  1.2049 -0.5304  0.8117
18805TIP3    H277831   4.454   3.424  11.208 -0.0506  0.0626  0.5457
18806TIP3   OH277832   5.819   2.652  12.568  0.1943  0.3913 -0.0530
18806TIP3    H177833   5.748   2.595  12.538  0.6056 -0.3246  0.3134
18806TIP3    H277834   5.878   2.659  12.493  0.3158  0.0487  0.0080
18807TIP3   OH277835   6.339   2.981   2.789 -0.2466  0.4008  0.1756
18807TIP3    H177836   6.349   3.058   2.845  1.6272  1.5767 -1.5943
18807TIP3    H277837   6.256   2.996   2.744 -0.8645  0.3631  1.2686
18808TIP3   OH277838   1.270   2.889  15.221 -0.1989  0.0665 -0.0805
18808TIP3    H177839   1.306   2.977  15.209  0.3532 -0.2229 -0.5873
18808TIP3    H277840   1.190   2.889  15.167 -0.5499  0.4593  0.4322
18809TIP3   OH277841   5.147   0.522  14.377 -0.4936  0.3527 -0.4669
18809TIP3    H177842   5.118   0.596  14.431 -1.7469 -1.0598  0.8740
18809TIP3    H277843   5.191   0.463  14.438 -1.6269 -1.1344 -1.0313
18810TIP3   OH277844   4.718   0.876   3.138 -0.0792  0.4781 -0.5260
18810TIP3    H177845   4.635   0.828   3.136 -1.5539  2.8822 -0.9239
18810TIP3    H277846   4.757   0.859   3.053  0.1479 -1.1122 -0.1366
18811TIP3   OH277847   1.160   1.501   5.598 -0.3525  0.4872  0.4317
18811TIP3    H177848   1.189   1.478   5.686 -0.5715  2.1019  0.9557
18811TIP3    H277849   1.234   1.477   5.541  1.5965  3.2895  1.5701
18812TIP3   OH277850   2.654   6.387  14.467 -0.3933  0.2083  0.8496
18812TIP3    H177851   2.704   6.321  14.419 -0.4807  1.8295 -1.6736
18812TIP3    H277852   2.719   6.432  14.521 -0.2647 -1.5675  2.2832
18813TIP3   OH277853   2.979   4.506   1.186 -0.1812  0.1796 -0.2039
18813TIP3    H177854   2.933   4.477   1.265 -0.7197  3.3543  0.8037
18813TIP3    H277855   2.913   4.555   1.136  1.5865  4.0752  0.8361
18814TIP3   OH277856   0.871   3.393   6.002 -0.1189  0.0951  0.3948
18814TIP3    H177857   0.821   3.456   5.950 -1.5574 -0.8861  0.5328
18814TIP3    H277858   0.848   3.412   6.093  0.4372  0.1890  0.5190
18815TIP3   OH277859   1.504   4.379   1.342  0.5471 -0.4234 -0.2744
18815TIP3    H177860   1.445   4.389   1.267 -1.0072 -0.0623  0.9486
18815TIP3    H277861   1.525   4.286   1.343 -1.8275 -1.0316  0.5224
18816TIP3   OH277862   2.988   5.252   5.462 -0.6287  1.0740 -0.3523
18816TIP3    H177863   3.012   5.227   5.372 -0.0055 -1.0185  0.3402
18816TIP3    H277864   2.984   5.348   5.460  0.7050  1.1471 -2.2722
18817TIP3   OH277865   4.013   5.270   3.187  0.3269 -0.6776 -0.1489
18817TIP3    H177866   4.024   5.176   3.198  0.2089 -0.3907  3.4776
18817TIP3    H277867   4.022   5.307   3.275 -0.4225  2.6455 -1.2894
18818TIP3   OH277868   4.403   1.763  13.082  0.2244  0.1969  0.3161
18818TIP3    H177869   4.371   1.674  13.093  0.7108  0.1322  1.3737
18818TIP3    H277870   4.497   1.758  13.102  0.2861  0.9116  0.2491
18819TIP3   OH277871   1.272   4.252   2.725  0.6099  0.0165  0.0590
18819TIP3    H177872   1.213   4.261   2.649 -1.3674  0.2089  1.5461
18819TIP3    H277873   1.355   4.225   2.687 -0.6310 -1.0728 -2.1026
18820TIP3   OH277874   1.230   5.815   1.131 -0.4439  0.2728 -0.0995
18820TIP3    H177875   1.190   5.728   1.131  0.7481 -0.3059 -0.2345
18820TIP3    H277876   1.321   5.799   1.105  0.3006  1.3195  1.6932
18821TIP3   OH277877   5.829   0.390  17.181  0.7012 -0.0752  0.0348
18821TIP3    H177878   5.837   0.298  17.207  1.0624 -0.8982 -2.7280
18821TIP3    H277879   5.735   0.402  17.163  0.4501  0.5007  1.5153
18822TIP3   OH277880   4.295   5.440   1.051  0.3322  0.0998 -0.0366
18822TIP3    H177881   4.310   5.346   1.055 -0.6335 -0.0355  0.8755
18822TIP3    H277882   4.260   5.463   1.137  0.6983  1.3251 -0.1936
18823TIP3   OH277883   2.476   3.561   5.521  0.2657 -0.0886  0.1177
18823TIP3    H177884   2.445   3.525   5.604  1.2388 -1.9866 -0.2934
18823TIP3    H277885   2.512   3.647   5.544  1.1968 -0.8873  1.8138
18824TIP3   OH277886   1.158   1.435  10.915  0.5283 -0.1269 -0.3217
18824TIP3    H177887   1.170   1.530  10.914 -0.5725  0.0223 -1.5505
18824TIP3    H277888   1.217   1.403  10.847 -0.1590 -0.1710 -0.9046
18825TIP3   OH277889   0.497   6.138   3.028 -0.1967  0.4298  0.2977
18825TIP3    H177890   0.559   6.069   3.005 -1.0340 -0.7831  1.5093
18825TIP3    H277891   0.539   6.219   3.001  1.2068 -0.4896 -0.3562
18826TIP3   OH277892   1.164   0.186  11.604 -0.0000 -0.0678 -0.8738
18826TIP3    H177893   1.109   0.131  11.660  0.3375  0.0330 -0.4359
18826TIP3    H277894   1.176   0.134  11.525  1.3308 -1.2107  0.0078
18827TIP3   OH277895   0.407   1.982   1.100  0.3979 -0.3354 -0.2193
18827TIP3    H177896   0.372   1.910   1.049  0.4220  0.0207 -0.7497
18827TIP3    H277897   0.480   1.944   1.149 -0.5407 -1.0060  0.6685
18828TIP3   OH277898   2.764   0.699  12.612 -1.0414  0.4587  0.1899
18828TIP3    H177899   2.689   0.677  12.558 -0.2500  1.3834 -1.3616
18828TIP3    H277900   2.825   0.742  12.552  0.2018  0.8497  1.6648
18829TIP3   OH277901   1.692   4.350  11.761 -0.2574  0.1302  0.0965
18829TIP3    H177902   1.644   4.267  11.753 -0.5314  0.3720 -1.0115
18829TIP3    H277903   1.636   4.405  11.816  0.6700 -0.9193  2.1875
18830TIP3   OH277904   2.643   1.778  11.951 -0.0013 -0.5484 -0.4662
18830TIP3    H177905   2.727   1.739  11.979 -0.4512 -2.4698 -1.5950
18830TIP3    H277906   2.627   1.739  11.865 -1.6882  0.3821 -0.5965
18831TIP3   OH277907   0.171   5.216  13.117 -0.2232  0.3329 -0.2378
18831TIP3    H177908   0.086   5.185  13.087  0.7121 -1.5690 -1.0846
18831TIP3    H277909   0.232   5.146  13.092  1.1144  0.0474  3.3250
18832TIP3   OH277910   0.615   3.920  14.061  0.4371 -0.1980 -0.5079
18832TIP3    H177911   0.549   3.986  14.040  1.1098  1.2888  1.6032
18832TIP3    H277912   0.566   3.838  14.069 -0.6415  0.2790 -1.8516
18833TIP3   OH277913   5.618   4.625  13.315  0.2815  0.0255 -1.4243
18833TIP3    H177914   5.529   4.653  13.296  0.8077  0.9529 -2.7240
18833TIP3    H277915   5.628   4.543  13.267  0.0150 -0.2737 -0.9693
18834TIP3   OH277916   5.302   4.511  11.404  0.1340 -0.1952  0.2872
18834TIP3    H177917   5.248   4.548  11.474  0.7627  0.6451  0.3408
18834TIP3    H277918   5.383   4.562  11.406 -0.1607  0.4246 -1.6198
18835TIP3   OH277919   0.851   0.044  12.370  0.0707  0.4075  0.1630
18835TIP3    H177920   0.889  -0.033  12.413 -0.4243  0.5171  0.7994
18835TIP3    H277921   0.759   0.022  12.359 -0.0822  0.9265  0.3896
18836TIP3   OH277922   4.130   3.051   3.449  0.5161  0.7084  0.1055
18836TIP3    H177923   4.117   2.980   3.512 -2.3932  1.1050  0.1208
18836TIP3    H277924   4.069   3.119   3.478  0.7317  1.8230 -1.8734
18837TIP3   OH277925   5.160   4.267  11.519  0.5463  0.5422  0.5039
18837TIP3    H177926   5.226   4.290  11.454  0.9399 -4.6692 -1.4773
18837TIP3    H277927   5.210   4.254  11.600  0.9087  2.2014  0.5693
18838TIP3   OH277928   2.194   0.236   5.752  0.7533  0.1347 -0.2887
18838TIP3    H177929   2.283   0.269   5.740  1.3671 -0.9269  1.1286
18838TIP3    H277930   2.177   0.247   5.846 -0.3392 -0.3324 -0.4224
18839TIP3   OH277931   1.284   4.733   1.735 -0.3389  0.4240 -0.0651
18839TIP3    H177932   1.356   4.676   1.763  2.6274  1.6470 -4.3123
18839TIP3    H277933   1.227   4.675   1.684  1.2431  0.5765 -2.1277
18840TIP3   OH277934   4.980   3.857  13.070  0.8657  0.1498 -0.4891
18840TIP3    H177935   4.928   3.782  13.042  2.5518 -0.7760 -1.3517
18840TIP3    H277936   5.048   3.819  13.126  1.5287  1.0658 -0.6491
18841TIP3   OH277937   2.581   5.995   5.473  0.3641  0.0958 -0.3792
18841TIP3    H177938   2.558   5.933   5.403  1.6490  0.6247 -1.3242
18841TIP3    H277939   2.674   5.979   5.489  0.6126  1.4656 -0.3244
18842TIP3   OH277940   1.183   3.766   2.448  0.2629 -0.2439  0.0783
18842TIP3    H177941   1.126   3.756   2.372  0.5138  0.7839 -0.2697
18842TIP3    H277942   1.185   3.680   2.488  1.0279 -1.1375 -1.7385
18843TIP3   OH277943   5.479   0.794   1.146 -0.3846  0.0135  0.6620
18843TIP3    H177944   5.552   0.838   1.103 -1.2860  1.1329  0.1916
18843TIP3    H277945   5.498   0.701   1.139 -0.5753  0.1150 -2.4177
18844TIP3   OH277946   0.176   6.250   2.384  0.1415  0.1951  0.1718
18844TIP3    H177947   0.124   6.179   2.347  1.3591 -0.4987 -0.2843
18844TIP3    H277948   0.259   6.209   2.407 -0.1872  0.8467  2.7701
18845TIP3   OH277949   5.777   5.017   0.683  0.5105  0.1722  0.0920
18845TIP3    H177950   5.748   4.991   0.596 -0.3688  0.0641  0.4129
18845TIP3    H277951   5.872   5.001   0.682  0.2597 -1.4696 -0.2687
18846TIP3   OH277952   5.394   5.271  14.240 -0.0277 -0.0435 -0.8511
18846TIP3    H177953   5.360   5.297  14.154 -0.3163  1.7073 -0.2657
18846TIP3    H277954   5.329   5.305  14.302  1.4875  1.1010  0.1731
18847TIP3   OH277955   1.391   1.136   4.991  0.2131  0.3676 -0.1811
18847TIP3    H177956   1.476   1.096   4.974  0.2691  0.7018 -0.7303
18847TIP3    H277957   1.378   1.128   5.085 -0.2944 -1.9792 -0.3790
18848TIP3   OH277958   5.952   4.921  16.302  0.5353  0.6186  0.6306
18848TIP3    H177959   5.986   4.851  16.246 -1.5333 -0.5749  0.7543
18848TIP3    H277960   5.990   4.903  16.388 -0.8186 -1.1373  0.9416
18849TIP3   OH277961   6.346   0.706  16.220 -0.2141 -0.6458  0.2600
18849TIP3    H177962   6.283   0.667  16.159 -0.9874 -2.7835  2.2516
18849TIP3    H277963   6.294   0.768  16.272  0.2227  0.4585 -0.6068
18850TIP3   OH277964   3.153   4.455  16.126 -0.2755 -0.0278 -0.3186
18850TIP3    H177965   3.100   4.468  16.205 -0.3411  0.4973 -0.4401
18850TIP3    H277966   3.090   4.459  16.054  0.0401  1.7102 -0.5427
18851TIP3   OH277967   5.156   0.642   3.096  0.5169 -0.5069  0.1059
18851TIP3    H177968   5.109   0.659   3.178 -1.7344  0.7323 -1.3431
18851TIP3    H277969   5.150   0.547   3.085 -0.6729 -0.5014  0.5623
18852TIP3   OH277970   0.368   3.440   1.535  0.2352 -0.0792  0.6445
18852TIP3    H177971   0.439   3.420   1.474 -0.0572 -0.9527  0.5729
18852TIP3    H277972   0.379   3.377   1.606 -2.7043 -2.9715 -1.1971
18853TIP3   OH277973   2.387   1.679  12.686  0.7014  0.3513 -0.0866
18853TIP3    H177974   2.435   1.662  12.605 -0.9964  1.3125 -1.3641
18853TIP3    H277975   2.366   1.772  12.682 -1.4616 -0.0728  0.2715
18854TIP3   OH277976   5.895   1.559  14.937  0.6732  0.0470  0.0978
18854TIP3    H177977   5.903   1.475  14.892  0.5861  0.5748 -0.9331
18854TIP3    H277978   5.981   1.600  14.927  0.3802  0.5550 -0.3970
18855TIP3   OH277979   6.422   1.127  13.915  0.2300 -0.4290 -0.2017
18855TIP3    H177980   6.343   1.170  13.946 -0.1752  1.4095 -3.3815
18855TIP3    H277981   6.482   1.199  13.894  2.0085 -1.7136  0.2307
18856TIP3   OH277982   3.349   0.263  16.941 -0.3065  0.1604 -0.8171
18856TIP3    H177983   3.358   0.245  17.034  2.3868 -1.1115 -1.2000
18856TIP3    H277984   3.272   0.318  16.934 -0.4444  0.5123  2.1764
18857TIP3   OH277985   3.473   6.013  15.170  0.3064 -0.0109 -0.4702
18857TIP3    H177986   3.426   6.078  15.222  0.2911 -1.9587  2.1995
18857TIP3    H277987   3.432   6.015  15.084 -2.7106  0.4056  0.8661
18858TIP3   OH277988   1.059   4.990  13.267  0.1101  0.0177  0.5549
18858TIP3    H177989   1.153   4.988  13.248 -0.1014  0.4449 -0.6288
18858TIP3    H277990   1.026   5.062  13.213 -0.8896 -0.0855  1.0186
18859TIP3   OH277991   1.368   3.951   3.682 -0.0202 -0.3561 -0.8136
18859TIP3    H177992   1.273   3.958   3.692  0.2180  0.4864  1.3468
18859TIP3    H277993   1.392   4.024   3.626 -0.3220  1.6387  1.5016
18860TIP3   OH277994   3.091   4.872   0.992  0.1901 -0.5086  0.5497
18860TIP3    H177995   3.159   4.932   0.960 -0.2400  0.3266  1.1566
18860TIP3    H277996   3.132   4.786   0.991  0.9409 -0.1516 -0.0098
18861TIP3   OH277997   4.329   4.718  14.440 -0.4930  0.0953  0.1649
18861TIP3    H177998   4.274   4.719  14.519  0.8314  0.0010  1.1131
18861TIP3    H277999   4.292   4.788  14.385  0.4774  2.4185  2.2440
18862TIP3   OH278000   4.702   3.882   1.142  0.0207  0.3444 -0.5965
18862TIP3    H178001   4.785   3.920   1.171  1.3005 -2.4136 -0.3136
18862TIP3    H278002   4.648   3.878   1.221 -0.2863  1.8495 -0.7127
18863TIP3   OH278003   2.701   3.619  13.700 -0.0911  0.1320 -0.1566
18863TIP3    H178004   2.744   3.566  13.633 -1.2322 -2.2092  0.8543
18863TIP3    H278005   2.639   3.559  13.742  2.2487  0.6038  4.7084
18864TIP3   OH278006   1.762   1.962  17.183 -0.2019  0.4047 -0.6390
18864TIP3    H178007   1.779   1.871  17.162  0.5985  0.0046  1.4726
18864TIP3    H278008   1.667   1.971  17.179 -0.2800 -0.4745 -0.9859
18865TIP3   OH278009   1.081   6.648   5.563  0.8290 -0.1437  0.7228
18865TIP3    H178010   1.091   6.742   5.577 -0.0894 -0.0142  0.5626
18865TIP3    H278011   1.146   6.626   5.497  0.5865  0.5089  0.2643
18866TIP3   OH278012   4.097   5.349   3.909 -0.0147 -0.4273  0.4344
18866TIP3    H178013   4.078   5.335   4.002 -1.8501 -2.3597 -0.1557
18866TIP3    H278014   4.147   5.273   3.882  1.7884  0.8136  0.1031
18867TIP3   OH278015   2.115   3.406  14.933  0.0426  0.1813 -0.3624
18867TIP3    H178016   2.071   3.393  14.849  1.5198 -1.3082 -0.9743
18867TIP3    H278017   2.162   3.489  14.924  1.3029 -0.6320 -1.5626
18868TIP3   OH278018   5.176   0.117   2.183 -0.1624  0.5717 -0.0733
18868TIP3    H178019   5.240   0.099   2.115  1.5546  0.6896  1.4320
18868TIP3    H278020   5.091   0.105   2.141  0.8255  1.0708 -2.3200
18869TIP3   OH278021   1.680   6.139  13.681  0.2720  0.1369 -0.6311
18869TIP3    H178022   1.703   6.047  13.698 -0.6848  0.0035 -0.0172
18869TIP3    H278023   1.754   6.173  13.631  1.5966 -0.4257  0.8495
18870TIP3   OH278024   0.703   4.372   1.568  0.0086 -0.5409  0.0762
18870TIP3    H178025   0.752   4.409   1.642  0.2428  1.3906 -0.9792
18870TIP3    H278026   0.656   4.298   1.606 -0.1468  0.5695  2.2384
18871TIP3   OH278027   1.798   1.057  12.806  0.0456 -0.2154 -0.3376
18871TIP3    H178028   1.748   1.135  12.830  0.1267 -0.3237  0.1768
18871TIP3    H278029   1.881   1.066  12.852  0.1045 -0.5461 -0.3774
18872TIP3   OH278030   5.220   4.845  12.730  0.4367  0.5544 -0.1720
18872TIP3    H178031   5.180   4.880  12.810 -0.6258 -2.1471  0.5783
18872TIP3    H278032   5.146   4.808  12.681  1.4107 -0.1230 -1.1779
18873TIP3   OH278033   5.494   6.302  10.895 -0.1753 -0.1255  0.0326
18873TIP3    H178034   5.568   6.255  10.856 -0.4293 -0.9935  0.5681
18873TIP3    H278035   5.532   6.348  10.970 -0.1309 -0.3450  0.1441
18874TIP3   OH278036   4.286   5.137   6.157 -0.3838  0.0878  0.3272
18874TIP3    H178037   4.339   5.167   6.084 -0.5806 -1.0385 -0.3147
18874TIP3    H278038   4.210   5.095   6.116 -0.4278 -0.7010  1.1607
18875TIP3   OH278039   1.430   4.920   1.580 -0.1757 -0.0882 -0.2642
18875TIP3    H178040   1.363   4.862   1.614  0.4882 -0.7903 -0.1107
18875TIP3    H278041   1.452   4.978   1.653  0.9733 -1.3380  0.4269
18876TIP3   OH278042   2.702   2.408  12.707 -0.6836  0.2871 -0.4121
18876TIP3    H178043   2.668   2.476  12.649 -2.8551 -0.1585  0.2477
18876TIP3    H278044   2.630   2.346  12.716  0.6189 -1.1769  0.4556
18877TIP3   OH278045   5.776   0.776   3.486  0.0432  0.0055 -0.2261
18877TIP3    H178046   5.871   0.769   3.492  0.1229  0.2516 -1.0600
18877TIP3    H278047   5.743   0.689   3.507  0.3524  0.3380  1.7801
18878TIP3   OH278048   0.489   6.127  10.892  0.1964  0.3450  1.2259
18878TIP3    H178049   0.579   6.150  10.871 -0.1756  0.3556 -0.4506
18878TIP3    H278050   0.436   6.183  10.835 -0.8499 -0.4517  1.3985
18879TIP3   OH278051   5.769   5.758   1.050 -0.4526 -0.3258  0.1474
18879TIP3    H178052   5.832   5.736   1.119  0.6321 -1.1440 -1.0559
18879TIP3    H278053   5.815   5.823   0.996 -2.1854  2.1767  1.4875
18880TIP3   OH278054   0.057   4.410  16.670 -0.6722  0.1063 -0.3281
18880TIP3    H178055   0.076   4.322  16.639  2.1104  0.4770  0.0930
18880TIP3    H278056   0.033   4.459  16.592 -3.8552 -1.2759 -0.3855
18881TIP3   OH278057   4.160   6.255  16.571  0.6989 -0.0516 -0.1552
18881TIP3    H178058   4.106   6.210  16.507  0.1096  0.2728  0.1079
18881TIP3    H278059   4.148   6.206  16.652 -1.4289  1.5970  0.6204
18882TIP3   OH278060   2.148   2.942  12.260 -0.5067 -0.2336 -0.2527
18882TIP3    H178061   2.073   2.895  12.298 -1.5772  2.1417  0.8250
18882TIP3    H278062   2.115   3.031  12.248  2.5844  1.3384  1.7411
18883TIP3   OH278063   1.814   3.553   1.333  0.3703 -0.3233  0.0213
18883TIP3    H178064   1.781   3.629   1.285  1.7633  0.1011 -0.3012
18883TIP3    H278065   1.817   3.581   1.424  0.8458  0.0060 -0.0928
18884TIP3   OH278066   2.441   4.154   4.193  0.2159  0.2033 -0.3286
18884TIP3    H178067   2.424   4.101   4.115  2.2583  0.9236 -1.3190
18884TIP3    H278068   2.486   4.095   4.253 -3.5035 -1.1298  1.5162
18885TIP3   OH278069   2.113   6.245   1.540 -0.1367 -0.4817 -0.2737
18885TIP3    H178070   2.175   6.286   1.600 -0.0704 -0.4954 -0.3343
18885TIP3    H278071   2.146   6.156   1.528  1.2042  0.2231 -2.2371
18886TIP3   OH278072   4.825   3.075   1.934 -0.7760 -0.2682 -0.0029
18886TIP3    H178073   4.770   3.063   1.857 -0.3354 -0.8820 -0.2254
18886TIP3    H278074   4.851   2.987   1.959 -0.1954 -0.0085  0.3226
18887TIP3   OH278075   4.287   0.107   2.537  0.5205  0.3227  0.4573
18887TIP3    H178076   4.277   0.143   2.625 -1.9460 -1.5244  1.0162
18887TIP3    H278077   4.264   0.015   2.546 -0.3790  0.2113 -2.2445
18888TIP3   OH278078   2.484   6.173   5.295  0.1664  0.3438  0.3044
18888TIP3    H178079   2.392   6.196   5.282  0.3670  1.0996  0.1903
18888TIP3    H278080   2.485   6.123   5.378 -0.1167  1.8182  1.2258
18889TIP3   OH278081   0.582   0.299  16.195  0.5204 -0.8064  0.0188
18889TIP3    H178082   0.515   0.362  16.222  1.6272  0.4699 -0.0945
18889TIP3    H278083   0.609   0.330  16.108  0.7334 -1.7432 -0.2507
18890TIP3   OH278084   5.463   2.827  16.586  0.5613  0.3847 -0.1419
18890TIP3    H178085   5.395   2.805  16.651  0.7848  1.7756  0.6125
18890TIP3    H278086   5.420   2.889  16.527  0.4635 -0.6169 -1.1706
18891TIP3   OH278087   0.195   0.243   0.320 -0.2126  0.3019  0.1617
18891TIP3    H178088   0.129   0.180   0.349  1.1972 -1.1627  0.3163
18891TIP3    H278089   0.277   0.194   0.319  1.3181  2.5297  2.0363
18892TIP3   OH278090   4.246   0.546  12.783 -0.0839 -0.1602  0.1954
18892TIP3    H178091   4.228   0.608  12.712  0.6782 -0.3537 -0.1728
18892TIP3    H278092   4.198   0.467  12.758  1.7013 -0.8984 -1.1212
18893TIP3   OH278093   1.525   0.799  15.389 -0.3945  0.0057  0.2627
18893TIP3    H178094   1.557   0.709  15.394 -1.2838 -0.2895  1.1258
18893TIP3    H278095   1.530   0.831  15.479  1.0960  1.2736 -0.2306
18894TIP3   OH278096   1.949   2.324   0.947  0.4083 -0.1107  0.5450
18894TIP3    H178097   1.974   2.313   0.855 -0.5235 -0.0718  0.2801
18894TIP3    H278098   1.945   2.235   0.982  2.1968 -0.0717  0.9647
18895TIP3   OH278099   3.103   5.829   3.103 -0.3078  0.9233  0.0834
18895TIP3    H178100   3.043   5.781   3.160 -1.5117  1.4338 -0.7111
18895TIP3    H278101   3.179   5.849   3.159  0.5376 -2.3080  0.3458
18896TIP3   OH278102   5.905   3.394  16.593 -0.1454 -0.1832  0.1103
18896TIP3    H178103   5.961   3.470  16.576  0.6408 -0.7499  0.0733
18896TIP3    H278104   5.936   3.327  16.532 -0.5687 -0.6537  0.3984
18897TIP3   OH278105   4.755   2.922  11.632 -0.3134 -0.1859 -0.0019
18897TIP3    H178106   4.835   2.968  11.607 -0.0535  0.3402  1.6551
18897TIP3    H278107   4.698   2.991  11.668 -1.1759 -0.6878 -0.3620
18898TIP3   OH278108   0.772   0.230  16.813 -0.1386 -0.2212 -0.0848
18898TIP3    H178109   0.708   0.198  16.750 -0.5219  0.0051  0.1832
18898TIP3    H278110   0.789   0.320  16.786 -1.1251  0.2431  0.7531
18899TIP3   OH278111   3.135   5.877   1.958  0.2848 -0.0599 -0.3366
18899TIP3    H178112   3.168   5.789   1.941  0.4556 -0.2030  0.7057
18899TIP3    H278113   3.039   5.866   1.961  0.3495 -1.0737  3.9721
18900TIP3   OH278114   1.306   3.521  12.014 -0.2090  0.0690  0.2376
18900TIP3    H178115   1.240   3.454  12.033 -0.0210  0.2470  1.6388
18900TIP3    H278116   1.387   3.471  12.004 -0.2739 -0.0137  0.1171
18901TIP3   OH278117   0.427   0.576  11.975 -1.0275 -0.7978 -0.4412
18901TIP3    H178118   0.494   0.591  11.909 -2.0162  1.0367 -1.1110
18901TIP3    H278119   0.475   0.547  12.052  0.3331 -1.2210 -1.4104
18902TIP3   OH278120   1.064   1.699   4.978 -0.6518 -0.5867  0.0333
18902TIP3    H178121   1.087   1.623   5.031 -1.0613  1.3104  3.2538
18902TIP3    H278122   0.996   1.744   5.029  0.7748  2.8225 -0.7327
18903TIP3   OH278123   2.512   3.534   3.510 -0.4629  0.5733  0.1052
18903TIP3    H178124   2.494   3.600   3.443 -0.5285  1.7334  1.2288
18903TIP3    H278125   2.555   3.582   3.581  2.8454 -1.2276 -0.4779
18904TIP3   OH278126   5.487   4.940  11.548  0.1528  0.3987 -0.3093
18904TIP3    H178127   5.571   4.984  11.562 -0.0836  0.4832  0.9767
18904TIP3    H278128   5.428   5.009  11.518  0.4485  0.4133 -0.8657
18905TIP3   OH278129   5.423   0.022   5.726 -0.4098 -0.5019 -0.4104
18905TIP3    H178130   5.479   0.097   5.704  1.8005 -2.3857 -1.7138
18905TIP3    H278131   5.468  -0.021   5.799 -0.3843 -1.7813 -1.1498
18906TIP3   OH278132   5.168   4.181  14.335 -0.8311  0.1709 -0.2527
18906TIP3    H178133   5.134   4.173  14.245 -0.9165 -1.0294 -0.1338
18906TIP3    H278134   5.175   4.275  14.350  2.3386  0.4935 -2.6893
18907TIP3   OH278135   1.860   4.586  16.097  0.0015 -0.4225 -0.3202
18907TIP3    H178136   1.933   4.550  16.047  0.5406  0.0452  0.1160
18907TIP3    H278137   1.900   4.616  16.179 -0.6806 -0.1602 -0.0804
18908TIP3   OH278138   5.576   3.762  16.736 -0.0330  0.1023 -0.3339
18908TIP3    H178139   5.626   3.843  16.726 -0.2473  0.2095 -0.5303
18908TIP3    H278140   5.553   3.760  16.829 -1.0398  0.8701 -0.5430
18909TIP3   OH278141   2.272   0.248  17.144  0.0395 -0.1895  0.9689
18909TIP3    H178142   2.263   0.153  17.145 -0.9312 -0.1293 -0.3397
18909TIP3    H278143   2.348   0.265  17.089 -0.7339 -0.1626 -0.1096
18910TIP3   OH278144   1.260   4.385  16.260 -0.1217  0.2802 -0.2762
18910TIP3    H178145   1.334   4.367  16.201  0.5278 -0.3686  0.6968
18910TIP3    H278146   1.199   4.313  16.245  0.6623 -0.6358  0.7789
18911TIP3   OH278147   3.548   2.417   5.795  0.7239 -0.3774  0.5892
18911TIP3    H178148   3.579   2.374   5.875  2.1206  0.6931  0.6580
18911TIP3    H278149   3.488   2.485   5.825  1.0878 -0.1108  0.7065
18912TIP3   OH278150   0.971   2.180  16.882  0.2384  0.0488 -0.2050
18912TIP3    H178151   0.975   2.243  16.810 -0.4242 -0.2865 -0.5412
18912TIP3    H278152   0.908   2.218  16.944 -0.1733 -0.2864 -0.4160
18913TIP3   OH278153   1.436   4.085  10.957 -0.0391  0.0759 -0.2004
18913TIP3    H178154   1.373   4.074  10.885  0.1804 -0.2413 -0.3482
18913TIP3    H278155   1.521   4.066  10.918  0.0147 -0.7879  0.2979
18914TIP3   OH278156   3.001   3.597  13.816 -0.2393 -0.7175  0.0390
18914TIP3    H178157   2.933   3.531  13.822 -0.0361 -0.8636  1.0105
18914TIP3    H278158   3.074   3.553  13.772 -0.7356 -0.5810 -0.9363
18915TIP3   OH278159   6.370   2.340  10.832  0.0631  0.1459  0.3473
18915TIP3    H178160   6.418   2.333  10.750  1.7420 -0.4360  1.3230
18915TIP3    H278161   6.317   2.419  10.822  0.6076  0.3604 -1.0963
18916TIP3   OH278162   2.823   3.901   2.741  0.4937 -0.1669  0.6052
18916TIP3    H178163   2.833   3.877   2.833 -0.3575  2.4446  1.4783
18916TIP3    H278164   2.788   3.822   2.699 -0.1783 -1.0752  2.7497
18917TIP3   OH278165   4.235   5.547  15.466 -0.6340  0.1261  0.6114
18917TIP3    H178166   4.299   5.477  15.474  1.0795  1.4185 -1.0787
18917TIP3    H278167   4.151   5.501  15.455  0.4799 -1.7053 -0.9178
18918TIP3   OH278168   3.339   6.016   6.481  0.6192  0.5530  0.2959
18918TIP3    H178169   3.248   6.032   6.508  0.5611 -0.8757  1.0573
18918TIP3    H278170   3.392   6.056   6.551  0.5334  0.0166  0.6768
18919TIP3   OH278171   4.704   1.932  16.034 -0.0937  0.5314  0.5713
18919TIP3    H178172   4.662   2.004  15.987 -0.5515 -1.1655 -1.8085
18919TIP3    H278173   4.634   1.896  16.090 -1.5948 -1.3310 -2.2508
18920TIP3   OH278174   5.515   5.845   1.705  0.4121  0.3440  0.8955
18920TIP3    H178175   5.601   5.849   1.748 -0.4314 -0.0377  2.6691
18920TIP3    H278176   5.500   5.752   1.690  0.9715  0.4894 -0.9242
18921TIP3   OH278177   2.108   1.171   0.396 -0.3131 -0.0723  0.4811
18921TIP3    H178178   2.031   1.123   0.424 -0.6198 -0.8986 -1.5878
18921TIP3    H278179   2.079   1.263   0.391 -0.2497  0.1023  2.6495
18922TIP3   OH278180   4.441   6.714   0.736 -0.1445 -0.1579 -0.3734
18922TIP3    H178181   4.348   6.705   0.756 -0.2232 -0.2560 -0.7776
18922TIP3    H278182   4.479   6.753   0.815 -0.6256  0.4136 -0.4173
18923TIP3   OH278183   3.308   6.526   4.533  0.8658 -0.2426  0.0494
18923TIP3    H178184   3.214   6.504   4.537  0.7689  0.3601  1.8645
18923TIP3    H278185   3.352   6.443   4.553  0.6923 -0.3355  0.0550
18924TIP3   OH278186   0.861   3.968   5.860 -0.2140  0.4173 -0.4573
18924TIP3    H178187   0.851   3.901   5.793  1.7836  0.0077 -0.4030
18924TIP3    H278188   0.926   4.029   5.824  0.5465  0.4393  0.9029
18925TIP3   OH278189   0.184   0.843  15.123  0.3896  0.2360  0.3818
18925TIP3    H178190   0.158   0.848  15.030  1.6929  0.0942 -0.0095
18925TIP3    H278191   0.102   0.852  15.171 -0.6329 -1.9896 -0.8227
18926TIP3   OH278192   2.070   6.372  12.318 -0.3350 -0.2286 -0.4527
18926TIP3    H178193   2.128   6.318  12.263  1.0031  0.7912 -0.1088
18926TIP3    H278194   2.024   6.429  12.256  1.0187  0.7751 -0.5932
18927TIP3   OH278195   1.741   5.137  13.228 -0.0824 -0.1637  0.1671
18927TIP3    H178196   1.709   5.181  13.307  1.3480  1.2298  0.0302
18927TIP3    H278197   1.764   5.049  13.257  0.8154  0.4561  1.4400
18928TIP3   OH278198   6.573   5.718  11.538 -0.1144  0.2180  0.4609
18928TIP3    H178199   6.486   5.688  11.566  0.2505 -0.7656  0.5753
18928TIP3    H278200   6.610   5.643  11.493  0.4664  0.8227 -0.0773
18929TIP3   OH278201   0.813   5.540   5.051  0.5510 -0.5762 -0.3953
18929TIP3    H178202   0.803   5.452   5.015 -0.9066 -0.3192 -0.6781
18929TIP3    H278203   0.725   5.577   5.049  0.9546  0.5131  0.7094
18930TIP3   OH278204   0.107   2.800  16.062  0.4781 -0.1233 -0.0376
18930TIP3    H178205   0.090   2.732  16.127  0.7807  0.5864  0.7947
18930TIP3    H278206   0.203   2.810  16.063  0.3535  1.1344  0.7004
18931TIP3   OH278207   6.740   4.598   1.966  0.1092  0.1409  0.5037
18931TIP3    H178208   6.702   4.513   1.945 -0.0344  0.3794 -0.2270
18931TIP3    H278209   6.755   4.595   2.060 -0.8744 -0.2952  0.6513
18932TIP3   OH278210   1.038   0.608  17.123 -0.1210  0.3291 -0.4780
18932TIP3    H178211   1.010   0.583  17.211 -1.7815  2.2162 -0.3960
18932TIP3    H278212   1.075   0.696  17.133  2.3996 -0.5516 -1.2594
18933TIP3   OH278213   5.442   4.325  13.631  0.1454 -0.0398  0.0749
18933TIP3    H178214   5.449   4.418  13.609  1.3764  0.1187  1.0174
18933TIP3    H278215   5.527   4.288  13.606 -0.0881 -0.7771  0.3366
18934TIP3   OH278216   5.299   1.780   2.039  0.4455  0.0117  0.2421
18934TIP3    H178217   5.326   1.847   1.976 -0.7264 -0.9079 -1.3131
18934TIP3    H278218   5.260   1.830   2.111 -1.7170  1.0391 -1.5080
18935TIP3   OH278219   3.265   6.280  15.568  0.6508  0.3970 -0.9962
18935TIP3    H178220   3.188   6.320  15.609  2.2247  1.0013  1.5958
18935TIP3    H278221   3.235   6.193  15.542 -0.8350  0.4541  0.3159
18936TIP3   OH278222   5.883   3.123  12.581 -0.4554 -0.2830  0.5906
18936TIP3    H178223   5.877   3.156  12.492 -2.0047  0.5463  0.9686
18936TIP3    H278224   5.857   3.031  12.575 -0.4939 -0.2450  0.1722
18937TIP3   OH278225   1.619   6.510   2.291  0.2135 -0.3581  0.0033
18937TIP3    H178226   1.637   6.464   2.210 -1.0081 -1.7970  0.5108
18937TIP3    H278227   1.698   6.497   2.344  0.8618  0.2693 -0.7834
18938TIP3   OH278228   2.795   2.551   2.842  0.1842  0.0227 -0.0989
18938TIP3    H178229   2.771   2.499   2.766 -1.4264 -0.1700  0.4883
18938TIP3    H278230   2.779   2.642   2.816  0.6997  0.0516 -0.3342
18939TIP3   OH278231   6.060   4.661   5.860  0.5689 -0.3536  0.2410
18939TIP3    H178232   6.114   4.735   5.888  0.8959 -1.1124  1.7332
18939TIP3    H278233   5.994   4.700   5.803  2.2211  0.7176 -1.0468
18940TIP3   OH278234   2.239   4.461  11.918 -0.1759 -0.8225 -0.0494
18940TIP3    H178235   2.255   4.460  11.823 -0.4610 -0.7341 -0.0988
18940TIP3    H278236   2.320   4.428  11.956  0.7677  1.1915 -0.1864
18941TIP3   OH278237   1.344   2.407  16.006  0.0492  0.7296  0.0091
18941TIP3    H178238   1.366   2.475  15.942 -1.1756  1.5746  0.4281
18941TIP3    H278239   1.406   2.420  16.077 -0.2236  1.4868  0.1203
18942TIP3   OH278240   3.918   5.170  11.278  0.0865 -0.5765 -0.5851
18942TIP3    H178241   4.011   5.155  11.299 -0.3326 -2.5411  0.1319
18942TIP3    H278242   3.910   5.146  11.186  0.0146 -2.0938 -0.2175
18943TIP3   OH278243   2.724   2.981  16.032  0.2188 -0.2901  0.2089
18943TIP3    H178244   2.817   2.965  16.017  0.7253 -0.2835  2.8330
18943TIP3    H278245   2.719   3.072  16.061 -0.6160 -0.3025  0.1410
18944TIP3   OH278246   6.167   5.828  13.083 -0.6254  0.4451 -0.1140
18944TIP3    H178247   6.160   5.787  13.169 -0.1373  0.5829 -0.0055
18944TIP3    H278248   6.231   5.899  13.095  1.2939 -1.0213 -1.1422
18945TIP3   OH278249   2.392   0.056   1.862 -0.1044 -0.3416 -0.3848
18945TIP3    H178250   2.396   0.134   1.916 -1.8780 -0.6698  0.2759
18945TIP3    H278251   2.300   0.031   1.861  0.1454 -1.3963 -2.0678
18946TIP3   OH278252   6.678   2.793  11.964 -0.3059  1.2137  0.1112
18946TIP3    H178253   6.685   2.830  11.876 -0.2981  1.5964  0.2705
18946TIP3    H278254   6.769   2.790  11.996 -0.1316 -0.3114 -0.4503
18947TIP3   OH278255   1.221   5.046   3.481 -0.0022 -0.5592  0.2456
18947TIP3    H178256   1.190   5.134   3.460  0.7377 -0.3845 -0.1449
18947TIP3    H278257   1.313   5.058   3.506  0.7010 -1.4238 -1.6672
18948TIP3   OH278258   2.894   5.624  14.779  0.5154 -0.4754  0.3149
18948TIP3    H178259   2.823   5.587  14.727 -0.1664 -0.7786  1.4361
18948TIP3    H278260   2.851   5.664  14.854  1.4425  0.3778  0.4180
18949TIP3   OH278261   1.076   0.783  15.325  0.2010 -0.5396 -0.0391
18949TIP3    H178262   1.134   0.709  15.309 -0.7549 -0.9334 -1.9570
18949TIP3    H278263   1.055   0.777  15.418  0.2765 -2.6113 -0.1006
18950TIP3   OH278264   3.106   1.312  16.132  0.0729  0.2427 -0.1195
18950TIP3    H178265   3.037   1.367  16.169  0.5095 -0.4362  1.8041
18950TIP3    H278266   3.078   1.296  16.042 -2.4433 -0.2776  0.6929
18951TIP3   OH278267   2.378   0.634   4.081 -0.5384  0.0760  0.7902
18951TIP3    H178268   2.378   0.681   3.997 -0.4181  0.9421  1.2668
18951TIP3    H278269   2.392   0.702   4.147 -0.0246 -0.6751  1.4755
18952TIP3   OH278270   5.643   3.754  12.530  0.2749 -0.4952  0.4499
18952TIP3    H178271   5.676   3.844  12.529  0.7063 -0.6549  0.0382
18952TIP3    H278272   5.658   3.724  12.620  0.5848 -0.3172  0.4612
18953TIP3   OH278273   2.173   3.607  13.425 -0.3227 -0.0629 -0.6552
18953TIP3    H178274   2.181   3.518  13.459 -1.0793  0.3810  0.7719
18953TIP3    H278275   2.091   3.639  13.461 -1.2383  0.4412 -3.0290
18954TIP3   OH278276   1.798   2.436  14.611 -0.4537 -0.2526  0.1362
18954TIP3    H178277   1.731   2.414  14.677 -0.9303 -0.4452 -0.4033
18954TIP3    H278278   1.881   2.417  14.654 -0.7398  0.0211  0.8359
18955TIP3   OH278279   6.429   6.447   4.644  0.4271 -0.6096 -0.6248
18955TIP3    H178280   6.345   6.493   4.646  0.3662 -0.6922 -1.1430
18955TIP3    H278281   6.419   6.382   4.574  0.6872 -1.0715 -0.2398
18956TIP3   OH278282   3.418   1.381  13.802 -0.5160 -0.4771  0.0591
18956TIP3    H178283   3.465   1.464  13.808  0.4422 -1.0184  0.1739
18956TIP3    H278284   3.450   1.341  13.722  0.2378 -1.4593  0.8286
18957TIP3   OH278285   6.120   3.180   2.612 -0.3723  0.3815 -0.6477
18957TIP3    H178286   6.109   3.091   2.579 -1.1015  0.6734 -1.2260
18957TIP3    H278287   6.180   3.222   2.550  1.1025 -0.0903  0.3931
18958TIP3   OH278288   3.584   4.138   2.827 -0.8175  0.3231 -0.3234
18958TIP3    H178289   3.606   4.224   2.794 -1.2839  0.0220 -1.4623
18958TIP3    H278290   3.491   4.144   2.850 -1.5195 -0.5014 -2.6625
18959TIP3   OH278291   2.250   4.448   0.164 -0.0179 -0.3271  0.0351
18959TIP3    H178292   2.265   4.532   0.206 -0.8847  0.1223 -0.5209
18959TIP3    H278293   2.179   4.464   0.102  1.2004 -0.9565 -1.6087
18960TIP3   OH278294   5.604   4.326   5.325 -0.1616 -0.2124  0.3252
18960TIP3    H178295   5.610   4.235   5.356 -1.0677 -0.7739 -1.0493
18960TIP3    H278296   5.665   4.374   5.381  1.8902 -2.0182 -0.2173
18961TIP3   OH278297   4.253   1.807  16.780  0.1967 -0.4811 -0.1509
18961TIP3    H178298   4.169   1.762  16.769  0.2133 -0.5047 -0.1791
18961TIP3    H278299   4.235   1.898  16.756  0.6345 -0.8595 -2.0657
18962TIP3   OH278300   3.004   2.410  11.019  0.3009  0.0264 -0.5068
18962TIP3    H178301   3.082   2.362  11.045  0.0130 -0.6389 -0.8497
18962TIP3    H278302   3.020   2.436  10.928 -0.1224 -0.6448 -0.7824
18963TIP3   OH278303   3.612   3.557   5.926 -0.6660  0.0583 -0.2133
18963TIP3    H178304   3.582   3.467   5.915 -0.9280  0.0577  0.4576
18963TIP3    H278305   3.654   3.558   6.012  1.3796  0.0400 -1.1544
18964TIP3   OH278306   6.615   4.594  16.721  0.1089 -0.1984 -0.4552
18964TIP3    H178307   6.532   4.575  16.676  0.2284 -0.2419 -0.6560
18964TIP3    H278308   6.657   4.661  16.668 -0.3557  0.7179  0.3109
18965TIP3   OH278309   1.931   0.739   6.000  1.1389  0.2108 -0.3664
18965TIP3    H178310   1.897   0.826   5.978 -2.0193 -0.7796 -0.0080
18965TIP3    H278311   2.001   0.756   6.063 -0.4695  2.5216  0.9901
18966TIP3   OH278312   5.238   3.295   2.177  0.1703  0.1768 -0.0643
18966TIP3    H178313   5.191   3.276   2.258 -2.9554 -0.9929 -1.9698
18966TIP3    H278314   5.206   3.381   2.150 -0.7176 -0.4631 -1.1819
18967TIP3   OH278315   0.504   2.628   0.076 -0.6367 -0.4240 -0.1675
18967TIP3    H178316   0.567   2.576   0.027 -1.3918 -1.7400  0.2004
18967TIP3    H278317   0.493   2.707   0.024  2.0653  0.3466  0.2828
18968TIP3   OH278318   1.516   3.964  11.184 -0.4897  0.1079  0.3712
18968TIP3    H178319   1.470   4.020  11.121  0.4772 -0.0893 -0.5568
18968TIP3    H278320   1.575   3.911  11.130 -1.2534 -1.7150  1.2283
18969TIP3   OH278321   6.528   6.095   5.634 -0.2935  0.2814 -0.2974
18969TIP3    H178322   6.477   6.014   5.626  0.1140  0.0392 -0.5167
18969TIP3    H278323   6.490   6.155   5.570 -0.3363  0.1200 -0.4232
18970TIP3   OH278324   4.839   2.241   0.845  0.7179 -0.3660  0.1224
18970TIP3    H178325   4.891   2.312   0.882  0.0196  1.0344 -1.4146
18970TIP3    H278326   4.762   2.284   0.807 -0.6808 -2.1677  0.7483
18971TIP3   OH278327   2.987   0.216   0.534 -0.1163  0.1581 -0.1612
18971TIP3    H178328   3.052   0.256   0.476 -1.3700  1.2412 -0.8730
18971TIP3    H278329   2.918   0.282   0.541 -0.4038 -0.2846  1.8898
18972TIP3   OH278330   2.530   1.237  16.790  0.3885 -0.5638 -0.6992
18972TIP3    H178331   2.573   1.269  16.711 -2.0680  0.2909 -1.7836
18972TIP3    H278332   2.598   1.241  16.858  2.3785 -0.6974 -2.5884
18973TIP3   OH278333   4.818   0.655   6.077 -0.7878  0.1730  0.0011
18973TIP3    H178334   4.908   0.685   6.073 -1.4528  2.2737 -0.3212
18973TIP3    H278335   4.791   0.649   5.985 -1.0314 -0.2896  0.0997
18974TIP3   OH278336   0.483   2.907   1.751  0.5555  0.2077 -0.3495
18974TIP3    H178337   0.522   2.860   1.678  1.1039  1.1752 -0.6973
18974TIP3    H278338   0.432   2.841   1.798  0.9115 -0.6133 -1.0965
18975TIP3   OH278339   4.420   0.717   2.306 -0.2018 -0.3239  0.0586
18975TIP3    H178340   4.492   0.659   2.285 -0.5966 -1.5230  1.7580
18975TIP3    H278341   4.395   0.693   2.395 -2.2949  0.4712 -0.2463
18976TIP3   OH278342   2.531   5.824  16.338 -0.8923 -0.2587 -0.0542
18976TIP3    H178343   2.604   5.770  16.368 -2.8140 -2.1470  1.4975
18976TIP3    H278344   2.551   5.912  16.371  0.1813 -0.9616  1.2604
18977TIP3   OH278345   1.245   3.289  16.045 -0.3287  0.0329 -0.6666
18977TIP3    H178346   1.278   3.205  16.078  0.2897  1.3804  2.5388
18977TIP3    H278347   1.150   3.281  16.052 -0.2648  0.6088  2.9638
18978TIP3   OH278348   1.099   2.453   2.878 -0.0638 -0.1713  0.2821
18978TIP3    H178349   1.091   2.478   2.786  0.6192  0.1751  0.3112
18978TIP3    H278350   1.013   2.470   2.915 -1.0086 -2.2659 -0.7453
18979TIP3   OH278351   2.858   1.857   3.564 -0.0793 -0.5998 -0.1327
18979TIP3    H178352   2.947   1.872   3.596  0.2482 -1.8455 -0.3842
18979TIP3    H278353   2.847   1.920   3.494  1.4446 -1.8277 -1.5696
18980TIP3   OH278354   1.452   3.534  14.621  0.1568  0.3839 -0.6101
18980TIP3    H178355   1.527   3.516  14.677 -0.1403  0.3321 -0.2174
18980TIP3    H278356   1.471   3.489  14.539 -0.6117 -1.9360  0.3704
18981TIP3   OH278357   0.168   1.074   1.210 -0.7292 -0.1143  0.8776
18981TIP3    H178358   0.156   1.086   1.116 -0.1402  0.4730  0.8751
18981TIP3    H278359   0.238   1.009   1.217 -2.3132 -1.9348  0.9139
18982TIP3   OH278360   4.786   3.689  11.653 -0.0325 -0.2639  0.0748
18982TIP3    H178361   4.719   3.625  11.678 -1.3832  0.5475 -1.2941
18982TIP3    H278362   4.738   3.757  11.606  1.6888  0.6304 -0.4810
18983TIP3   OH278363   6.239   1.582  10.539 -0.3185  0.0200 -0.0210
18983TIP3    H178364   6.325   1.608  10.504  0.8242 -1.8637  1.1849
18983TIP3    H278365   6.202   1.526  10.471  0.1896 -0.5378  0.1494
18984TIP3   OH278366   4.406   3.336  16.586 -0.1570  0.0663  0.1055
18984TIP3    H178367   4.349   3.342  16.509  0.1223  1.8878  0.0087
18984TIP3    H278368   4.395   3.245  16.616  1.2544 -1.3704 -3.2125
18985TIP3   OH278369   3.753   3.191  15.552 -0.2718 -1.4025  0.3139
18985TIP3    H178370   3.721   3.278  15.527 -1.0533 -1.5149  0.8830
18985TIP3    H278371   3.681   3.152  15.601 -0.1912 -2.6444 -0.5047
18986TIP3   OH278372   1.995   1.635   4.109  0.1794 -0.7386  0.0724
18986TIP3    H178373   2.013   1.717   4.156 -0.3570 -0.0916 -0.8219
18986TIP3    H278374   2.056   1.637   4.035 -2.8396  1.1347 -2.5974
18987TIP3   OH278375   2.112   0.136  15.434 -0.3778 -0.0551 -0.0669
18987TIP3    H178376   2.065   0.077  15.375  1.0284 -0.0847 -1.2113
18987TIP3    H278377   2.201   0.102  15.436 -0.4529 -0.3335  2.4967
18988TIP3   OH278378   1.976   0.073  10.724 -0.1826  0.0792  0.2304
18988TIP3    H178379   1.891   0.053  10.685  0.5227 -0.0634 -1.3006
18988TIP3    H278380   2.007  -0.010  10.760  0.9269 -0.7896 -2.5189
18989TIP3   OH278381   1.573   3.573  10.847  0.4062  0.4641 -0.6720
18989TIP3    H178382   1.583   3.654  10.797  2.8028  0.1777 -0.8127
18989TIP3    H278383   1.628   3.510  10.800 -1.1738 -1.1993 -0.4069
18990TIP3   OH278384   3.973   2.934  12.972 -0.0285 -0.4065 -0.2494
18990TIP3    H178385   4.020   2.913  13.053 -2.7665 -1.2276  1.2811
18990TIP3    H278386   3.979   2.855  12.919 -1.6311 -1.4345  1.0089
18991TIP3   OH278387   3.361   5.817   1.569  1.0354  0.5142 -0.4710
18991TIP3    H178388   3.273   5.835   1.536  0.9979  1.1728 -0.0330
18991TIP3    H278389   3.369   5.722   1.567  1.4268  0.5376 -3.3725
18992TIP3   OH278390   1.977   3.750   4.855  0.1602  0.3924  0.1152
18992TIP3    H178391   1.924   3.760   4.935 -0.5096  1.5657 -0.4510
18992TIP3    H278392   2.052   3.807   4.870 -0.3205  1.1691 -0.3688
18993TIP3   OH278393   2.467   4.758   4.022  0.4527 -0.3161  0.1282
18993TIP3    H178394   2.527   4.824   3.988 -0.6818  1.1026  0.7784
18993TIP3    H278395   2.462   4.776   4.116 -1.3766 -0.0397  0.0168
18994TIP3   OH278396   6.778   6.056   4.988  0.1720 -0.0592  0.1249
18994TIP3    H178397   6.869   6.046   4.960  0.6916  0.2343  1.6177
18994TIP3    H278398   6.766   5.988   5.055 -0.1287  1.0727  1.2608
18995TIP3   OH278399   4.507   1.596  14.171 -0.3977 -0.5734 -0.1725
18995TIP3    H178400   4.518   1.513  14.217  0.6516 -0.1773  0.3242
18995TIP3    H278401   4.592   1.611  14.128 -1.3059 -0.8753 -2.1657
18996TIP3   OH278402   4.261   3.138  14.577 -0.2755 -0.0837  0.7909
18996TIP3    H178403   4.269   3.063  14.636 -0.4231  0.1293  1.0824
18996TIP3    H278404   4.199   3.197  14.620  0.6517  0.7025  1.0947
18997TIP3   OH278405   2.886   0.485   1.564  0.5899  0.0172 -0.6076
18997TIP3    H178406   2.847   0.415   1.617 -0.4450  0.8343 -0.2731
18997TIP3    H278407   2.912   0.441   1.482 -0.7072 -0.6232 -0.6976
18998TIP3   OH278408   0.620   1.308   5.705  0.1091  0.1085 -0.1499
18998TIP3    H178409   0.679   1.236   5.728  1.6471  1.5823  0.6464
18998TIP3    H278410   0.569   1.323   5.785 -0.6084 -0.4262 -0.4908
18999TIP3   OH278411   5.695   4.831  11.200 -0.0280  0.2720  0.0561
18999TIP3    H178412   5.645   4.752  11.217  1.6005 -0.4097  2.0041
18999TIP3    H278413   5.680   4.849  11.107 -2.2113 -1.0193  0.1014
19000TIP3   OH278414   4.928   3.210   5.430 -0.2748  0.3191  0.5749
19000TIP3    H178415   4.858   3.146   5.442 -0.7952  0.9065  0.7355
19000TIP3    H278416   4.954   3.234   5.520  0.6873 -0.4835  0.5237
19001TIP3   OH278417   6.437   5.524   0.824 -0.0273  0.1196 -0.0655
19001TIP3    H178418   6.481   5.609   0.823 -1.7880  1.0816 -0.4187
19001TIP3    H278419   6.485   5.471   0.761  1.5919  0.5621  0.7507
19002TIP3   OH278420   0.104   1.302  12.848 -0.2405  0.0537 -0.3306
19002TIP3    H178421   0.042   1.271  12.782 -0.0745  0.7476 -0.8252
19002TIP3    H278422   0.051   1.317  12.926 -0.2192 -2.1988  0.2018
19003TIP3   OH278423   5.977   4.650  13.732 -0.3839  0.5566  0.1270
19003TIP3    H178424   6.047   4.627  13.671 -1.8865  0.5075 -1.6518
19003TIP3    H278425   5.922   4.572  13.737 -1.1691  1.1046  0.2856
19004TIP3   OH278426   2.121   1.584  15.497  0.8446 -0.5871 -0.3366
19004TIP3    H178427   2.142   1.534  15.575  0.5216 -0.4935 -0.1927
19004TIP3    H278428   2.102   1.672  15.529  1.8197 -0.2511 -0.6228
19005TIP3   OH278429   2.379   2.758   2.175 -0.1009  0.1483  0.0294
19005TIP3    H178430   2.440   2.697   2.217  0.7248  1.2074  0.4085
19005TIP3    H278431   2.299   2.753   2.228  0.4980  0.5443  1.0003
19006TIP3   OH278432   0.367   6.059   6.123  0.5298  0.3238  0.0817
19006TIP3    H178433   0.419   6.019   6.192 -3.5132 -3.7478  1.2134
19006TIP3    H278434   0.354   5.990   6.058 -0.3555  2.3390 -2.0651
19007TIP3   OH278435   1.702   4.816  13.008  0.3133  0.7986  0.0256
19007TIP3    H178436   1.625   4.869  12.987  0.3320  0.6936 -0.3036
19007TIP3    H278437   1.767   4.880  13.039  0.4047  0.9949 -0.5610
19008TIP3   OH278438   1.474   4.851  11.762 -0.5733  0.0442 -0.2272
19008TIP3    H178439   1.569   4.852  11.751 -0.5528  1.9706 -0.1565
19008TIP3    H278440   1.445   4.774  11.714  1.0947 -1.1296  0.5284
19009TIP3   OH278441   5.463   0.290   4.841 -0.2006  0.2556 -0.1083
19009TIP3    H178442   5.481   0.196   4.845  3.5409  0.8613  2.5058
19009TIP3    H278443   5.374   0.300   4.873  0.6762 -2.2266  3.6396
19010TIP3   OH278444   6.357   5.538   0.402 -0.5997 -0.0177 -0.1804
19010TIP3    H178445   6.370   5.505   0.313  0.1949  2.1929 -0.9466
19010TIP3    H278446   6.446   5.557   0.433 -1.0358  2.1065 -0.1143
19011TIP3   OH278447   4.100   2.063  15.510 -0.2666  0.0051 -0.8648
19011TIP3    H178448   4.145   2.086  15.429 -0.1582 -1.1572 -1.1452
19011TIP3    H278449   4.007   2.077  15.490 -0.1164  1.8452 -0.4683
19012TIP3   OH278450   2.769   2.235   3.706 -0.4843  0.3229 -0.1502
19012TIP3    H178451   2.679   2.205   3.697 -0.1269 -1.0447  0.5147
19012TIP3    H278452   2.798   2.199   3.789  1.0448 -0.2990 -0.9093
19013TIP3   OH278453   2.366   6.068   3.508  0.5435  0.2391 -0.4537
19013TIP3    H178454   2.284   6.118   3.518 -0.2218 -0.7976 -1.2470
19013TIP3    H278455   2.416   6.118   3.443 -0.3207 -0.1348 -1.4333
19014TIP3   OH278456   3.628   1.312  16.642 -0.0368 -0.6061  0.1494
19014TIP3    H178457   3.563   1.374  16.611  0.1346  0.2806  1.4503
19014TIP3    H278458   3.710   1.339  16.600  0.5737  1.7127  2.5616
19015TIP3   OH278459   0.304   3.826  14.730 -0.1059 -0.0467 -0.1636
19015TIP3    H178460   0.387   3.792  14.764  0.0366 -1.2467 -1.6250
19015TIP3    H278461   0.329   3.880  14.655 -0.6320 -0.4076 -0.6055
19016TIP3   OH278462   1.197   5.952  11.424 -1.0533  0.4391 -0.5728
19016TIP3    H178463   1.120   5.907  11.456 -0.7791  0.7509  0.5715
19016TIP3    H278464   1.178   5.971  11.332 -1.4359 -1.3952 -0.9071
19017TIP3   OH278465   2.727   2.828   2.827 -0.1572  0.0028  0.6152
19017TIP3    H178466   2.643   2.869   2.803  0.1897 -0.2661 -1.2073
19017TIP3    H278467   2.789   2.901   2.829  0.1279 -0.1524 -1.0007
19018TIP3   OH278468   0.192   2.635   3.198 -0.4499 -0.0385  0.9094
19018TIP3    H178469   0.141   2.713   3.176 -1.6711 -1.3842 -1.4636
19018TIP3    H278470   0.128   2.563   3.197  1.2561 -1.7180 -1.6573
19019TIP3   OH278471   4.355   6.021   2.243  0.1779 -0.3636 -0.0004
19019TIP3    H178472   4.413   6.097   2.241 -0.2329 -0.0404  0.3729
19019TIP3    H278473   4.380   5.973   2.321  0.8489 -0.9449 -0.5573
19020TIP3   OH278474   4.334   2.857  15.031 -0.0569  0.4306 -0.1681
19020TIP3    H178475   4.405   2.823  15.084 -0.4240  0.6134  0.4463
19020TIP3    H278476   4.294   2.925  15.085  0.3464  1.4925 -1.1636
19021TIP3   OH278477   1.429   2.210  16.685  0.2287  0.1600 -0.8923
19021TIP3    H178478   1.438   2.170  16.599  0.7152  0.8402 -1.1724
19021TIP3    H278479   1.370   2.285  16.671  0.2155  0.2036 -0.6142
19022TIP3   OH278480   6.540   1.925  16.395 -0.3409 -0.0880 -0.1005
19022TIP3    H178481   6.462   1.878  16.367  0.0384  0.2090 -1.7600
19022TIP3    H278482   6.568   1.975  16.318 -0.3229  2.3340  1.3553
19023TIP3   OH278483   5.188   4.897   1.197 -0.0246  0.7710  0.1440
19023TIP3    H178484   5.153   4.872   1.111 -0.4301  0.2163  0.4683
19023TIP3    H278485   5.128   4.966   1.227 -0.6194  0.1097  0.5156
19024TIP3   OH278486   4.035   4.600   0.237  0.1730 -0.7958  0.4645
19024TIP3    H178487   4.086   4.654   0.176  1.0310 -1.5509  0.4890
19024TIP3    H278488   3.963   4.656   0.265 -0.7612 -0.7266 -1.9169
19025TIP3   OH278489   2.621   0.068  15.427 -0.0530  0.3563 -0.0465
19025TIP3    H178490   2.680   0.015  15.374  1.6794  1.7819  0.3423
19025TIP3    H278491   2.602   0.144  15.372 -0.0064  0.7955  0.5280
19026TIP3   OH278492   5.826   3.678  14.367 -0.1238  0.0987  0.1662
19026TIP3    H178493   5.848   3.720  14.450 -1.1927 -0.5457  0.7871
19026TIP3    H278494   5.890   3.714  14.305  1.8127 -0.6822  1.6106
19027TIP3   OH278495   5.449   4.002  15.242 -0.1408  0.1886 -0.8946
19027TIP3    H178496   5.516   4.008  15.310  1.5159 -0.5099 -2.4227
19027TIP3    H278497   5.392   3.931  15.271 -1.3372  1.8914  1.2847
19028TIP3   OH278498   4.793   3.247   4.157  0.6719 -0.0319  0.1889
19028TIP3    H178499   4.734   3.205   4.218  1.6945  0.9281  1.9296
19028TIP3    H278500   4.736   3.280   4.087 -0.7495  0.1802  1.3938
19029TIP3   OH278501   1.936   0.226   6.262 -0.0019  0.6543 -0.0644
19029TIP3    H178502   2.007   0.211   6.323 -0.2022  0.5728  0.1495
19029TIP3    H278503   1.872   0.158   6.282  0.1695  0.2928 -0.7244
19030TIP3   OH278504   0.369   6.012   2.359 -0.1990 -0.6086  0.1441
19030TIP3    H178505   0.400   5.925   2.382  0.4416 -0.3586  0.2253
19030TIP3    H278506   0.444   6.070   2.372 -0.4430 -0.1332 -0.4930
19031TIP3   OH278507   0.046   2.037   0.650 -0.1904  0.3279  0.0230
19031TIP3    H178508  -0.035   1.987   0.648 -0.8910  1.4264  0.3721
19031TIP3    H278509   0.076   2.039   0.559 -0.8727  0.4370 -0.1983
19032TIP3   OH278510   1.106   1.362   2.584  0.2277  0.5402  0.1488
19032TIP3    H178511   1.074   1.358   2.494 -1.9970  2.6860  0.7220
19032TIP3    H278512   1.028   1.347   2.637  1.3571  0.0602  1.7278
19033TIP3   OH278513   3.264   2.798  15.279 -0.2245 -0.1412 -0.0154
19033TIP3    H178514   3.183   2.748  15.282 -0.0665 -0.4185 -0.2629
19033TIP3    H278515   3.240   2.886  15.305 -0.5860 -0.2497  0.0124
19034TIP3   OH278516   2.551   6.222   3.384  0.5787  0.6477 -0.0596
19034TIP3    H178517   2.625   6.206   3.325 -0.2680 -2.2033 -0.4988
19034TIP3    H278518   2.511   6.302   3.351  2.4463  1.3007 -0.8659
19035TIP3   OH278519   5.544   1.059  13.541  0.0057 -0.4562 -0.3769
19035TIP3    H178520   5.627   1.062  13.493  1.0243 -1.5825  1.2011
19035TIP3    H278521   5.570   1.053  13.633 -1.8445 -0.5131  0.1845
19036TIP3   OH278522   0.129   4.533  11.893 -0.0113  1.1042  0.4108
19036TIP3    H178523   0.207   4.490  11.927 -0.6426  0.5632  1.2060
19036TIP3    H278524   0.144   4.538  11.799  1.6408  2.3593  0.6855
19037TIP3   OH278525   4.313   4.141   5.669 -0.3740  0.2985  0.1864
19037TIP3    H178526   4.395   4.166   5.713 -0.5076  0.3152  0.4310
19037TIP3    H278527   4.279   4.223   5.634  0.0355  0.1925 -0.4737
19038TIP3   OH278528   2.804   4.436  15.752 -0.4433  0.0635 -0.2709
19038TIP3    H178529   2.869   4.475  15.694  1.2037 -0.1672  1.3261
19038TIP3    H278530   2.810   4.342  15.736  0.6460 -0.0797  0.8358
19039TIP3   OH278531   2.188   2.236  15.163 -0.7477  0.2988 -0.0808
19039TIP3    H178532   2.108   2.209  15.209 -1.1208  0.9300 -0.3527
19039TIP3    H278533   2.242   2.275  15.232 -0.7955  0.1446  0.0470
19040TIP3   OH278534   3.249   4.451   1.205  0.2303 -0.1748 -0.4018
19040TIP3    H178535   3.311   4.400   1.256  0.0891  1.8397  1.9606
19040TIP3    H278536   3.168   4.400   1.207  0.0570  0.0866  2.0006
19041TIP3   OH278537   3.244   0.650   4.332 -0.4792  0.3114 -0.8333
19041TIP3    H178538   3.249   0.715   4.402  1.0344  1.6201 -2.1001
19041TIP3    H278539   3.151   0.639   4.315 -0.8407  0.4623  0.9062
19042TIP3   OH278540   5.370   5.244  16.239 -0.1423  0.0266 -0.1703
19042TIP3    H178541   5.392   5.181  16.170  1.6556  0.9360 -0.4831
19042TIP3    H278542   5.389   5.196  16.320 -2.3477 -1.0765 -0.2373
19043TIP3   OH278543   5.945   4.788  11.775 -0.2041 -0.2192 -0.1212
19043TIP3    H178544   5.915   4.733  11.847 -0.6312  1.0198  0.6935
19043TIP3    H278545   5.967   4.727  11.705 -2.9741 -1.3347 -0.1598
19044TIP3   OH278546   4.317   5.556  12.539  0.4113  0.5332  0.1693
19044TIP3    H178547   4.400   5.512  12.557  0.3925  0.5462  0.2864
19044TIP3    H278548   4.328   5.645  12.572  0.4049  0.5803  0.0456
19045TIP3   OH278549   5.259   2.849   2.895  0.1366  0.5107 -0.1910
19045TIP3    H178550   5.215   2.931   2.917  1.1851  1.1197 -0.3013
19045TIP3    H278551   5.194   2.799   2.845 -1.0644  0.5837  1.2237
19046TIP3   OH278552   4.277   5.478  13.416  0.7973  0.6525  0.0623
19046TIP3    H178553   4.238   5.400  13.456  0.2452  0.6600 -0.4355
19046TIP3    H278554   4.206   5.516  13.364  0.8276  1.9028  0.8778
19047TIP3   OH278555   0.367   5.919   0.844  0.2376  0.4925  0.5166
19047TIP3    H178556   0.317   5.971   0.781 -1.7464 -1.2819  0.4934
19047TIP3    H278557   0.402   5.846   0.793 -1.2570 -0.8740  1.3341
19048TIP3   OH278558   2.205   4.471  11.613 -0.3098  0.6571 -0.2601
19048TIP3    H178559   2.149   4.400  11.643 -0.1897  0.3932 -0.6619
19048TIP3    H278560   2.159   4.551  11.641 -0.4067  0.4278  0.2559
19049TIP3   OH278561   3.953   3.081  16.926  0.3646 -0.1712  0.4337
19049TIP3    H178562   3.896   3.021  16.973 -0.8387  0.3930 -0.2681
19049TIP3    H278563   4.035   3.032  16.914 -0.1338 -1.1687  1.0309
19050TIP3   OH278564   4.001   4.529  16.322 -0.0800 -0.0958  1.2003
19050TIP3    H178565   3.982   4.563  16.410  0.5724 -0.1792  1.3751
19050TIP3    H278566   3.931   4.467  16.305 -0.7306  0.5956  1.2844
19051TIP3   OH278567   4.402   3.333   0.038  0.0017 -0.7018 -0.0933
19051TIP3    H178568   4.406   3.390  -0.039 -0.7560 -0.5851 -0.0544
19051TIP3    H278569   4.322   3.359   0.083  0.4360 -0.7723  0.7403
19052TIP3   OH278570   2.127   1.502  12.426  0.4394  0.3090  0.6467
19052TIP3    H178571   2.125   1.564  12.498 -0.0856 -0.7045  1.5335
19052TIP3    H278572   2.035   1.483  12.407  0.5681  0.6431 -0.3707
19053TIP3   OH278573   1.492   0.217   1.257  0.1016  0.5954  0.2504
19053TIP3    H178574   1.540   0.156   1.201  2.0847  1.7257  0.6049
19053TIP3    H278575   1.433   0.263   1.197 -0.7703 -1.0034 -0.1694
19054TIP3   OH278576   4.263   4.673   5.035 -0.0262 -0.2560  0.3174
19054TIP3    H178577   4.225   4.715   4.958  0.3635 -0.1747  0.1718
19054TIP3    H278578   4.257   4.579   5.016 -1.4149 -0.3136  0.8799
19055TIP3   OH278579   1.676   3.349  14.711  0.4410  0.1311 -0.0531
19055TIP3    H178580   1.763   3.322  14.741 -0.1077 -2.6874 -0.7176
19055TIP3    H278581   1.692   3.383  14.623  1.0583  1.2369  0.4671
19056TIP3   OH278582   4.484   6.145   1.345 -0.0098 -0.1881  0.5727
19056TIP3    H178583   4.519   6.129   1.433 -0.6858 -1.3088  0.6694
19056TIP3    H278584   4.408   6.202   1.360 -0.2933 -0.6057  0.7625
19057TIP3   OH278585   5.878   0.074  14.547  0.5230  0.0969 -0.3497
19057TIP3    H178586   5.857   0.017  14.621  0.0036 -1.4049 -1.6222
19057TIP3    H278587   5.971   0.094  14.558  0.6441 -0.7559  0.2636
19058TIP3   OH278588   2.965   1.723  14.833 -0.1637 -0.1898 -0.1526
19058TIP3    H178589   2.975   1.802  14.781 -1.4533  0.8479  1.0869
19058TIP3    H278590   2.992   1.749  14.921 -1.2036 -0.9318  0.4108
19059TIP3   OH278591   5.909   5.101  16.790 -0.3561  1.2927 -0.0875
19059TIP3    H178592   5.988   5.110  16.737  0.1104  0.3278  0.4148
19059TIP3    H278593   5.847   5.056  16.732  0.1926  0.1329  0.2037
19060TIP3   OH278594   3.133   5.388   4.029  0.1612 -0.8558 -0.3977
19060TIP3    H178595   3.045   5.406   3.998  0.7080  0.1888 -1.4401
19060TIP3    H278596   3.181   5.470   4.015  1.5538 -1.7134 -0.8760
19061TIP3   OH278597   2.168   5.104   1.836 -0.0367  0.7668 -0.2122
19061TIP3    H178598   2.228   5.065   1.772  0.7065 -1.5077  1.6831
19061TIP3    H278599   2.098   5.040   1.845 -0.1418  1.0318  1.1717
19062TIP3   OH278600   2.525   6.789   1.167  0.0497  0.1353  0.1576
19062TIP3    H178601   2.440   6.747   1.157  0.0272 -0.4369  2.2819
19062TIP3    H278602   2.506   6.869   1.217  0.6771  0.3245  0.1046
19063TIP3   OH278603   5.789   3.706   5.705  0.0061  0.1571  0.1593
19063TIP3    H178604   5.879   3.683   5.684  0.2594 -0.6719  1.9492
19063TIP3    H278605   5.771   3.785   5.654  1.4643 -0.1137 -0.8255
19064TIP3   OH278606   3.705   5.705  15.087 -0.0319 -0.1853 -0.3595
19064TIP3    H178607   3.610   5.698  15.077 -0.4101 -0.6605  2.5439
19064TIP3    H278608   3.734   5.756  15.011 -2.3264 -1.5015 -2.2450
19065TIP3   OH278609   3.678   1.319  14.181  0.0647  0.4405 -0.8358
19065TIP3    H178610   3.600   1.371  14.199  0.2930  0.7309 -0.6661
19065TIP3    H278611   3.731   1.326  14.261  0.7271  1.1004 -1.3069
19066TIP3   OH278612   2.223   4.347   4.609 -0.0200  0.2138  0.6879
19066TIP3    H178613   2.237   4.435   4.576 -0.0279  0.1202  0.4308
19066TIP3    H278614   2.292   4.295   4.568  1.3500  0.4975  2.5093
19067TIP3   OH278615   1.289   6.226   0.175  0.1535 -0.1620 -0.3385
19067TIP3    H178616   1.273   6.216   0.081  2.4014  1.3089 -0.9652
19067TIP3    H278617   1.385   6.221   0.183  0.1391  1.4180  1.6364
19068TIP3   OH278618   2.874   3.471  13.540  0.1157  0.2090 -0.1557
19068TIP3    H178619   2.862   3.515  13.456 -1.2816  0.7805  0.3036
19068TIP3    H278620   2.968   3.463  13.551  0.3232  0.1728 -1.7456
19069TIP3   OH278621   0.970   6.128  16.807 -0.3628 -0.1416  0.5180
19069TIP3    H178622   0.958   6.083  16.890  1.5331 -0.1276  0.8406
19069TIP3    H278623   0.957   6.221  16.828  2.1685  0.1021  1.3286
19070TIP3   OH278624   0.111   2.558   1.955 -0.0096 -0.4403 -0.2392
19070TIP3    H178625   0.019   2.565   1.982  0.2937  1.2730  0.4828
19070TIP3    H278626   0.140   2.474   1.989 -0.1751  0.7853  3.3173
19071TIP3   OH278627   3.774   4.609  11.189 -0.4396 -0.3402  0.1342
19071TIP3    H178628   3.790   4.701  11.165  0.5935 -0.5026  0.1326
19071TIP3    H278629   3.853   4.563  11.159 -0.6065 -1.0986  0.8298
19072TIP3   OH278630   4.369   0.976  14.712 -0.2448 -0.0284 -0.4708
19072TIP3    H178631   4.367   1.072  14.708  3.1090  0.0972 -2.6402
19072TIP3    H278632   4.387   0.949  14.622 -1.3140 -2.7790  0.0390
19073TIP3   OH278633   1.985   4.609  12.934  0.7301 -0.0739  0.5202
19073TIP3    H178634   1.891   4.628  12.936  0.9531  1.1713  0.1375
19073TIP3    H278635   2.027   4.694  12.948  1.8205 -0.8145  2.1840
19074TIP3   OH278636   2.030   1.407   5.217 -0.2719  0.4910 -0.2229
19074TIP3    H178637   2.042   1.328   5.164  0.8798  0.8385 -0.5137
19074TIP3    H278638   1.937   1.407   5.239 -0.0358 -1.7330  1.0546
19075TIP3   OH278639   4.116   5.472   4.989  0.0770  0.0471 -0.4740
19075TIP3    H178640   4.140   5.438   5.076  0.0530 -1.7737 -1.1381
19075TIP3    H278641   4.028   5.507   5.001 -0.2064 -0.8107  0.1055
19076TIP3   OH278642   3.418   3.441  13.940 -0.1199 -0.4210 -0.0429
19076TIP3    H178643   3.385   3.524  13.973 -2.2797 -1.5610  0.8840
19076TIP3    H278644   3.357   3.376  13.974  2.9981 -2.7466  1.6846
19077TIP3   OH278645   2.320   5.509  14.055  0.3626 -0.2694  0.0660
19077TIP3    H178646   2.362   5.446  14.113  0.1677  0.5269  1.0937
19077TIP3    H278647   2.236   5.529  14.097  0.4467  0.7162 -0.2047
19078TIP3   OH278648   2.878   4.399   0.154 -0.2761  0.0366 -0.3387
19078TIP3    H178649   2.922   4.337   0.095  0.5442 -0.7967  1.0973
19078TIP3    H278650   2.820   4.449   0.097 -1.2170 -2.2555 -1.5252
19079TIP3   OH278651   5.161   2.002   1.592 -0.0480 -0.1187  0.1227
19079TIP3    H178652   5.167   1.924   1.537 -2.2228 -0.4785  0.3022
19079TIP3    H278653   5.121   1.971   1.673  1.9936  0.6224  1.5244
19080TIP3   OH278654   2.409   2.726  11.562 -0.2499 -0.4663  0.3680
19080TIP3    H178655   2.478   2.662  11.547  0.1999  0.2855 -0.9693
19080TIP3    H278656   2.440   2.806  11.519 -2.4900 -0.4820 -1.4796
19081TIP3   OH278657   5.389   3.360   1.755  0.8798  0.2101 -0.0210
19081TIP3    H178658   5.444   3.343   1.832  1.1166  1.2966  0.0645
19081TIP3    H278659   5.403   3.453   1.736 -0.2762  0.2969 -0.5100
19082TIP3   OH278660   4.786   2.664   1.715 -0.0922 -0.0923  0.0934
19082TIP3    H178661   4.795   2.737   1.653  1.2051 -0.9411 -0.7706
19082TIP3    H278662   4.732   2.699   1.785 -0.5813  1.2945 -0.9259
19083TIP3   OH278663   3.170   2.401  15.284  0.3567  0.4190 -0.0703
19083TIP3    H178664   3.123   2.455  15.221 -0.6411  0.0855  0.3580
19083TIP3    H278665   3.122   2.414  15.366  0.6992 -0.3472  0.2607
19084TIP3   OH278666   5.188   3.242  15.638 -0.2690 -0.1911 -0.1924
19084TIP3    H178667   5.139   3.185  15.697  0.1920 -0.8647 -0.4506
19084TIP3    H278668   5.207   3.188  15.561  0.0496  0.3504 -0.5039
19085TIP3   OH278669   3.837   6.784   1.492 -0.0951 -0.0882  0.3622
19085TIP3    H178670   3.856   6.690   1.499  1.0640  0.2492  2.4183
19085TIP3    H278671   3.805   6.795   1.402  6.5580 -1.3831 -2.8575
19086TIP3   OH278672   3.396   5.072   2.429 -0.3527  0.0961 -0.0487
19086TIP3    H178673   3.432   5.053   2.515 -0.4454  0.1420  0.0008
19086TIP3    H278674   3.356   5.159   2.438 -0.4005  0.0828 -0.1246
19087TIP3   OH278675   4.262   0.297  17.105 -0.8956  0.0730  0.4125
19087TIP3    H178676   4.259   0.244  17.026  0.3875  0.8097 -0.1516
19087TIP3    H278677   4.175   0.338  17.110 -0.8334  0.3950 -0.8854
19088TIP3   OH278678   5.349   5.566  15.325  0.2775  0.2737  0.3337
19088TIP3    H178679   5.336   5.609  15.410  0.1912  1.8827 -0.4517
19088TIP3    H278680   5.279   5.500  15.320 -2.1971  2.7181 -0.0399
19089TIP3   OH278681   5.870   2.623   2.916 -0.6375 -0.5890  0.5439
19089TIP3    H178682   5.816   2.660   2.846  0.1865  1.2533  0.8307
19089TIP3    H278683   5.953   2.602   2.873 -0.4196 -0.2405  0.7941
19090TIP3   OH278684   2.841   0.058  17.193  0.5665  0.3741 -0.3634
19090TIP3    H178685   2.867   0.006  17.117 -0.9202  1.3425 -1.6003
19090TIP3    H278686   2.903   0.131  17.195  2.0327 -0.8265  0.7841
19091TIP3   OH278687   6.436   3.443   3.383 -0.2225 -0.2112  0.6591
19091TIP3    H178688   6.379   3.384   3.432 -1.4413  0.3206 -0.0850
19091TIP3    H278689   6.394   3.529   3.391 -1.0226 -0.2703 -2.1013
19092TIP3   OH278690   3.260   5.107  12.323 -0.4841 -0.4021  0.1904
19092TIP3    H178691   3.272   5.058  12.241 -2.0937 -1.0264  0.2894
19092TIP3    H278692   3.181   5.158  12.309 -0.7123 -0.4249  1.3051
19093TIP3   OH278693   1.176   1.162   3.668 -0.0543  0.2714  0.0405
19093TIP3    H178694   1.195   1.072   3.694 -0.7165 -0.0663 -0.5920
19093TIP3    H278695   1.232   1.178   3.593 -0.2085  0.2497 -0.0808
19094TIP3   OH278696   3.862   5.421  11.566 -0.2120 -0.5894 -0.2568
19094TIP3    H178697   3.863   5.517  11.569 -0.1892 -0.5874 -0.3220
19094TIP3    H278698   3.933   5.399  11.506 -0.2912 -0.6439 -0.3306
19095TIP3   OH278699   1.267   4.972  16.455  0.5507 -0.5017 -0.2932
19095TIP3    H178700   1.218   4.943  16.378 -0.0185 -0.4504  0.0445
19095TIP3    H278701   1.264   4.898  16.515 -2.7170  0.8481  1.4493
19096TIP3   OH278702   6.104   6.723   0.030 -0.1281 -0.8128  0.5681
19096TIP3    H178703   6.047   6.799   0.019 -1.4428 -1.7095  1.0382
19096TIP3    H278704   6.045   6.648   0.028  0.9064 -1.7106  2.1542
19097TIP3   OH278705   3.379   3.855  14.427  0.5810  0.2458  0.1965
19097TIP3    H178706   3.462   3.811  14.405 -0.1919 -0.9009 -0.5229
19097TIP3    H278707   3.313   3.806  14.378 -0.6568  0.5216  1.5527
19098TIP3   OH278708   0.340   2.577   2.492 -0.2281  0.1001  0.1193
19098TIP3    H178709   0.397   2.615   2.425  0.0585 -0.5575 -0.0233
19098TIP3    H278710   0.264   2.546   2.443 -0.5680  0.7008  0.2670
19099TIP3   OH278711   6.052   1.718  10.692 -0.3412 -0.6733 -0.2147
19099TIP3    H178712   5.986   1.650  10.682 -0.1458 -0.7172 -1.3639
19099TIP3    H278713   6.125   1.689  10.638 -0.2373  0.4097 -0.6893
19100TIP3   OH278714   5.838   4.024  13.262 -0.8187 -0.1906  0.7669
19100TIP3    H178715   5.764   4.080  13.240  0.1196  0.4694 -0.9089
19100TIP3    H278716   5.837   3.956  13.195  1.9363  1.6945 -1.4419
19101TIP3   OH278717   5.120   3.260  10.998  0.6889 -0.6425  0.0398
19101TIP3    H178718   5.154   3.329  11.055  0.9201  0.2750 -1.1952
19101TIP3    H278719   5.141   3.288  10.910 -1.2776 -1.1468 -0.6524
19102TIP3   OH278720   6.031   1.979  12.986  0.4890 -0.0380 -0.0130
19102TIP3    H178721   6.077   1.928  13.052  0.0968  0.4154  0.6262
19102TIP3    H278722   6.013   2.063  13.028 -0.4379 -0.0081 -0.4242
19103TIP3   OH278723   5.090   1.287   2.586 -0.0991 -0.2143  0.5761
19103TIP3    H178724   5.179   1.322   2.589 -0.1391 -0.1560  2.2783
19103TIP3    H278725   5.098   1.198   2.620 -0.5246 -0.6582 -0.4413
19104TIP3   OH278726   2.040   5.160  12.939  0.1641 -0.0199  0.3924
19104TIP3    H178727   1.979   5.224  12.976  1.1749  1.5760 -0.5478
19104TIP3    H278728   2.108   5.151  13.006  0.9627  1.3548 -0.1690
19105TIP3   OH278729   2.092   0.357  16.499  0.4712 -0.1123  0.2684
19105TIP3    H178730   2.036   0.327  16.428  1.8505  0.0393 -0.9144
19105TIP3    H278731   2.158   0.288  16.509  0.3194 -0.1167  1.3886
19106TIP3   OH278732   1.786   3.419   2.701  0.3234  0.0125 -0.2509
19106TIP3    H178733   1.728   3.371   2.761 -0.6386 -1.5725 -2.3044
19106TIP3    H278734   1.742   3.502   2.687 -0.4599 -0.3928 -0.2600
19107TIP3   OH278735   3.461   1.728   1.909  0.6015  0.0921  0.2669
19107TIP3    H178736   3.372   1.700   1.931 -0.2247  0.2755 -2.4920
19107TIP3    H278737   3.512   1.646   1.908 -0.5355 -0.6734 -2.1931
19108TIP3   OH278738   0.763   0.351   1.636 -0.0956  0.6414  0.2220
19108TIP3    H178739   0.679   0.363   1.681 -0.3839  0.4620 -0.2633
19108TIP3    H278740   0.823   0.409   1.683 -0.6417  1.2633  0.1688
19109TIP3   OH278741   5.470   3.874  14.557  0.1684 -0.1261 -0.6509
19109TIP3    H178742   5.395   3.931  14.546 -0.2424 -0.6908 -0.7904
19109TIP3    H278743   5.542   3.933  14.580  0.0911  0.6075 -2.1834
19110TIP3   OH278744   1.152   2.978   0.338  0.2437 -0.7371  0.1145
19110TIP3    H178745   1.151   3.060   0.389 -1.0561 -0.2283 -0.6839
19110TIP3    H278746   1.060   2.960   0.321  0.6267 -1.1832 -1.6135
19111TIP3   OH278747   0.404   1.468   5.316 -0.2831 -0.3725 -0.5226
19111TIP3    H178748   0.315   1.503   5.317  0.5735  1.9212 -0.5366
19111TIP3    H278749   0.394   1.379   5.350 -2.6842 -0.4825 -1.2996
19112TIP3   OH278750   2.495   4.495   4.558  0.1692  0.7409 -0.2244
19112TIP3    H178751   2.432   4.567   4.558 -0.1060  0.5203  0.7027
19112TIP3    H278752   2.487   4.456   4.471 -0.6926  0.9539 -0.2523
19113TIP3   OH278753   1.311   1.518   5.064  0.2483 -0.6858 -0.2636
19113TIP3    H178754   1.284   1.509   4.972 -1.4169  1.7323 -0.1362
19113TIP3    H278755   1.229   1.514   5.113  0.9877 -0.7737  1.0053
19114TIP3   OH278756   6.094   3.408   3.896 -0.3297  0.4191  0.4940
19114TIP3    H178757   6.087   3.312   3.901 -0.9602  0.4361 -0.0284
19114TIP3    H278758   6.017   3.435   3.846 -0.3379  1.2312  0.9359
19115TIP3   OH278759   4.177   5.191  15.780 -0.4500  0.0395 -0.2258
19115TIP3    H178760   4.137   5.193  15.867 -1.1697  1.5382 -0.5603
19115TIP3    H278761   4.264   5.229  15.793 -0.9178  1.1811 -0.3030
19116TIP3   OH278762   5.709   0.855  14.526  0.3946 -0.5804  0.6222
19116TIP3    H178763   5.706   0.765  14.495  0.1124  0.4511 -2.6903
19116TIP3    H278764   5.802   0.877  14.527  0.3451  0.0269 -1.8831
19117TIP3   OH278765   1.725   0.406   6.304  0.2370  0.4263 -0.4310
19117TIP3    H178766   1.732   0.485   6.250  1.7693  1.2860  0.9181
19117TIP3    H278767   1.797   0.350   6.274 -0.1578  0.0158 -0.6311
19118TIP3   OH278768   5.673   2.682  11.974 -0.1713 -0.7981  0.1185
19118TIP3    H178769   5.762   2.665  11.943 -0.7180 -3.0768 -0.3656
19118TIP3    H278770   5.657   2.614  12.040 -1.2276  0.1833  0.9204
19119TIP3   OH278771   5.004   2.030   0.087 -0.1963 -0.0091  0.4057
19119TIP3    H178772   4.973   2.003   0.173 -0.3158 -0.4917  0.2109
19119TIP3    H278773   4.929   2.019   0.029  0.0888 -0.3795  0.0980
19120TIP3   OH278774   6.430   4.015  13.219  0.4490  0.5312  0.1847
19120TIP3    H178775   6.371   4.048  13.151 -0.2917 -0.5394  0.2885
19120TIP3    H278776   6.419   3.920  13.217  3.5465  0.0806 -1.0433
19121TIP3   OH278777   0.942   0.613  14.980 -0.3418 -0.3998 -0.0435
19121TIP3    H178778   1.016   0.670  14.999  0.1069 -1.2103  0.7418
19121TIP3    H278779   0.866   0.670  14.979  0.5186  0.9073 -3.3050
19122TIP3   OH278780   2.948   6.233   1.651  0.4460 -0.0681 -0.5657
19122TIP3    H178781   2.924   6.213   1.741 -0.4445 -0.2031 -0.8258
19122TIP3    H278782   3.044   6.236   1.652  0.4392  0.1045  0.4168
19123TIP3   OH278783   5.310   6.429  14.023  0.0307 -0.0657  0.0928
19123TIP3    H178784   5.347   6.378  13.950  0.1362  0.6886 -0.3954
19123TIP3    H278785   5.226   6.387  14.041 -0.2241  0.0241 -0.8036
19124TIP3   OH278786   6.434   1.511  14.498  0.4771  0.1534  0.1481
19124TIP3    H178787   6.529   1.518  14.482  0.4592  1.5978  0.5891
19124TIP3    H278788   6.413   1.421  14.473  2.3258 -0.8354  1.8580
19125TIP3   OH278789   3.589   5.075   1.278  0.4150  0.2931 -0.4350
19125TIP3    H178790   3.683   5.059   1.287  0.4641  1.1946  0.9545
19125TIP3    H278791   3.580   5.170   1.281 -0.6011  0.1968  0.0731
19126TIP3   OH278792   3.841   5.446  15.095  0.1782  0.0177  0.1455
19126TIP3    H178793   3.921   5.423  15.143  0.8760  0.1407 -0.8941
19126TIP3    H278794   3.789   5.497  15.156  0.3670 -1.0514  1.2308
19127TIP3   OH278795   2.863   0.601  10.976 -0.6634  0.4183  0.1787
19127TIP3    H178796   2.780   0.635  10.942 -1.0990 -1.5111 -0.8502
19127TIP3    H278797   2.855   0.506  10.968  3.2033  0.1016 -4.1224
19128TIP3   OH278798   4.486   0.160   3.626  0.3763  0.5441  0.4602
19128TIP3    H178799   4.549   0.228   3.601 -0.3678  1.4301  0.9038
19128TIP3    H278800   4.530   0.078   3.608  1.3221  1.1487 -0.0616
19129TIP3   OH278801   2.213   1.948   6.123 -0.5873 -0.3436  0.2990
19129TIP3    H178802   2.124   1.913   6.122  0.1084 -2.2774  0.3839
19129TIP3    H278803   2.252   1.908   6.201  1.0904 -1.6481 -1.1190
19130TIP3   OH278804   0.767   0.790  16.197 -0.2077 -0.4261 -0.1969
19130TIP3    H178805   0.781   0.878  16.163  0.8191 -0.7844 -0.7487
19130TIP3    H278806   0.704   0.751  16.136  1.7824 -1.1385 -1.9256
19131TIP3   OH278807   6.202   3.958  16.332  0.1593 -0.3657 -0.0389
19131TIP3    H178808   6.143   3.883  16.326 -0.6556  0.1665  0.9916
19131TIP3    H278809   6.230   3.974  16.242 -0.5384 -1.2141 -0.4200
19132TIP3   OH278810   6.578   0.398  12.934  0.0748 -0.5131 -0.3384
19132TIP3    H178811   6.584   0.488  12.966  2.8744 -0.2910 -1.2139
19132TIP3    H278812   6.630   0.346  12.995 -0.1327 -1.2538 -0.7692
19133TIP3   OH278813   2.774   5.420   2.665  0.3868 -0.8567 -0.1285
19133TIP3    H178814   2.785   5.455   2.754  0.5299 -2.2417  0.4245
19133TIP3    H278815   2.688   5.451   2.638 -0.3455 -1.6755  1.1305
19134TIP3   OH278816   1.875   3.141   4.025 -0.3092  0.3805 -0.0064
19134TIP3    H178817   1.808   3.188   4.074 -0.7673  0.8783 -1.0656
19134TIP3    H278818   1.940   3.116   4.090 -1.4805 -0.0590  1.0396
19135TIP3   OH278819   6.350   3.655  14.336 -0.2053  0.0275  0.3650
19135TIP3    H178820   6.351   3.568  14.376 -2.9873 -0.8088 -1.1232
19135TIP3    H278821   6.333   3.638  14.243  2.0781  2.0792 -0.5340
19136TIP3   OH278822   5.228   2.003  13.231  0.6460 -0.2126  0.2995
19136TIP3    H178823   5.197   1.953  13.306  1.4589 -0.2674  0.6044
19136TIP3    H278824   5.300   2.055  13.264  0.8198 -0.0121 -0.3766
19137TIP3   OH278825   2.169   2.913   4.055 -0.5094 -0.4303 -0.5197
19137TIP3    H178826   2.074   2.905   4.049 -0.8433  2.9358 -1.9844
19137TIP3    H278827   2.202   2.859   3.982 -1.2843 -1.2853 -0.2565
19138TIP3   OH278828   2.607   1.684  11.365 -0.1770 -0.5561 -0.9840
19138TIP3    H178829   2.683   1.626  11.353  0.6694  0.0878  0.7809
19138TIP3    H278830   2.532   1.625  11.364  0.5142 -1.4672 -0.9061
19139TIP3   OH278831   6.498   4.753   2.207 -0.2633 -0.4531 -0.4342
19139TIP3    H178832   6.475   4.718   2.121 -0.1213 -0.3185 -0.5280
19139TIP3    H278833   6.525   4.843   2.189  2.0459 -1.1074 -0.5845
19140TIP3   OH278834   4.690   2.484   3.193  0.4249 -0.3888  0.0270
19140TIP3    H178835   4.761   2.454   3.250  3.7881  3.0704 -1.9103
19140TIP3    H278836   4.705   2.578   3.184 -3.7285  0.3112 -1.6346
19141TIP3   OH278837   2.523   5.568  13.012 -0.1275  0.5446  0.4546
19141TIP3    H178838   2.569   5.543  13.092  0.8824  0.2366 -0.1924
19141TIP3    H278839   2.437   5.597  13.041  0.2063  0.3948  1.6407
19142TIP3   OH278840   0.145   3.190   1.917  0.1300  0.4239 -0.1104
19142TIP3    H178841   0.206   3.117   1.934 -1.6169 -1.3631 -1.1101
19142TIP3    H278842   0.153   3.207   1.823  0.5103  1.5580  0.1104
19143TIP3   OH278843   6.508   2.357  12.911  0.4207 -0.0393  0.4367
19143TIP3    H178844   6.516   2.409  12.991  1.3007 -0.4407  0.6224
19143TIP3    H278845   6.558   2.277  12.930 -2.4223 -1.8408  0.8680
19144TIP3   OH278846   6.699   0.402  14.745  0.8022  0.0438 -0.6394
19144TIP3    H178847   6.777   0.378  14.795  0.8254  0.3873 -0.5076
19144TIP3    H278848   6.726   0.395  14.653  0.8385 -0.3223 -0.6043
19145TIP3   OH278849   2.007   5.804   1.049  0.6517  0.2132 -0.1916
19145TIP3    H178850   2.040   5.728   1.096 -0.4886 -0.8105 -0.9858
19145TIP3    H278851   2.085   5.853   1.025  1.4829 -1.1864 -0.4527
19146TIP3   OH278852   3.847   5.282   2.951  0.6758  0.4104 -0.0845
19146TIP3    H178853   3.849   5.376   2.932 -3.0399  0.4243 -1.2233
19146TIP3    H278854   3.867   5.276   3.044  0.3275  2.4133  0.1548
19147TIP3   OH278855   5.478   1.888   1.612  0.5421 -0.1138  0.1149
19147TIP3    H178856   5.552   1.835   1.640  0.8429  0.5559  0.6089
19147TIP3    H278857   5.420   1.891   1.688  0.8136  0.7608  0.2942
19148TIP3   OH278858   6.195   4.664   3.195  0.2384  0.5541 -0.4507
19148TIP3    H178859   6.228   4.606   3.126  1.8298  0.8205  0.0489
19148TIP3    H278860   6.105   4.635   3.209  1.7796 -4.1442  2.0636
19149TIP3   OH278861   1.432   0.224   5.593  0.4116  0.3974 -0.3361
19149TIP3    H178862   1.526   0.218   5.610  0.2479 -0.1994  0.3787
19149TIP3    H278863   1.405   0.305   5.636  0.7980  1.1939 -1.5382
19150TIP3   OH278864   6.494   6.176  14.374 -0.0334  0.1809  0.2827
19150TIP3    H178865   6.499   6.081  14.363  2.7065  0.2766  0.1625
19150TIP3    H278866   6.579   6.201  14.409 -0.8218  2.5785  0.6771
19151TIP3   OH278867   5.879   2.155   6.014 -0.0014  0.1690  0.2030
19151TIP3    H178868   5.944   2.218   6.046 -0.8761  2.0499 -1.4782
19151TIP3    H278869   5.813   2.151   6.083  1.2030 -0.7295  1.3371
19152TIP3   OH278870   4.742   1.770   4.705  0.1719  0.2712 -0.1212
19152TIP3    H178871   4.737   1.839   4.639 -0.9892 -0.5259 -0.8988
19152TIP3    H278872   4.806   1.802   4.769 -0.7789  2.3307 -0.1393
19153TIP3   OH278873   4.364   4.009  15.908 -0.3901 -0.9323  0.3246
19153TIP3    H178874   4.418   3.960  15.971  0.1762 -0.7761 -0.0318
19153TIP3    H278875   4.385   4.101  15.926  1.4909 -0.9332 -1.5560
19154TIP3   OH278876   0.444   4.263  11.019  0.8964  0.1361  0.1168
19154TIP3    H178877   0.439   4.168  11.024  1.2689  0.1310  0.4861
19154TIP3    H278878   0.353   4.293  11.023  0.8016 -0.1873  0.4582
19155TIP3   OH278879   1.739   1.810   4.933 -0.0120 -1.0043 -0.1327
19155TIP3    H178880   1.747   1.774   5.022  0.3906 -0.8401 -0.1007
19155TIP3    H278881   1.815   1.867   4.924 -1.2081  0.6961  0.2001
19156TIP3   OH278882   1.450   2.884  16.362 -0.0625 -0.3849  0.3180
19156TIP3    H178883   1.388   2.938  16.314  1.3460 -0.2192 -1.3955
19156TIP3    H278884   1.475   2.937  16.438 -0.4656  0.3686 -0.0664
19157TIP3   OH278885   1.881   6.632   4.221  0.5516 -0.3179 -0.1090
19157TIP3    H178886   1.828   6.665   4.149  0.4247  0.0600  0.1606
19157TIP3    H278887   1.911   6.710   4.268  0.4582 -0.5693  0.3758
19158TIP3   OH278888   1.485   6.222  10.881  0.2114  0.8955 -0.2943
19158TIP3    H178889   1.494   6.264  10.796 -0.8082 -1.6084 -1.7569
19158TIP3    H278890   1.391   6.213  10.894  0.3645  0.9245  0.9363
19159TIP3   OH278891   3.058   2.051  13.885 -0.1689  0.2715 -0.4841
19159TIP3    H178892   2.963   2.044  13.894  0.0311 -0.0567  1.8539
19159TIP3    H278893   3.073   2.141  13.856 -1.1890  0.3132 -0.9118
19160TIP3   OH278894   2.464   1.490  11.735  0.2041 -0.3780  0.1669
19160TIP3    H178895   2.399   1.558  11.718 -0.5263 -1.2144 -0.5084
19160TIP3    H278896   2.495   1.464  11.649  1.1010 -0.3174  0.4618
19161TIP3   OH278897   3.448   4.538   4.361  0.2738  0.1952  0.7550
19161TIP3    H178898   3.446   4.444   4.345  0.9455  0.4994 -1.3963
19161TIP3    H278899   3.533   4.554   4.402  0.8550  0.0531 -0.3682
19162TIP3   OH278900   4.192   4.462   4.315  0.4875  0.0524 -0.1435
19162TIP3    H178901   4.207   4.383   4.262  0.0902  0.0161 -0.2057
19162TIP3    H278902   4.258   4.525   4.284 -0.9712  0.7144 -2.0643
19163TIP3   OH278903   6.470   1.724  12.233  0.2214  0.1497 -0.0530
19163TIP3    H178904   6.421   1.642  12.235 -0.3422  0.5001  0.9811
19163TIP3    H278905   6.562   1.697  12.241 -0.0084 -0.3523  1.1671
19164TIP3   OH278906   2.119   5.711   1.369  0.2614  0.4610  0.2779
19164TIP3    H178907   2.156   5.793   1.402  2.8193 -0.1971 -0.6706
19164TIP3    H278908   2.173   5.642   1.410  0.7640 -0.5322 -1.9059
19165TIP3   OH278909   1.294   1.738  14.496 -0.2215  0.0127 -0.3250
19165TIP3    H178910   1.238   1.731  14.419  1.3627 -0.2980 -1.5004
19165TIP3    H278911   1.342   1.655  14.499  2.4707  1.3736 -1.2934
19166TIP3   OH278912   2.010   0.889   5.433 -0.8505 -0.0887  0.2796
19166TIP3    H178913   1.973   0.828   5.497  0.2823  0.5871  1.6242
19166TIP3    H278914   2.031   0.967   5.483  1.2738 -0.0047 -0.6159
19167TIP3   OH278915   4.419   1.608   1.398  0.0155 -0.1598  0.0044
19167TIP3    H178916   4.409   1.525   1.445 -0.3291  0.8231  1.7421
19167TIP3    H278917   4.341   1.613   1.343 -1.3594  0.1953  1.8833
19168TIP3   OH278918   1.175   3.726  12.904 -0.4319 -0.0237  0.6456
19168TIP3    H178919   1.226   3.671  12.964  2.0437  1.4354 -0.0210
19168TIP3    H278920   1.150   3.666  12.834 -0.0354 -0.8886  1.2191
19169TIP3   OH278921   2.604   1.532  13.955  0.2139 -1.0978  0.1594
19169TIP3    H178922   2.634   1.617  13.989  2.0212 -1.2318 -0.9506
19169TIP3    H278923   2.511   1.530  13.974  0.4270  0.4535  1.6309
19170TIP3   OH278924   4.078   5.293   2.237 -0.0402  0.2933 -0.7288
19170TIP3    H178925   4.070   5.252   2.323 -0.9881  2.5460  0.3465
19170TIP3    H278926   4.090   5.386   2.256  0.0347  0.8202 -3.0507
19171TIP3   OH278927   2.167   3.684   1.883  0.6487  0.4647  0.1815
19171TIP3    H178928   2.102   3.721   1.824  1.4691  1.8803  0.1211
19171TIP3    H278929   2.126   3.605   1.918 -0.8803  1.0388 -0.2480
19172TIP3   OH278930   0.888   4.768  11.550 -0.4669 -0.0889  0.1584
19172TIP3    H178931   0.982   4.781  11.535 -0.3448  1.5479  1.9803
19172TIP3    H278932   0.877   4.779  11.645 -2.5255 -0.0988 -0.0354
19173TIP3   OH278933   5.596   3.572  11.530 -0.1437  0.5240  0.4478
19173TIP3    H178934   5.551   3.569  11.446  1.0478 -1.5403 -0.1892
19173TIP3    H278935   5.547   3.511  11.586  1.9122 -2.0938 -0.3842
19174TIP3   OH278936   0.727   4.490  15.774  0.2361  0.7259  0.0856
19174TIP3    H178937   0.768   4.470  15.858  0.1012  0.8351  0.1782
19174TIP3    H278938   0.655   4.549  15.796  0.1871  0.7381 -0.1045
19175TIP3   OH278939   1.089   0.240  11.944 -0.5187 -0.3310 -0.5965
19175TIP3    H178940   1.180   0.211  11.945 -0.1026  0.7920  1.7143
19175TIP3    H278941   1.046   0.184  11.880  2.0130 -0.1417 -2.6100
19176TIP3   OH278942   0.355   4.747  16.463  0.4893 -0.4937  0.4728
19176TIP3    H178943   0.368   4.669  16.408 -0.2768  0.1836 -0.7054
19176TIP3    H278944   0.418   4.811  16.429  1.2387 -0.6318  1.5538
19177TIP3   OH278945   1.838   3.202  11.763 -0.6523  0.4688 -0.7167
19177TIP3    H178946   1.830   3.107  11.763 -2.0891  0.5734 -0.4363
19177TIP3    H278947   1.851   3.225  11.856 -0.8284  0.5870 -0.7209
19178TIP3   OH278948   2.855   2.083   2.299 -0.5487  0.1569 -0.6777
19178TIP3    H178949   2.827   2.174   2.313 -0.4023  0.2423 -0.9466
19178TIP3    H278950   2.856   2.072   2.204 -2.4793 -0.7095 -0.6481
19179TIP3   OH278951   6.022   5.655  15.572  0.7756 -0.9730 -0.3248
19179TIP3    H178952   6.057   5.735  15.611  3.1664 -0.9691 -2.2512
19179TIP3    H278953   5.935   5.680  15.540  0.3005  0.0061  1.5744
19180TIP3   OH278954   2.409   1.073   4.642  0.1136  0.5525 -0.7326
19180TIP3    H178955   2.492   1.040   4.677 -0.3275  0.0850 -0.1024
19180TIP3    H278956   2.428   1.164   4.619  0.3221  1.0629  1.2200
19181TIP3   OH278957   3.987   5.601   2.487  0.2671 -0.0626  0.1942
19181TIP3    H178958   4.053   5.595   2.418  0.4586  0.1716  0.3579
19181TIP3    H278959   4.000   5.687   2.526  1.1117 -0.7404  1.4853
19182TIP3   OH278960   0.395   1.842  12.902  0.3410 -0.2114 -0.0856
19182TIP3    H178961   0.358   1.812  12.819 -4.4519  1.7797  1.0020
19182TIP3    H278962   0.360   1.781  12.967 -0.7436  1.4601  0.9759
19183TIP3   OH278963   5.491   5.947   4.527 -0.1329  0.0934  0.2608
19183TIP3    H178964   5.508   5.991   4.444 -1.4221  0.2246  0.0474
19183TIP3    H278965   5.423   6.000   4.570 -0.2555 -0.5662  0.9086
19184TIP3   OH278966   1.884   5.362   4.517  0.1856  0.2687 -0.3489
19184TIP3    H178967   1.848   5.308   4.587 -0.3549 -1.6172 -1.9911
19184TIP3    H278968   1.978   5.361   4.532  0.2030 -1.3063 -0.4202
19185TIP3   OH278969   6.522   1.353   3.868 -0.8280  0.1021 -0.0125
19185TIP3    H178970   6.542   1.280   3.925 -1.1646 -0.2556 -0.3525
19185TIP3    H278971   6.537   1.319   3.779  0.3374  0.8347 -0.1319
19186TIP3   OH278972   4.800   6.540  12.967  0.7343 -0.1056 -0.0143
19186TIP3    H178973   4.859   6.560  12.894  0.0015 -2.8618 -1.5251
19186TIP3    H278974   4.853   6.487  13.027  0.7439  0.3384  0.3700
19187TIP3   OH278975   2.171   4.113   1.102  0.4825  0.5667  0.1305
19187TIP3    H178976   2.116   4.042   1.067  1.4055  1.0732 -2.6467
19187TIP3    H278977   2.109   4.171   1.147 -0.7714 -0.4464 -0.2019
19188TIP3   OH278978   6.799   1.516   1.275  0.3306 -0.2173  0.2606
19188TIP3    H178979   6.861   1.565   1.221  1.6759 -1.6992  0.3973
19188TIP3    H278980   6.794   1.567   1.356  2.1885 -0.5633  0.6464
19189TIP3   OH278981   6.710   0.767   1.715 -0.2663  0.9464  0.0869
19189TIP3    H178982   6.713   0.849   1.666  0.7484  0.2666 -1.0455
19189TIP3    H278983   6.782   0.715   1.678  0.1815  0.1919  1.9361
19190TIP3   OH278984   6.001   1.581   4.366 -0.4566  0.7563  0.8297
19190TIP3    H178985   5.961   1.600   4.281  0.4610 -1.3885 -0.1762
19190TIP3    H278986   6.093   1.606   4.355 -0.2496  0.1150  1.0360
19191TIP3   OH278987   1.473   6.580   0.662 -0.4350 -0.3884  0.1363
19191TIP3    H178988   1.510   6.507   0.614  3.0306  0.2574  1.5320
19191TIP3    H278989   1.457   6.647   0.596  1.7990 -0.4193 -0.4991
19192TIP3   OH278990   1.935   2.259  12.406  0.5049 -0.0971 -0.0190
19192TIP3    H178991   1.928   2.175  12.451  3.6069 -0.4677  0.0020
19192TIP3    H278992   1.899   2.323  12.467  0.9354 -1.0669  1.2789
19193TIP3   OH278993   5.037   4.739   5.140  0.3283  0.1737  0.3671
19193TIP3    H178994   5.006   4.760   5.228 -0.8692  0.5473 -0.1237
19193TIP3    H278995   5.043   4.644   5.139  1.6701  0.2254  1.2692
19194TIP3   OH278996   0.738   3.949  13.149 -0.5041 -0.1599  0.1939
19194TIP3    H178997   0.785   3.874  13.111  0.7950  0.6381  0.1493
19194TIP3    H278998   0.734   4.013  13.078  0.9333  0.8969  0.9950
19195TIP3   OH278999   3.163   1.672  16.497  0.3616 -0.7298  0.0505
19195TIP3    H179000   3.152   1.598  16.437  1.3831 -0.8732  0.0274
19195TIP3    H279001   3.186   1.746  16.440  0.6092 -0.6931  0.1981
19196TIP3   OH279002   5.702   2.725  13.702  0.6483  0.3760 -0.3933
19196TIP3    H179003   5.637   2.665  13.739  0.4453  0.6648 -0.2816
19196TIP3    H279004   5.775   2.723  13.764  0.3721  0.7427 -0.0515
19197TIP3   OH279005   2.194   1.553   0.338  0.1115 -0.3543  0.0053
19197TIP3    H179006   2.180   1.638   0.297  0.7636 -0.6175 -0.7813
19197TIP3    H279007   2.221   1.495   0.267  2.1682 -0.6095  0.9211
19198TIP3   OH279008   4.822   0.187   4.601 -0.1241  0.2422 -0.1338
19198TIP3    H179009   4.825   0.181   4.506  1.1731 -1.3418 -0.0314
19198TIP3    H279010   4.912   0.173   4.629 -0.5709  0.1649  1.3570
19199TIP3   OH279011   2.881   0.301  15.088  0.5181 -0.1155  0.4005
19199TIP3    H179012   2.972   0.304  15.057 -0.2048  0.4839 -1.7906
19199TIP3    H279013   2.870   0.384  15.134  0.4249  0.9279 -1.4180
19200TIP3   OH279014   0.714   4.873  15.303  0.4900 -0.2369 -0.0447
19200TIP3    H179015   0.810   4.874  15.292  0.4172 -2.3008 -1.3578
19200TIP3    H279016   0.689   4.782  15.288 -1.6669  0.1800  0.6930
19201TIP3   OH279017   4.058   3.540  13.211 -0.0914 -0.5438  0.1323
19201TIP3    H179018   4.070   3.465  13.153  0.4458 -0.3425 -0.0230
19201TIP3    H279019   4.138   3.591  13.201 -0.4569  0.0540  0.2356
19202TIP3   OH279020   0.913   2.625  10.773  0.5419  0.1532  0.5827
19202TIP3    H179021   0.992   2.622  10.720  0.5939 -0.0488  0.6701
19202TIP3    H279022   0.850   2.569  10.727  0.6192 -0.1006  0.7856
19203TIP3   OH279023   3.830   1.190  14.761  0.3043 -0.0199  0.3527
19203TIP3    H179024   3.741   1.224  14.769 -0.1305 -1.0572  0.1561
19203TIP3    H279025   3.857   1.215  14.673 -0.1110 -0.4050  0.1103
19204TIP3   OH279026   2.072   2.375   3.399 -0.5478 -0.3613  1.1200
19204TIP3    H179027   2.077   2.432   3.476  0.8024  3.2702 -1.3812
19204TIP3    H279028   2.000   2.410   3.347 -0.2009 -1.4410 -0.1741
19205TIP3   OH279029   5.379   1.334   1.564 -0.2770  0.1081  0.3746
19205TIP3    H179030   5.312   1.339   1.632 -1.4577 -0.2875 -0.7299
19205TIP3    H279031   5.339   1.374   1.487  1.4260  1.5537  0.1647
19206TIP3   OH279032   2.144   6.060   4.410  0.2877  0.7103 -0.2811
19206TIP3    H179033   2.055   6.029   4.420  0.4903  0.6100  1.6002
19206TIP3    H279034   2.178   6.066   4.500  2.3252  0.2672 -0.9571
19207TIP3   OH279035   4.928   3.746   5.402  0.3052 -1.0288 -0.1335
19207TIP3    H179036   4.908   3.804   5.329 -2.2068 -1.3347  0.2392
19207TIP3    H279037   4.928   3.658   5.364  0.0964 -1.1008  0.0313
19208TIP3   OH279038   4.853   4.792   3.445  0.3479 -0.8557 -0.2952
19208TIP3    H179039   4.761   4.811   3.427  0.1322  0.2948  1.8210
19208TIP3    H279040   4.901   4.864   3.404  0.0408  0.3152  1.3107
19209TIP3   OH279041   5.805   4.311  12.645 -0.4962 -0.1744  0.2343
19209TIP3    H179042   5.826   4.404  12.646 -0.0489 -0.2666 -0.2327
19209TIP3    H279043   5.733   4.302  12.708  0.7570  0.1804  1.7955
19210TIP3   OH279044   0.974   0.326  17.067 -0.2750 -0.2879  0.9435
19210TIP3    H179045   1.029   0.288  16.998 -3.1330 -0.5107 -1.4458
19210TIP3    H279046   1.028   0.395  17.105  0.8138  1.4833 -3.1737
19211TIP3   OH279047   5.759   5.002  12.551 -0.1792 -0.0809  0.1508
19211TIP3    H179048   5.834   5.039  12.598  0.3890 -0.3557 -0.5224
19211TIP3    H279049   5.722   5.076  12.503 -1.6697  0.5526  2.1196
19212TIP3   OH279050   4.676   5.907   0.566  0.5226  0.4265 -0.6632
19212TIP3    H179051   4.653   5.933   0.655 -0.7822 -0.1380 -0.8094
19212TIP3    H279052   4.596   5.868   0.531  2.1921 -3.6137 -0.5553
19213TIP3   OH279053   3.591   0.488   3.325 -0.1236 -0.4196  0.6618
19213TIP3    H179054   3.505   0.516   3.295 -0.0614 -1.8174 -0.9743
19213TIP3    H279055   3.578   0.464   3.417 -1.0437  1.0476  0.9511
19214TIP3   OH279056   3.866   5.276   4.372 -0.0177  0.2816  0.5492
19214TIP3    H179057   3.881   5.255   4.464  1.0938 -2.3156 -0.1279
19214TIP3    H279058   3.812   5.203   4.339 -0.0008  0.9063 -0.9494
19215TIP3   OH279059   4.288   3.189  13.471 -0.1050  0.3451  0.3155
19215TIP3    H179060   4.247   3.103  13.459  0.6129  0.1633 -1.0998
19215TIP3    H279061   4.222   3.242  13.515 -0.4830 -0.9847  1.3965
19216TIP3   OH279062   0.577   2.744   4.393 -0.1236  0.5306  0.2233
19216TIP3    H179063   0.666   2.762   4.424  0.4573 -0.7671 -0.6524
19216TIP3    H279064   0.588   2.689   4.316 -1.6564  1.2928 -0.5888
19217TIP3   OH279065   6.514   0.896  11.986  0.2593  0.5631 -0.5534
19217TIP3    H179066   6.552   0.836  11.922 -1.1695 -1.2589  0.2038
19217TIP3    H279067   6.449   0.946  11.936  1.1016  1.1384 -1.0870
19218TIP3   OH279068   2.758   2.700  16.709  0.1445 -0.0595 -0.4814
19218TIP3    H179069   2.684   2.664  16.660  0.6662 -3.5722  1.0040
19218TIP3    H279070   2.834   2.681  16.654  0.1545  2.3530 -1.3953
19219TIP3   OH279071   3.932   2.888   2.815  0.4340  0.1434  0.1084
19219TIP3    H179072   3.986   2.814   2.841  1.0591  0.4697 -0.2310
19219TIP3    H279073   3.992   2.963   2.816  0.2655  0.3232 -1.3273
19220TIP3   OH279074   3.181   5.449  13.620  0.0595 -0.1007  0.5705
19220TIP3    H179075   3.246   5.431  13.552  0.0101  1.9400 -0.0780
19220TIP3    H279076   3.112   5.384  13.604  0.3519 -0.0813 -0.9359
19221TIP3   OH279077   0.502   4.016   5.613  0.5299  0.0493 -0.4276
19221TIP3    H179078   0.550   3.976   5.540  2.7355  1.1671  0.3294
19221TIP3    H279079   0.456   4.089   5.572 -1.5215 -1.6567 -1.3599
19222TIP3   OH279080   1.787   6.339  15.075 -0.1354 -0.2598 -0.9188
19222TIP3    H179081   1.787   6.245  15.061  0.9437 -0.3874 -0.2235
19222TIP3    H279082   1.877   6.359  15.102 -1.0788  0.5049  1.9499
19223TIP3   OH279083   2.564   3.095  11.174 -0.1093 -0.2405  0.2646
19223TIP3    H179084   2.483   3.146  11.171 -0.8516 -1.4032 -0.0410
19223TIP3    H279085   2.633   3.161  11.185 -0.9016  0.9301 -1.3686
19224TIP3   OH279086   3.702   1.556   3.829  0.5114  0.4466 -0.2165
19224TIP3    H179087   3.711   1.521   3.917  2.8433 -2.7326 -1.4882
19224TIP3    H279088   3.766   1.627   3.824  3.0780 -1.7196 -0.2265
19225TIP3   OH279089   1.170   5.149  11.684 -0.0665 -0.2466  0.4693
19225TIP3    H179090   1.074   5.147  11.690 -0.1069  1.1954  0.7514
19225TIP3    H279091   1.200   5.101  11.761 -0.5742 -0.0054  0.8233
19226TIP3   OH279092   3.555   1.362  17.025 -0.2770 -0.0046 -0.1652
19226TIP3    H179093   3.626   1.316  16.980  0.4162  1.3284 -0.5015
19226TIP3    H279094   3.600   1.433  17.073 -1.3223  0.5217  0.0584
19227TIP3   OH279095   4.482   2.477   1.775  0.1845  0.0803  0.6745
19227TIP3    H179096   4.442   2.509   1.694  0.7558 -0.7895  0.0178
19227TIP3    H279097   4.510   2.388   1.753  0.1077 -0.2616  1.9250
19228TIP3   OH279098   1.676   4.228   4.549  0.3972 -0.2847 -0.0844
19228TIP3    H179099   1.630   4.289   4.492  0.0923  1.3278  1.7631
19228TIP3    H279100   1.611   4.160   4.570 -0.8076  1.2452  1.4168
19229TIP3   OH279101   2.346   3.572  14.078  0.2780  0.5845 -0.2029
19229TIP3    H179102   2.315   3.491  14.119  0.9696  0.4924  0.1608
19229TIP3    H279103   2.268   3.611  14.039 -0.2229  0.2003  0.4050
19230TIP3   OH279104   1.237   2.401  16.617 -0.0421  0.2770  0.0262
19230TIP3    H179105   1.286   2.477  16.648  0.5670  0.1869 -0.6768
19230TIP3    H279106   1.151   2.409  16.658  0.3981  0.7138  0.8760
19231TIP3   OH279107   4.358   3.463  16.150 -0.3277 -0.1071 -0.7207
19231TIP3    H179108   4.349   3.491  16.241  2.3143  0.7044 -0.6202
19231TIP3    H279109   4.426   3.395  16.153 -0.3126 -0.1698 -2.0718
19232TIP3   OH279110   5.338   3.028  11.568  0.1822  0.1208  0.1361
19232TIP3    H179111   5.286   3.089  11.620 -2.7424 -2.1875  0.1538
19232TIP3    H279112   5.320   3.052  11.477  0.2090  0.1900  0.1486
19233TIP3   OH279113   3.239   4.127   2.105  1.3909 -0.1045  0.5034
19233TIP3    H179114   3.254   4.033   2.099 -1.8753 -0.6533 -1.1252
19233TIP3    H279115   3.294   4.165   2.036  2.4043 -0.8443  0.8894
19234TIP3   OH279116   5.409   0.729  14.866 -0.0477 -0.1003  0.2214
19234TIP3    H179117   5.478   0.670  14.896 -0.6764  0.2772  2.6152
19234TIP3    H279118   5.456   0.804  14.829  0.7875 -0.7918 -0.1413
19235TIP3   OH279119   1.947   0.081  13.002  0.8752 -0.1040  0.5382
19235TIP3    H179120   2.019   0.039  12.956  0.5171 -1.6914  1.3500
19235TIP3    H279121   1.898   0.127  12.934  1.2873 -1.0277 -0.4018
19236TIP3   OH279122   1.848   6.506  17.062  0.3601 -0.2663 -0.5822
19236TIP3    H179123   1.937   6.481  17.037  0.4550  0.1618 -0.6825
19236TIP3    H279124   1.834   6.590  17.019  1.0968  1.3061  2.0101
19237TIP3   OH279125   2.105   1.042  14.900 -0.4336  0.0584 -0.4774
19237TIP3    H179126   2.044   1.019  14.831  1.0443 -2.2332 -1.1412
19237TIP3    H279127   2.159   1.113  14.863 -1.7178  1.1119 -0.3941
19238TIP3   OH279128   4.125   1.731   4.616 -0.1903  0.4731 -0.5515
19238TIP3    H179129   4.047   1.768   4.658  0.1388  0.0827  0.4336
19238TIP3    H279130   4.198   1.777   4.658  0.1812 -0.5281 -0.0823
19239TIP3   OH279131   2.859   4.546   0.717  0.3623 -0.9038 -0.0475
19239TIP3    H179132   2.844   4.610   0.649 -1.9051 -1.3287 -0.0268
19239TIP3    H279133   2.953   4.549   0.734  0.7442  0.2063 -2.1698
19240TIP3   OH279134   6.744   1.749  16.145 -0.3803  0.2576  0.2472
19240TIP3    H179135   6.753   1.828  16.197  0.3243  0.1218  0.3456
19240TIP3    H279136   6.778   1.773  16.059 -1.8447  0.5787 -0.2692
19241TIP3   OH279137   3.154   5.766  13.992  0.5784  0.5371  0.1879
19241TIP3    H179138   3.078   5.740  13.939 -0.7031  2.1396  1.1516
19241TIP3    H279139   3.229   5.756  13.933 -0.6472  1.1064 -1.5413
19242TIP3   OH279140   4.584   0.694  13.960  0.6030 -0.3412  0.0075
19242TIP3    H179141   4.652   0.648  14.009  0.7906 -1.4832 -1.2751
19242TIP3    H279142   4.508   0.636  13.964  0.0171  0.4404  0.5356
19243TIP3   OH279143   0.479   5.089   5.397 -0.5058  0.3964 -0.1371
19243TIP3    H179144   0.435   5.061   5.317 -2.4440 -0.2664  1.0870
19243TIP3    H279145   0.425   5.160   5.431 -0.0672  0.2610  0.8995
19244TIP3   OH279146   4.678   5.216   0.646 -0.1882 -0.0837 -0.0252
19244TIP3    H179147   4.663   5.207   0.740 -0.6840 -1.6259 -0.2120
19244TIP3    H279148   4.665   5.309   0.628 -2.2590 -0.1067  1.0797
19245TIP3   OH279149   3.372   2.566   0.436  0.2206 -0.2487 -0.0436
19245TIP3    H179150   3.331   2.513   0.368  2.1818 -2.4489  0.3238
19245TIP3    H279151   3.460   2.529   0.445  0.8831  1.5800  1.9615
19246TIP3   OH279152   5.447   3.774   4.500  0.2782 -0.3022  0.6530
19246TIP3    H179153   5.498   3.779   4.581 -0.5490 -1.5138  1.2950
19246TIP3    H279154   5.449   3.681   4.477  1.4599  0.1942 -1.3827
19247TIP3   OH279155   3.092   1.174  14.947  0.2701 -0.0708 -0.3564
19247TIP3    H179156   3.140   1.231  15.008 -0.0704  0.1378 -0.2832
19247TIP3    H279157   3.044   1.113  15.004  0.0507  0.0430 -0.4218
19248TIP3   OH279158   2.935   0.072  11.843  0.5131 -0.1755 -0.4869
19248TIP3    H179159   2.897   0.055  11.929  2.6228  1.5024  0.8656
19248TIP3    H279160   2.909   0.163  11.823 -0.3551 -0.6995 -1.8835
19249TIP3   OH279161   1.970   5.705  13.842 -0.1550 -0.2234 -0.8309
19249TIP3    H179162   2.011   5.714  13.928 -0.1976  1.4087 -0.9469
19249TIP3    H279163   2.029   5.751  13.783 -1.3417  0.8105 -1.2593
19250TIP3   OH279164   4.574   0.048  10.596 -0.0915 -0.2910  0.2450
19250TIP3    H179165   4.576   0.129  10.647 -0.7978 -0.1784  0.0957
19250TIP3    H279166   4.633  -0.011  10.644 -0.5755 -0.1183  1.0759
19251TIP3   OH279167   4.275   3.807   0.439 -0.6429 -0.7733  0.2935
19251TIP3    H179168   4.302   3.844   0.355 -1.4488  1.1598  0.8457
19251TIP3    H279169   4.253   3.716   0.419  2.4810 -1.4127 -0.9013
19252TIP3   OH279170   5.117   0.040  13.533  0.1270  0.4206  0.0436
19252TIP3    H179171   5.133   0.134  13.534  0.2680  0.3946  0.2556
19252TIP3    H279172   5.138   0.013  13.444  0.2187  0.5667  0.0208
19253TIP3   OH279173   2.243   6.581  15.679  0.0777 -0.1515 -0.4696
19253TIP3    H179174   2.154   6.605  15.707 -0.1429 -0.4256 -0.9213
19253TIP3    H279175   2.262   6.639  15.605  1.9318  2.8646  2.1354
19254TIP3   OH279176   2.953   4.224   4.159  0.8613 -0.3002 -0.6542
19254TIP3    H179177   2.869   4.263   4.183  1.3888 -0.8270  2.4110
19254TIP3    H279178   2.982   4.275   4.083 -0.7133  2.0013  0.1798
19255TIP3   OH279179   2.057   5.249   5.834  0.2359  0.2323 -0.0064
19255TIP3    H179180   2.015   5.272   5.751  0.9149 -1.3848 -0.8381
19255TIP3    H279181   2.144   5.219   5.810  1.1968  1.6203  1.5045
19256TIP3   OH279182   3.209   5.761  15.335  0.1134  0.5441  0.1940
19256TIP3    H179183   3.185   5.701  15.265  0.5987  1.9459 -1.2394
19256TIP3    H279184   3.168   5.725  15.414 -0.5262 -1.0233 -0.8228
19257TIP3   OH279185   3.588   1.054  12.541  0.4528 -0.2106  0.1971
19257TIP3    H179186   3.497   1.029  12.553  0.5729  0.2234  2.6086
19257TIP3    H279187   3.584   1.143  12.507 -0.0638  0.1485  1.1533
19258TIP3   OH279188   2.710   4.356   4.172  0.1792 -0.1691 -0.5637
19258TIP3    H179189   2.742   4.439   4.136  0.7444 -0.3608 -0.5225
19258TIP3    H279190   2.628   4.378   4.215  0.2366  0.3359 -0.7071
19259TIP3   OH279191   4.176   5.762  13.489 -0.3909 -0.1676  0.6235
19259TIP3    H179192   4.191   5.795  13.401 -0.8540 -2.3545 -0.3278
19259TIP3    H279193   4.264   5.741  13.522 -0.3215 -0.5217  0.2091
19260TIP3   OH279194   0.328   6.705  10.812 -0.3511  0.0409  0.1580
19260TIP3    H179195   0.323   6.617  10.774 -2.8842 -0.3966  1.3249
19260TIP3    H279196   0.345   6.762  10.738 -0.0660 -1.2832 -0.8362
19261TIP3   OH279197   1.110   1.054  10.779 -0.0521 -0.8172 -0.2323
19261TIP3    H179198   1.089   1.053  10.686 -0.7677 -1.1588 -0.0780
19261TIP3    H279199   1.163   0.976  10.793  0.4743 -0.4984 -0.4432
19262TIP3   OH279200   3.570   4.091  12.586  0.6941  0.3049 -0.0232
19262TIP3    H179201   3.619   4.056  12.511 -0.5282 -2.3054  0.2980
19262TIP3    H279202   3.478   4.077  12.564  0.1332  2.4879  0.6397
19263TIP3   OH279203   2.256   4.835  11.717  0.9825 -0.0614 -0.0983
19263TIP3    H179204   2.175   4.876  11.689  0.6365 -1.0124 -0.5395
19263TIP3    H279205   2.232   4.790  11.798  1.2334  0.1854  0.1147
19264TIP3   OH279206   6.327   0.249  11.227 -0.3013 -0.5631 -0.0925
19264TIP3    H179207   6.368   0.334  11.244 -1.8005 -0.0324  0.9885
19264TIP3    H279208   6.369   0.218  11.146  0.7019  0.9104 -0.1634
19265TIP3   OH279209   3.264   1.180   2.500 -0.0235  0.0983  0.0469
19265TIP3    H179210   3.296   1.250   2.557 -0.5880 -0.5066  1.1397
19265TIP3    H279211   3.326   1.178   2.427  2.4459 -0.9652  2.0178
19266TIP3   OH279212   4.744   4.066  14.865  0.0915 -0.2045 -0.1796
19266TIP3    H179213   4.776   3.981  14.897  1.5919  0.5716  0.4984
19266TIP3    H279214   4.784   4.076  14.779 -1.1772 -0.7567 -0.8595
19267TIP3   OH279215   2.006   4.612   1.420 -0.1551  0.3455 -0.1446
19267TIP3    H179216   2.009   4.707   1.430 -0.4332  0.3446 -0.0167
19267TIP3    H279217   1.916   4.594   1.392 -0.1149  0.1160 -0.1304
19268TIP3   OH279218   2.290   0.550   3.797 -0.0326  0.2749 -0.4071
19268TIP3    H179219   2.291   0.645   3.804 -1.1307  0.2663  0.0558
19268TIP3    H279220   2.221   0.531   3.734  1.8642 -0.1491 -2.4776
19269TIP3   OH279221   5.025   6.219  16.790 -0.0484 -0.2849 -0.2442
19269TIP3    H179222   5.045   6.159  16.718 -1.2976 -0.0405 -0.8222
19269TIP3    H279223   5.068   6.301  16.766 -1.0426  0.0185 -1.1179
19270TIP3   OH279224   1.044   6.467   5.256  0.3303 -0.5780 -0.6436
19270TIP3    H179225   1.040   6.515   5.173  2.2989  1.5754  0.3829
19270TIP3    H279226   1.128   6.493   5.294 -0.2893 -1.8828  1.8088
19271TIP3   OH279227   0.138   5.659   3.939  0.5293  0.4987  0.1919
19271TIP3    H179228   0.204   5.728   3.933  0.4382  0.4717 -2.7392
19271TIP3    H279229   0.094   5.660   3.854 -0.5969 -2.0944  0.6274
19272TIP3   OH279230   5.791   5.823  12.103  0.3531 -0.4312  0.1751
19272TIP3    H179231   5.809   5.744  12.153  0.4400  1.2722  3.0423
19272TIP3    H279232   5.699   5.842  12.120 -0.0218 -0.5371 -1.5152
19273TIP3   OH279233   0.763   6.563   2.647  0.0752  0.1740  0.3756
19273TIP3    H179234   0.796   6.540   2.561  0.2944 -0.2952  0.5829
19273TIP3    H279235   0.748   6.658   2.642  0.6682  0.2563  0.0225
19274TIP3   OH279236   3.975   2.477   1.888 -0.0959  0.1342 -0.0072
19274TIP3    H179237   4.039   2.453   1.955  1.5284  3.9239  0.0862
19274TIP3    H279238   3.920   2.542   1.930 -1.0058  0.3587 -1.4953
19275TIP3   OH279239   6.613   2.380  11.732  0.3023  0.1132  1.1742
19275TIP3    H179240   6.673   2.450  11.755  1.4854  0.2062 -1.8086
19275TIP3    H279241   6.669   2.308  11.702 -0.9826 -0.8757  1.0346
19276TIP3   OH279242   3.744   4.645  13.206 -0.4964  0.9447  0.3749
19276TIP3    H179243   3.666   4.693  13.178 -2.6787 -0.2500  3.8419
19276TIP3    H279244   3.769   4.685  13.289  0.0543 -1.2723  1.3518
19277TIP3   OH279245   3.436   6.321   6.428  0.0647  0.5425  0.2118
19277TIP3    H179246   3.462   6.388   6.490 -0.0739 -0.4378  1.3734
19277TIP3    H279247   3.484   6.342   6.348 -0.1252  2.1060  0.4874
19278TIP3   OH279248   5.748   2.762  17.026  0.1286  0.1027 -0.3203
19278TIP3    H179249   5.808   2.702  17.070 -2.8104 -2.2726  0.7713
19278TIP3    H279250   5.726   2.827  17.092  0.5733  0.2945 -0.3569
19279TIP3   OH279251   1.392   4.192  13.299 -0.5657 -0.5020 -0.2208
19279TIP3    H179252   1.427   4.202  13.210 -0.4800  0.2153 -0.1116
19279TIP3    H279253   1.454   4.133  13.343 -1.2705 -1.8732 -0.9879
19280TIP3   OH279254   3.217   2.183  13.488  0.0063  0.0358  0.2122
19280TIP3    H179255   3.233   2.160  13.579  0.2914  0.8080  0.3633
19280TIP3    H279256   3.134   2.139  13.466 -0.1053 -0.0807  0.8601
19281TIP3   OH279257   1.438   2.035  12.783  0.2670  0.2198  0.0350
19281TIP3    H179258   1.495   2.107  12.755  0.1763  0.5367  0.6431
19281TIP3    H279259   1.430   1.980  12.705  3.2787 -1.1036  0.5235
19282TIP3   OH279260   0.671   6.393   0.906  0.3561  0.4743 -0.2057
19282TIP3    H179261   0.743   6.451   0.929 -0.7725  0.7731  3.1276
19282TIP3    H279262   0.593   6.436   0.941 -1.1508 -0.9614 -1.5983
19283TIP3   OH279263   3.170   4.529   4.407 -0.0165  0.0196  0.0529
19283TIP3    H179264   3.254   4.572   4.388 -0.3276  1.0058  0.8315
19283TIP3    H279265   3.115   4.598   4.442 -0.1849 -1.1810  2.3843
19284TIP3   OH279266   4.122   6.478  14.277 -0.2837 -1.1619  0.0725
19284TIP3    H179267   4.100   6.564  14.242  1.3625 -0.0713  1.5708
19284TIP3    H279268   4.043   6.426  14.263 -1.5725  0.7771 -0.2577
19285TIP3   OH279269   6.077   3.086   5.921  0.4281  0.0683  0.3579
19285TIP3    H179270   6.163   3.051   5.900 -0.7184 -3.1848  0.5360
19285TIP3    H279271   6.081   3.105   6.014  1.5255  2.0784 -0.0237
19286TIP3   OH279272   0.747   2.586  12.831  0.2365 -0.3567  0.7639
19286TIP3    H179273   0.770   2.675  12.860 -1.0519  0.6584 -1.1145
19286TIP3    H279274   0.808   2.529  12.878  3.0745  1.7403 -0.0865
19287TIP3   OH279275   4.988   4.103   5.729  0.0098 -0.6773  0.2007
19287TIP3    H179276   5.011   4.120   5.820  0.1446  1.5916 -0.2082
19287TIP3    H279277   4.899   4.067   5.733 -0.2677  0.0842  1.1887
19288TIP3   OH279278   0.606   5.718   5.265  0.8862 -0.1800 -0.4629
19288TIP3    H179279   0.686   5.731   5.315  0.7107 -0.8648  0.0065
19288TIP3    H279280   0.635   5.717   5.174  1.3682 -0.1086 -0.3125
19289TIP3   OH279281   0.320   0.030   0.703 -0.7771  0.6522 -0.1088
19289TIP3    H179282   0.400   0.036   0.652  1.4624  0.7256  3.1387
19289TIP3    H279283   0.271   0.109   0.682  0.2696  0.8980 -1.7227
19290TIP3   OH279284   5.647   0.044  12.243  0.3426  0.1717  0.2474
19290TIP3    H179285   5.692   0.110  12.190  0.5869  1.0496  1.4874
19290TIP3    H279286   5.718  -0.013  12.274 -0.0605 -2.1287 -2.5958
19291TIP3   OH279287   4.808   1.128  14.625  0.3885  0.3628 -0.0215
19291TIP3    H179288   4.731   1.109  14.678  0.5644 -0.2750  0.0093
19291TIP3    H279289   4.850   1.043  14.612  1.0210  0.6856 -0.1391
19292TIP3   OH279290   5.518   0.053  10.692 -0.0791  0.1766  0.5261
19292TIP3    H179291   5.611   0.076  10.690  0.7111 -2.7043  0.4828
19292TIP3    H279292   5.502   0.023  10.781  0.3666 -3.8436 -0.5625
19293TIP3   OH279293   3.612   0.216  11.991 -1.1993  0.0484  0.3207
19293TIP3    H179294   3.626   0.308  12.015 -2.7867  0.3374  0.2852
19293TIP3    H279295   3.621   0.169  12.074 -0.9988  0.3233  0.4575
19294TIP3   OH279296   3.825   2.482   1.336 -0.0917  0.2924  0.5503
19294TIP3    H179297   3.868   2.410   1.383  1.7958  1.7277  1.1964
19294TIP3    H279298   3.771   2.525   1.403 -1.4526 -0.6445  0.0939
19295TIP3   OH279299   0.803   2.392  15.758  0.7215  0.2328  0.0680
19295TIP3    H179300   0.730   2.334  15.734  0.4899  0.0789  1.0798
19295TIP3    H279301   0.766   2.451  15.824  1.2349  0.8571 -0.1949
19296TIP3   OH279302   0.183   5.592  12.992 -0.1859 -0.2746 -0.3444
19296TIP3    H179303   0.165   5.563  13.082 -0.0091  1.7707  0.4190
19296TIP3    H279304   0.101   5.578  12.945 -0.7632  0.0475  0.5470
19297TIP3   OH279305   3.606   6.329   5.142  0.1459  0.4152  0.4098
19297TIP3    H179306   3.586   6.401   5.202  0.0650 -1.0720  2.2568
19297TIP3    H279307   3.554   6.256   5.174  0.4028 -0.5464 -1.2756
19298TIP3   OH279308   1.477   4.037  12.293 -0.1829 -0.4193 -0.3067
19298TIP3    H179309   1.395   4.007  12.331 -1.1510  0.5741 -1.4823
19298TIP3    H279310   1.532   3.960  12.289 -0.0523 -0.6171  2.8867
19299TIP3   OH279311   2.702   5.194   6.589 -0.1792  1.0974  0.3910
19299TIP3    H179312   2.679   5.253   6.661 -2.5554  2.8589 -1.6021
19299TIP3    H279313   2.627   5.200   6.529  2.2536  0.9659 -2.9395
19300TIP3   OH279314   0.722   3.143  16.238  0.1766  0.5080 -0.5611
19300TIP3    H179315   0.687   3.196  16.166  1.7448  0.3528 -1.4689
19300TIP3    H279316   0.711   3.053  16.209 -0.0391  0.4058 -0.1758
19301TIP3   OH279317   3.573   3.009  15.673 -0.3073 -0.0814 -0.1608
19301TIP3    H179318   3.558   2.928  15.626 -0.8613 -0.0488 -0.0476
19301TIP3    H279319   3.486   3.048  15.684 -0.0335  0.6106 -0.3628
19302TIP3   OH279320   3.226   4.848  11.566  0.4042  0.5893  0.0188
19302TIP3    H179321   3.225   4.774  11.506  0.8197  0.4305  0.2033
19302TIP3    H279322   3.317   4.855  11.596 -0.1571 -0.7331  2.3043
19303TIP3   OH279323   2.607   2.394  11.241 -0.5320 -0.7241 -0.1355
19303TIP3    H179324   2.597   2.388  11.336  0.0179 -0.4722 -0.0618
19303TIP3    H279325   2.653   2.313  11.217  0.2065 -0.3299 -0.0629
19304TIP3   OH279326   5.761   3.358  11.747  0.0562 -0.3031  0.7528
19304TIP3    H179327   5.786   3.313  11.666 -1.2729  2.2405 -1.1991
19304TIP3    H279328   5.819   3.434  11.752  0.3971 -0.6234  2.4703
19305TIP3   OH279329   5.102   4.164  16.371 -0.0009 -0.5086  0.2424
19305TIP3    H179330   5.135   4.240  16.418  0.0837 -0.5047  0.1752
19305TIP3    H279331   5.171   4.142  16.309  1.0217 -2.0460  1.8238
19306TIP3   OH279332   1.622   2.609  11.294  0.3109  0.3561  0.1778
19306TIP3    H179333   1.633   2.679  11.230  1.0606  0.7507  0.7259
19306TIP3    H279334   1.644   2.649  11.378  2.8197 -1.0047  0.2842
19307TIP3   OH279335   0.867   5.928   2.721  0.5000 -0.1798  0.3470
19307TIP3    H179336   0.780   5.967   2.730  0.4103 -0.6149  1.6460
19307TIP3    H279337   0.926   5.994   2.759  0.7241  0.0235 -0.3365
19308TIP3   OH279338   5.160   0.294   0.447 -0.3323 -0.0632 -0.8712
19308TIP3    H179339   5.235   0.339   0.410 -0.1649 -0.8696 -1.5457
19308TIP3    H279340   5.109   0.363   0.490  0.2058  0.6611 -1.3738
19309TIP3   OH279341   1.159   5.314  15.744 -0.1643 -0.2894  0.1578
19309TIP3    H179342   1.119   5.298  15.829 -2.5639  1.0022 -0.6319
19309TIP3    H279343   1.213   5.392  15.757 -1.1444  0.3742  0.3487
19310TIP3   OH279344   1.273   3.779   3.398 -0.6129  0.0690  0.0025
19310TIP3    H179345   1.358   3.746   3.367 -0.6931 -1.1002  0.9611
19310TIP3    H279346   1.209   3.724   3.353 -0.7714 -0.6488  1.0676
19311TIP3   OH279347   0.364   4.119  13.960 -0.2299  0.6785 -0.4160
19311TIP3    H179348   0.355   4.164  13.876 -1.8489  1.2446  0.0353
19311TIP3    H279349   0.427   4.171  14.009  0.3676  0.6101 -1.0987
19312TIP3   OH279350   1.324   3.020  12.912  0.2997 -0.3443  0.5657
19312TIP3    H179351   1.297   2.931  12.892  1.8037 -1.8154  4.2721
19312TIP3    H279352   1.242   3.070  12.913 -0.6582 -1.7740 -0.9176
19313TIP3   OH279353   5.719   5.481   6.076 -0.4184 -0.4096 -0.0043
19313TIP3    H179354   5.699   5.531   6.156 -0.8819  0.0951 -0.4252
19313TIP3    H279355   5.764   5.403   6.108 -0.8052 -0.3304  0.7773
19314TIP3   OH279356   6.465   6.710  16.777 -0.2979  0.6386  0.2058
19314TIP3    H179357   6.551   6.734  16.742  0.5606 -0.8422  1.1635
19314TIP3    H279358   6.405   6.720  16.704  0.6023  2.1251 -0.3752
19315TIP3   OH279359   4.647   3.514  10.929 -0.2463  0.3076 -0.2828
19315TIP3    H179360   4.622   3.422  10.923 -0.1912  0.3183 -0.7958
19315TIP3    H279361   4.735   3.517  10.892 -0.2731  0.5728 -0.3276
19316TIP3   OH279362   0.431   6.061   3.357 -0.3611  0.2239 -0.1450
19316TIP3    H179363   0.483   6.117   3.415 -2.2605  0.9280  0.9470
19316TIP3    H279364   0.421   6.113   3.277 -0.1568  0.4608 -0.0190
19317TIP3   OH279365   1.058   2.618   4.812 -0.3047  0.2755  0.0441
19317TIP3    H179366   1.110   2.577   4.743 -1.4604 -0.6788 -0.2833
19317TIP3    H279367   0.970   2.624   4.776 -0.3217  2.5292  0.3191
19318TIP3   OH279368   1.096   2.522   5.322  0.1990 -0.5129  0.4226
19318TIP3    H179369   1.069   2.508   5.231 -0.4080  1.5936  0.2235
19318TIP3    H279370   1.072   2.441   5.367 -1.7401 -0.6760 -0.8004
19319TIP3   OH279371   0.302   2.934   1.451  0.7228  0.2144  0.5823
19319TIP3    H179372   0.372   2.986   1.411  0.6227 -0.8529 -1.0906
19319TIP3    H279373   0.346   2.856   1.485  0.6033  0.4495  1.2897
19320TIP3   OH279374   5.651   0.196   1.280 -0.4047  0.0764 -0.2188
19320TIP3    H179375   5.609   0.275   1.315  2.1251  0.2733  2.8386
19320TIP3    H279376   5.694   0.225   1.200 -1.1108  1.2956 -0.1898
19321TIP3   OH279377   0.981   3.078   4.482  0.1655  0.3370 -0.5129
19321TIP3    H179378   1.056   3.127   4.449  1.8713 -1.5864  0.3198
19321TIP3    H279379   0.928   3.059   4.405  0.5512  1.6380 -1.1211
19322TIP3   OH279380   4.986   2.350  11.676 -0.6524  0.1986 -0.2776
19322TIP3    H179381   4.937   2.348  11.759 -2.4233 -0.6451 -1.2978
19322TIP3    H279382   5.077   2.337  11.702 -1.4232 -2.7405  1.3713
19323TIP3   OH279383   3.157   0.517   1.951 -0.5648  0.0387 -0.1080
19323TIP3    H179384   3.159   0.423   1.934 -0.2227  0.1184 -0.5475
19323TIP3    H279385   3.164   0.557   1.864 -0.1874  0.4701  0.1173
19324TIP3   OH279386   2.264   0.064   4.598 -0.3460 -0.1397 -0.3561
19324TIP3    H179387   2.278   0.159   4.597  0.9010 -0.3042 -0.1413
19324TIP3    H279388   2.350   0.027   4.581 -0.7904 -1.2471 -0.2798
19325TIP3   OH279389   0.654   4.295   3.094  0.3929 -0.5654  0.0243
19325TIP3    H179390   0.743   4.318   3.067  0.0560  0.3456 -0.3678
19325TIP3    H279391   0.597   4.347   3.036 -0.3915 -0.7852  0.5756
19326TIP3   OH279392   4.342   1.232  10.327  0.1504  0.2203 -0.8057
19326TIP3    H179393   4.286   1.279  10.390 -0.5346 -0.0244 -1.2276
19326TIP3    H279394   4.392   1.171  10.382  0.3301  0.7451 -0.3717
19327TIP3   OH279395   4.543   3.286  15.127 -0.2700 -0.4352  0.3158
19327TIP3    H179396   4.552   3.373  15.166  1.1024 -0.1011 -0.6612
19327TIP3    H279397   4.632   3.262  15.101 -0.2526 -3.0086  2.3357
19328TIP3   OH279398   4.181   6.731   0.723 -0.0167 -0.0381 -0.0958
19328TIP3    H179399   4.139   6.674   0.660  0.7839  0.0849 -0.7507
19328TIP3    H279400   4.118   6.801   0.738 -0.2741 -0.1483 -0.6493
19329TIP3   OH279401   2.214   1.664  12.984 -0.0486 -0.6348 -0.4149
19329TIP3    H179402   2.217   1.615  12.902 -1.2043 -1.3718 -0.0378
19329TIP3    H279403   2.213   1.597  13.052 -2.4214 -0.1875  0.0925
19330TIP3   OH279404   5.132   4.377   0.994  0.3310 -0.2570  0.3280
19330TIP3    H179405   5.099   4.462   1.023 -0.3138 -0.8632  1.4134
19330TIP3    H279406   5.134   4.384   0.898 -1.4623  0.3449  0.2936
19331TIP3   OH279407   5.182   4.855   5.382  0.6955  0.2061  0.2869
19331TIP3    H179408   5.089   4.840   5.399  0.8581 -0.8937  0.2750
19331TIP3    H279409   5.197   4.822   5.294  1.6946 -2.5904  1.3663
19332TIP3   OH279410   1.645   5.622   5.048  0.7226  0.2703  0.7535
19332TIP3    H179411   1.701   5.557   5.089 -0.8231 -1.7929 -0.2520
19332TIP3    H279412   1.649   5.603   4.954 -0.8900  0.6402  0.5731
19333TIP3   OH279413   5.256   2.619  13.970  0.2981 -0.4511  0.1653
19333TIP3    H179414   5.312   2.546  13.998  0.1653 -0.1515  1.2558
19333TIP3    H279415   5.176   2.609  14.021  0.8380  1.2670  1.4335
19334TIP3   OH279416   2.304   4.890   3.452  0.5604  0.5047  0.3797
19334TIP3    H179417   2.285   4.982   3.432  2.1953  0.9820  0.8906
19334TIP3    H279418   2.365   4.893   3.525  1.9041 -0.9194 -0.6124
19335TIP3   OH279419   1.058   2.598  13.941  0.5125 -0.5961 -0.1142
19335TIP3    H179420   0.993   2.657  13.904  1.5029  1.0173  0.6413
19335TIP3    H279421   1.015   2.512  13.942 -1.1356  0.1903 -0.7566
19336TIP3   OH279422   1.182   5.762  11.905  0.2151  0.5583 -1.1732
19336TIP3    H179423   1.216   5.696  11.844  1.5774 -0.6228  0.7638
19336TIP3    H279424   1.118   5.715  11.958  1.0037  0.8496  0.0579
19337TIP3   OH279425   4.658   2.181  15.229  0.1088  0.0992  0.0215
19337TIP3    H179426   4.733   2.137  15.190  0.2814  1.2969 -1.0845
19337TIP3    H279427   4.582   2.134  15.195  0.3057  0.3207 -0.7589
19338TIP3   OH279428   3.182   3.962   4.359 -0.0480  0.3324 -0.7851
19338TIP3    H179429   3.181   4.053   4.390  1.8722  0.3749 -0.7465
19338TIP3    H279430   3.138   3.966   4.273 -1.0921  1.0509 -0.2466
19339TIP3   OH279431   5.474   4.242   0.449 -0.0544  0.3466 -0.4576
19339TIP3    H179432   5.444   4.309   0.387 -0.6402  0.4146 -0.1070
19339TIP3    H279433   5.508   4.292   0.523 -1.3780  0.2789  0.2305
19340TIP3   OH279434   1.673   5.303   0.497  0.7862 -0.2189 -0.7215
19340TIP3    H179435   1.638   5.366   0.435 -1.8423 -2.3652 -1.6350
19340TIP3    H279436   1.603   5.292   0.562  2.3367 -0.1401  1.0535
19341TIP3   OH279437   3.763   1.485  12.917  0.0024  0.1654 -0.0997
19341TIP3    H179438   3.780   1.530  12.835  1.0513 -1.2183 -0.6852
19341TIP3    H279439   3.794   1.546  12.985  0.1041  0.8843 -0.7766
19342TIP3   OH279440   5.082   0.042   0.953  0.4045 -0.1317  0.7942
19342TIP3    H179441   5.113  -0.025   0.892 -0.5146 -1.0777  1.3245
19342TIP3    H279442   5.008   0.083   0.909 -0.2266 -0.7790  1.2315
19343TIP3   OH279443   0.117   4.652  16.192 -0.6572 -0.8892 -0.8796
19343TIP3    H179444   0.187   4.674  16.130 -0.6827  0.4970 -0.4425
19343TIP3    H279445   0.036   4.674  16.145 -0.6221  3.1799  0.6364
19344TIP3   OH279446   1.809   2.523   3.028  0.4771  0.3119 -0.3378
19344TIP3    H179447   1.740   2.589   3.029  1.4528  1.3866 -0.9370
19344TIP3    H279448   1.821   2.499   3.120 -1.1264 -0.3901 -0.2903
19345TIP3   OH279449   5.589   1.656   3.955  0.2396 -0.3603 -0.1000
19345TIP3    H179450   5.602   1.619   4.043  0.8750 -0.9141 -0.4165
19345TIP3    H279451   5.651   1.728   3.950 -1.3624  1.1623  0.7095
19346TIP3   OH279452   2.251   0.251  12.786  0.1486  0.1592 -0.2975
19346TIP3    H179453   2.295   0.175  12.747  0.8000  1.1650 -1.5578
19346TIP3    H279454   2.170   0.214  12.822  2.0539 -1.8052  2.4008
19347TIP3   OH279455   0.589   1.327   4.157 -0.2525 -0.2553  0.1302
19347TIP3    H179456   0.666   1.282   4.122  1.1610  2.0895 -0.0177
19347TIP3    H279457   0.616   1.357   4.244 -0.4170  1.8096 -0.4703
19348TIP3   OH279458   0.802   0.628  15.351  0.0283  0.0606 -0.1654
19348TIP3    H179459   0.830   0.544  15.314  4.3845  0.8001  0.9040
19348TIP3    H279460   0.861   0.693  15.311  0.0473  1.8870  2.5717
19349TIP3   OH279461   3.539   4.888   4.385 -0.3678  0.0676 -0.6259
19349TIP3    H179462   3.543   4.981   4.362  1.3730  1.2093  3.3885
19349TIP3    H279463   3.629   4.857   4.374 -0.1327 -0.0898  1.3805
19350TIP3   OH279464   2.196   6.032  15.261 -0.4014 -0.3189  0.3030
19350TIP3    H179465   2.192   5.940  15.236  1.8769 -0.0955 -1.1755
19350TIP3    H279466   2.106   6.063  15.253 -0.6712 -1.5472 -2.9449
19351TIP3   OH279467   4.875   4.572   1.946 -0.2861 -0.4244 -0.4822
19351TIP3    H179468   4.811   4.512   1.908 -0.1985  0.5367 -2.2716
19351TIP3    H279469   4.960   4.537   1.919 -0.2036  0.0638 -0.8641
19352TIP3   OH279470   3.303   6.574   5.254  0.1298  0.1341  0.8523
19352TIP3    H179471   3.210   6.550   5.254  0.5024 -1.5807  2.6286
19352TIP3    H279472   3.324   6.586   5.347  1.6606  0.6556  0.4608
19353TIP3   OH279473   3.922   0.726   0.530  0.0489 -0.5907 -0.0467
19353TIP3    H179474   3.980   0.701   0.602 -0.8567 -0.9340  0.5892
19353TIP3    H279475   3.931   0.657   0.465 -1.8355 -2.2739  1.3463
19354TIP3   OH279476   0.417   6.666   4.629  0.2837 -0.2578 -0.2500
19354TIP3    H179477   0.424   6.710   4.544  0.8292  0.4705  0.1554
19354TIP3    H279478   0.341   6.705   4.671  0.9094  0.5146  0.2097
19355TIP3   OH279479   5.584   4.602  17.085  0.0210 -0.7233  0.0621
19355TIP3    H179480   5.678   4.595  17.100  0.6550  1.0630 -2.3942
19355TIP3    H279481   5.562   4.692  17.109 -0.8595 -0.8143 -0.3549
19356TIP3   OH279482   5.474   4.759   3.738 -0.1710  0.2215 -0.5387
19356TIP3    H179483   5.401   4.815   3.712  0.6163  0.7396 -1.7081
19356TIP3    H279484   5.489   4.702   3.662 -0.5306 -1.1483  0.3826
19357TIP3   OH279485   5.316   0.505  11.614 -0.6093 -0.1799 -0.1238
19357TIP3    H179486   5.333   0.557  11.693 -0.8282  0.2455 -0.3497
19357TIP3    H279487   5.390   0.526  11.555  0.5761 -1.9385  0.6621
19358TIP3   OH279488   6.746   2.266  14.009  0.1140 -0.2506  0.5249
19358TIP3    H179489   6.721   2.326  14.079  2.0869  0.9369  0.2718
19358TIP3    H279490   6.835   2.240  14.030 -0.3422 -2.3721  0.0923
19359TIP3   OH279491   3.339   1.337  14.653  0.3440  0.1212  0.1334
19359TIP3    H179492   3.339   1.412  14.712 -0.8445 -0.4083  0.8408
19359TIP3    H279493   3.265   1.284  14.682  1.4248 -1.5569 -0.0661
19360TIP3   OH279494   0.795   4.413   5.638  0.6297 -0.4266  0.6369
19360TIP3    H179495   0.778   4.393   5.546  0.7014  1.3514  0.2056
19360TIP3    H279496   0.709   4.408   5.680  0.4566 -0.3967  0.2894
19361TIP3   OH279497   2.454   5.552   1.153  0.2351 -0.6267 -0.2643
19361TIP3    H179498   2.438   5.542   1.247  0.6903 -0.8763 -0.2096
19361TIP3    H279499   2.516   5.625   1.148 -0.1080 -0.3439 -0.4004
19362TIP3   OH279500   1.651   6.344  17.188  0.0230 -0.1184 -0.0137
19362TIP3    H179501   1.633   6.294  17.108  0.6368 -0.2176 -0.1028
19362TIP3    H279502   1.720   6.405  17.162 -0.3565  0.4164  0.2326
19363TIP3   OH279503   1.502   1.698  12.646  0.5596 -0.3312 -0.5506
19363TIP3    H179504   1.454   1.748  12.580 -1.1847 -1.5468 -0.2516
19363TIP3    H279505   1.435   1.669  12.708  2.0658  0.3121  1.4844
19364TIP3   OH279506   2.761   5.049   6.201  0.2988  0.1548  0.2795
19364TIP3    H179507   2.753   4.954   6.204  0.0662  0.2043  1.6037
19364TIP3    H279508   2.679   5.082   6.238 -0.2139  0.9144 -1.4314
19365TIP3   OH279509   2.862   4.177   2.702 -0.5287  0.6926 -0.0161
19365TIP3    H179510   2.880   4.203   2.793  2.0762  0.1900 -0.3280
19365TIP3    H279511   2.877   4.083   2.700 -0.7684  0.6655 -0.9423
19366TIP3   OH279512   5.704   1.431   2.621 -0.6224 -0.5955 -0.2698
19366TIP3    H179513   5.770   1.368   2.651  1.8157  0.9180 -2.0886
19366TIP3    H279514   5.667   1.391   2.542  0.4017 -0.1418 -1.0072
19367TIP3   OH279515   3.302   2.786  11.885  0.1948 -0.4192 -0.0131
19367TIP3    H179516   3.333   2.854  11.826  0.3040 -0.3553  0.1159
19367TIP3    H279517   3.382   2.740  11.913  0.0065 -1.5779 -1.2856
19368TIP3   OH279518   1.171   5.284  14.462 -0.1881 -0.6871  0.2002
19368TIP3    H179519   1.175   5.310  14.554  2.2441  2.1212 -0.5038
19368TIP3    H279520   1.263   5.273  14.437 -0.7253 -0.5666 -2.0494
19369TIP3   OH279521   6.564   2.277   1.450 -0.1182 -0.4394  0.4057
19369TIP3    H179522   6.658   2.270   1.470  0.2915 -0.9554 -1.5010
19369TIP3    H279523   6.559   2.344   1.383 -0.9924 -1.0795 -0.1910
19370TIP3   OH279524   0.299   5.943  16.480 -0.5220  0.3477  0.4731
19370TIP3    H179525   0.376   5.888  16.494 -0.1853  0.3089 -1.3153
19370TIP3    H279526   0.269   5.921  16.392 -1.5543  1.6092  0.4746
19371TIP3   OH279527   0.287   3.024   5.478 -0.3849 -0.6025  0.2881
19371TIP3    H179528   0.263   3.025   5.570 -0.4088  1.1376  0.3004
19371TIP3    H279529   0.207   2.998   5.432 -1.2397  1.2760  0.6021
19372TIP3   OH279530   6.524   6.578  12.520  0.1016  0.3315  0.6196
19372TIP3    H179531   6.526   6.554  12.612 -1.6605  3.0992  1.5016
19372TIP3    H279532   6.436   6.554  12.490  0.2843  0.4600 -0.0522
19373TIP3   OH279533   2.829   4.629  14.634 -0.0106 -0.4710  0.0687
19373TIP3    H179534   2.804   4.570  14.563  0.3433 -1.4585  0.7325
19373TIP3    H279535   2.812   4.717  14.600  1.4919 -0.8219 -1.7899
19374TIP3   OH279536   2.472   2.786  13.384 -0.6665 -0.3579 -0.0714
19374TIP3    H179537   2.400   2.794  13.321 -1.6723  0.1871  1.1103
19374TIP3    H279538   2.539   2.736  13.337 -1.2771  0.2360 -1.6572
19375TIP3   OH279539   0.210   3.566  12.679 -0.1950  0.6484 -0.1124
19375TIP3    H179540   0.204   3.604  12.591 -0.2683  0.1716 -0.3156
19375TIP3    H279541   0.232   3.640  12.735  0.6896  0.8030 -0.6482
19376TIP3   OH279542   0.021   1.873  15.902 -0.1864  0.1590 -0.1777
19376TIP3    H179543  -0.029   1.922  15.837 -1.9840 -1.7951 -0.4025
19376TIP3    H279544   0.112   1.889  15.880 -0.7377  1.3962 -1.7263
19377TIP3   OH279545   6.268   2.760  12.687  0.5444  0.4604 -0.5286
19377TIP3    H179546   6.233   2.846  12.664  1.9115  0.5598 -2.5000
19377TIP3    H279547   6.329   2.739  12.616  0.8646 -1.7835  0.3189
19378TIP3   OH279548   5.656   4.288   0.649 -0.8441 -0.8883 -1.1309
19378TIP3    H179549   5.698   4.278   0.564  0.1520 -1.4003 -0.5849
19378TIP3    H279550   5.710   4.237   0.709  0.1367  1.7313  0.3664
19379TIP3   OH279551   2.929   5.290  17.175  0.3064 -0.3581  0.1364
19379TIP3    H179552   2.982   5.255  17.246  1.6379  1.0253 -0.0951
19379TIP3    H279553   2.871   5.354  17.217  0.9567  0.3165  0.0331
19380TIP3   OH279554   5.467   4.453   0.264  0.6927  0.2117  0.2609
19380TIP3    H179555   5.431   4.489   0.183 -3.2888 -0.9996  1.2595
19380TIP3    H279556   5.512   4.526   0.306 -0.9297  2.0675 -1.0592
19381TIP3   OH279557   1.113   2.215   5.900 -0.1363  0.7535 -0.3839
19381TIP3    H179558   1.058   2.144   5.866 -1.2283  1.6034 -0.4511
19381TIP3    H279559   1.065   2.294   5.878 -0.2368  1.4206  1.9898
19382TIP3   OH279560   4.679   2.737   0.515 -0.3656 -0.1855 -0.1572
19382TIP3    H179561   4.767   2.717   0.546  1.0595  0.5566 -3.3086
19382TIP3    H279562   4.677   2.832   0.506 -2.0693 -0.0355  1.2402
19383TIP3   OH279563   6.695   2.258  12.341  0.0054  0.3999 -0.7920
19383TIP3    H179564   6.714   2.169  12.312  1.2843 -0.2142  1.6585
19383TIP3    H279565   6.602   2.257  12.364 -0.0819 -0.1707 -1.1504
19384TIP3   OH279566   0.498   3.739  11.645  0.2261 -0.1361  0.7905
19384TIP3    H179567   0.522   3.716  11.555  0.7713 -0.3052  0.9743
19384TIP3    H279568   0.578   3.777  11.682 -0.7508  2.5436  0.3491
19385TIP3   OH279569   0.905   2.841  13.376 -0.4610 -0.2036  0.0798
19385TIP3    H179570   0.897   2.936  13.374 -3.1870 -0.3520 -2.3308
19385TIP3    H279571   0.953   2.819  13.296 -2.1401 -0.9106 -0.7823
19386TIP3   OH279572   3.347   6.770   5.039 -0.3029 -0.1979 -0.3308
19386TIP3    H179573   3.324   6.692   5.089 -1.3618 -0.2815 -0.9202
19386TIP3    H279574   3.279   6.834   5.061  0.3561  0.4447 -0.1219
19387TIP3   OH279575   3.570   0.500  16.650 -0.0462 -0.3462 -0.2479
19387TIP3    H179576   3.566   0.408  16.675  0.4506 -0.2384  0.2531
19387TIP3    H279577   3.639   0.504  16.584 -1.2531 -0.6052 -1.5763
19388TIP3   OH279578   4.524   1.985  13.264 -0.3069 -0.2741  0.1010
19388TIP3    H179579   4.438   1.970  13.225 -0.2649  0.0583 -0.1293
19388TIP3    H279580   4.525   1.931  13.343 -1.9966  2.1735  1.9515
19389TIP3   OH279581   2.083   3.768  12.787 -0.4267 -0.9902 -0.4301
19389TIP3    H179582   2.034   3.713  12.849 -1.0989  1.0170  0.9224
19389TIP3    H279583   2.018   3.828  12.752  0.3884 -0.6797 -1.4620
19390TIP3   OH279584   6.644   6.524  12.950 -0.1392 -0.6109 -0.1837
19390TIP3    H179585   6.720   6.467  12.932  0.2448 -0.1969  0.1147
19390TIP3    H279586   6.681   6.612  12.955 -0.6407 -0.4107  0.0082
19391TIP3   OH279587   3.899   3.196  12.909 -0.2753 -0.7689 -0.0060
19391TIP3    H179588   3.806   3.202  12.885 -0.9644 -1.0190  2.3405
19391TIP3    H279589   3.905   3.115  12.959  1.5961 -1.6017 -1.4593
19392TIP3   OH279590   5.684   0.393   1.628  0.0918 -0.2418 -0.3259
19392TIP3    H179591   5.630   0.436   1.694  0.9943  2.0067 -0.9537
19392TIP3    H279592   5.669   0.443   1.548  1.8464 -0.5410 -0.8887
19393TIP3   OH279593   5.627   4.285  11.353 -0.1742 -0.4093 -0.5517
19393TIP3    H179594   5.678   4.204  11.359 -1.5709 -1.3015 -0.5047
19393TIP3    H279595   5.664   4.330  11.277 -0.6240 -1.9952 -1.7541
19394TIP3   OH279596   5.594   6.614   5.472 -1.4171  0.1010  0.2878
19394TIP3    H179597   5.518   6.562   5.497 -0.0190 -3.4864 -2.1409
19394TIP3    H279598   5.585   6.626   5.378  1.6338 -1.8205 -0.3916
19395TIP3   OH279599   5.082   2.156  14.227  0.2218  0.0669  0.1398
19395TIP3    H179600   5.053   2.110  14.306 -1.4825  0.1553 -0.3881
19395TIP3    H279601   5.138   2.227  14.260 -0.5340  0.1607  1.2927
19396TIP3   OH279602   1.780   5.586  16.075  0.5730  0.1549  0.0395
19396TIP3    H179603   1.780   5.660  16.014  2.7495  0.3695  0.2072
19396TIP3    H279604   1.872   5.561  16.082 -0.0937 -2.5989  0.0045
19397TIP3   OH279605   6.693   5.127   1.475 -0.4112  0.1138 -0.0712
19397TIP3    H179606   6.735   5.172   1.548 -2.4946  0.8761  0.7453
19397TIP3    H279607   6.737   5.042   1.470 -0.3616 -0.0651  2.2443
19398TIP3   OH279608   2.611   6.041  15.094 -0.0162 -0.2934 -0.2706
19398TIP3    H179609   2.623   6.059  15.000  0.6647  0.8875  0.0352
19398TIP3    H279610   2.667   6.104  15.138 -1.0312 -0.2338  0.9760
19399TIP3   OH279611   1.114   5.099   4.114 -0.5354 -0.3992 -0.1720
19399TIP3    H179612   1.204   5.069   4.097 -0.7875 -1.8465  0.9046
19399TIP3    H279613   1.075   5.030   4.167 -1.8589  0.8554  0.5581
19400TIP3   OH279614   2.213   5.826  12.517  0.1830 -0.1965 -0.2725
19400TIP3    H179615   2.131   5.835  12.566  0.4692 -1.5669  0.4985
19400TIP3    H279616   2.196   5.870  12.434 -1.5761 -1.0397 -0.3941
19401TIP3   OH279617   3.525   3.702   3.125 -0.3396 -0.1474 -0.5456
19401TIP3    H179618   3.552   3.724   3.215  0.3476 -0.4645 -0.6590
19401TIP3    H279619   3.457   3.765   3.103  0.4189  0.7854 -0.2778
19402TIP3   OH279620   1.833   5.730  17.035 -0.1485  0.0768  0.2789
19402TIP3    H179621   1.823   5.648  17.083 -0.6633 -0.7322 -1.1604
19402TIP3    H279622   1.920   5.762  17.060 -0.3093 -0.4118  1.5606
19403TIP3   OH279623   5.442   2.889  15.413 -0.2750 -0.2089  0.0450
19403TIP3    H179624   5.473   2.980  15.420 -0.5867 -0.1464  0.6609
19403TIP3    H279625   5.518   2.837  15.441 -1.0207 -0.0139  2.7479
19404TIP3   OH279626   5.389   4.427  15.225  0.2627 -0.8979 -0.1348
19404TIP3    H179627   5.434   4.479  15.292  0.3425 -0.4687 -0.5143
19404TIP3    H279628   5.337   4.363  15.274  0.3380 -0.6013  0.3316
19405TIP3   OH279629   4.825   2.648  14.615  0.5642  0.5399 -0.7798
19405TIP3    H179630   4.753   2.678  14.560  1.4371  1.8549 -1.2548
19405TIP3    H279631   4.792   2.658  14.704 -0.8151 -1.4819 -1.0093
19406TIP3   OH279632   3.702   5.581   5.017 -0.2982  0.3255  0.9293
19406TIP3    H179633   3.749   5.523   5.077 -1.6072  0.0621  1.7374
19406TIP3    H279634   3.610   5.566   5.036 -0.6943  2.2696  0.7866
19407TIP3   OH279635   5.777   0.862   3.821  0.2986  0.1237  0.3205
19407TIP3    H179636   5.827   0.858   3.903 -0.4916  2.9417  1.0452
19407TIP3    H279637   5.839   0.896   3.757  0.0808  0.9877  0.5554
19408TIP3   OH279638   3.355   2.326  12.361 -0.2316 -0.4396 -0.3498
19408TIP3    H179639   3.451   2.326  12.357 -0.2629 -0.1009 -1.4109
19408TIP3    H279640   3.329   2.243  12.323 -0.3926  0.3226 -1.9991
19409TIP3   OH279641   6.630   4.425  14.695 -0.7368 -0.2668  0.4191
19409TIP3    H179642   6.613   4.413  14.788  0.4349  1.5766  0.9158
19409TIP3    H279643   6.615   4.518  14.679  2.3535  0.2060 -0.4399
19410TIP3   OH279644   4.267   1.462  13.057  0.2415  0.4549 -0.2307
19410TIP3    H179645   4.360   1.452  13.038  0.5281  0.5462  1.0177
19410TIP3    H279646   4.250   1.398  13.127 -0.8914 -0.3409 -1.2062
19411TIP3   OH279647   5.445   3.508   6.603 -0.2029  0.0096  0.5870
19411TIP3    H179648   5.419   3.597   6.624  4.5212  2.0300 -0.6138
19411TIP3    H279649   5.447   3.463   6.687 -1.5099  1.3921  1.4057
19412TIP3   OH279650   4.817   0.171   2.758  0.1894  0.1279 -0.6512
19412TIP3    H179651   4.764   0.121   2.820  1.9923  0.6938  1.4688
19412TIP3    H279652   4.826   0.257   2.798  0.4529  0.9108 -2.3129
19413TIP3   OH279653   5.422   6.192  12.675  0.1331  0.4825 -0.3835
19413TIP3    H179654   5.413   6.195  12.770 -0.5281 -0.8981 -0.3667
19413TIP3    H279655   5.511   6.221  12.658  0.1421  1.0729  0.6317
19414TIP3   OH279656   3.971   2.651  11.106 -0.1472 -0.3639 -0.5091
19414TIP3    H179657   3.919   2.731  11.104  0.6027  0.1736  0.6791
19414TIP3    H279658   3.941   2.601  11.030 -3.1400 -0.5349  0.6101
19415TIP3   OH279659   4.087   1.643  13.242  0.3395 -0.2376  0.0985
19415TIP3    H179660   4.003   1.673  13.206  0.5263  1.0703  0.6947
19415TIP3    H279661   4.098   1.555  13.206 -1.4201 -0.5577  0.2324
19416TIP3   OH279662   5.158   3.327   1.394  0.3054  0.5911  0.0027
19416TIP3    H179663   5.063   3.335   1.380  0.2992 -0.3797 -0.6448
19416TIP3    H279664   5.166   3.289   1.481 -0.0428 -1.6931 -0.8687
19417TIP3   OH279665   1.816   0.203  12.401  0.1450  0.1296  0.3934
19417TIP3    H179666   1.736   0.239  12.439  1.3692  1.0602  2.2668
19417TIP3    H279667   1.863   0.165  12.475 -0.5374 -4.6176 -1.2979
19418TIP3   OH279668   5.572   2.036  14.997  0.2248 -0.5434 -0.5756
19418TIP3    H179669   5.542   2.031  14.906 -1.4173 -0.0606 -0.1032
19418TIP3    H279670   5.565   1.946  15.029 -1.3108 -0.3875 -0.3492
19419TIP3   OH279671   4.577   4.895  16.665  0.1471  0.6934 -0.2251
19419TIP3    H179672   4.557   4.890  16.571  1.0908  0.9111 -0.4439
19419TIP3    H279673   4.564   4.987  16.687  1.5443  0.9760 -0.5246
19420TIP3   OH279674   1.996   3.223   2.456 -0.2079  0.0595 -0.4254
19420TIP3    H179675   1.937   3.204   2.383 -0.2280 -0.1093 -0.3662
19420TIP3    H279676   2.039   3.305   2.432 -2.3815  1.6229  0.7075
19421TIP3   OH279677   4.091   5.015   6.016 -0.0799 -0.0763 -0.1476
19421TIP3    H179678   4.050   5.099   5.996  0.8344  0.3555 -0.2373
19421TIP3    H279679   4.108   4.975   5.931 -1.5362 -0.8792 -0.0968
19422TIP3   OH279680   3.643   2.337  12.463  0.6103 -0.0843 -0.2685
19422TIP3    H179681   3.709   2.269  12.452  0.3013 -0.5087  0.3938
19422TIP3    H279682   3.672   2.409  12.407  1.7726 -0.1530  0.2110
19423TIP3   OH279683   4.692   4.380  13.534 -0.0321  0.5412 -0.0466
19423TIP3    H179684   4.599   4.392  13.548 -0.1217  0.6704 -0.7184
19423TIP3    H279685   4.728   4.468  13.531  0.1781  0.4839  0.5925
19424TIP3   OH279686   4.872   2.025   0.333  0.1453 -0.2538  0.5275
19424TIP3    H179687   4.868   2.072   0.416  1.0688  0.3894  0.2191
19424TIP3    H279688   4.855   1.934   0.356 -3.0347  0.3436  0.9637
19425TIP3   OH279689   0.146   4.573  10.648 -0.1410  0.1475  0.6161
19425TIP3    H179690   0.079   4.636  10.622  0.4739  0.9151  0.8486
19425TIP3    H279691   0.177   4.606  10.732  0.6178 -0.1249  0.4441
19426TIP3   OH279692   1.381   2.878   5.110 -0.0323 -0.0638 -0.4471
19426TIP3    H179693   1.349   2.788   5.100 -1.3427  0.2526  0.6564
19426TIP3    H279694   1.306   2.927   5.141  1.1526  1.0231  0.8781
19427TIP3   OH279695   0.087   5.849   3.662  0.4598  0.3030 -0.1933
19427TIP3    H179696   0.139   5.889   3.593  0.4437 -0.6653 -0.7707
19427TIP3    H279697   0.058   5.765   3.627 -1.5597  0.8184  0.0648
19428TIP3   OH279698   2.313   0.279  11.650 -0.1429 -0.1844 -0.2879
19428TIP3    H179699   2.355   0.315  11.571 -1.1509 -0.5533 -1.0197
19428TIP3    H279700   2.269   0.200  11.619 -0.8934 -0.1137  0.5757
19429TIP3   OH279701   6.210   6.402   4.319 -0.4569 -0.7310 -0.3999
19429TIP3    H179702   6.183   6.311   4.310  1.2463 -1.2290 -0.9370
19429TIP3    H279703   6.303   6.397   4.342 -0.4174  0.8749 -0.0618
19430TIP3   OH279704   6.110   2.188  17.010 -0.1429  0.0002 -0.1750
19430TIP3    H179705   6.025   2.226  16.992 -0.5488 -1.1834 -0.9288
19430TIP3    H279706   6.140   2.230  17.090 -1.4820  0.3591  0.1521
19431TIP3   OH279707   0.578   6.166   5.791  0.1898  0.0152  0.1454
19431TIP3    H179708   0.593   6.186   5.883 -0.9845 -0.8808  0.5656
19431TIP3    H279709   0.593   6.071   5.784 -1.3933 -0.2459 -0.1756
19432TIP3   OH279710   5.357   3.974  11.344  0.2837  0.3589 -0.0421
19432TIP3    H179711   5.363   4.068  11.324  1.8188  0.3332  0.2285
19432TIP3    H279712   5.361   3.969  11.439  1.0675 -0.0251 -0.0883
19433TIP3   OH279713   6.364   3.362   0.662  0.2808 -0.5434 -0.6755
19433TIP3    H179714   6.299   3.294   0.671 -0.1760 -0.0062  0.1609
19433TIP3    H279715   6.369   3.379   0.567  0.6642 -1.9585 -0.9234
19434TIP3   OH279716   2.507   0.255   2.035 -0.4146  0.4882  0.1571
19434TIP3    H179717   2.536   0.338   1.997  0.9885 -0.1721 -0.3124
19434TIP3    H279718   2.533   0.259   2.127 -0.3357  0.5698  0.1307
19435TIP3   OH279719   0.870   5.102  11.982 -0.5869 -0.3647  0.4718
19435TIP3    H179720   0.872   5.127  11.890 -0.4856 -1.6745  0.0989
19435TIP3    H279721   0.783   5.128  12.012 -1.9162 -2.8406 -0.8930
19436TIP3   OH279722   2.068   0.414   3.582  0.3924 -0.0623  0.5561
19436TIP3    H179723   2.100   0.331   3.545 -2.9487 -1.2350 -0.0566
19436TIP3    H279724   2.112   0.482   3.531  3.1571 -1.3959  0.9987
19437TIP3   OH279725   2.378   0.133  12.014  0.2034  0.6027  0.4757
19437TIP3    H179726   2.376   0.176  12.099 -0.0518 -0.1632  0.8727
19437TIP3    H279727   2.417   0.197  11.955 -0.2755  1.4114  1.0197
19438TIP3   OH279728   4.436   0.045   5.309  0.0804 -0.3580  0.3223
19438TIP3    H179729   4.516   0.076   5.266 -0.0353  0.4502  0.6815
19438TIP3    H279730   4.370   0.111   5.288 -0.5375 -1.0837 -0.0823
19439TIP3   OH279731   4.556   0.082  10.955  0.3065 -0.3398 -0.3425
19439TIP3    H179732   4.624   0.140  10.920 -0.8161  0.8955 -0.5809
19439TIP3    H279733   4.474   0.122  10.926 -0.5289 -1.8563 -0.1712
19440TIP3   OH279734   1.576   3.975   5.602  0.4303 -0.1472 -0.3800
19440TIP3    H179735   1.645   3.972   5.669 -0.1755  0.7087  0.2984
19440TIP3    H279736   1.495   3.960   5.651 -0.0432  0.6949 -0.8959
19441TIP3   OH279737   3.865   1.505  10.733 -0.2331  0.2707  0.0634
19441TIP3    H179738   3.867   1.595  10.766  0.9294  0.0927  0.5318
19441TIP3    H279739   3.953   1.492  10.696  0.1769 -1.1981  1.4820
19442TIP3   OH279740   6.643   3.019  14.315  0.2332  0.1491 -0.0238
19442TIP3    H179741   6.581   2.964  14.266  0.3730  1.5335 -1.8700
19442TIP3    H279742   6.599   3.035  14.398 -0.1290 -2.1041  0.2835
19443TIP3   OH279743   1.090   3.398  11.751 -0.2221  0.5714 -0.1990
19443TIP3    H179744   1.107   3.396  11.845  1.4693 -0.5819 -0.4682
19443TIP3    H279745   1.001   3.430  11.743 -0.5125  0.4069  1.8085
19444TIP3   OH279746   1.531   3.905  13.648  0.0993  0.1768  0.0754
19444TIP3    H179747   1.615   3.891  13.604 -0.2472 -0.6051 -0.3717
19444TIP3    H279748   1.465   3.887  13.580 -0.4872 -2.5150  1.2107
19445TIP3   OH279749   3.339   1.511  16.911 -0.2564  0.4518  0.5936
19445TIP3    H179750   3.395   1.433  16.915 -0.5857  0.1615 -0.1917
19445TIP3    H279751   3.299   1.516  16.997 -1.2248 -1.0145  0.2702
19446TIP3   OH279752   2.410   3.050   4.153  0.0972 -0.6140 -0.0619
19446TIP3    H179753   2.379   3.129   4.197  0.1634 -0.2886 -0.5802
19446TIP3    H279754   2.332   2.997   4.139  0.1312 -0.9022  0.7883
19447TIP3   OH279755   5.590   4.759   2.266 -0.0279  0.3642  0.4805
19447TIP3    H179756   5.553   4.727   2.183  0.7041 -0.8221  0.5828
19447TIP3    H279757   5.519   4.750   2.329 -1.2499  3.0804 -0.3307
19448TIP3   OH279758   3.239   1.390  14.040  0.0807  0.2615  0.3982
19448TIP3    H179759   3.172   1.322  14.041 -0.2811  0.5956  1.6441
19448TIP3    H279760   3.281   1.382  13.955 -3.1543  1.6164 -1.5425
19449TIP3   OH279761   2.946   6.435   3.829 -0.5189 -0.1868 -0.1309
19449TIP3    H179762   3.037   6.427   3.799  0.4444  1.4974  2.0398
19449TIP3    H279763   2.896   6.453   3.750  1.2977  0.4384 -1.1997
19450TIP3   OH279764   3.612   5.823  12.490 -0.4288 -0.1052  0.2996
19450TIP3    H179765   3.539   5.883  12.473 -1.2831 -1.1365  0.2401
19450TIP3    H279766   3.596   5.789  12.578 -0.3923 -0.8489  0.0272
19451TIP3   OH279767   4.397   3.818  12.708  0.2280 -0.2171 -0.1202
19451TIP3    H179768   4.337   3.828  12.782 -0.8071 -2.0072 -0.6578
19451TIP3    H279769   4.484   3.830  12.747 -0.3894  2.0810  0.7394
19452TIP3   OH279770   0.753   6.496   5.918 -0.5749 -0.6130 -0.1120
19452TIP3    H179771   0.805   6.575   5.905 -0.0825 -0.8006  0.6825
19452TIP3    H279772   0.731   6.497   6.011 -2.3793 -0.3042 -0.5082
19453TIP3   OH279773   4.865   3.757   3.294 -0.3185 -0.1953  0.2633
19453TIP3    H179774   4.775   3.753   3.263  0.4085 -1.5883 -1.9591
19453TIP3    H279775   4.884   3.669   3.325  0.5249 -0.1803 -0.1599
19454TIP3   OH279776   1.825   5.326   5.648  0.0007 -0.2076 -0.3072
19454TIP3    H179777   1.800   5.283   5.729 -2.4883 -1.1853 -1.4861
19454TIP3    H279778   1.842   5.255   5.587  0.1462  0.4958 -1.1145
19455TIP3   OH279779   4.393   5.620   3.998  0.5616 -0.4612 -0.1957
19455TIP3    H179780   4.308   5.619   3.953 -0.0434  0.9842  0.8293
19455TIP3    H279781   4.446   5.555   3.951 -0.5044 -0.0688 -2.0497
19456TIP3   OH279782   3.678   3.782  12.062 -0.5082 -0.5401 -0.3284
19456TIP3    H179783   3.613   3.787  11.991 -1.3913 -0.0338  0.4910
19456TIP3    H279784   3.746   3.724  12.028  1.0259  2.5319 -3.1263
19457TIP3   OH279785   1.728   5.236  14.336 -0.2932 -1.0220  0.3710
19457TIP3    H179786   1.726   5.307  14.401  0.7766 -1.1170  0.5221
19457TIP3    H279787   1.641   5.240  14.295 -0.6486 -0.3422  1.1374
19458TIP3   OH279788   1.412   3.305   1.372 -0.0021  0.0809 -0.1834
19458TIP3    H179789   1.405   3.391   1.329  0.4435  0.3215  0.2185
19458TIP3    H279790   1.321   3.276   1.380 -0.0933 -0.1252 -1.5702
19459TIP3   OH279791   5.856   0.524   1.901  0.7822 -0.4277  0.2128
19459TIP3    H179792   5.809   0.470   1.965  0.2804 -1.1516 -0.7214
19459TIP3    H279793   5.901   0.590   1.953 -0.8086 -0.0678  1.1953
19460TIP3   OH279794   5.947   6.688   4.436 -0.2025  0.4114  0.3148
19460TIP3    H179795   5.900   6.746   4.496 -1.5813  0.8388 -1.1176
19460TIP3    H279796   6.015   6.744   4.398 -1.3817  1.0700 -0.8879
19461TIP3   OH279797   5.592   1.865  15.666 -0.0479 -0.4588  0.2756
19461TIP3    H179798   5.517   1.922  15.686 -0.8069 -1.3146 -0.0478
19461TIP3    H279799   5.649   1.872  15.743 -1.7308 -1.8106  1.7633
19462TIP3   OH279800   4.474   4.775   4.671 -0.2128  0.6955  0.2788
19462TIP3    H179801   4.450   4.689   4.705  0.4629  0.2968 -0.2250
19462TIP3    H279802   4.562   4.790   4.705 -0.2230  1.0707  0.1411
19463TIP3   OH279803   2.007   4.343  12.267 -0.4497  0.3622  0.3855
19463TIP3    H179804   2.060   4.417  12.297  0.2863 -0.2164  0.5176
19463TIP3    H279805   2.010   4.281  12.339 -0.4730 -0.1019 -0.0134
19464TIP3   OH279806   1.195   1.509   0.455  0.1886  0.2756  0.0754
19464TIP3    H179807   1.210   1.513   0.360  1.8480  0.7977  0.3205
19464TIP3    H279808   1.205   1.600   0.484  0.1469  0.0479  0.8120
19465TIP3   OH279809   6.561   6.157   0.090  0.0722  0.1492 -0.1271
19465TIP3    H179810   6.572   6.186   0.180  0.5110 -1.6366  0.4304
19465TIP3    H279811   6.467   6.167   0.073 -0.1892 -0.4930  0.8885
19466TIP3   OH279812   3.622   3.901   5.446 -0.4875  0.0701 -0.0985
19466TIP3    H179813   3.598   3.927   5.535 -0.0644  0.0652  0.0208
19466TIP3    H279814   3.574   3.961   5.390  0.8411  1.4575  0.1804
19467TIP3   OH279815   1.258   0.050  15.196 -0.0452  0.0268 -0.3699
19467TIP3    H179816   1.179   0.041  15.144  0.1076 -0.2730 -0.5561
19467TIP3    H279817   1.292  -0.039  15.204 -0.0171  0.0805  0.1696
19468TIP3   OH279818   2.333   6.309   5.027 -0.1847 -0.8120 -0.3718
19468TIP3    H179819   2.426   6.295   5.046 -0.1353  0.5450  0.5146
19468TIP3    H279820   2.288   6.272   5.103 -0.1982  0.8693  0.4956
19469TIP3   OH279821   4.041   5.319   3.493 -0.1379 -0.4054 -0.0327
19469TIP3    H179822   4.128   5.336   3.529 -1.1678 -0.7776  2.9188
19469TIP3    H279823   3.982   5.368   3.550 -2.1047 -2.9351  0.2695
19470TIP3   OH279824   1.658   0.007  11.765 -0.0237 -0.1204 -0.5844
19470TIP3    H179825   1.648  -0.024  11.855  0.1869  2.1209  0.2860
19470TIP3    H279826   1.665   0.102  11.773  1.6807  0.0395 -2.8298
19471TIP3   OH279827   2.067   4.108   5.264 -0.1473  0.3282  0.7433
19471TIP3    H179828   2.140   4.130   5.206  0.1315 -2.5034 -0.1391
19471TIP3    H279829   2.010   4.053   5.211 -0.8622 -0.7767  2.5615
19472TIP3   OH279830   1.846   4.237   2.708  0.0495  0.1956 -0.6025
19472TIP3    H179831   1.813   4.160   2.755  2.9694 -0.8210  0.0288
19472TIP3    H279832   1.824   4.219   2.616  0.5211 -1.3734 -0.4525
19473TIP3   OH279833   3.339   1.036  12.269  0.2896  0.1860 -0.0639
19473TIP3    H179834   3.254   1.032  12.223 -0.1722 -0.2838  0.8089
19473TIP3    H279835   3.316   1.052  12.360  1.0807 -1.1387  0.3967
19474TIP3   OH279836   2.078   4.077  14.957  0.6811 -0.1100  1.0030
19474TIP3    H179837   2.008   4.108  15.014 -1.1022 -1.6114 -0.2746
19474TIP3    H279838   2.127   4.015  15.011 -0.3775 -0.7610  1.2410
19475TIP3   OH279839   4.292   1.083   5.831 -0.0189 -0.3633  0.3602
19475TIP3    H179840   4.276   1.067   5.924 -0.7247  1.6146  0.6220
19475TIP3    H279841   4.244   1.013   5.787  0.3571 -1.3573  1.4623
19476TIP3   OH279842   2.649   5.127   2.690 -0.0371  0.1553  0.2539
19476TIP3    H179843   2.662   5.167   2.604  2.0451 -1.4919 -0.2634
19476TIP3    H279844   2.607   5.196   2.742 -1.3583  1.1993 -2.0292
19477TIP3   OH279845   3.280   2.666  12.931 -0.0352 -0.1723  0.3019
19477TIP3    H179846   3.269   2.611  13.008  0.3931 -1.0759 -0.2578
19477TIP3    H279847   3.357   2.629  12.887 -1.6363 -1.1759 -1.7892
19478TIP3   OH279848   4.311   6.223   1.776 -0.2705  0.0556  0.4280
19478TIP3    H179849   4.377   6.197   1.712  1.8616  1.6081  1.8558
19478TIP3    H279850   4.247   6.273   1.725 -0.8388 -2.1533 -1.1314
19479TIP3   OH279851   5.408   4.272   0.778  0.1183  0.4539  0.1037
19479TIP3    H179852   5.497   4.306   0.780 -0.2184  1.3315  0.3665
19479TIP3    H279853   5.417   4.183   0.743  0.8572  1.2611 -1.8925
19480TIP3   OH279854   0.046   4.882  13.662  0.0330 -0.3377 -0.4219
19480TIP3    H179855  -0.015   4.864  13.733  0.8373  0.6030  0.5245
19480TIP3    H279856  -0.008   4.876  13.583 -0.9177 -1.1811  0.2574
19481TIP3   OH279857   2.361   1.536  11.370 -0.5585  0.2014  0.7642
19481TIP3    H179858   2.336   1.458  11.321 -2.1681  0.5251  0.9955
19481TIP3    H279859   2.305   1.535  11.448  0.4443  0.8144  1.5268
19482TIP3   OH279860   3.563   4.552  11.000 -0.3315 -0.1085 -0.2685
19482TIP3    H179861   3.545   4.515  10.914 -0.2091 -0.2818 -0.2208
19482TIP3    H279862   3.657   4.536  11.014  0.3963  2.5818 -1.3881
19483TIP3   OH279863   6.345   4.739  12.555  0.0905  0.0532  0.2384
19483TIP3    H179864   6.417   4.705  12.609 -0.3391  1.0181  1.4670
19483TIP3    H279865   6.332   4.673  12.487  2.2122 -0.0884 -0.0972
19484TIP3   OH279866   3.709   4.107   3.481 -0.6453  1.1628 -0.4679
19484TIP3    H179867   3.761   4.155   3.546  0.7800  0.3365 -0.9561
19484TIP3    H279868   3.769   4.042   3.446 -1.5911  1.1367 -2.1346
19485TIP3   OH279869   3.291   4.280  13.585  0.0764 -0.6846  0.2322
19485TIP3    H179870   3.299   4.215  13.654 -2.8736 -0.6134  0.7922
19485TIP3    H279871   3.316   4.234  13.505 -1.4333 -2.4068  0.6829
19486TIP3   OH279872   3.219   5.172  15.210  0.3960 -0.2623 -0.1242
19486TIP3    H179873   3.148   5.216  15.256 -1.0668 -2.2420 -0.3438
19486TIP3    H279874   3.292   5.234  15.212 -1.0076  1.4302  1.0014
19487TIP3   OH279875   2.323   4.322  13.302 -0.3650 -0.1822  0.8018
19487TIP3    H179876   2.314   4.398  13.359 -1.1357  0.7196 -0.4635
19487TIP3    H279877   2.308   4.246  13.359 -0.5558  0.6575  1.8878
19488TIP3   OH279878   3.200   4.985  12.551 -0.2700  0.2655 -0.2548
19488TIP3    H179879   3.243   5.023  12.475 -1.2957  0.2886 -0.8314
19488TIP3    H279880   3.237   4.897  12.557  1.8357  1.1546  0.8694
19489TIP3   OH279881   2.519   5.067  13.154  0.5368  0.2451 -0.5363
19489TIP3    H179882   2.501   4.995  13.093  0.9287 -0.4864  0.1977
19489TIP3    H279883   2.478   5.144  13.113  1.1007 -0.1514 -1.8977
19490TIP3   OH279884   0.268   6.199  13.284 -0.2516 -0.1996 -1.1551
19490TIP3    H179885   0.361   6.214  13.300 -0.2166 -0.5299 -1.0431
19490TIP3    H279886   0.253   6.108  13.310 -1.0530  0.4549  0.8871
19491TIP3   OH279887   5.838   1.249  10.929  0.4506 -0.0181 -0.3680
19491TIP3    H179888   5.792   1.176  10.971  1.0401  0.3450  0.9676
19491TIP3    H279889   5.831   1.321  10.992  2.8346  0.0541 -0.0741
19492TIP3   OH279890   1.703   3.258   5.089 -0.4071  0.4791 -0.0473
19492TIP3    H179891   1.705   3.304   5.173 -0.2790  1.4881 -0.5870
19492TIP3    H279892   1.652   3.179   5.106 -2.0693  1.6284  0.5229
19493TIP3   OH279893   6.307   2.165   1.538  0.2874 -0.1351 -0.1345
19493TIP3    H179894   6.237   2.224   1.567  1.7933  1.4317  0.5554
19493TIP3    H279895   6.372   2.224   1.499  1.1533 -1.5461 -0.8895
19494TIP3   OH279896   5.661   6.389   0.828 -0.1254 -0.2722 -0.1157
19494TIP3    H179897   5.744   6.435   0.843 -0.0867  0.0173 -1.1139
19494TIP3    H279898   5.664   6.364   0.736 -1.7170  0.9376 -0.5546
19495TIP3   OH279899   2.238   0.476  12.277 -0.2739 -0.2677 -0.0692
19495TIP3    H179900   2.239   0.475  12.373 -1.7613 -1.5082 -0.0182
19495TIP3    H279901   2.187   0.398  12.253 -0.0970  0.1213 -1.8658
19496TIP3   OH279902   0.583   6.170   3.570  0.0205  0.4612 -0.0180
19496TIP3    H179903   0.667   6.127   3.554  0.3159  0.6562  0.9383
19496TIP3    H279904   0.605   6.246   3.625 -0.6949  0.9008 -0.3320
19497TIP3   OH279905   4.691   5.160  11.478  1.0703 -0.1365 -0.0532
19497TIP3    H179906   4.714   5.081  11.431 -1.9427 -0.6118 -0.9900
19497TIP3    H279907   4.712   5.142  11.570  0.3544 -2.0939 -0.2379
19498TIP3   OH279908   3.457   5.689   3.137  0.2522 -0.2756 -0.1991
19498TIP3    H179909   3.522   5.630   3.176 -1.2126 -1.3175  0.7369
19498TIP3    H279910   3.396   5.708   3.208 -0.1523  1.1713 -0.9011
19499TIP3   OH279911   2.823   3.560  15.073 -0.5285  0.1163 -0.2627
19499TIP3    H179912   2.837   3.616  15.149 -0.6521  0.3041 -0.3789
19499TIP3    H279913   2.869   3.603  15.002 -1.9393  0.9214 -0.7321
19500TIP3   OH279914   1.585   2.258  11.830  0.4938 -0.1691  0.2083
19500TIP3    H179915   1.530   2.180  11.830  0.9942 -0.5329  0.3148
19500TIP3    H279916   1.591   2.284  11.922  0.6577 -0.2447  0.2185
19501TIP3   OH279917   1.608   2.048  13.970  0.5325 -0.0824  0.8762
19501TIP3    H179918   1.696   2.084  13.978 -0.2949  2.0505  1.0332
19501TIP3    H279919   1.602   2.017  13.879  1.5368 -0.6072  0.9776
19502TIP3   OH279920   6.076   2.259  10.642  0.1937  0.2330 -0.0879
19502TIP3    H179921   6.135   2.252  10.717  0.2947 -0.5554 -0.2322
19502TIP3    H279922   6.028   2.176  10.641 -0.9894  0.8931  0.0792
19503TIP3   OH279923   2.014   4.738   4.809 -0.0912 -0.1972 -0.3863
19503TIP3    H179924   1.949   4.672   4.832 -1.6583  1.5516  0.3544
19503TIP3    H279925   1.999   4.754   4.716  0.3802 -0.9199 -0.6032
19504TIP3   OH279926   6.139   5.218   3.001  0.5040 -0.3152  0.4228
19504TIP3    H179927   6.189   5.231   3.082  1.3397 -0.8295  0.0031
19504TIP3    H279928   6.084   5.142   3.018  0.1579 -0.0014  0.7401
19505TIP3   OH279929   3.262   2.036   2.178 -0.1892  0.3240 -0.2276
19505TIP3    H179930   3.226   2.103   2.120  0.3734  1.6678  0.9110
19505TIP3    H279931   3.255   2.074   2.266  0.5751 -0.9238  0.4010
19506TIP3   OH279932   2.616   5.340   4.059 -0.3601 -0.1462  0.1376
19506TIP3    H179933   2.613   5.435   4.064  1.6699 -0.0095 -0.2873
19506TIP3    H279934   2.656   5.321   3.974 -1.0776 -1.4047  0.0477
19507TIP3   OH279935   4.091   3.385  12.935 -0.4009 -0.1495 -0.3582
19507TIP3    H179936   4.005   3.342  12.930 -0.1876 -0.7522  0.8640
19507TIP3    H279937   4.153   3.313  12.946  0.2185  0.3186 -0.7399
19508TIP3   OH279938   4.646   2.721   4.196  0.0275 -0.1219  0.2710
19508TIP3    H179939   4.605   2.804   4.219 -1.5157 -0.3755 -1.3427
19508TIP3    H279940   4.643   2.718   4.100  2.5069 -0.8495  0.1433
19509TIP3   OH279941   4.567   5.942  13.981  0.3890  0.1118  0.6980
19509TIP3    H179942   4.635   5.877  14.000 -0.6605 -2.0047 -2.0044
19509TIP3    H279943   4.512   5.943  14.059  3.2649  1.7734  2.8968
19510TIP3   OH279944   2.785   2.198   1.977  0.3008  0.6116  0.2180
19510TIP3    H179945   2.840   2.261   1.932  0.9438  0.6282  1.0000
19510TIP3    H279946   2.842   2.124   1.996 -0.1238  0.3274  0.4193
19511TIP3   OH279947   1.662   1.159  13.162 -0.6484 -0.0403  0.1400
19511TIP3    H179948   1.584   1.113  13.131 -0.1309 -0.1581 -1.0579
19511TIP3    H279949   1.644   1.251  13.146  0.5776 -0.2027 -3.1002
19512TIP3   OH279950   0.650   0.801  14.289 -0.4613 -0.2219  0.3790
19512TIP3    H179951   0.573   0.786  14.342 -1.9477  0.0267 -1.5819
19512TIP3    H279952   0.637   0.889  14.252  0.8774 -0.0757  0.1961
19513TIP3   OH279953   5.042   6.080   2.021 -0.0355 -0.3371 -0.7116
19513TIP3    H179954   5.045   6.168   1.985  0.1576 -0.5127 -1.1350
19513TIP3    H279955   5.091   6.086   2.103  1.3578 -0.3817 -1.5015
19514TIP3   OH279956   0.065   6.788  15.413  0.6018 -0.1040  0.8622
19514TIP3    H179957   0.150   6.802  15.370  0.8296  0.8421  1.5583
19514TIP3    H279958   0.001   6.821  15.351  0.8323  0.0775  0.7164
19515TIP3   OH279959   6.742   6.059   1.390  0.2190  0.0082  0.3981
19515TIP3    H179960   6.811   6.125   1.384  0.2559 -0.1658 -2.6727
19515TIP3    H279961   6.788   5.976   1.381 -0.2126 -0.2028  0.1135
19516TIP3   OH279962   6.427   2.778  12.454 -0.4736  0.0322  0.1010
19516TIP3    H179963   6.461   2.779  12.364  0.2846 -0.7589  0.3547
19516TIP3    H279964   6.430   2.869  12.482  2.3565 -0.0638  0.3988
19517TIP3   OH279965   1.394   0.130  16.870 -0.5449 -0.2514 -0.1046
19517TIP3    H179966   1.393   0.152  16.963  0.8991 -2.1275  0.4401
19517TIP3    H279967   1.304   0.142  16.841 -0.8577  1.1687  1.3176
19518TIP3   OH279968   0.232   1.007  11.532 -0.5845  0.0299  0.3787
19518TIP3    H179969   0.237   1.084  11.588 -2.7851 -0.6079  1.5588
19518TIP3    H279970   0.319   0.967  11.539  0.1957  1.6883  0.7292
19519TIP3   OH279971   1.298   6.139   5.647 -0.0033 -0.1975  0.0473
19519TIP3    H179972   1.350   6.206   5.602  0.3964  0.1082  0.9407
19519TIP3    H279973   1.287   6.070   5.583 -1.2590  1.1195 -1.2542
19520TIP3   OH279974   0.548   1.451   1.883  0.8654  0.4760  0.1908
19520TIP3    H179975   0.586   1.501   1.956  1.7717 -0.2116  0.2145
19520TIP3    H279976   0.617   1.449   1.817  1.0117 -1.0324  0.3411
19521TIP3   OH279977   5.970   0.297  11.795  0.1052 -0.2906  0.1541
19521TIP3    H179978   5.999   0.375  11.748 -0.7775 -0.2129 -0.2787
19521TIP3    H279979   5.900   0.261  11.741 -0.8166 -0.2919  1.3119
19522TIP3   OH279980   5.180   5.513   0.364  0.5449  0.3935  0.3064
19522TIP3    H179981   5.210   5.422   0.353 -0.7476 -0.0303  0.0827
19522TIP3    H279982   5.145   5.516   0.453  1.0516  0.8164  0.4929
19523TIP3   OH279983   3.740   0.937   0.820  0.4069 -0.5669  0.3358
19523TIP3    H179984   3.680   0.888   0.877  0.2465 -0.8627 -0.0836
19523TIP3    H279985   3.684   0.976   0.753  0.8349 -2.2690 -1.0898
19524TIP3   OH279986   3.065   5.104  13.970 -0.2059  0.3913  0.0227
19524TIP3    H179987   3.143   5.055  13.997  0.6514  1.1961 -0.9341
19524TIP3    H279988   3.070   5.186  14.020 -1.0391 -0.0119  0.7829
19525TIP3   OH279989   5.038   1.378   0.809  0.1223  0.1861  0.6552
19525TIP3    H179990   5.131   1.363   0.825  0.0923  1.5518  2.4126
19525TIP3    H279991   5.033   1.471   0.785 -0.7863  0.0925  0.4540
19526TIP3   OH279992   4.121   5.761   0.169 -0.7577  0.1005  0.5553
19526TIP3    H179993   4.043   5.796   0.126 -0.5547 -1.3734 -1.0976
19526TIP3    H279994   4.193   5.813   0.132 -0.8997  1.6664  2.3011
19527TIP3   OH279995   5.254   5.553   4.588  0.4764  0.1970  0.0912
19527TIP3    H179996   5.237   5.475   4.535  1.1405  0.5574 -0.6781
19527TIP3    H279997   5.275   5.518   4.675 -4.1730 -0.3000  1.2674
19528TIP3   OH279998   4.408   5.187  11.492  0.0578 -0.2408  0.3727
19528TIP3    H179999   4.456   5.238  11.426 -0.0230 -1.2891 -0.5203
19528TIP3    H280000   4.471   5.122  11.521 -0.5863 -1.1796 -0.2894
19529TIP3   OH280001   6.744   0.707   1.417 -0.3501  0.1245  0.0087
19529TIP3    H180002   6.701   0.792   1.405  0.5016  0.2514 -2.8600
19529TIP3    H280003   6.679   0.643   1.388 -0.4400 -0.1068  0.7021
19530TIP3   OH280004   2.268   5.734  14.347 -0.1208  0.3847 -0.2830
19530TIP3    H180005   2.258   5.783  14.429 -0.0673  0.1584 -0.1409
19530TIP3    H280006   2.216   5.655  14.360 -0.7715  0.7173 -0.7728
19531TIP3   OH280007   3.232   3.333  12.816 -0.1559 -0.5702 -0.3618
19531TIP3    H180008   3.308   3.361  12.765  0.9051 -3.7337 -0.7472
19531TIP3    H280009   3.180   3.412  12.828  1.4047  1.0358 -3.1828
19532TIP3   OH280010   1.355   0.916  15.182  0.3363 -0.8099  0.0320
19532TIP3    H180011   1.277   0.947  15.229  1.5223  3.0246 -0.2008
19532TIP3    H280012   1.412   0.881  15.251 -0.6541 -1.5745  0.4839
19533TIP3   OH280013   3.935   6.451  16.406  0.6142  0.2817 -0.4069
19533TIP3    H180014   3.880   6.520  16.442  0.1189 -2.0386  3.9608
19533TIP3    H280015   3.876   6.397  16.354  0.3215  1.3625 -1.2264
19534TIP3   OH280016   5.928   6.004   3.578  0.0950  0.1877  0.4508
19534TIP3    H180017   5.864   6.010   3.650  1.0422 -0.0182  1.3379
19534TIP3    H280018   5.933   5.911   3.558  0.8891  0.0797  1.1148
19535TIP3   OH280019   2.950   3.715   0.038  0.1481 -0.1028 -0.2165
19535TIP3    H180020   2.988   3.687  -0.045  1.5152  1.8182 -0.2905
19535TIP3    H280021   2.902   3.638   0.069  1.6805 -1.6741 -1.5452
19536TIP3   OH280022   5.824   3.979  12.634  0.1609  0.0978 -0.1823
19536TIP3    H180023   5.861   4.061  12.666 -0.0133  0.3894 -0.7264
19536TIP3    H280024   5.750   3.962  12.693 -0.9122  1.2691 -1.1607
19537TIP3   OH280025   6.272   0.034  11.426  0.2227  0.5733 -0.3232
19537TIP3    H180026   6.280   0.125  11.454 -0.8452  1.0196 -1.3406
19537TIP3    H280027   6.268  -0.017  11.507  2.2711  1.2531  0.2627
19538TIP3   OH280028   5.754   1.652   3.287 -0.0851  0.7185 -0.5082
19538TIP3    H180029   5.772   1.745   3.274 -1.1867  0.7716 -1.7954
19538TIP3    H280030   5.800   1.631   3.369  0.5424  2.2732 -0.4136
19539TIP3   OH280031   3.048   1.616   0.292  0.0670 -0.0507 -0.1025
19539TIP3    H180032   2.980   1.675   0.327 -0.0856  0.1156 -0.6654
19539TIP3    H280033   3.001   1.535   0.272  0.7072 -1.3571  3.0558
19540TIP3   OH280034   6.759   1.672   1.500 -0.1450 -0.0631 -0.0723
19540TIP3    H180035   6.779   1.734   1.430  2.9214  1.1099  1.5987
19540TIP3    H280036   6.728   1.727   1.572  0.6476 -0.6615  0.7595
19541TIP3   OH280037   0.152   3.848  17.184  0.2921  0.2243  0.3161
19541TIP3    H180038   0.189   3.926  17.227  0.2216 -0.3483  1.4620
19541TIP3    H280039   0.080   3.882  17.131 -1.2548  0.7560  2.5712
19542TIP3   OH280040   0.971   0.118   4.435 -0.0605 -0.1036 -0.1952
19542TIP3    H180041   0.960   0.024   4.443  0.0272 -0.0011  1.4111
19542TIP3    H280042   0.893   0.148   4.388 -0.7163 -0.8255  0.4116
19543TIP3   OH280043   4.694   0.743   5.853 -0.0793 -0.0560  0.4499
19543TIP3    H180044   4.617   0.689   5.869 -0.3899 -0.6511 -2.6106
19543TIP3    H280045   4.663   0.815   5.799  1.5974 -0.8302 -1.6757
19544TIP3   OH280046   0.269   4.594   5.771  0.2248  0.3468 -0.0220
19544TIP3    H180047   0.180   4.618   5.745  1.1441  1.6390 -2.2356
19544TIP3    H280048   0.272   4.499   5.765 -0.6506  0.3857 -1.2128
19545TIP3   OH280049   3.777   6.230   2.289  0.6244  0.0704 -0.6172
19545TIP3    H180050   3.748   6.261   2.203  0.1395 -0.1182 -0.5222
19545TIP3    H280051   3.728   6.149   2.303  1.1116 -0.1880 -0.4033
19546TIP3   OH280052   1.477   5.395   0.682  0.1272  0.5943 -0.7111
19546TIP3    H180053   1.400   5.402   0.739  0.9774  0.9381  0.4126
19546TIP3    H280054   1.500   5.485   0.662  0.2348  0.4880 -1.0838
19547TIP3   OH280055   6.740   4.349   3.023 -0.2307  0.2183  0.2903
19547TIP3    H180056   6.675   4.289   2.987  0.0569  0.9567 -1.5432
19547TIP3    H280057   6.696   4.388   3.099 -0.7082 -1.6694  1.0460
19548TIP3   OH280058   3.291   2.102  14.265  0.3374  0.3865  0.5515
19548TIP3    H180059   3.242   2.167  14.214 -0.1785  0.6263  1.3263
19548TIP3    H280060   3.374   2.144  14.285  0.7831  0.0736 -0.5623
19549TIP3   OH280061   1.129   0.500  14.575  0.2973  0.0773  0.5100
19549TIP3    H180062   1.105   0.591  14.593 -0.8022 -0.3135  1.1150
19549TIP3    H280063   1.168   0.469  14.657  0.0875 -0.1859  0.5095
19550TIP3   OH280064   3.264   3.162  11.406 -0.2621 -0.5022 -0.3921
19550TIP3    H180065   3.338   3.103  11.421 -0.2783 -0.2064  0.9776
19550TIP3    H280066   3.284   3.205  11.323  0.3292 -1.5452 -0.8160
19551TIP3   OH280067   5.744   5.269  13.591  0.7576 -0.0371  0.3484
19551TIP3    H180068   5.684   5.202  13.559  0.9810 -0.2771  0.4347
19551TIP3    H280069   5.741   5.337  13.523  1.8596 -0.9042 -0.6057
19552TIP3   OH280070   3.080   0.545  13.692 -0.3381  0.6916  0.5458
19552TIP3    H180071   3.047   0.455  13.695  0.0908  0.5445  0.9077
19552TIP3    H280072   3.042   0.587  13.770  1.0503  0.2659  1.4758
19553TIP3   OH280073   1.628   1.590  11.645 -0.4786  0.1663 -0.1063
19553TIP3    H180074   1.714   1.600  11.604  0.8988 -2.2146  1.8708
19553TIP3    H280075   1.640   1.624  11.734 -2.0178  1.0231 -0.1960
19554TIP3   OH280076   6.375   2.074  16.973  0.3390 -1.0494  0.0428
19554TIP3    H180077   6.286   2.109  16.973  0.8096  0.2189 -0.8770
19554TIP3    H280078   6.426   2.137  17.023  2.3372  3.0911 -5.9985
19555TIP3   OH280079   4.240   1.373  15.969  0.0418  0.0340 -0.2599
19555TIP3    H180080   4.180   1.300  15.981 -1.0344  0.6302 -1.6323
19555TIP3    H280081   4.323   1.342  16.004 -0.6875 -1.3795  0.3099
19556TIP3   OH280082   4.596   0.291  13.995 -0.1898  0.1424 -0.2243
19556TIP3    H180083   4.685   0.279  14.029  0.4882  0.5469 -1.7210
19556TIP3    H280084   4.587   0.223  13.929 -1.7374 -1.0948  1.2045
19557TIP3   OH280085   3.843   1.711   4.207 -0.4905  0.6228 -0.3841
19557TIP3    H180086   3.793   1.640   4.165  1.2400  0.1726 -1.8073
19557TIP3    H280087   3.907   1.666   4.261  1.0999  0.9993 -1.8550
19558TIP3   OH280088   5.508   3.927  16.303 -0.4491 -0.6603  0.2717
19558TIP3    H180089   5.540   3.837  16.297 -0.5438 -0.6226 -0.9420
19558TIP3    H280090   5.517   3.962  16.215  4.2279  2.1767  1.5091
19559TIP3   OH280091   2.689   6.243  11.262  0.1505  0.0767  0.8165
19559TIP3    H180092   2.603   6.249  11.304 -0.7639 -1.0318 -0.7911
19559TIP3    H280093   2.696   6.323  11.210  0.7898  0.8999  2.1166
19560TIP3   OH280094   2.930   2.808   1.298 -0.5729  0.6617 -0.0639
19560TIP3    H180095   2.896   2.893   1.326 -1.9022  0.0990  0.1106
19560TIP3    H280096   3.022   2.824   1.278 -0.3920  1.8000  1.5003
19561TIP3   OH280097   2.763   6.242  11.695  0.0494  0.3744  0.4675
19561TIP3    H180098   2.741   6.238  11.788 -0.4077  0.4196  0.3673
19561TIP3    H280099   2.708   6.175  11.655 -0.7183  1.2145  0.0626
19562TIP3   OH280100   4.656   3.938  13.385  0.4458  0.1777  0.3868
19562TIP3    H180101   4.727   3.879  13.360  1.1493  0.6551  1.1885
19562TIP3    H280102   4.695   4.026  13.380  0.3518  0.3611  2.1487
19563TIP3   OH280103   1.966   3.402  15.763  0.0799 -0.7181 -0.2618
19563TIP3    H180104   1.923   3.483  15.735 -1.5597 -1.7526 -0.9279
19563TIP3    H280105   1.922   3.378  15.845  1.4020 -0.3314  0.5972
19564TIP3   OH280106   4.621   1.715  10.524 -0.3015 -0.0462 -0.2233
19564TIP3    H180107   4.702   1.688  10.481  0.4676 -0.5636  1.4456
19564TIP3    H280108   4.647   1.732  10.615 -2.0407 -0.0988  0.3180
19565TIP3   OH280109   2.037   0.574   2.691  0.4083 -0.7011 -0.0521
19565TIP3    H180110   2.048   0.661   2.729 -0.2621 -0.4430 -0.4392
19565TIP3    H280111   2.119   0.529   2.712  1.5856  0.6409 -1.4752
19566TIP3   OH280112   4.829   5.545   4.379  0.0425  0.6187 -0.4827
19566TIP3    H180113   4.895   5.504   4.435 -0.2997 -0.3660 -0.7778
19566TIP3    H280114   4.865   5.537   4.291  0.1997  1.4277 -0.5025
19567TIP3   OH280115   1.695   3.691   5.695 -0.0979  0.1029 -0.4167
19567TIP3    H180116   1.762   3.636   5.654 -0.4772  0.0002 -0.8977
19567TIP3    H280117   1.616   3.674   5.645 -0.8230 -0.7888  0.9562
19568TIP3   OH280118   2.334   5.604   5.188  0.4527 -0.1420 -0.4035
19568TIP3    H180119   2.253   5.651   5.206  0.7541  0.3433 -0.2859
19568TIP3    H280120   2.341   5.604   5.092  1.3644  1.6946 -0.3951
19569TIP3   OH280121   4.863   5.075   2.644  0.3044  0.3141 -0.2904
19569TIP3    H180122   4.784   5.029   2.616  0.5309  0.3234 -0.9648
19569TIP3    H280123   4.853   5.164   2.610 -0.0830  0.7471  0.9190
19570TIP3   OH280124   2.710   2.646   0.978  0.1814  0.0993 -0.0610
19570TIP3    H180125   2.628   2.627   0.931  0.9088 -2.2644 -0.4815
19570TIP3    H280126   2.685   2.647   1.070 -0.3525 -0.4810 -0.1906
19571TIP3   OH280127   1.421   1.981  15.266  0.6990  0.4869  0.0433
19571TIP3    H180128   1.404   2.064  15.222  1.3968  0.4537 -0.2927
19571TIP3    H280129   1.388   1.914  15.206 -1.4874  0.5524  1.0608
19572TIP3   OH280130   3.598   1.456   0.574 -0.5283 -0.6567  0.0290
19572TIP3    H180131   3.546   1.453   0.654 -0.4489  1.8106  0.2561
19572TIP3    H280132   3.540   1.420   0.507 -1.5266 -0.4434  0.7523
19573TIP3   OH280133   0.774   4.412  12.426 -0.1952  0.2157  0.0219
19573TIP3    H180134   0.740   4.501  12.438  1.6842  1.4728 -2.8271
19573TIP3    H280135   0.839   4.402  12.495  0.8786  1.8386 -0.6910
19574TIP3   OH280136   0.226   2.784  13.976 -0.4096  0.5582  0.0560
19574TIP3    H180137   0.211   2.711  13.917 -0.6451  0.9279 -0.3469
19574TIP3    H280138   0.179   2.857  13.937 -0.9131  0.7094  0.9073
19575TIP3   OH280139   2.409   5.983   4.142 -0.0167  0.1344  0.0853
19575TIP3    H180140   2.409   5.928   4.064  0.7936 -0.4650  0.4859
19575TIP3    H280141   2.407   6.073   4.109  2.5548 -0.0404 -0.7167
19576TIP3   OH280142   6.020   1.271  14.600 -0.4123 -0.1208  0.7795
19576TIP3    H180143   6.030   1.363  14.578 -3.1383  0.0809 -0.0101
19576TIP3    H280144   5.935   1.265  14.642 -1.9507 -2.6613 -2.2254
19577TIP3   OH280145   3.094   5.165  12.884  0.5214  0.3566 -0.0117
19577TIP3    H180146   3.099   5.151  12.789  1.6195  3.6408 -0.5672
19577TIP3    H280147   3.000   5.164  12.903  0.1783  1.2223 -1.4653
19578TIP3   OH280148   5.830   5.706  12.382 -0.1583 -0.1782 -0.5300
19578TIP3    H180149   5.748   5.662  12.359 -1.9985  2.7293 -0.0302
19578TIP3    H280150   5.815   5.743  12.469  1.5446  0.7875 -0.5879
19579TIP3   OH280151   5.289   2.961  14.290 -0.1206 -0.7974 -0.0439
19579TIP3    H180152   5.223   2.924  14.231 -0.6322  0.6673 -0.4374
19579TIP3    H280153   5.241   3.024  14.344  0.8342 -0.1681  0.1005
19580TIP3   OH280154   1.936   6.572   2.762 -0.7100  0.0102 -0.1686
19580TIP3    H180155   1.953   6.649   2.815 -1.1874 -0.5156  0.7604
19580TIP3    H280156   1.841   6.566   2.757 -0.7328 -1.5269  1.3069
19581TIP3   OH280157   3.380   1.476   2.176 -0.0396  1.1036 -0.2495
19581TIP3    H180158   3.322   1.526   2.233  0.1885  0.5614  0.4757
19581TIP3    H280159   3.430   1.542   2.129 -1.7242  1.5955 -1.4247
19582TIP3   OH280160   0.017   1.803  11.307  0.4587  0.3097 -0.1451
19582TIP3    H180161  -0.003   1.767  11.393  2.0139 -0.8128 -0.2257
19582TIP3    H280162  -0.031   1.748  11.246  0.8103 -0.0359 -0.1097
19583TIP3   OH280163   6.621   5.849   5.440 -0.5335 -0.1299  0.3632
19583TIP3    H180164   6.629   5.944   5.430  0.4258 -0.1988  0.4600
19583TIP3    H280165   6.682   5.827   5.510 -0.6963 -0.8338  0.2856
19584TIP3   OH280166   0.409   0.218  13.895 -0.4069 -0.3399  0.0811
19584TIP3    H180167   0.433   0.184  13.808  1.3765  1.7071 -0.3179
19584TIP3    H280168   0.433   0.148  13.955  1.9587 -0.3811 -0.8054
19585TIP3   OH280169   3.788   3.014   5.876  0.0451  0.1480  0.1287
19585TIP3    H180170   3.833   2.953   5.934  0.4435 -1.5135 -1.8178
19585TIP3    H280171   3.703   2.974   5.860 -2.5732  3.3328  3.9365
19586TIP3   OH280172   4.083   2.270  13.353  0.1058  0.1809  0.1862
19586TIP3    H180173   4.036   2.192  13.323  2.2432 -1.1512  0.0880
19586TIP3    H280174   4.024   2.310  13.417 -1.7517 -0.5665 -0.9425
19587TIP3   OH280175   5.519   1.091   1.492  0.0569 -0.2613 -0.2674
19587TIP3    H180176   5.456   1.059   1.427 -0.7155  0.1626  0.2610
19587TIP3    H280177   5.482   1.174   1.522  1.6828  0.8506 -1.1347
19588TIP3   OH280178   0.881   5.175   2.723  0.0018 -0.2892 -0.1942
19588TIP3    H180179   0.803   5.230   2.713 -0.2804 -0.6930 -0.2296
19588TIP3    H280180   0.930   5.188   2.642  0.5841  0.9137  0.3360
19589TIP3   OH280181   0.440   1.154  11.210 -0.4478  0.1411  0.7912
19589TIP3    H180182   0.374   1.086  11.195  0.2794 -0.7271  1.3879
19589TIP3    H280183   0.423   1.220  11.143  1.0860 -2.3398 -2.3680
19590TIP3   OH280184   1.515   4.665  14.869 -0.2188  0.6217 -0.4841
19590TIP3    H180185   1.557   4.738  14.914  0.3700 -0.1518  0.2500
19590TIP3    H280186   1.422   4.686  14.869 -0.0342  1.4652 -0.4716
19591TIP3   OH280187   0.927   3.163  16.733  0.0606 -0.1747 -0.0390
19591TIP3    H180188   0.930   3.144  16.639  1.4169  1.9360 -0.4900
19591TIP3    H280189   0.895   3.253  16.738 -1.4467 -0.7512  1.6645
19592TIP3   OH280190   2.640   6.007   5.093  0.0345 -0.0812  0.6509
19592TIP3    H180191   2.729   6.042   5.093  0.4013 -0.8883 -1.2969
19592TIP3    H280192   2.594   6.059   5.159  1.5944  1.2698  0.7495
19593TIP3   OH280193   1.946   0.584  13.244  0.1411  0.4798 -0.6658
19593TIP3    H180194   1.938   0.665  13.193 -1.9593 -0.3403 -1.7693
19593TIP3    H280195   1.856   0.560  13.265  0.7290 -1.4611 -0.1847
19594TIP3   OH280196   6.471   0.720   0.388 -0.1379  0.3537 -0.4274
19594TIP3    H180197   6.499   0.645   0.337  1.5722 -0.4107  1.4700
19594TIP3    H280198   6.553   0.767   0.409 -0.4886 -0.1767  2.6859
19595TIP3   OH280199   5.285   2.795  16.814 -0.0128 -0.0432 -0.2411
19595TIP3    H180200   5.274   2.773  16.906  1.8130  0.7101  0.1911
19595TIP3    H280201   5.209   2.850  16.793 -1.6182 -2.0126  0.1690
19596TIP3   OH280202   0.134   0.524   0.306  0.4953  0.2947 -0.0004
19596TIP3    H180203   0.062   0.531   0.368  0.2026 -1.1728 -0.1517
19596TIP3    H280204   0.147   0.430   0.294  1.1799  0.5423 -1.4218
19597TIP3   OH280205   4.437   4.909  12.864 -0.3767 -0.0912  0.1533
19597TIP3    H180206   4.460   4.872  12.779  0.8537  0.5123  0.2099
19597TIP3    H280207   4.348   4.876  12.880  0.2905 -2.2548 -0.2106
19598TIP3   OH280208   2.052   4.611  11.267  0.3594  0.5387 -0.5022
19598TIP3    H180209   2.104   4.690  11.252 -0.7740  1.0375 -2.1532
19598TIP3    H280210   2.066   4.558  11.189 -0.8195  0.2621 -0.5547
19599TIP3   OH280211   1.188   6.005  16.309  0.9801 -0.1590 -0.2238
19599TIP3    H180212   1.256   5.940  16.323  0.7219 -0.6182 -1.0628
19599TIP3    H280213   1.118   5.981  16.370  1.3869  0.0789  0.3506
19600TIP3   OH280214   0.164   0.360   3.505 -0.2261 -0.2632  0.1274
19600TIP3    H180215   0.161   0.426   3.436  0.3059  0.2249  0.5517
19600TIP3    H280216   0.158   0.276   3.460 -0.1715  0.0589 -0.4819
19601TIP3   OH280217   1.007   0.780   4.133 -0.0122 -0.0983 -0.1407
19601TIP3    H180218   0.996   0.872   4.108 -0.5469 -0.1256 -0.0196
19601TIP3    H280219   1.092   0.756   4.097  0.4878  0.6621  0.4811
19602TIP3   OH280220   5.684   1.034  11.976 -0.1310  0.6129 -0.8069
19602TIP3    H180221   5.752   0.977  11.939 -0.1291  1.0272 -1.4638
19602TIP3    H280222   5.617   1.039  11.908 -2.3233 -2.2255  0.9655
19603TIP3   OH280223   5.387   1.327   5.112  0.4395 -0.2297 -0.1448
19603TIP3    H180224   5.415   1.342   5.202 -0.3104  0.9748 -0.0795
19603TIP3    H280225   5.438   1.252   5.083  0.4817 -0.8341  1.3764
19604TIP3   OH280226   5.187   3.018   1.403  0.1172  0.2093 -0.2223
19604TIP3    H180227   5.110   3.014   1.346 -1.6102 -1.6262  2.0319
19604TIP3    H280228   5.162   3.081   1.471 -0.1364 -1.5902  1.4211
19605TIP3   OH280229   0.320   5.534   2.784 -0.1623  0.0181  0.2446
19605TIP3    H180230   0.409   5.512   2.755 -0.6455 -2.3539  0.3941
19605TIP3    H280231   0.284   5.587   2.713  1.1746  0.5256 -0.0778
19606TIP3   OH280232   1.482   5.001   0.823  0.2445  0.6587 -1.0584
19606TIP3    H180233   1.456   4.914   0.853 -0.4351  0.9630 -0.7338
19606TIP3    H280234   1.576   5.004   0.836  0.2038  0.1399 -0.6232
19607TIP3   OH280235   3.590   5.151  10.678  0.0100  0.1764  0.1445
19607TIP3    H180236   3.573   5.219  10.613 -0.4155 -1.0200 -1.0538
19607TIP3    H280237   3.551   5.072  10.641  2.3311 -1.2219  0.4534
19608TIP3   OH280238   0.351   4.477  15.220 -0.5748  0.1781  0.2318
19608TIP3    H180239   0.402   4.499  15.298  2.1558  1.9370 -1.8468
19608TIP3    H280240   0.281   4.542  15.217 -0.3022  0.5085  0.8355
19609TIP3   OH280241   4.232   1.265  13.243 -0.5355  0.2120 -0.0186
19609TIP3    H180242   4.147   1.234  13.214 -0.4343 -0.2822  0.1960
19609TIP3    H280243   4.221   1.278  13.338 -0.4521  0.4102 -0.0363
19610TIP3   OH280244   1.681   6.013   3.932  0.0163  0.0927 -0.1762
19610TIP3    H180245   1.722   6.098   3.921 -0.2664  0.2197 -0.2436
19610TIP3    H280246   1.656   5.986   3.844  0.4369 -0.2266 -0.2008
19611TIP3   OH280247   5.589   1.664   0.109 -0.0788 -0.2206  0.5164
19611TIP3    H180248   5.655   1.662   0.178  1.9337 -0.2173 -1.3036
19611TIP3    H280249   5.557   1.754   0.107  2.4806  0.7661 -0.8074
19612TIP3   OH280250   5.521   5.861  13.795 -0.0543  0.1208  0.0211
19612TIP3    H180251   5.539   5.907  13.877 -0.0393  0.0711  0.0456
19612TIP3    H280252   5.607   5.834  13.763 -0.0726 -0.0056  0.0743
19613TIP3   OH280253   0.624   4.947   1.365 -0.5687  0.0636  0.1617
19613TIP3    H180254   0.690   4.939   1.296 -0.7778  0.9010 -0.1491
19613TIP3    H280255   0.585   4.860   1.372  0.5855 -0.4563  0.3724
19614TIP3   OH280256   4.472   1.669   3.769 -0.5436  0.4350  0.1184
19614TIP3    H180257   4.547   1.609   3.775 -1.9318 -1.3289  0.5947
19614TIP3    H280258   4.413   1.641   3.839 -1.6753  1.7669 -0.2647
19615TIP3   OH280259   3.216   4.532  12.046  0.1529 -0.3901  0.4991
19615TIP3    H180260   3.181   4.466  11.985  0.0926 -0.1206  0.2402
19615TIP3    H280261   3.279   4.484  12.100 -0.5081 -0.8472  0.8729
19616TIP3   OH280262   2.323   4.944   1.600  0.5259 -0.1302 -0.3464
19616TIP3    H180263   2.352   4.944   1.509 -0.7644 -0.4098 -0.7678
19616TIP3    H280264   2.339   4.855   1.631  1.5655  0.1290 -0.0784
19617TIP3   OH280265   1.256   3.529   4.044  0.7146 -0.4008 -0.1520
19617TIP3    H180266   1.226   3.514   4.134  0.8477 -1.0362 -0.2089
19617TIP3    H280267   1.223   3.616   4.022 -0.4632 -0.7874  0.0410
19618TIP3   OH280268   3.700   6.442  14.370  0.7756 -0.4743  0.2532
19618TIP3    H180269   3.747   6.376  14.420  0.8676 -1.1483 -0.6906
19618TIP3    H280270   3.646   6.392  14.308  1.8601  0.3004 -1.4009
19619TIP3   OH280271   3.419   4.783   1.714  0.2573 -0.1216  0.4395
19619TIP3    H180272   3.351   4.776   1.781  0.2815  0.9415  0.5985
19619TIP3    H280273   3.500   4.797   1.763  0.0724  2.1810  0.2261
19620TIP3   OH280274   2.798   6.028  13.161 -0.0649  1.0413  0.3702
19620TIP3    H180275   2.853   5.957  13.196 -1.1924 -0.9618 -1.5988
19620TIP3    H280276   2.746   6.058  13.235 -0.2936 -0.9566  1.0761
19621TIP3   OH280277   0.410   4.431  14.573 -0.0381  0.1053 -0.0380
19621TIP3    H180278   0.345   4.361  14.574  0.6626 -0.6315 -1.5822
19621TIP3    H280279   0.488   4.391  14.613 -0.4748  0.9717  1.7795
19622TIP3   OH280280   1.782   0.168   1.420 -1.2310  0.6689  0.5178
19622TIP3    H180281   1.725   0.097   1.449  0.1835 -0.2865  1.0799
19622TIP3    H280282   1.857   0.124   1.381 -0.6045  1.8747  0.3267
19623TIP3   OH280283   1.986   6.790  16.778  0.3938  0.3765  0.0804
19623TIP3    H180284   1.963   6.786  16.871 -0.9657 -0.3963 -0.2664
19623TIP3    H280285   2.067   6.841  16.776  0.4633  0.3903  1.6883
19624TIP3   OH280286   0.984   1.038  14.926  0.6879 -0.3277  0.5692
19624TIP3    H180287   1.030   0.971  14.976  1.4509 -0.4510 -0.2826
19624TIP3    H280288   1.036   1.050  14.847  1.1964  2.0763  1.1812
19625TIP3   OH280289   3.956   6.500   2.274 -0.2251  0.0604 -0.5908
19625TIP3    H180290   4.046   6.497   2.304 -0.4039 -1.7467 -0.0773
19625TIP3    H280291   3.913   6.429   2.321 -1.6267  0.0967 -1.7348
19626TIP3   OH280292   2.134   3.420   0.633  0.4413 -0.2062  0.8000
19626TIP3    H180293   2.218   3.396   0.670  0.1716 -0.3557  1.3307
19626TIP3    H280294   2.083   3.451   0.708  0.2549  0.5359  0.3803
19627TIP3   OH280295   5.524   3.349  16.065  0.2031 -0.3575 -0.9990
19627TIP3    H180296   5.492   3.325  15.978 -0.7947 -2.7745 -0.0311
19627TIP3    H280297   5.445   3.355  16.119  0.8109  1.0318 -0.2086
19628TIP3   OH280298   5.321   3.481   0.185 -0.0697 -0.9568 -0.6165
19628TIP3    H180299   5.369   3.410   0.144 -0.9207 -2.2647  0.5667
19628TIP3    H280300   5.388   3.538   0.223  0.6544 -0.5621 -2.3958
19629TIP3   OH280301   4.591   2.967   1.099  0.2596 -0.4672 -0.5240
19629TIP3    H180302   4.577   3.023   1.023  0.3233  1.2092  0.6366
19629TIP3    H280303   4.678   2.930   1.085  0.6559  0.5456 -0.8520
19630TIP3   OH280304   2.340   3.517  11.111  0.1407  0.5386  0.5853
19630TIP3    H180305   2.251   3.484  11.125  0.0926  1.1136  1.7896
19630TIP3    H280306   2.393   3.469  11.175  0.5333  0.8578  0.5034
19631TIP3   OH280307   3.885   3.949  11.972  0.1047  0.2450 -0.0506
19631TIP3    H180308   3.815   4.007  12.000  2.0757  1.6878  2.2604
19631TIP3    H280309   3.851   3.861  11.987 -1.1419  0.9004  1.1765
19632TIP3   OH280310   3.019   2.564   1.026 -0.1382 -0.2800 -0.5967
19632TIP3    H180311   3.087   2.629   1.010  1.4736 -2.2881 -2.5401
19632TIP3    H280312   2.938   2.604   0.993  0.1811  1.8012  0.9266
19633TIP3   OH280313   4.682   2.989  12.801 -0.5609 -0.3013 -0.1090
19633TIP3    H180314   4.692   2.995  12.706 -1.3048  0.9272 -0.1314
19633TIP3    H280315   4.593   3.021  12.818 -0.8317 -1.4964  0.9171
19634TIP3   OH280316   1.124   1.978  14.362 -0.5851 -0.2076 -0.8062
19634TIP3    H180317   1.137   1.947  14.452 -1.5995 -0.8435 -0.8743
19634TIP3    H280318   1.211   2.009  14.335  0.1405 -1.6776 -0.2449
19635TIP3   OH280319   3.557   6.607   1.657  0.1005 -0.0837 -0.5334
19635TIP3    H180320   3.577   6.692   1.618 -0.7172  0.2411 -0.2623
19635TIP3    H280321   3.501   6.627   1.732 -0.4460 -0.8860 -0.7149
19636TIP3   OH280322   4.954   2.919  13.776 -0.5219  0.0144  0.4792
19636TIP3    H180323   5.002   2.964  13.708  0.0181 -0.4105  0.5733
19636TIP3    H280324   4.941   2.830  13.742 -1.2555  0.1264  0.4469
19637TIP3   OH280325   6.099   4.899  14.760  0.4606  0.0589  0.3037
19637TIP3    H180326   6.070   4.929  14.674  1.6365  0.6661  0.0883
19637TIP3    H280327   6.020   4.896  14.813  0.0578  2.0843 -0.1100
19638TIP3   OH280328   2.183   0.412   2.001  0.2844 -0.2704 -0.0642
19638TIP3    H180329   2.177   0.486   2.061 -0.5349  0.5165 -1.0811
19638TIP3    H280330   2.265   0.426   1.953  0.6459 -0.5879  0.4492
19639TIP3   OH280331   6.004   5.964  14.325 -0.2692 -0.5432  0.0251
19639TIP3    H180332   6.082   5.918  14.293 -0.1779  0.2512 -0.9253
19639TIP3    H280333   6.006   6.049  14.281 -1.8970 -0.6634 -0.3214
19640TIP3   OH280334   1.680   4.187   0.727  0.2599  0.3861 -0.0223
19640TIP3    H180335   1.679   4.195   0.632 -0.6951  0.1071 -0.0502
19640TIP3    H280336   1.772   4.180   0.750  0.4487 -0.6478 -1.0252
19641TIP3   OH280337   5.249   1.228  15.872 -0.2014  0.3920 -0.2940
19641TIP3    H180338   5.180   1.164  15.855 -1.0323  0.8575  1.1383
19641TIP3    H280339   5.204   1.312  15.879  0.5227  0.7381  0.4803
19642TIP3   OH280340   2.068   5.542  14.147  0.1079  0.5275  0.1910
19642TIP3    H180341   1.979   5.520  14.120  0.1735  0.2421  0.2134
19642TIP3    H280342   2.057   5.620  14.202 -0.0420  0.9992 -0.4998
19643TIP3   OH280343   0.944   0.232  14.888 -0.3132  0.4512 -0.1841
19643TIP3    H180344   0.981   0.320  14.894 -0.5042  0.6659 -1.7261
19643TIP3    H280345   1.011   0.181  14.842 -1.0444  0.3073 -1.1011
19644TIP3   OH280346   1.486   1.926  17.081 -0.0727  0.3391  0.1029
19644TIP3    H180347   1.543   1.937  17.005 -1.2657 -0.5484 -0.9570
19644TIP3    H280348   1.397   1.933  17.046 -0.6475  0.3294  1.4850
19645TIP3   OH280349   2.860   4.724  13.192 -0.6447  0.2068  0.2179
19645TIP3    H180350   2.895   4.813  13.194 -0.0038 -0.0376  0.1648
19645TIP3    H280351   2.901   4.683  13.116 -0.7950 -0.1944  0.3440
19646TIP3   OH280352   5.362   6.203   2.044 -0.3716 -0.4392  0.4542
19646TIP3    H180353   5.399   6.215   2.131  1.5159 -0.8441 -0.2434
19646TIP3    H280354   5.274   6.167   2.059  0.6279 -2.2980  2.1642
19647TIP3   OH280355   6.187   1.492  16.692 -0.0126 -0.3084 -0.0270
19647TIP3    H180356   6.192   1.518  16.784  1.2948 -3.1032  0.7817
19647TIP3    H280357   6.220   1.569  16.645 -0.6396  1.1649  1.7772
19648TIP3   OH280358   0.805   6.318   5.087 -0.4419 -0.4970 -0.1015
19648TIP3    H180359   0.876   6.320   5.151  0.0773  0.9382 -0.6786
19648TIP3    H280360   0.732   6.362   5.131 -0.9628 -1.8517  0.4411
19649TIP3   OH280361   1.452   5.133   0.246  0.7701 -0.0158  0.1580
19649TIP3    H180362   1.405   5.138   0.163  2.4188  0.8121 -0.7711
19649TIP3    H280363   1.413   5.057   0.291 -0.4830 -0.1801 -1.1345
19650TIP3   OH280364   3.950   6.773   2.147 -0.6751  0.0326  0.7585
19650TIP3    H180365   4.000   6.708   2.100 -0.1687  0.9183  0.0440
19650TIP3    H280366   3.868   6.780   2.099 -0.8219 -0.2242  0.9658
19651TIP3   OH280367   5.483   6.653  12.457 -0.3228 -0.3137  0.3124
19651TIP3    H180368   5.460   6.564  12.431 -0.8463 -0.4021  1.0186
19651TIP3    H280369   5.579   6.655  12.456 -0.2823 -1.1233  1.0023
19652TIP3   OH280370   1.331   5.555  17.009 -0.0529 -0.0803  0.2214
19652TIP3    H180371   1.419   5.548  17.046 -1.1292 -0.6201  2.8969
19652TIP3    H280372   1.290   5.626  17.059 -1.8144 -1.2994  0.5895
19653TIP3   OH280373   1.051   0.339   2.493  0.4057  0.2974 -0.6566
19653TIP3    H180374   1.092   0.302   2.571  0.5781  1.5268 -0.1350
19653TIP3    H280375   1.122   0.349   2.430  0.4444  0.1503 -0.6355
19654TIP3   OH280376   0.231   2.990   4.221 -0.1057 -0.3466 -0.3358
19654TIP3    H180377   0.226   3.008   4.127  1.9044  0.2669 -0.3799
19654TIP3    H280378   0.320   2.957   4.234 -0.7577 -1.6138  1.1875
19655TIP3   OH280379   3.653   2.157  12.132  0.7836 -0.3366  0.8774
19655TIP3    H180380   3.595   2.108  12.191 -0.7707  1.6778  1.1427
19655TIP3    H280381   3.732   2.174  12.184  0.1951 -0.1818  1.7436
19656TIP3   OH280382   1.738   3.562   5.295 -0.3584 -0.4699 -0.4402
19656TIP3    H180383   1.727   3.471   5.324 -2.2925  0.0669  0.7366
19656TIP3    H280384   1.786   3.604   5.366 -2.6209  0.1936  0.7984
19657TIP3   OH280385   1.204   5.528   4.078  0.9054 -0.7794  1.0353
19657TIP3    H180386   1.287   5.544   4.121  0.8944 -0.2989  0.8941
19657TIP3    H280387   1.212   5.574   3.994 -0.4427  1.5688  2.0714
19658TIP3   OH280388   1.319   2.141   2.511 -0.2823 -0.0713 -0.0594
19658TIP3    H180389   1.409   2.146   2.481 -0.1212 -2.9015 -0.2747
19658TIP3    H280390   1.291   2.232   2.518  3.0936  0.9941  1.6228
19659TIP3   OH280391   4.121   6.767   1.246  0.2168 -0.5171 -0.0875
19659TIP3    H180392   4.170   6.715   1.310 -0.7268 -1.6111 -0.2332
19659TIP3    H280393   4.077   6.703   1.191 -0.6396  0.4343 -0.5377
19660TIP3   OH280394   1.539   5.249  12.743  0.2609  0.3768  0.1181
19660TIP3    H180395   1.554   5.338  12.712 -1.2557  0.0680 -1.7292
19660TIP3    H280396   1.447   5.231  12.721  0.7790 -1.9695 -0.4550
19661TIP3   OH280397   6.359   4.851   0.806 -0.6882 -0.5001 -0.1243
19661TIP3    H180398   6.445   4.831   0.843 -0.7549 -1.7699 -0.6073
19661TIP3    H280399   6.309   4.886   0.879  0.3679  0.6849  0.0636
19662TIP3   OH280400   6.487   5.899  14.350  0.4830 -0.0282  1.2289
19662TIP3    H180401   6.405   5.850  14.355 -0.2963  1.2288  1.2309
19662TIP3    H280402   6.552   5.834  14.324 -0.9978 -0.5862 -1.4902
19663TIP3   OH280403   3.059   4.388  13.682 -0.8575  0.3610 -0.4567
19663TIP3    H180404   3.128   4.334  13.645  1.3181  3.0487 -0.6088
19663TIP3    H280405   3.066   4.376  13.776  0.7713  1.5676 -0.3793
19664TIP3   OH280406   4.381   0.792  15.422  0.1636 -0.6207 -0.1520
19664TIP3    H180407   4.355   0.871  15.375 -1.3688 -0.0690  1.4886
19664TIP3    H280408   4.469   0.773  15.390 -0.0424  0.8307 -1.7417
19665TIP3   OH280409   2.944   0.553  15.255 -0.1728  0.3467  0.6911
19665TIP3    H180410   2.886   0.605  15.310 -0.2951  0.6258  0.3014
19665TIP3    H280411   2.952   0.470  15.301 -1.0430  0.2307  0.6570
19666TIP3   OH280412   2.941   1.461   2.682  0.2327  0.4557  0.3116
19666TIP3    H180413   2.918   1.505   2.601  0.5982  1.9729  0.9918
19666TIP3    H280414   2.982   1.379   2.655 -1.7754 -0.1991 -0.9770
19667TIP3   OH280415   3.299   6.179   2.800 -0.5335  0.0738  0.6458
19667TIP3    H180416   3.242   6.246   2.762  1.2809  0.7562 -1.0516
19667TIP3    H280417   3.378   6.226   2.826 -0.4004 -0.9579  2.2375
19668TIP3   OH280418   3.113   5.713   6.196  0.2576 -0.2281  0.2186
19668TIP3    H180419   3.096   5.804   6.174  0.0747 -0.4845 -0.7353
19668TIP3    H280420   3.162   5.717   6.278  0.6166  0.7473 -0.0285
19669TIP3   OH280421   6.498   5.119   3.634  0.3813  0.1721 -0.1790
19669TIP3    H180422   6.553   5.185   3.675 -0.1560  0.3925  0.2049
19669TIP3    H280423   6.549   5.087   3.560  1.7138 -0.7888  1.0903
19670TIP3   OH280424   6.082   3.141   0.929  0.3525  0.3338  0.2879
19670TIP3    H180425   6.069   3.207   0.997 -0.4254  0.1902  0.2901
19670TIP3    H280426   6.155   3.174   0.876 -0.0010  1.1657  0.3199
19671TIP3   OH280427   4.116   1.020  14.491  0.1856 -0.3746  0.0630
19671TIP3    H180428   4.209   0.999  14.490  0.1814 -0.3848 -0.1980
19671TIP3    H280429   4.078   0.957  14.553  0.0597 -1.6224 -1.2410
19672TIP3   OH280430   5.378   1.449   3.038  0.1459 -0.9384 -0.1018
19672TIP3    H180431   5.416   1.463   3.125 -0.8157 -1.0625  0.3568
19672TIP3    H280432   5.450   1.415   2.985  0.7281 -0.9390  0.6739
19673TIP3   OH280433   2.311   5.574   0.921 -0.0363 -0.2312  0.4504
19673TIP3    H180434   2.345   5.524   0.995 -0.6362 -0.1697  0.7747
19673TIP3    H280435   2.387   5.621   0.887  0.4315 -0.9675  0.4505
19674TIP3   OH280436   4.354   3.693  16.365  0.0639  0.3486  0.1519
19674TIP3    H180437   4.429   3.680  16.423 -1.8342 -1.1068  2.4334
19674TIP3    H280438   4.281   3.713  16.423 -1.8372 -0.6374 -1.7415
19675TIP3   OH280439   1.824   3.903  16.904  0.0740  0.0651  0.3303
19675TIP3    H180440   1.743   3.861  16.933  0.7413 -0.1882  1.9224
19675TIP3    H280441   1.821   3.991  16.941 -0.1229  0.5809 -0.8470
19676TIP3   OH280442   3.467   1.803  17.076 -0.2712 -0.1469  0.0658
19676TIP3    H180443   3.435   1.724  17.033 -1.5327 -0.6446  1.7855
19676TIP3    H280444   3.550   1.778  17.116  0.7200  0.2174 -1.6894
19677TIP3   OH280445   1.067   6.270  11.943 -0.2852  0.0051 -0.2653
19677TIP3    H180446   1.145   6.252  11.890 -1.2993  1.7422 -2.5258
19677TIP3    H280447   0.995   6.233  11.892 -0.9642 -2.4831  2.2662
19678TIP3   OH280448   3.230   3.182  12.172  0.0962  0.1130  0.2565
19678TIP3    H180449   3.277   3.203  12.253 -0.0566 -0.6534  0.5509
19678TIP3    H280450   3.253   3.090  12.154  0.4100  0.3772 -0.7607
19679TIP3   OH280451   5.111   5.221  11.335  0.6377 -0.1359  0.4213
19679TIP3    H180452   5.116   5.128  11.314 -0.3360  0.2181 -1.5499
19679TIP3    H280453   5.115   5.266  11.251 -0.5129  1.5380  1.1953
19680TIP3   OH280454   3.645   6.433  16.714  0.5494  0.3899 -0.3461
19680TIP3    H180455   3.716   6.372  16.694 -0.0689 -0.2965 -0.4959
19680TIP3    H280456   3.580   6.380  16.761 -0.1162  0.8634 -0.7094
19681TIP3   OH280457   1.621   2.721   5.595  0.6329 -0.4148  0.0354
19681TIP3    H180458   1.716   2.708   5.589  0.8902  1.6242 -1.7099
19681TIP3    H280459   1.611   2.808   5.633 -0.6198 -1.2216  1.6396
19682TIP3   OH280460   3.001   4.464   4.763  0.2926  0.5241  0.5184
19682TIP3    H180461   2.910   4.450   4.734  0.4122 -1.4351  0.8954
19682TIP3    H280462   2.996   4.457   4.858  0.8667  0.1707  0.5252
19683TIP3   OH280463   0.326   3.773  15.721  0.2326  0.0346 -0.6040
19683TIP3    H180464   0.363   3.768  15.633  2.2322 -1.7496  0.2380
19683TIP3    H280465   0.286   3.859  15.726  1.3585  0.7526 -2.7703
19684TIP3   OH280466   4.995   0.878  14.574 -0.3301  0.1368  0.0122
19684TIP3    H180467   4.998   0.790  14.611  2.5443  1.8082  4.6150
19684TIP3    H280468   5.017   0.866  14.481  2.5541 -3.8332  0.9467
19685TIP3   OH280469   1.423   6.091  13.561 -0.0355  0.3389 -0.0710
19685TIP3    H180470   1.376   6.174  13.572 -0.4646  0.0445  0.3541
19685TIP3    H280471   1.513   6.111  13.587  0.1666  0.9866 -1.1834
19686TIP3   OH280472   6.468   2.857  14.164  0.4662  0.4652 -0.4663
19686TIP3    H180473   6.376   2.850  14.188  1.0996 -0.8513  1.8676
19686TIP3    H280474   6.483   2.784  14.104  0.3554 -0.4683  0.6034
19687TIP3   OH280475   1.705   2.590   1.127  0.0547 -0.9223  0.1661
19687TIP3    H180476   1.689   2.658   1.193  0.3853 -0.1205 -0.5665
19687TIP3    H280477   1.620   2.578   1.084 -0.4009 -2.1202  1.3364
19688TIP3   OH280478   5.833   1.776  12.972  1.0068  0.8236 -0.1162
19688TIP3    H180479   5.855   1.848  13.031  0.6887 -0.3516  1.5220
19688TIP3    H280480   5.906   1.715  12.981  0.1307 -0.1720  0.4569
19689TIP3   OH280481   6.499   0.504   1.722  0.2608  0.1336  0.1662
19689TIP3    H180482   6.538   0.426   1.683 -2.1332 -0.3758 -1.4316
19689TIP3    H280483   6.445   0.542   1.653 -2.6144  0.3235  2.3228
19690TIP3   OH280484   4.076   4.983  13.564 -0.3377  0.2204 -0.4750
19690TIP3    H180485   4.089   4.900  13.517 -0.1018 -0.3824  0.6130
19690TIP3    H280486   4.005   5.026  13.517 -0.2424 -0.4506 -1.2611
19691TIP3   OH280487   4.675   5.046   4.857 -0.9293 -0.3059  0.5737
19691TIP3    H180488   4.688   5.104   4.782 -0.3415 -0.8998  0.2010
19691TIP3    H280489   4.704   5.097   4.932  2.6557 -1.1203 -0.0659
19692TIP3   OH280490   0.576   0.545   1.527  0.3085 -0.5712  0.3052
19692TIP3    H180491   0.549   0.481   1.461  0.0835 -0.8097  0.6242
19692TIP3    H280492   0.658   0.582   1.493  0.2215 -0.7318 -0.0774
19693TIP3   OH280493   1.040   2.501   2.245  0.0636 -0.2437 -0.4786
19693TIP3    H180494   0.953   2.524   2.280 -0.0874  0.2226 -1.1428
19693TIP3    H280495   1.021   2.437   2.176  0.2324 -0.0618 -0.6961
19694TIP3   OH280496   5.576   5.715   3.086 -0.5713  0.2982 -0.3720
19694TIP3    H180497   5.493   5.672   3.108 -0.6559  0.8634  0.4603
19694TIP3    H280498   5.561   5.807   3.106  0.3821  0.3480  0.1670
19695TIP3   OH280499   5.052   5.271  15.766  0.3554  0.4778 -0.1510
19695TIP3    H180500   5.131   5.294  15.816  1.2049  1.0816 -1.7135
19695TIP3    H280501   5.049   5.175  15.769  0.6262  0.4837  0.6716
19696TIP3   OH280502   5.201   5.691  13.608  0.0447  0.6973 -0.2329
19696TIP3    H180503   5.259   5.763  13.582  1.0940 -0.2119 -0.4945
19696TIP3    H280504   5.216   5.624  13.542  0.7530 -0.6265  1.2331
19697TIP3   OH280505   2.194   4.833  15.520 -0.1270  0.6218  0.1551
19697TIP3    H180506   2.183   4.744  15.552 -1.8600  0.4933 -0.6966
19697TIP3    H280507   2.167   4.889  15.594 -2.7536  0.3482 -0.5116
19698TIP3   OH280508   2.537   2.682   5.737 -0.5973 -0.4100  0.4587
19698TIP3    H180509   2.471   2.707   5.673  1.3614 -0.2633 -1.6303
19698TIP3    H280510   2.615   2.732   5.712  0.5646 -1.2158  2.2634
19699TIP3   OH280511   3.238   0.571  10.858  0.1465 -0.3674  0.1130
19699TIP3    H180512   3.238   0.619  10.940  0.6450 -2.2298  1.2619
19699TIP3    H280513   3.210   0.483  10.881  0.9474 -1.1270 -1.5941
19700TIP3   OH280514   1.694   1.163  16.078 -0.6054  0.0750 -0.1937
19700TIP3    H180515   1.624   1.145  16.141 -1.5479 -0.7083 -1.4076
19700TIP3    H280516   1.648   1.196  16.001  0.4841  0.6463 -0.6103
19701TIP3   OH280517   0.734   5.523  13.582 -0.0607 -0.3267 -0.4644
19701TIP3    H180518   0.768   5.434  13.591  0.1295 -0.3062 -0.9805
19701TIP3    H280519   0.811   5.577  13.567  0.3367  0.5223  3.5186
19702TIP3   OH280520   0.797   6.665  11.114 -0.2915  0.1225 -0.1099
19702TIP3    H180521   0.838   6.579  11.120  0.2076  0.0699 -2.8668
19702TIP3    H280522   0.815   6.706  11.199  0.9194 -1.8526  0.6632
19703TIP3   OH280523   1.473   6.615  12.473  0.3365 -0.6954  0.5167
19703TIP3    H180524   1.559   6.654  12.454  0.1678 -0.5250  0.0767
19703TIP3    H280525   1.425   6.622  12.390  0.1860 -1.5408  0.5234
19704TIP3   OH280526   5.454   0.330   3.571 -0.3464  0.1482 -0.2888
19704TIP3    H180527   5.389   0.336   3.640  0.0180 -0.4590  0.1180
19704TIP3    H280528   5.497   0.246   3.586  2.3113  1.6096  1.0354
19705TIP3   OH280529   6.365   0.018   2.738  0.8493 -0.3152  0.3364
19705TIP3    H180530   6.448   0.065   2.737  0.6437  0.0610 -0.7443
19705TIP3    H280531   6.376  -0.050   2.805  1.8218  0.0783  0.5882
19706TIP3   OH280532   2.240   3.864  14.267 -0.1025 -0.0572  0.3215
19706TIP3    H180533   2.217   3.951  14.296  0.5860  0.7363 -1.3307
19706TIP3    H280534   2.165   3.834  14.216  0.8397  0.9241 -1.7696
19707TIP3   OH280535   0.172   4.048   4.126  0.4125  0.3581 -0.5842
19707TIP3    H180536   0.215   4.077   4.045 -0.9462  1.4518 -0.9467
19707TIP3    H280537   0.091   4.099   4.130  1.1219  1.4786  2.2329
19708TIP3   OH280538   1.764   1.061   1.798 -0.0772 -0.2560  0.2546
19708TIP3    H180539   1.820   1.003   1.850 -2.5985 -0.4151  3.1035
19708TIP3    H280540   1.783   1.038   1.707  2.5086 -2.0670  1.1381
19709TIP3   OH280541   1.903   2.703   5.578  0.6139  0.1393 -0.0215
19709TIP3    H180542   1.956   2.696   5.499  1.6535  2.6142  0.3656
19709TIP3    H280543   1.928   2.786   5.617 -0.8634 -0.3608  2.2173
19710TIP3   OH280544   6.043   6.455   3.330 -0.0878  0.5598  0.4335
19710TIP3    H180545   5.984   6.448   3.404  0.2961  0.9016  0.7735
19710TIP3    H280546   6.077   6.366   3.318 -1.8151 -0.0057 -0.7351
19711TIP3   OH280547   6.365   2.093  13.586  0.3643 -0.3039 -0.1100
19711TIP3    H180548   6.425   2.033  13.541  1.4212  1.2617 -0.8661
19711TIP3    H280549   6.422   2.153  13.633 -0.6698  0.3126  0.3909
19712TIP3   OH280550   3.323   3.011  10.308 -0.4604 -0.3016 -0.2858
19712TIP3    H180551   3.247   3.031  10.253 -0.1631  2.6077  0.1758
19712TIP3    H280552   3.329   3.086  10.368  3.0547 -0.1654 -0.6037
19713TIP3   OH280553   4.071   0.648   4.236 -0.0012  0.6359 -0.1824
19713TIP3    H180554   4.023   0.566   4.242  2.8028 -1.0075  2.0886
19713TIP3    H280555   4.004   0.714   4.219 -2.7315 -1.7307  0.6925
19714TIP3   OH280556   2.099   5.212  10.960 -0.0869 -0.0709  0.3702
19714TIP3    H180557   2.031   5.262  10.913 -1.6515  1.5856  4.0379
19714TIP3    H280558   2.082   5.121  10.935  1.0962  0.7067 -4.3620
19715TIP3   OH280559   4.460   3.847  12.416  0.2331  0.4419  0.6730
19715TIP3    H180560   4.441   3.797  12.495  0.1238 -0.8476 -0.1279
19715TIP3    H280561   4.473   3.936  12.446 -2.5619  0.5688  1.8512
19716TIP3   OH280562   6.698   6.621  16.176 -0.1096  0.5294 -0.7748
19716TIP3    H180563   6.648   6.604  16.256  2.1300  0.5827  0.7472
19716TIP3    H280564   6.713   6.715  16.177  1.1555  0.3437 -0.4260
19717TIP3   OH280565   3.614   1.961   1.910  0.0572  0.0351  0.0573
19717TIP3    H180566   3.623   1.953   1.815  2.4327 -0.0548  0.2324
19717TIP3    H280567   3.559   1.887   1.935  0.9465 -1.0392 -1.0532
19718TIP3   OH280568   5.324   6.382  10.529 -0.7209  0.6300  0.8807
19718TIP3    H180569   5.334   6.415  10.440 -0.7714  0.0736  0.6630
19718TIP3    H280570   5.364   6.449  10.584  0.6444  0.3100  0.3202
19719TIP3   OH280571   0.673   3.169  14.745 -1.1055 -0.2700  0.0292
19719TIP3    H180572   0.660   3.106  14.815  0.1286 -2.0841 -1.2967
19719TIP3    H280573   0.763   3.198  14.754 -1.1486  0.0093 -0.3824
19720TIP3   OH280574   0.445   0.903   5.917  0.4795  0.1254 -0.4800
19720TIP3    H180575   0.381   0.882   5.985  1.9338 -0.7609  0.6633
19720TIP3    H280576   0.409   0.863   5.837 -0.6612  0.1624 -0.0036
19721TIP3   OH280577   4.971   1.371  16.506 -0.8073  0.2748 -0.1194
19721TIP3    H180578   5.024   1.446  16.533 -0.0478 -0.5075  0.5727
19721TIP3    H280579   4.976   1.372  16.410  2.1438 -0.9422 -0.0679
19722TIP3   OH280580   2.764   4.875  13.470 -0.0974 -0.5521  1.0688
19722TIP3    H180581   2.749   4.805  13.407  0.1473  0.2449  0.0950
19722TIP3    H280582   2.715   4.950  13.436  1.0520  0.2634  1.1105
19723TIP3   OH280583   0.456   1.014  12.050  0.4368 -0.7743 -0.4235
19723TIP3    H180584   0.444   1.108  12.065  1.7444 -0.7025  0.2994
19723TIP3    H280585   0.462   0.976  12.138 -0.0648 -1.5399 -0.7090
19724TIP3   OH280586   2.799   4.185   2.424 -0.4140 -0.6392  0.0017
19724TIP3    H180587   2.892   4.195   2.403 -0.8454  3.6801 -0.7781
19724TIP3    H280588   2.797   4.173   2.519  0.9331 -0.2881  0.0921
19725TIP3   OH280589   2.122   4.139   2.513  0.9159  0.3991  0.3558
19725TIP3    H180590   2.158   4.051   2.516 -0.1943 -0.0598  1.6187
19725TIP3    H280591   2.038   4.132   2.559 -0.3585  1.6006 -1.6388
19726TIP3   OH280592   1.932   2.238  15.891 -0.4775  0.0022  0.2135
19726TIP3    H180593   1.987   2.317  15.883  3.1619 -2.1906  1.1053
19726TIP3    H280594   1.961   2.182  15.820 -2.9002 -0.6794 -0.3056
19727TIP3   OH280595   5.437   1.271  16.814 -0.7274 -0.4340 -0.1583
19727TIP3    H180596   5.494   1.229  16.878 -1.9750 -0.7264  0.8050
19727TIP3    H280597   5.489   1.344  16.780  0.0518 -0.3987  1.0313
19728TIP3   OH280598   3.339   4.239  10.908 -0.0890  0.1037 -0.9931
19728TIP3    H180599   3.367   4.325  10.876  0.0862  0.5422  0.2583
19728TIP3    H280600   3.399   4.219  10.980 -0.0648 -1.1269 -1.3305
19729TIP3   OH280601   2.943   0.841   3.889 -0.7259 -0.1830 -0.3160
19729TIP3    H180602   2.889   0.918   3.871 -2.1264 -1.2490 -0.8057
19729TIP3    H280603   2.884   0.767   3.880  0.8444 -1.4132 -0.9595
19730TIP3   OH280604   4.082   3.335  13.551 -0.3047  0.4443  0.1699
19730TIP3    H180605   3.988   3.327  13.568 -0.1504 -2.4699  0.1052
19730TIP3    H280606   4.101   3.427  13.565 -2.9630  0.9115  1.2585
19731TIP3   OH280607   1.525   6.178  14.882 -0.1146  0.2249 -0.3479
19731TIP3    H180608   1.579   6.250  14.850  1.3565 -0.4187  0.5747
19731TIP3    H280609   1.580   6.101  14.874 -0.7185 -0.3910  1.0787
19732TIP3   OH280610   0.552   2.705  15.910  0.3986 -0.1184  0.3691
19732TIP3    H180611   0.554   2.662  15.824 -0.4012 -2.1330  1.2785
19732TIP3    H280612   0.621   2.661  15.959 -0.5086 -0.4677  1.3675
19733TIP3   OH280613   3.510   2.994   2.339 -0.4189  0.2250 -0.2347
19733TIP3    H180614   3.575   3.061   2.317 -0.9979  0.1852 -2.3486
19733TIP3    H280615   3.515   2.985   2.434  4.0457 -1.1828 -0.3761
19734TIP3   OH280616   6.219   4.688   1.212  0.0642 -0.0729  0.6382
19734TIP3    H180617   6.231   4.759   1.149  1.3984 -0.2150  0.7094
19734TIP3    H280618   6.158   4.628   1.168 -0.6140  0.8074  0.3359
19735TIP3   OH280619   6.725   5.588  14.770 -1.1094 -0.2118  0.0519
19735TIP3    H180620   6.775   5.669  14.778 -2.3265  0.4164  2.2089
19735TIP3    H280621   6.783   5.529  14.721  0.4614  1.4264 -0.1770
19736TIP3   OH280622   6.685   4.231   2.757  0.1649  0.0971  0.1791
19736TIP3    H180623   6.608   4.279   2.727  0.7228  1.7181  1.2230
19736TIP3    H280624   6.759   4.285   2.728  0.8961 -1.0115 -0.0832
19737TIP3   OH280625   1.401   2.513   3.768 -0.2084 -0.5656  0.0194
19737TIP3    H180626   1.369   2.505   3.858  0.2465 -0.5640  0.1797
19737TIP3    H280627   1.446   2.597   3.765 -1.8049  0.3296 -0.7052
19738TIP3   OH280628   2.244   2.723  15.676 -0.2100 -0.3989  0.3382
19738TIP3    H180629   2.238   2.803  15.624 -1.5195 -0.9957 -0.5041
19738TIP3    H280630   2.228   2.751  15.766  0.3782  0.4223  0.1928
19739TIP3   OH280631   2.299   0.853   3.413  0.1756 -0.1468 -0.4885
19739TIP3    H180632   2.271   0.936   3.377  1.4767  0.7269  0.3943
19739TIP3    H280633   2.394   0.851   3.398  0.5947 -0.2353  1.8204
19740TIP3   OH280634   3.415   3.709   6.597  0.5251  1.3142  0.3903
19740TIP3    H180635   3.429   3.642   6.664 -2.0244  0.6045  0.3010
19740TIP3    H280636   3.330   3.747   6.618 -1.2631 -0.1365 -3.3378
19741TIP3   OH280637   0.973   6.406   1.788  0.3719 -0.1218  0.4946
19741TIP3    H180638   0.892   6.445   1.822 -0.7594 -0.0745 -1.9640
19741TIP3    H280639   1.039   6.474   1.799 -0.6129  0.9488  0.0234
19742TIP3   OH280640   2.722   0.733   2.263 -0.2331  0.4008 -0.2286
19742TIP3    H180641   2.742   0.776   2.179  0.2415  1.0103  0.1879
19742TIP3    H280642   2.808   0.710   2.299 -0.4476 -0.0939 -0.0309
19743TIP3   OH280643   0.079   0.251   1.361  0.5619  0.0260 -0.1904
19743TIP3    H180644   0.160   0.299   1.341  1.1449  0.1121  2.0783
19743TIP3    H280645   0.072   0.256   1.456 -1.3620 -1.2520 -0.2213
19744TIP3   OH280646   4.718   0.904  15.322 -0.2505 -0.0271 -0.3516
19744TIP3    H180647   4.649   0.956  15.280 -0.2273  0.3197  0.0239
19744TIP3    H280648   4.791   0.965  15.332 -0.3292 -0.0411  0.3729
19745TIP3   OH280649   2.399   4.164  14.834  0.2264 -0.1234  0.0548
19745TIP3    H180650   2.390   4.123  14.748  0.7556 -1.5222  0.6420
19745TIP3    H280651   2.459   4.236  14.820 -0.9761  0.7091 -1.0695
19746TIP3   OH280652   5.827   6.504  12.625 -0.0386 -0.1211  0.6542
19746TIP3    H180653   5.898   6.538  12.571 -0.0175 -1.0068  0.1053
19746TIP3    H280654   5.870   6.452  12.693 -0.1885 -1.7868 -0.4814
19747TIP3   OH280655   5.541   2.364   0.171 -0.3417  0.2577  0.9830
19747TIP3    H180656   5.613   2.311   0.207  0.2786  1.4758  1.5972
19747TIP3    H280657   5.582   2.446   0.146 -0.5790 -0.6927 -3.2723
19748TIP3   OH280658   2.502   5.899  11.238 -0.2444  0.8346  0.2919
19748TIP3    H180659   2.538   5.830  11.182 -1.3090 -0.6646  1.3552
19748TIP3    H280660   2.547   5.887  11.322 -0.0480  1.8076  0.3357
19749TIP3   OH280661   5.769   6.001   0.003 -0.2643 -0.1958 -0.1644
19749TIP3    H180662   5.778   5.964   0.090 -2.4912 -1.9998 -0.5986
19749TIP3    H280663   5.691   6.055   0.007 -0.2645 -0.1150 -0.9860
19750TIP3   OH280664   6.459   1.854  12.454 -0.2949  0.9236 -0.0533
19750TIP3    H180665   6.471   1.826  12.364  0.3774  0.2111  0.2473
19750TIP3    H280666   6.547   1.871  12.487 -0.3201 -1.0012  1.1427
19751TIP3   OH280667   6.238   6.112   5.826  0.4514  0.0461  0.1730
19751TIP3    H180668   6.318   6.095   5.876  0.5241 -3.1551 -0.8243
19751TIP3    H280669   6.182   6.036   5.843 -1.8948  1.5685 -0.2106
19752TIP3   OH280670   0.928   0.660   3.369 -0.2784 -0.4750 -0.3284
19752TIP3    H180671   0.954   0.708   3.447 -0.9922 -0.3345 -0.1695
19752TIP3    H280672   0.852   0.607   3.396 -1.1775  0.3395 -1.1554
19753TIP3   OH280673   5.959   4.406  14.281  1.1139  0.3668 -0.0399
19753TIP3    H180674   6.010   4.486  14.295  1.4809 -0.0513  1.1479
19753TIP3    H280675   5.872   4.427  14.315  1.5609 -0.1198  1.5116
19754TIP3   OH280676   5.836   6.122  12.918  0.8451 -0.0893 -0.0067
19754TIP3    H180677   5.794   6.097  12.836  0.7766 -0.9688  0.2909
19754TIP3    H280678   5.916   6.167  12.890  0.6543 -0.0728 -0.5523
19755TIP3   OH280679   1.334   1.284  12.662 -0.0050  0.0833  0.1633
19755TIP3    H180680   1.413   1.279  12.715  0.7071 -1.4616 -0.9874
19755TIP3    H280681   1.347   1.361  12.607  0.8819 -0.3856 -0.2940
19756TIP3   OH280682   4.393   5.311   3.036  0.2765  0.2249 -0.3124
19756TIP3    H180683   4.328   5.377   3.061  0.4275  0.4277 -0.4537
19756TIP3    H280684   4.363   5.231   3.079  0.0331  0.3604 -0.2275
19757TIP3   OH280685   0.565   4.457   5.003 -0.1438 -0.6010 -0.4795
19757TIP3    H180686   0.614   4.531   4.968  0.5075 -0.4422  0.6942
19757TIP3    H280687   0.622   4.382   4.988 -0.2994 -0.6869 -0.6440
19758TIP3   OH280688   6.617   2.876  17.024 -0.5941 -0.1555  0.2179
19758TIP3    H180689   6.593   2.968  17.024 -0.0697 -0.0028 -0.6171
19758TIP3    H280690   6.659   2.862  16.939  2.0392 -0.4578  1.4595
19759TIP3   OH280691   5.257   6.078   4.967  0.0987 -0.7306 -0.1455
19759TIP3    H180692   5.335   6.081   5.022 -0.3525 -0.5309  0.4920
19759TIP3    H280693   5.207   6.004   5.000 -0.3063 -0.4428 -0.1016
19760TIP3   OH280694   4.449   1.022   3.953  0.2471  0.8175 -0.6749
19760TIP3    H180695   4.385   1.092   3.968 -0.7658 -0.0167 -1.0654
19760TIP3    H280696   4.478   1.035   3.863  0.2966  0.9208 -0.6443
19761TIP3   OH280697   3.286   0.606   2.173 -0.4637 -0.2605 -0.2031
19761TIP3    H180698   3.320   0.522   2.204 -0.2549  0.3500  1.2709
19761TIP3    H280699   3.227   0.582   2.101  0.3089 -1.5913 -0.4176
19762TIP3   OH280700   0.365   4.273   1.916 -0.2722  0.7567  0.8775
19762TIP3    H180701   0.351   4.248   2.008 -2.5613  0.5025  0.5112
19762TIP3    H280702   0.414   4.355   1.921 -0.3896  0.7620  2.3203
19763TIP3   OH280703   1.983   3.945  15.580  0.1863 -0.3798  0.2509
19763TIP3    H180704   2.005   4.030  15.543 -1.9414 -0.2545 -0.8637
19763TIP3    H280705   2.044   3.934  15.653  2.0913  0.9999 -1.0371
19764TIP3   OH280706   6.318   1.185   1.968  0.0727 -0.3608 -0.3309
19764TIP3    H180707   6.338   1.261   1.913 -1.0937  0.6743  0.6224
19764TIP3    H280708   6.404   1.146   1.986  0.8047  1.3025 -0.0436
19765TIP3   OH280709   5.242   3.910   5.861 -0.0904 -0.7929 -0.2132
19765TIP3    H180710   5.206   3.845   5.921 -0.2772 -0.7653 -0.2974
19765TIP3    H280711   5.205   3.993   5.891  2.2740 -0.2836  1.6610
19766TIP3   OH280712   4.442   3.001  13.087 -0.3982 -0.2018 -0.9324
19766TIP3    H180713   4.449   3.041  13.173  0.2330  0.4716 -1.2835
19766TIP3    H280714   4.355   3.028  13.055 -0.3866  0.0581 -0.7505
19767TIP3   OH280715   5.371   5.692   5.218 -0.8035 -0.1082  0.3211
19767TIP3    H180716   5.327   5.671   5.136  0.2486 -0.9884 -0.0475
19767TIP3    H280717   5.311   5.662   5.286 -1.3934  0.0252 -0.1350
19768TIP3   OH280718   0.124   0.347  14.535  0.4518  0.2493 -0.0491
19768TIP3    H180719   0.211   0.378  14.560  1.0471 -2.3563  1.4588
19768TIP3    H280720   0.138   0.298  14.453  0.5517 -0.6793  0.5093
19769TIP3   OH280721   3.048   2.457   3.954 -0.7033  0.6197 -0.5400
19769TIP3    H180722   3.112   2.528   3.947 -1.9421  1.9531  0.7211
19769TIP3    H280723   3.091   2.392   4.010 -0.3507  1.3778  0.0938
19770TIP3   OH280724   3.823   1.030   1.908 -0.0197 -0.5827 -0.0768
19770TIP3    H180725   3.799   0.949   1.862 -0.0584 -0.1623 -0.8176
19770TIP3    H280726   3.919   1.025   1.916  0.0023 -0.5985 -0.3302
19771TIP3   OH280727   2.670   2.801   3.118 -0.1523 -0.3119 -0.2018
19771TIP3    H180728   2.688   2.781   3.026 -1.4614 -0.2840 -0.4809
19771TIP3    H280729   2.752   2.836   3.151  0.2924 -0.1683 -1.4011
19772TIP3   OH280730   3.773   4.366  13.293  0.2974  0.1352 -0.2906
19772TIP3    H180731   3.706   4.429  13.318 -1.1274 -1.6097  0.5143
19772TIP3    H280732   3.754   4.345  13.201 -0.7609 -0.8944  0.1424
19773TIP3   OH280733   4.212   2.931  13.374 -0.6833  0.2686  0.6680
19773TIP3    H180734   4.202   2.871  13.300  0.5189 -0.2479  0.8983
19773TIP3    H280735   4.265   2.882  13.437  1.3043  1.9418  0.4031
19774TIP3   OH280736   1.139   5.341  14.727 -0.0106 -0.6893 -0.1548
19774TIP3    H180737   1.205   5.287  14.770  0.9347  0.5612  0.0272
19774TIP3    H280738   1.078   5.363  14.798 -0.3878 -1.4673 -0.2251
19775TIP3   OH280739   0.318   5.764  10.578  0.0619 -0.8255  0.8506
19775TIP3    H180740   0.284   5.843  10.620  0.2904 -0.9487  1.2660
19775TIP3    H280741   0.412   5.767  10.594  0.4514  0.0700 -1.1946
19776TIP3   OH280742   5.930   6.361   2.453 -0.1501  0.6528  0.2701
19776TIP3    H180743   5.951   6.275   2.416  1.4190  0.0819  2.2937
19776TIP3    H280744   5.852   6.345   2.506 -0.0367  0.5601  0.4070
19777TIP3   OH280745   5.805   4.389  16.816 -0.0591  0.2902 -0.7069
19777TIP3    H180746   5.731   4.333  16.842  0.5974  0.8366  2.9714
19777TIP3    H280747   5.872   4.327  16.788 -0.0966 -0.7232  1.2082
19778TIP3   OH280748   0.746   1.984  16.386  0.4770  0.0819 -0.1627
19778TIP3    H180749   0.802   2.054  16.420 -0.9609  0.8843  0.6424
19778TIP3    H280750   0.775   1.971  16.295  1.2684  1.1845 -0.0749
19779TIP3   OH280751   4.796   2.356  15.419 -0.3370  0.9882 -0.5289
19779TIP3    H180752   4.733   2.313  15.362  1.6908 -1.1182 -1.3454
19779TIP3    H280753   4.744   2.418  15.470 -3.1554 -1.1549 -0.5678
19780TIP3   OH280754   5.954   5.408  16.287 -0.2056  0.1610  0.6605
19780TIP3    H180755   5.978   5.470  16.218  0.5238 -0.1467  0.6263
19780TIP3    H280756   5.969   5.456  16.369 -1.7741  0.7819  0.6258
19781TIP3   OH280757   2.065   4.757  16.245  0.0322 -0.0633  0.7778
19781TIP3    H180758   2.002   4.821  16.212 -0.7228 -1.5850 -0.8848
19781TIP3    H280759   2.077   4.781  16.337 -1.3349  1.5595  0.5843
19782TIP3   OH280760   2.671   5.839   4.643  0.2660  0.1300  0.0401
19782TIP3    H180761   2.626   5.896   4.705  1.5616  0.0688  1.0786
19782TIP3    H280762   2.750   5.810   4.689  1.2106 -0.0260 -1.5834
19783TIP3   OH280763   0.774   1.317   3.133  0.8378  0.0088 -0.2681
19783TIP3    H180764   0.835   1.391   3.135  0.2195  0.5363  1.4840
19783TIP3    H280765   0.739   1.313   3.222  0.3331 -1.9795 -0.5021
19784TIP3   OH280766   5.324   0.361  12.288 -0.5399 -0.2334  0.6483
19784TIP3    H180767   5.357   0.431  12.232 -2.3379 -0.5191 -0.8731
19784TIP3    H280768   5.232   0.352  12.263 -0.3042 -3.3696  0.5061
19785TIP3   OH280769   0.399   3.466  14.165  0.0411  0.3749 -0.8697
19785TIP3    H180770   0.396   3.462  14.261 -0.5853  1.1308 -0.8465
19785TIP3    H280771   0.469   3.405  14.141 -0.2331 -0.3247  0.0252
19786TIP3   OH280772   3.528   0.321  10.649  0.0397  0.2562 -0.0847
19786TIP3    H180773   3.570   0.383  10.709  0.6135 -1.2637  1.1618
19786TIP3    H280774   3.446   0.297  10.693  0.0122 -0.1631 -0.3575
19787TIP3   OH280775   6.080   5.907  12.190 -0.0244  0.0410  0.3341
19787TIP3    H180776   6.037   5.944  12.114 -1.2454  0.9063  1.4075
19787TIP3    H280777   6.069   5.812  12.180 -0.3882  0.1574 -0.4230
19788TIP3   OH280778   2.616   0.938   2.955  0.1971  0.0392  1.0994
19788TIP3    H180779   2.633   1.021   3.000 -0.8940  0.6493  0.4194
19788TIP3    H280780   2.558   0.890   3.015  0.1256  0.1284  1.1007
19789TIP3   OH280781   1.897   6.107  14.786  0.2148  0.8292  0.0835
19789TIP3    H180782   1.844   6.151  14.720  0.6871  1.1595 -0.0775
19789TIP3    H280783   1.966   6.169  14.808 -0.0734  0.8242  1.0734
19790TIP3   OH280784   5.877   2.670   1.430 -0.6970  0.6760 -0.1283
19790TIP3    H180785   5.898   2.590   1.478 -1.4233  1.0871  0.9231
19790TIP3    H280786   5.868   2.642   1.339  1.1004 -0.0686 -0.1287
19791TIP3   OH280787   5.070   4.559   4.333  0.0051 -0.3079  0.3608
19791TIP3    H180788   5.004   4.589   4.271  0.5206 -0.3516 -0.2144
19791TIP3    H280789   5.134   4.630   4.335  0.5907 -0.8147 -0.0555
19792TIP3   OH280790   0.928   6.675  13.624 -0.5148  0.1312  0.5100
19792TIP3    H180791   0.845   6.677  13.575 -0.6775  2.5302  0.7729
19792TIP3    H280792   0.994   6.702  13.560  0.1440 -1.8890  0.2714
19793TIP3   OH280793   4.789   1.849   1.931 -0.0841  0.4084  0.2794
19793TIP3    H180794   4.707   1.897   1.928  0.8530  2.0708 -0.4930
19793TIP3    H280795   4.800   1.824   2.023 -0.2231  2.4418  0.8848
19794TIP3   OH280796   0.876   4.455   1.780  0.4869  0.4966 -0.1396
19794TIP3    H180797   0.961   4.412   1.782  0.1149 -0.2700 -0.4633
19794TIP3    H280798   0.865   4.491   1.868  0.7243 -0.2409  0.1988
19795TIP3   OH280799   1.023   6.565  13.225  0.3187 -0.4688 -0.1418
19795TIP3    H180800   1.062   6.478  13.235  0.7989 -0.3348 -0.7821
19795TIP3    H280801   1.001   6.571  13.132  1.3907  0.5467 -0.3553
19796TIP3   OH280802   4.987   4.030   3.144  0.0238  0.2276  0.2322
19796TIP3    H180803   5.045   4.103   3.165 -0.6672  0.6548  0.7039
19796TIP3    H280804   4.929   4.022   3.220  1.6373 -2.4214  1.3327
19797TIP3   OH280805   6.766   6.797   5.618  0.7782 -0.6644 -0.1913
19797TIP3    H180806   6.700   6.863   5.638  0.8585 -0.1457 -1.5301
19797TIP3    H280807   6.717   6.716   5.606  0.7057 -0.9476  1.7201
19798TIP3   OH280808   0.639   5.890   4.049 -0.1605 -0.0363  0.1090
19798TIP3    H180809   0.565   5.951   4.044  0.8207  1.1412 -0.8428
19798TIP3    H280810   0.614   5.817   3.992 -0.8307  0.0784  0.2495
19799TIP3   OH280811   6.285   4.613   3.836  0.6231  0.2682  0.5609
19799TIP3    H180812   6.216   4.576   3.891  0.5058  1.1856  1.0598
19799TIP3    H280813   6.348   4.542   3.825 -0.0742 -0.3761  0.6576
19800TIP3   OH280814   0.898   5.402  11.376  0.4625 -0.2073 -0.4007
19800TIP3    H180815   0.966   5.449  11.326  0.2328  1.2000  0.5483
19800TIP3    H280816   0.934   5.396  11.464  0.5838 -2.0944 -0.5500
19801TIP3   OH280817   0.067   0.225  13.136  0.4014  0.3650 -0.3208
19801TIP3    H180818   0.038   0.194  13.222  1.5964 -2.4205 -0.7984
19801TIP3    H280819   0.089   0.317  13.149  0.6879 -0.0223  2.3926
19802TIP3   OH280820   6.686   5.520  15.863 -0.2082  0.4657 -0.4739
19802TIP3    H180821   6.722   5.609  15.869  0.9935 -0.0488  0.4302
19802TIP3    H280822   6.676   5.506  15.769  0.9360  1.0661 -0.7194
19803TIP3   OH280823   5.708   2.160   6.218  0.3742  0.5095  0.1230
19803TIP3    H180824   5.749   2.201   6.294 -2.4395  0.1951  1.9610
19803TIP3    H280825   5.686   2.071   6.248 -0.2053  0.1416 -1.3059
19804TIP3   OH280826   0.586   6.221   4.889 -0.0405  0.0135 -0.0419
19804TIP3    H180827   0.594   6.186   4.800  0.0413  2.4328 -1.0658
19804TIP3    H280828   0.677   6.229   4.919  0.3124  3.2670 -1.5499
19805TIP3   OH280829   3.953   4.110   2.850  0.3524 -0.6859 -0.4500
19805TIP3    H180830   4.044   4.137   2.840  0.3518 -0.0597  0.9632
19805TIP3    H280831   3.911   4.133   2.767  0.9869  1.1018 -0.3086
19806TIP3   OH280832   0.250   5.191   1.461 -0.3124 -0.1251 -0.5689
19806TIP3    H180833   0.297   5.108   1.468 -0.9760 -0.5788 -1.2750
19806TIP3    H280834   0.161   5.171   1.489 -0.4594  0.3668 -0.6741
19807TIP3   OH280835   5.477   3.938  13.618  0.0444  0.5751  0.0516
19807TIP3    H180836   5.416   4.005  13.648 -1.1153 -0.0418 -0.8552
19807TIP3    H280837   5.428   3.856  13.626  0.8576  0.0316 -0.4293
19808TIP3   OH280838   0.807   3.171  12.782  0.1197 -0.2418  0.3494
19808TIP3    H180839   0.758   3.238  12.735 -1.5002 -1.6595 -0.0905
19808TIP3    H280840   0.763   3.089  12.760  0.6449 -1.2070  2.6208
19809TIP3   OH280841   4.372   2.741  17.036  0.3938 -0.0203 -0.3375
19809TIP3    H180842   4.416   2.786  17.109  0.0295 -1.9420  1.1595
19809TIP3    H280843   4.428   2.666  17.018  0.2091  0.1655 -1.7386
19810TIP3   OH280844   5.363   3.336  13.167  0.3578 -0.4141  0.4823
19810TIP3    H180845   5.455   3.310  13.172  0.5453 -0.1397 -1.0126
19810TIP3    H280846   5.315   3.260  13.200  1.0026 -1.7950 -1.5679
19811TIP3   OH280847   4.906   5.762   0.564  0.2115  0.1701  0.1536
19811TIP3    H180848   4.816   5.793   0.556  0.1280  0.5651  2.0531
19811TIP3    H280849   4.935   5.792   0.651  2.6164  1.1389 -0.8805
19812TIP3   OH280850   0.850   4.903   2.723  0.2513  0.4648 -0.2759
19812TIP3    H180851   0.851   4.912   2.628 -0.1665  1.3707 -0.2062
19812TIP3    H280852   0.858   4.993   2.756  1.4529  0.0756  0.5578
19813TIP3   OH280853   6.640   3.488   0.546  0.2576  0.3803 -0.0188
19813TIP3    H180854   6.571   3.440   0.592  0.2633 -0.2325 -0.6220
19813TIP3    H280855   6.596   3.567   0.513  0.3011  0.9125  1.1685
19814TIP3   OH280856   5.342   1.786   3.944 -0.2404  0.0114 -0.4107
19814TIP3    H180857   5.428   1.745   3.944 -0.4513 -0.4457 -0.0278
19814TIP3    H280858   5.294   1.743   3.874 -0.2532  0.0488 -0.4249
19815TIP3   OH280859   2.486   0.518   5.472  0.4937  0.1279 -0.0347
19815TIP3    H180860   2.428   0.585   5.507  2.0425  1.4880  0.0495
19815TIP3    H280861   2.539   0.563   5.407  1.5082 -1.0274 -0.0591
19816TIP3   OH280862   4.260   5.429   6.182  0.4437  0.1454  0.1725
19816TIP3    H180863   4.182   5.416   6.128  0.3680 -0.3923  0.4084
19816TIP3    H280864   4.321   5.363   6.152  0.5445  0.0956  0.4821
19817TIP3   OH280865   6.292   1.569  13.914 -0.3022  0.1891 -0.4394
19817TIP3    H180866   6.332   1.648  13.877  0.7864 -0.6964 -1.2148
19817TIP3    H280867   6.331   1.562  14.001 -1.3408  1.1608  0.1354
19818TIP3   OH280868   5.403   2.508  12.867 -0.1131 -0.0065  0.4225
19818TIP3    H180869   5.358   2.496  12.784 -2.5299 -1.3049  1.8055
19818TIP3    H280870   5.345   2.566  12.917  0.5696 -0.3699  1.6907
19819TIP3   OH280871   6.238   3.859   0.300 -0.6887  0.3957 -0.3669
19819TIP3    H180872   6.238   3.859   0.205  1.7643  2.4375 -0.5011
19819TIP3    H280873   6.192   3.940   0.325 -0.0322  0.6453  0.0851
19820TIP3   OH280874   1.294   0.179   4.115  0.1662  0.1086 -0.0661
19820TIP3    H180875   1.358   0.250   4.109  0.0553  0.2064 -0.0820
19820TIP3    H280876   1.327   0.123   4.185 -0.1840  0.6153  0.5083
19821TIP3   OH280877   6.137   2.351   1.650 -0.0273 -0.3451  0.4261
19821TIP3    H180878   6.134   2.433   1.699 -0.0415 -0.8708  1.3096
19821TIP3    H280879   6.058   2.352   1.596  0.5964  0.7903 -0.5183
19822TIP3   OH280880   6.793   6.127   4.244 -0.3230  0.1507  0.4834
19822TIP3    H180881   6.853   6.053   4.249 -1.3671 -0.9241 -1.5029
19822TIP3    H280882   6.847   6.203   4.261  1.6924 -0.7428 -1.4339
19823TIP3   OH280883   4.502   3.425  15.698 -0.6256 -0.1370  0.1361
19823TIP3    H180884   4.562   3.447  15.627  0.4314  1.2213  1.3889
19823TIP3    H280885   4.537   3.471  15.775 -2.2464 -0.7927  1.3364
19824TIP3   OH280886   4.144   3.264  14.272 -0.2778 -0.1561  0.1924
19824TIP3    H180887   4.224   3.226  14.236 -1.9267 -2.2331 -1.5607
19824TIP3    H280888   4.108   3.315  14.199 -2.0161 -1.7071 -0.0875
19825TIP3   OH280889   2.495   1.950   6.162  0.0787  0.4569  0.0620
19825TIP3    H180890   2.469   1.927   6.251 -0.6855 -1.6754 -0.6344
19825TIP3    H280891   2.414   1.981   6.121 -0.1023 -0.6076 -0.4450
19826TIP3   OH280892   6.478   3.735  15.220 -0.2835  0.0194 -0.3280
19826TIP3    H180893   6.396   3.756  15.266 -0.2239 -0.4752  0.0060
19826TIP3    H280894   6.472   3.641  15.203  0.0741  0.0453 -0.5891
19827TIP3   OH280895   0.134   5.529   3.003 -0.2795 -0.5145 -0.1840
19827TIP3    H180896   0.204   5.532   2.938 -0.2256 -2.1140 -0.2349
19827TIP3    H280897   0.169   5.575   3.079  0.1880  0.1438 -0.7883
19828TIP3   OH280898   1.633   2.151  12.612 -0.2571  0.1180 -0.5028
19828TIP3    H180899   1.674   2.212  12.551 -0.9086  0.6321 -0.4455
19828TIP3    H280900   1.694   2.078  12.619  0.5748  0.8005 -0.5216
19829TIP3   OH280901   0.087   4.985   2.731 -0.0260  0.1424 -0.3478
19829TIP3    H180902   0.000   4.999   2.768  0.6581  0.8899  1.0501
19829TIP3    H280903   0.104   4.891   2.744 -0.3118  0.1491  0.0949
19830TIP3   OH280904   1.220   2.517  11.372 -0.4837 -0.1808  0.3445
19830TIP3    H180905   1.179   2.545  11.290  1.1584 -1.0457 -0.8344
19830TIP3    H280906   1.292   2.460  11.344 -0.6457 -1.5199  2.4427
19831TIP3   OH280907   3.627   3.461   3.116 -0.9108 -0.2422  0.3654
19831TIP3    H180908   3.600   3.552   3.102 -0.6493 -0.4220 -1.6249
19831TIP3    H280909   3.574   3.431   3.190 -2.0625  1.0948  0.1213
19832TIP3   OH280910   0.855   2.788   3.432  0.0173  0.6073 -0.5445
19832TIP3    H180911   0.884   2.810   3.344  1.4424 -0.0208 -0.2658
19832TIP3    H280912   0.773   2.740   3.420  1.0186 -0.9050 -1.6533
19833TIP3   OH280913   4.937   3.165  11.544 -0.5161 -0.0690 -0.5908
19833TIP3    H180914   4.915   3.111  11.468  2.0679 -1.4873 -0.4589
19833TIP3    H280915   4.995   3.233  11.509  0.2783 -0.4235 -0.0029
19834TIP3   OH280916   4.208   4.579  12.917  0.4402 -0.6408 -0.2572
19834TIP3    H180917   4.167   4.573  13.004  2.0097 -0.9065  0.4980
19834TIP3    H280918   4.149   4.529  12.860 -1.6019  1.0382  0.2248
19835TIP3   OH280919   4.725   2.070   6.055 -0.3390  0.1367 -0.0026
19835TIP3    H180920   4.699   2.109   6.139  0.0851  0.1061  0.1449
19835TIP3    H280921   4.647   2.024   6.025 -0.0767 -1.0505  1.0698
19836TIP3   OH280922   4.720   2.514   3.645 -0.2998 -0.1243 -0.2092
19836TIP3    H180923   4.631   2.492   3.671 -0.3150 -1.1609 -1.0767
19836TIP3    H280924   4.711   2.583   3.580 -0.4149  0.2699  0.2133
19837TIP3   OH280925   1.056   4.617  10.146 -0.1011  0.3408  0.3807
19837TIP3    H180926   1.078   4.546  10.206 -1.9605  1.2060  2.2082
19837TIP3    H280927   0.968   4.597  10.116  0.5619  0.2556 -1.6627
19838TIP3   OH280928   5.091   5.129   4.244 -0.3762  0.9077 -0.1533
19838TIP3    H180929   5.079   5.042   4.282 -3.2917  1.4397  0.3605
19838TIP3    H280930   5.094   5.113   4.150 -0.3737  0.2130 -0.0453
19839TIP3   OH280931   1.875   3.980   2.303 -0.3080  0.8487 -0.4410
19839TIP3    H180932   1.924   3.897   2.298  0.6175  1.3019  0.7312
19839TIP3    H280933   1.793   3.961   2.258 -0.7228 -1.1563  1.0164
19840TIP3   OH280934   4.589   5.377  16.698 -0.0232 -0.0586 -0.1551
19840TIP3    H180935   4.669   5.359  16.648  0.3646  1.6588 -0.2168
19840TIP3    H280936   4.524   5.399  16.631  0.0172  0.5239 -0.0082
19841TIP3   OH280937   2.149   5.941  16.784 -0.2306  0.3927 -0.6894
19841TIP3    H180938   2.152   5.863  16.728  2.6044 -0.0734 -0.0660
19841TIP3    H280939   2.119   5.908  16.869  1.0032 -0.0735 -0.4151
19842TIP3   OH280940   0.485   0.816   1.891 -0.3217  0.2710  0.1791
19842TIP3    H180941   0.555   0.869   1.852  1.2189 -2.3936 -0.9298
19842TIP3    H280942   0.421   0.806   1.821 -1.1852  1.5054  0.7466
19843TIP3   OH280943   1.158   6.056  12.373  0.1704  0.1772  0.2901
19843TIP3    H180944   1.246   6.025  12.350  0.5452 -0.1174  2.0133
19843TIP3    H280945   1.161   6.070  12.467 -0.7350  3.1109 -0.0020
19844TIP3   OH280946   3.863   3.222  10.546  0.0992 -0.7175  0.4108
19844TIP3    H180947   3.804   3.164  10.500 -0.3414 -1.2292  1.5788
19844TIP3    H280948   3.813   3.253  10.621  0.8976 -0.1694  0.7380
19845TIP3   OH280949   1.715   1.189  15.528 -0.4203 -0.0272 -0.0866
19845TIP3    H180950   1.787   1.174  15.466 -0.8859 -0.2567 -0.5811
19845TIP3    H280951   1.738   1.271  15.571  1.4751 -1.3825  1.6840
19846TIP3   OH280952   3.449   2.930  10.726 -0.2016 -0.0073  0.3752
19846TIP3    H180953   3.448   3.025  10.714 -0.8130  0.0321  0.7035
19846TIP3    H280954   3.441   2.918  10.820 -1.2842 -0.3933  0.2544
19847TIP3   OH280955   0.764   2.445   5.381 -0.2690  0.4668  0.0493
19847TIP3    H180956   0.733   2.408   5.299  2.0322  0.4000 -0.8449
19847TIP3    H280957   0.761   2.540   5.367  0.6318  0.4432 -0.3160
19848TIP3   OH280958   2.543   4.066  12.168 -0.8810  0.2348  1.1211
19848TIP3    H180959   2.548   3.984  12.218 -0.7873  0.6357  1.7754
19848TIP3    H280960   2.510   4.130  12.231 -1.3508  0.6103  0.4959
19849TIP3   OH280961   0.444   3.622   5.564  0.1242  0.3150 -0.5022
19849TIP3    H180962   0.460   3.529   5.549  0.0147  0.2307 -0.0924
19849TIP3    H280963   0.479   3.665   5.485  3.6539  0.2817  0.8387
19850TIP3   OH280964   5.739   3.483  11.175  0.1560  0.7548  0.1329
19850TIP3    H180965   5.677   3.551  11.151 -0.5061  0.2308  0.3204
19850TIP3    H280966   5.804   3.483  11.104 -1.1224  0.0234 -1.0735
19851TIP3   OH280967   1.293   3.327  11.113  0.4804 -0.2855  0.3287
19851TIP3    H180968   1.351   3.400  11.135  0.7459 -0.0437 -1.0886
19851TIP3    H280969   1.315   3.306  11.022 -1.0768 -0.7391  0.0327
19852TIP3   OH280970   5.746   5.700  13.948 -0.8319  0.2811 -0.3952
19852TIP3    H180971   5.740   5.735  13.859 -1.3741 -0.8466 -0.8183
19852TIP3    H280972   5.656   5.703  13.981 -1.3388 -2.6924 -1.2516
19853TIP3   OH280973   1.558   0.624   3.100 -0.0609  0.4502 -0.0801
19853TIP3    H180974   1.608   0.697   3.137 -0.8937  1.9108 -1.6990
19853TIP3    H280975   1.467   0.653   3.102 -0.3653 -0.3487 -1.1206
19854TIP3   OH280976   5.158   0.164  15.818  0.1217 -0.6144  0.2392
19854TIP3    H180977   5.147   0.255  15.845 -1.8465 -1.4448  2.7195
19854TIP3    H280978   5.159   0.167  15.723  0.9579  2.0575  0.2498
19855TIP3   OH280979   3.538   1.631  13.760  0.1132  0.7433  0.4326
19855TIP3    H180980   3.593   1.661  13.687  0.8891  0.2228  0.8052
19855TIP3    H280981   3.598   1.619  13.833 -0.2859 -1.0699  0.4954
19856TIP3   OH280982   1.386   2.469   1.682 -0.1342 -0.1294 -0.3329
19856TIP3    H180983   1.458   2.484   1.621  1.2781 -1.3777  0.9543
19856TIP3    H280984   1.395   2.538   1.747  0.3276 -0.6918  0.2039
19857TIP3   OH280985   1.772   5.442  15.649  0.3099  0.1929 -0.1264
19857TIP3    H180986   1.716   5.444  15.572 -0.1412  1.4273  0.2033
19857TIP3    H280987   1.713   5.423  15.722  0.5268  0.2641  0.0714
19858TIP3   OH280988   0.376   5.545  11.451 -0.1907  0.0724  0.0587
19858TIP3    H180989   0.322   5.623  11.440  0.8710  0.7001 -0.9582
19858TIP3    H280990   0.418   5.532  11.366 -0.4016 -1.6692  0.1749
19859TIP3   OH280991   2.259   2.954  12.533  0.1643  0.2986  0.3182
19859TIP3    H180992   2.260   3.012  12.457 -0.2031  0.6434  0.5740
19859TIP3    H280993   2.205   2.880  12.506  2.2554 -0.9132 -0.7229
19860TIP3   OH280994   0.689   0.470   4.577 -0.1379 -0.1285  0.3252
19860TIP3    H180995   0.757   0.404   4.592 -0.1982  0.1818  2.0915
19860TIP3    H280996   0.635   0.467   4.655 -0.7082  1.3610  0.0114
19861TIP3   OH280997   2.676   3.242   0.093  0.1448 -0.1693 -0.7471
19861TIP3    H180998   2.661   3.221   0.185 -0.7188  0.8001 -0.6631
19861TIP3    H280999   2.683   3.156   0.050 -0.8389 -0.6368 -0.0063
19862TIP3   OH281000   2.077   0.831  11.016  0.5646  0.2684 -0.6813
19862TIP3    H181001   1.993   0.802  11.052  0.1244 -0.1711 -2.0197
19862TIP3    H281002   2.058   0.917  10.979  0.8435  0.4053 -0.5093
19863TIP3   OH281003   4.663   4.755  13.722  0.2981 -0.0458 -0.7197
19863TIP3    H181004   4.714   4.787  13.647  2.5012  1.4740  1.2513
19863TIP3    H281005   4.681   4.818  13.791  0.2163 -2.5477  1.7666
19864TIP3   OH281006   3.709   1.351  13.374  0.1668 -0.1518 -0.1220
19864TIP3    H181007   3.781   1.391  13.423  1.8544 -0.4114 -2.1845
19864TIP3    H281008   3.681   1.419  13.313  0.9022 -1.0408 -1.5083
19865TIP3   OH281009   2.171   1.167   2.100  0.1558 -0.4264 -0.1903
19865TIP3    H181010   2.105   1.111   2.141  1.2527 -1.7260 -0.1568
19865TIP3    H281011   2.200   1.225   2.170 -0.5432 -0.2120 -0.0694
19866TIP3   OH281012   4.602   3.794  14.672  0.3685  0.0747 -0.0973
19866TIP3    H181013   4.696   3.782  14.680  0.8655  3.2168  0.1025
19866TIP3    H281014   4.567   3.706  14.661  3.1430 -1.3366  1.3942
19867TIP3   OH281015   3.921   2.755   3.857 -0.4522 -0.0031  0.5248
19867TIP3    H181016   3.830   2.779   3.842 -0.2497  1.8385  1.9109
19867TIP3    H281017   3.916   2.674   3.910 -1.3783  1.1278  2.2723
19868TIP3   OH281018   3.918   3.495  12.261  0.1972  1.2152  0.2778
19868TIP3    H181019   3.979   3.566  12.242 -0.5869  2.1001  0.9714
19868TIP3    H281020   3.891   3.463  12.175 -0.3987  2.6055 -0.0841
19869TIP3   OH281021   3.389   4.623  16.967 -0.0405  0.6147  0.0538
19869TIP3    H181022   3.437   4.614  17.049 -1.6819  0.9437  1.1107
19869TIP3    H281023   3.387   4.535  16.931 -0.3697  0.1997  1.0320
19870TIP3   OH281024   6.226   5.416  14.036 -0.3891 -0.2365  0.1009
19870TIP3    H181025   6.227   5.419  14.132 -1.4349 -0.4275  0.1324
19870TIP3    H281026   6.201   5.504  14.009 -0.2850 -0.2341  0.0134
19871TIP3   OH281027   2.274   3.736  12.596 -0.4205 -0.2106 -0.2544
19871TIP3    H181028   2.290   3.659  12.541 -1.6790 -0.7875  0.1479
19871TIP3    H281029   2.201   3.710  12.653 -0.8021  1.2483 -0.0363
19872TIP3   OH281030   3.135   4.841   3.385 -0.0636  0.4194 -0.4125
19872TIP3    H181031   3.117   4.842   3.479 -0.9752  2.6133 -0.5511
19872TIP3    H281032   3.063   4.792   3.347  0.1055 -0.1474 -0.0158
19873TIP3   OH281033   5.896   2.339   2.003 -0.3924 -0.3183  0.0590
19873TIP3    H181034   5.919   2.295   2.085 -0.1563  0.3770  0.3781
19873TIP3    H281035   5.805   2.313   1.987  0.4128 -2.8092 -1.0185
19874TIP3   OH281036   2.607   0.661  13.268  0.2329 -0.4354 -0.2427
19874TIP3    H181037   2.565   0.599  13.208  0.5245 -0.0083 -0.8982
19874TIP3    H281038   2.646   0.727  13.211  1.7258 -0.7612  0.3520
19875TIP3   OH281039   4.401   1.716  16.207 -0.6237  0.5751 -0.4543
19875TIP3    H181040   4.487   1.677  16.190 -0.6474  0.7685 -1.0517
19875TIP3    H281041   4.386   1.701  16.300 -0.4962 -0.5547 -0.6010
19876TIP3   OH281042   2.527   0.507  11.638  0.1288 -0.4554 -0.0133
19876TIP3    H181043   2.598   0.566  11.615 -0.3210  0.4457  0.8260
19876TIP3    H281044   2.482   0.489  11.555  0.8963 -0.4572 -0.4325
19877TIP3   OH281045   2.825   1.769   2.774  0.5767  0.0714 -0.3613
19877TIP3    H181046   2.889   1.805   2.835 -0.4651 -1.7925  1.9774
19877TIP3    H281047   2.876   1.714   2.715  1.4917  1.1514 -0.6177
19878TIP3   OH281048   1.301   6.043   4.787 -0.3430 -0.3426  0.4342
19878TIP3    H181049   1.271   6.132   4.806 -0.6381 -0.2614 -0.3876
19878TIP3    H281050   1.250   5.987   4.845  0.6725  0.1028  1.8112
19879TIP3   OH281051   1.749   1.441   5.240  0.3055 -0.5596  0.0904
19879TIP3    H181052   1.701   1.456   5.159  1.1412 -3.2621 -1.0161
19879TIP3    H281053   1.730   1.518   5.294 -0.5071  1.1954 -2.5227
19880TIP3   OH281054   2.230   4.090  11.831 -0.1060 -0.0618 -0.1809
19880TIP3    H181055   2.225   4.097  11.926  0.9325  2.0176 -0.2135
19880TIP3    H281056   2.145   4.120  11.800  0.1882  1.1173  0.0828
19881TIP3   OH281057   5.903   2.015   1.040 -0.6693  0.2332 -0.2954
19881TIP3    H181058   5.845   2.017   0.964 -1.1937  0.6021  0.1043
19881TIP3    H281059   5.988   1.990   1.005 -0.7595  0.9994 -1.1059
19882TIP3   OH281060   2.589   5.757   4.989 -0.4489  0.4911 -0.0782
19882TIP3    H181061   2.496   5.781   4.988 -0.2508  1.3489  0.6988
19882TIP3    H281062   2.632   5.832   5.030  0.5131 -0.1649  0.1260
19883TIP3   OH281063   4.684   6.658  11.579  0.3771  0.0576 -0.1148
19883TIP3    H181064   4.766   6.687  11.619 -0.0995  1.5341 -0.1359
19883TIP3    H281065   4.711   6.594  11.513  1.3104 -1.1466  1.3605
19884TIP3   OH281066   5.347   3.026   0.576  0.5221  0.1607 -0.1699
19884TIP3    H181067   5.357   3.116   0.547 -1.0173  0.8655  1.3747
19884TIP3    H281068   5.420   3.012   0.637  0.7436  0.3607 -0.3861
19885TIP3   OH281069   6.537   3.108   5.079 -0.4342 -0.1691  0.1243
19885TIP3    H181070   6.583   3.158   5.146  1.8866  0.5113 -1.8550
19885TIP3    H281071   6.564   3.017   5.095  0.9778  0.1175 -0.4788
19886TIP3   OH281072   3.763   0.968  11.570 -0.3821 -0.2166 -0.1657
19886TIP3    H181073   3.707   1.024  11.515 -0.2310  0.8137  0.6936
19886TIP3    H281074   3.838   0.947  11.514  0.2247  1.5843 -0.0877
19887TIP3   OH281075   4.944   3.962  17.190  0.6335  0.7234 -0.3078
19887TIP3    H181076   4.984   3.911  17.120 -2.5449 -2.3709 -0.1608
19887TIP3    H281077   5.009   3.959  17.261  0.7216 -3.3859 -0.3051
19888TIP3   OH281078   0.862   6.433   4.826  0.5902 -0.1893  0.3136
19888TIP3    H181079   0.867   6.414   4.919  0.2052 -0.8693  0.2046
19888TIP3    H281080   0.796   6.502   4.819  1.9482  1.2086  0.7066
19889TIP3   OH281081   1.129   3.191   2.922 -0.3526  0.6021  0.3032
19889TIP3    H181082   1.216   3.209   2.886 -1.2483  1.8572 -1.3790
19889TIP3    H281083   1.142   3.116   2.980  1.6797  0.1909 -0.6018
19890TIP3   OH281084   1.837   4.516  15.480 -0.2295 -0.0365  0.5080
19890TIP3    H181085   1.778   4.448  15.448  1.2055 -1.1824  0.1531
19890TIP3    H281086   1.914   4.508  15.424  0.0396  1.8131  0.5643
19891TIP3   OH281087   4.538   2.863  13.658  0.5218 -0.0401 -0.5507
19891TIP3    H181088   4.542   2.944  13.607  2.0446  0.7447  0.7615
19891TIP3    H281089   4.554   2.890  13.748  1.5305 -1.8628 -0.1425
19892TIP3   OH281090   1.602   5.494   4.416  0.1856  0.1803  0.2941
19892TIP3    H181091   1.524   5.451   4.453  0.8655 -1.5370 -0.1796
19892TIP3    H281092   1.670   5.427   4.419  0.6872  0.4174 -2.6423
19893TIP3   OH281093   4.542   6.389   3.011  0.1646  0.2685 -0.2219
19893TIP3    H181094   4.468   6.442   2.980 -1.2717 -1.8958 -0.7351
19893TIP3    H281095   4.587   6.362   2.931 -1.3132 -2.2062 -0.3387
19894TIP3   OH281096   0.440   5.583  11.187 -0.4709 -0.5074 -0.7956
19894TIP3    H181097   0.483   5.500  11.165  1.9045  0.0046  1.4524
19894TIP3    H281098   0.437   5.631  11.104  1.2432 -1.4953 -1.4791
19895TIP3   OH281099   0.352   3.162  15.946  0.3101  0.5249  0.0912
19895TIP3    H181100   0.375   3.203  15.863 -0.4366  0.1822 -0.3004
19895TIP3    H281101   0.264   3.196  15.965 -0.6142 -1.3560 -0.5862
19896TIP3   OH281102   2.552   1.392   2.272 -0.2535 -0.0902  0.3814
19896TIP3    H181103   2.514   1.308   2.247  2.1985 -0.1934 -3.8215
19896TIP3    H281104   2.625   1.370   2.329  0.2041 -0.7976 -0.4721
19897TIP3   OH281105   2.085   2.553   1.354  0.2134  0.4832 -0.0554
19897TIP3    H181106   2.139   2.632   1.357 -1.1731  1.4946 -0.3938
19897TIP3    H281107   2.022   2.570   1.284 -0.9832 -0.3283  0.7760
19898TIP3   OH281108   1.334   1.578  12.841 -0.2473 -0.0476  0.7410
19898TIP3    H181109   1.293   1.563  12.926 -0.9416 -1.0776  0.2392
19898TIP3    H281110   1.406   1.515  12.838  0.2319  0.4845  0.8505
19899TIP3   OH281111   2.187   2.869   2.017 -0.2201 -0.1125  0.1781
19899TIP3    H181112   2.108   2.815   2.013  0.3861 -0.9346 -1.7406
19899TIP3    H281113   2.257   2.808   2.044 -0.0555  0.4059  0.9619
19900TIP3   OH281114   6.262   1.186   5.733 -0.1891  0.2927 -1.1896
19900TIP3    H181115   6.272   1.108   5.789  0.1593  0.1983 -1.3844
19900TIP3    H281116   6.298   1.257   5.786  0.0173  0.2261 -1.2403
19901TIP3   OH281117   4.215   1.086   4.770  0.3190 -1.0898  0.3545
19901TIP3    H181118   4.245   1.113   4.683  0.1452 -2.2212 -0.0653
19901TIP3    H281119   4.275   1.130   4.831  1.2944 -1.3726 -0.3838
19902TIP3   OH281120   5.218   6.383   5.002  0.4921  0.3346  0.1726
19902TIP3    H181121   5.302   6.428   4.995  1.5414 -1.1813  2.1800
19902TIP3    H281122   5.239   6.290   4.997 -1.2037 -0.0667 -0.2796
19903TIP3   OH281123   3.801   3.709   4.120  0.0266  0.4251 -0.6177
19903TIP3    H181124   3.853   3.716   4.039  1.3059 -1.9264 -0.1019
19903TIP3    H281125   3.743   3.635   4.104 -2.8202  2.5617 -0.9015
19904TIP3   OH281126   2.154   5.806  14.580  0.3481 -0.0937 -0.2353
19904TIP3    H181127   2.070   5.766  14.603  0.0443 -0.1523 -1.3543
19904TIP3    H281128   2.194   5.829  14.664 -1.6598  1.7714  0.2971
19905TIP3   OH281129   0.995   3.740   4.160 -0.2608 -0.1262  0.0365
19905TIP3    H181130   1.009   3.736   4.065 -1.4808 -1.4114 -0.1263
19905TIP3    H281131   0.900   3.751   4.169 -0.3515 -1.5863  1.1030
19906TIP3   OH281132   2.099   3.743   3.210  0.4357 -0.2534  0.0827
19906TIP3    H181133   2.168   3.808   3.225 -1.5051  2.4262 -1.7787
19906TIP3    H281134   2.140   3.676   3.155  1.7218  0.8954 -0.3920
19907TIP3   OH281135   4.117   4.551   1.503  0.0347  0.3164  0.6372
19907TIP3    H181136   4.023   4.537   1.513  0.1308  0.4743  1.9110
19907TIP3    H281137   4.132   4.541   1.409 -1.3776  1.0455  0.2889
19908TIP3   OH281138   4.836   1.886  13.550 -0.7778 -0.2244 -0.5173
19908TIP3    H181139   4.828   1.914  13.459 -2.0771 -0.6537 -0.5606
19908TIP3    H281140   4.842   1.967  13.600  0.2078  0.0104 -0.9884
19909TIP3   OH281141   2.637   1.907   3.237  0.2295 -0.3014  0.3807
19909TIP3    H181142   2.650   1.850   3.313  2.3745 -0.3894  0.0110
19909TIP3    H281143   2.555   1.952   3.255  0.2386 -0.9505  2.3488
19910TIP3   OH281144   6.374   3.919   5.381  0.2313  0.0712  0.0029
19910TIP3    H181145   6.366   3.871   5.298 -1.3289 -0.5909  0.5022
19910TIP3    H281146   6.457   3.889   5.418 -0.0406 -1.2120 -0.3623
19911TIP3   OH281147   2.363   6.555   1.509  0.0276 -0.6079  0.2521
19911TIP3    H181148   2.430   6.621   1.531 -0.1456  0.2854 -1.6928
19911TIP3    H281149   2.409   6.471   1.516  0.6974 -0.1795  1.2098
19912TIP3   OH281150   5.295   0.420   0.228  0.2701  0.3447  0.3334
19912TIP3    H181151   5.371   0.472   0.202  2.2595 -1.7286  1.6713
19912TIP3    H281152   5.321   0.329   0.213 -2.7718 -0.4444 -1.1377
19913TIP3   OH281153   6.782   3.242   0.951 -0.4568 -0.0632 -0.7663
19913TIP3    H181154   6.791   3.334   0.979 -1.5051  0.0402 -0.7055
19913TIP3    H281155   6.704   3.242   0.895  0.0075 -0.7795 -1.4256
19914TIP3   OH281156   4.384   3.476   0.705 -0.2780  0.1344  0.1898
19914TIP3    H181157   4.380   3.499   0.612  0.5453 -1.1626 -0.1935
19914TIP3    H281158   4.358   3.384   0.708  0.8700 -0.1847  1.0801
19915TIP3   OH281159   1.553   5.872   5.253  0.0614  0.3941  0.2638
19915TIP3    H181160   1.608   5.909   5.322  0.3484 -1.0932  0.8654
19915TIP3    H281161   1.520   5.790   5.289 -0.4503 -0.0205 -1.0687
19916TIP3   OH281162   1.503   5.004  12.973  0.0099 -1.0971  0.0092
19916TIP3    H181163   1.522   5.084  12.925  1.1787 -0.1948  1.8716
19916TIP3    H281164   1.411   5.013  12.998  0.1874 -0.2252  0.3739
19917TIP3   OH281165   3.170   4.328  14.877 -0.0003 -0.4843  0.2545
19917TIP3    H181166   3.127   4.390  14.819 -1.9834 -1.9553  0.0440
19917TIP3    H281167   3.263   4.339  14.858 -0.3331  1.7205 -0.4285
19918TIP3   OH281168   3.047   5.108   4.086  0.0720  0.1615 -0.2356
19918TIP3    H181169   3.032   5.093   3.993 -1.8235  0.1740  0.0188
19918TIP3    H281170   3.075   5.199   4.092  2.4853 -0.4489 -0.9475
19919TIP3   OH281171   5.204   5.996   0.656  0.1222 -0.0103 -0.0980
19919TIP3    H181172   5.267   6.055   0.696 -0.8658  0.9367  0.1052
19919TIP3    H281173   5.149   5.966   0.728 -0.4616  0.1875 -0.4520
19920TIP3   OH281174   0.718   0.113   1.942 -0.3320 -0.6336 -0.2391
19920TIP3    H181175   0.809   0.097   1.964 -0.8129 -1.7172  1.1691
19920TIP3    H281176   0.674   0.120   2.027 -1.2311  2.1027 -0.8198
19921TIP3   OH281177   6.530   5.488  13.576  0.7864  0.2340 -0.3250
19921TIP3    H181178   6.500   5.448  13.657 -0.3199  0.2046 -0.7267
19921TIP3    H281179   6.597   5.550  13.602  0.6508  0.0055  0.5794
19922TIP3   OH281180   6.577   3.341   3.921 -0.0401 -0.3835  0.1077
19922TIP3    H181181   6.665   3.368   3.894  1.8169 -5.4431 -0.0183
19922TIP3    H281182   6.583   3.332   4.016 -0.1539 -1.2977  0.0424
19923TIP3   OH281183   6.214   5.991   0.758  0.1936 -0.3237  0.2769
19923TIP3    H181184   6.266   6.069   0.740 -0.4898 -0.2194 -1.3988
19923TIP3    H281185   6.240   5.928   0.691 -0.4677 -0.9444  0.5807
19924TIP3   OH281186   1.290   2.667  13.612 -0.0081 -0.2629  0.0861
19924TIP3    H181187   1.266   2.754  13.646  0.6466 -0.3491  0.8117
19924TIP3    H281188   1.322   2.684  13.524 -1.2910  0.0371 -0.3384
19925TIP3   OH281189   6.338   0.426   1.065 -0.1319 -0.1999  0.2377
19925TIP3    H181190   6.313   0.518   1.072  0.0663 -0.1923  0.9719
19925TIP3    H281191   6.266   0.385   1.018  0.1585  0.4787 -0.8375
19926TIP3   OH281192   5.454   3.106   5.449 -0.7138  0.0392  0.4399
19926TIP3    H181193   5.450   3.057   5.531 -0.1566 -1.6462 -0.4982
19926TIP3    H281194   5.542   3.088   5.416 -1.3240 -0.2343 -1.0758
19927TIP3   OH281195   1.880   0.755   2.012  0.0621  0.3960  0.1984
19927TIP3    H181196   1.939   0.802   1.953  1.6053 -1.4629  0.1445
19927TIP3    H281197   1.852   0.678   1.962 -2.8374  1.4023  0.0722
19928TIP3   OH281198   4.746   0.584   2.746  1.1267 -0.2041  0.1777
19928TIP3    H181199   4.669   0.612   2.795  1.2530 -1.2622  1.0187
19928TIP3    H281200   4.790   0.522   2.804  0.8649 -2.1270 -1.5610
19929TIP3   OH281201   0.902   3.783  11.944  0.4761  0.7038  0.1719
19929TIP3    H181202   0.873   3.820  12.027  2.6030  1.4610  0.6315
19929TIP3    H281203   0.987   3.823  11.928  1.6766 -1.9478 -0.6618
19930TIP3   OH281204   0.169   3.276  11.593  0.3350 -0.0914  0.1187
19930TIP3    H181205   0.133   3.364  11.583  1.5001  0.3031 -0.7840
19930TIP3    H281206   0.194   3.249  11.505 -2.0554 -2.2920 -0.0349
19931TIP3   OH281207   2.690   0.032  16.761  0.1099 -0.0054 -0.2001
19931TIP3    H181208   2.607   0.006  16.802  0.4164 -3.1258 -1.3171
19931TIP3    H281209   2.673   0.028  16.667  1.3710 -0.0081 -0.4439
19932TIP3   OH281210   1.285   6.262   3.531  0.1706 -0.1150  0.1140
19932TIP3    H181211   1.271   6.277   3.624  0.5096 -0.6148  0.2511
19932TIP3    H281212   1.310   6.348   3.497  1.0253 -0.1241  0.6756
19933TIP3   OH281213   5.439   4.662   2.902  0.2507  0.3327 -0.5469
19933TIP3    H181214   5.380   4.709   2.843 -0.1796 -0.5184 -0.8092
19933TIP3    H281215   5.381   4.618   2.964  0.4631 -1.9400 -1.8638
19934TIP3   OH281216   5.586   4.211   5.737  0.0841  0.2546 -0.3395
19934TIP3    H181217   5.597   4.169   5.652 -0.7922  0.3674 -0.5120
19934TIP3    H281218   5.531   4.151   5.787  1.4625 -0.3350  0.5469
19935TIP3   OH281219   2.920   0.077   1.703  0.3218  0.6468  0.5388
19935TIP3    H181220   2.912   0.001   1.645 -1.2429  1.2583 -0.1206
19935TIP3    H281221   3.010   0.074   1.735  0.8554 -0.4231 -0.9496
19936TIP3   OH281222   2.042   1.886   3.413 -0.0841 -0.0361  0.9420
19936TIP3    H181223   1.997   1.946   3.354 -1.5789 -0.3376  1.7341
19936TIP3    H281224   1.972   1.836   3.455  0.9772 -0.3716  2.3934
19937TIP3   OH281225   4.927   1.297   5.163 -0.4340 -0.3577  0.2553
19937TIP3    H181226   4.942   1.255   5.248 -1.6177 -0.3047  0.5132
19937TIP3    H281227   4.989   1.370   5.161 -0.7788 -0.0122  1.3289
19938TIP3   OH281228   3.969   3.694  15.129 -0.3718  0.0662 -0.3320
19938TIP3    H181229   4.023   3.772  15.135 -2.5172  1.6095  0.4297
19938TIP3    H281230   3.955   3.667  15.219 -0.2444 -0.7632 -0.5529
19939TIP3   OH281231   5.881   0.412   4.509  0.0749 -0.1338  0.0594
19939TIP3    H181232   5.828   0.375   4.580 -0.7359  1.3337  0.2676
19939TIP3    H281233   5.963   0.436   4.551  0.3624 -1.0830  0.0568
19940TIP3   OH281234   0.415   1.701   3.509 -0.1194  0.0103  0.1421
19940TIP3    H181235   0.495   1.736   3.470  1.2160  0.0436  2.6835
19940TIP3    H281236   0.377   1.776   3.555  0.5752 -0.8456  2.2214
19941TIP3   OH281237   3.912   3.596  15.402 -0.0055 -0.3231 -0.1863
19941TIP3    H181238   3.892   3.558  15.487 -0.2593 -2.4900 -1.1461
19941TIP3    H281239   3.853   3.552  15.341 -0.3350  1.6989 -1.4004
19942TIP3   OH281240   5.273   4.320   5.149  0.2646 -0.1273  0.3249
19942TIP3    H181241   5.299   4.230   5.169  1.5275  0.3842  1.0707
19942TIP3    H281242   5.353   4.371   5.157 -0.1874  0.8983 -1.2614
19943LIG      S81243   2.893   4.193  16.116  0.6191  0.2293  0.4726
19943LIG     O181244   2.712   3.838  16.130  0.0323  0.6908  0.3376
19943LIG     O281245   3.471   4.311  16.470 -0.3785  0.3585 -0.2109
19943LIG     O381246   3.444   4.347  16.267 -0.0082 -0.0549 -0.5774
19943LIG     N181247   3.434   4.007  16.384  0.2720 -0.3997  0.0794
19943LIG     N281248   3.216   3.978  16.264 -0.2053  0.8379  0.0381
19943LIG     N381249   3.409   4.301  16.369 -0.3039  0.2782  0.9366
19943LIG     N481250   2.699   3.518  15.958  0.1363 -0.5118  0.1232
19943LIG     C181251   3.511   3.910  16.303 -0.4664 -0.3258 -0.1914
19943LIG     C281252   3.558   3.987  16.181  0.0770 -0.7805 -0.5950
19943LIG     C381253   3.626   3.866  16.410  0.4748 -0.2506 -0.1954
19943LIG     C481254   3.630   3.900  16.087 -0.0608 -0.2177  0.0183
19943LIG     C581255   3.743   3.969  16.430  0.4460 -0.1387  0.2470
19943LIG     C681256   3.775   3.861  16.117  0.5904 -0.6107 -0.5818
19943LIG     C781257   3.868   3.941  16.354 -0.3462 -0.0247  1.1607
19943LIG     C881258   3.864   3.959  16.197  0.2080 -0.0972 -0.5278
19943LIG     C981259   3.304   4.054  16.331 -0.0547  0.9053  0.1021
19943LIG    C1081260   3.285   4.206  16.358  0.0094  0.3943  0.2918
19943LIG    C1181261   3.075   4.023  16.258  0.3518 -0.3731 -0.0383
19943LIG    C1281262   3.037   4.077  16.120  0.1597  0.4522  0.6025
19943LIG    C1381263   2.760   4.079  16.177  0.0056  0.2991 -0.6684
19943LIG    C1481264   2.714   3.962  16.079 -0.2599  0.1812  0.6426
19943LIG    C1581265   2.653   3.760  16.035 -0.0439  0.6745 -0.5951
19943LIG    C1681266   2.651   3.607  16.066  0.4240 -0.1069 -0.9315
19943LIG    C1781267   2.679   3.961  15.945 -0.2642 -0.1657 -0.2359
19943LIG    C1881268   2.634   3.829  15.916 -0.1517  0.2953 -0.5396
19943LIG    C1981269   2.608   3.503  15.849 -0.5919 -0.4216 -0.3607
19943LIG    C2081270   2.843   3.528  15.922  0.0979  0.1517 -0.8832
19943LIG     H181271   3.444   3.827  16.271 -0.3569 -0.8145  0.8206
19943LIG     H281272   3.621   4.071  16.220 -1.2017 -0.4813  0.9386
19943LIG     H381273   3.462   4.022  16.138 -1.1490 -2.7993  0.3729
19943LIG     H481274   3.650   3.760  16.389 -1.3783 -0.8178  0.3451
19943LIG     H581275   3.579   3.860  16.510 -1.5127 -0.3689 -1.0741
19943LIG     H681276   3.639   3.963  15.996 -1.3377  0.8689  0.6104
19943LIG     H781277   3.571   3.809  16.058 -0.4726 -0.9108  2.7933
19943LIG     H881278   3.781   3.971  16.535  0.0058  0.4568  0.4017
19943LIG     H981279   3.704   4.069  16.402 -0.9088 -0.6996  0.0454
19943LIG    H1081280   3.823   3.829  16.022  0.5710 -1.2879 -0.3716
19943LIG    H1181281   3.773   3.768  16.178 -1.4867 -0.5446 -0.4746
19943LIG    H1281282   3.919   3.843  16.367 -0.4736 -0.3618 -0.5865
19943LIG    H1381283   3.934   4.024  16.386 -0.9102  0.8181  0.1959
19943LIG    H1481284   3.854   4.067  16.175  0.3863  0.1932  0.7340
19943LIG    H1581285   3.970   3.947  16.166  0.2051  2.3341 -1.7404
19943LIG    H1681286   3.485   4.086  16.423 -1.6740  0.7939  0.3438
19943LIG    H1781287   3.227   4.240  16.271  0.7710 -1.0577 -0.8429
19943LIG    H1881288   3.229   4.223  16.451 -0.3360  0.1026  0.1426
19943LIG    H1981289   3.034   4.100  16.327 -1.3381 -2.0716  0.9369
19943LIG    H2081290   3.011   3.936  16.282 -1.7597  1.1567  0.1678
19943LIG    H2181291   3.123   4.134  16.079 -0.4527  0.9645  0.0060
19943LIG    H2281292   3.017   3.995  16.047 -1.8010  1.5282 -0.1508
19943LIG    H2381293   2.672   4.137  16.212  1.2018  1.0217  1.2761
19943LIG    H2481294   2.783   4.037  16.278  0.6642  0.9614 -0.5332
19943LIG    H2581295   2.713   3.592  16.157 -0.7509  0.2494 -0.0552
19943LIG    H2681296   2.548   3.598  16.107  1.6357  0.4270  2.5909
19943LIG    H2781297   2.671   4.049  15.883  0.9514  1.8585  2.2781
19943LIG    H2881298   2.596   3.802  15.819  0.5236  0.1217 -0.7660
19943LIG    H2981299   2.615   3.407  15.795  1.2008  0.6769 -2.2265
19943LIG    H3081300   2.625   3.571  15.762 -0.8572 -1.7532 -1.4895
19943LIG    H3181301   2.500   3.519  15.871 -0.6861 -0.0763 -1.0330
19943LIG    H3281302   2.883   3.632  15.919 -3.2985  1.7411  1.7218
19943LIG    H3381303   2.856   3.488  15.820 -0.1426  2.5725 -1.9233
19943LIG    H3481304   2.912   3.476  15.992  1.6747  0.7713 -1.9480
   6.80210   6.80210  17.19522
