Title
43134
    1CHL1    C3    1   6.495   1.786   6.294  0.4421  0.8100 -0.0063
    1CHL1    H3    2   6.489   1.897   6.295  2.6657  0.9609 -0.0860
    1CHL1    O3    3   6.469   1.743   6.431 -0.2393 -0.2372  0.3242
    1CHL1   H3'    4   6.493   1.651   6.445  2.6118  0.2095 -0.9990
    1CHL1    C4    5   6.388   1.735   6.194  0.0834  0.1556  0.3442
    1CHL1   H4A    6   6.371   1.626   6.204  1.0172  0.0011  0.3424
    1CHL1   H4B    7   6.290   1.780   6.219  0.2468  1.0324 -0.5390
    1CHL1    C5    8   6.426   1.781   6.057 -0.7819 -0.4595 -0.2370
    1CHL1    C6    9   6.338   1.852   5.983  0.4244 -0.2145 -0.0104
    1CHL1    H6   10   6.231   1.871   6.004  0.4603  1.2589 -1.0549
    1CHL1    C7   11   6.361   1.895   5.840  0.3779 -0.0932  0.3655
    1CHL1   H7A   12   6.266   1.886   5.784 -1.0755  1.5155  2.3764
    1CHL1   H7B   13   6.388   2.002   5.830 -1.0393  0.1195 -1.7334
    1CHL1    C8   14   6.486   1.822   5.775  0.3424 -0.4242  0.4911
    1CHL1    H8   15   6.446   1.720   5.753 -1.2470  0.4668 -1.0630
    1CHL1   C14   16   6.523   1.889   5.647  0.0241  0.9479 -0.6960
    1CHL1   H14   17   6.563   1.988   5.679 -1.8816  1.2025  1.0939
    1CHL1   C15   18   6.406   1.934   5.552  0.0363 -0.2192  0.5893
    1CHL1  H15A   19   6.333   1.851   5.541 -0.1849 -0.0131  0.4941
    1CHL1  H15B   20   6.341   2.019   5.581 -0.6844 -0.1571 -1.0883
    1CHL1   C16   21   6.488   1.951   5.420 -0.5121  0.4379 -0.0410
    1CHL1  H16A   22   6.457   1.872   5.347  0.4198 -0.8015  0.8539
    1CHL1  H16B   23   6.492   2.059   5.398 -1.2350  0.8354  1.5990
    1CHL1   C17   24   6.640   1.910   5.445  0.1874 -1.0248 -0.4690
    1CHL1   H17   25   6.696   2.001   5.475  0.1696 -1.0773 -0.2738
    1CHL1   C13   26   6.635   1.818   5.568 -0.0702  0.1844  0.8592
    1CHL1   C18   27   6.575   1.676   5.523 -0.2164 -0.3047 -0.2979
    1CHL1  H18A   28   6.484   1.686   5.461 -0.7882 -1.5822  0.2982
    1CHL1  H18B   29   6.654   1.628   5.461  0.9068 -0.2927  1.0703
    1CHL1  H18C   30   6.548   1.608   5.606 -0.4809 -0.8271 -0.8046
    1CHL1   C12   31   6.764   1.799   5.651 -0.2066 -0.2552  0.0982
    1CHL1  H12A   32   6.833   1.719   5.615  0.1900  0.5966 -1.1123
    1CHL1  H12B   33   6.821   1.894   5.649  0.6198 -0.7391  0.0277
    1CHL1   C11   34   6.734   1.754   5.798 -0.0909 -0.1439  0.8010
    1CHL1  H11A   35   6.714   1.647   5.774 -2.3801  0.5930 -1.0069
    1CHL1  H11B   36   6.826   1.774   5.856  0.8039  1.2750 -0.9985
    1CHL1    C9   37   6.608   1.817   5.870 -0.2032 -0.3121 -0.0389
    1CHL1    H9   38   6.635   1.923   5.889  2.0011 -0.8099 -0.0843
    1CHL1   C10   39   6.569   1.755   6.009 -0.5925 -0.6338 -0.7118
    1CHL1   C19   40   6.583   1.607   5.984  0.2643  0.3025 -0.5558
    1CHL1  H19A   41   6.560   1.562   6.083 -2.5219  3.8714  0.6084
    1CHL1  H19B   42   6.513   1.562   5.910 -0.1359  1.7863 -1.1002
    1CHL1  H19C   43   6.687   1.571   5.965  0.0539 -0.5177 -0.2103
    1CHL1    C1   44   6.673   1.796   6.115  0.6119 -0.4645 -0.1942
    1CHL1   H1A   45   6.768   1.754   6.075 -1.1563 -2.7573 -2.2888
    1CHL1   H1B   46   6.686   1.906   6.116  0.8637 -0.4931 -0.1059
    1CHL1    C2   47   6.637   1.762   6.263 -0.6682 -0.3234  0.2486
    1CHL1   H2A   48   6.697   1.826   6.331  0.7986  0.0069 -1.2981
    1CHL1   H2B   49   6.672   1.657   6.275  1.9355  0.3787 -0.5295
    1CHL1   C20   50   6.702   1.849   5.314  0.1015  0.0772 -0.7296
    1CHL1   H20   51   6.641   1.760   5.289  0.8942 -1.2513  1.7087
    1CHL1   C21   52   6.852   1.821   5.340 -0.0835  0.9753  0.4780
    1CHL1  H21A   53   6.852   1.730   5.404 -0.9868  0.9231  0.4191
    1CHL1  H21B   54   6.898   1.908   5.391 -0.7291  1.4863  0.2114
    1CHL1  H21C   55   6.906   1.805   5.245 -2.8586 -0.5432 -0.9808
    1CHL1   C22   56   6.694   1.955   5.204 -0.0379 -0.2785  0.6347
    1CHL1  H22A   57   6.588   1.988   5.203 -1.2127 -3.6356  0.0249
    1CHL1  H22B   58   6.754   2.042   5.236  0.8024 -0.9397  0.8917
    1CHL1   C23   59   6.727   1.903   5.064  0.5615 -0.3845  0.0065
    1CHL1  H23A   60   6.832   1.869   5.059  1.5644  2.3285  0.5259
    1CHL1  H23B   61   6.670   1.811   5.040 -0.8901  0.6285 -0.5754
    1CHL1   C24   62   6.701   2.004   4.954 -0.5405 -0.4367 -0.1931
    1CHL1  H24A   63   6.608   2.053   4.990  0.3828 -0.2915  2.1285
    1CHL1  H24B   64   6.784   2.078   4.954 -0.1011 -0.9211  0.4834
    1CHL1   C25   65   6.693   1.946   4.811 -0.1841  0.7701 -0.3060
    1CHL1   H25   66   6.789   1.892   4.799 -0.1204  0.6014  0.7869
    1CHL1   C26   67   6.588   1.849   4.783  0.4068  0.2244  0.2242
    1CHL1  H26A   68   6.487   1.878   4.821  0.0876 -1.7208  0.9684
    1CHL1  H26B   69   6.568   1.832   4.675 -1.8058 -2.1689  0.9031
    1CHL1  H26C   70   6.612   1.749   4.826  1.0745 -0.1238 -0.9167
    1CHL1   C27   71   6.690   2.061   4.710  0.0812 -0.4254  0.8733
    1CHL1  H27A   72   6.695   2.010   4.612  0.5719  0.8303  0.2190
    1CHL1  H27B   73   6.593   2.114   4.704  0.6512  0.5609 -0.0076
    1CHL1  H27C   74   6.785   2.118   4.722  0.5643 -0.9334 -0.4158
    2CHL1    C3   75   0.282   2.132   6.272 -0.3941 -0.0692 -0.5394
    2CHL1    H3   76   0.360   2.210   6.280  0.4518 -0.7199 -1.9994
    2CHL1    O3   77   0.228   2.095   6.402  0.1032 -0.3378  0.0916
    2CHL1   H3'   78   0.219   2.000   6.405 -1.8120 -0.1703  1.2672
    2CHL1    C4   79   0.177   2.202   6.184  0.2520  0.1813 -0.4244
    2CHL1   H4A   80   0.086   2.140   6.191  0.0469  0.4459 -0.6949
    2CHL1   H4B   81   0.149   2.301   6.227 -1.3548 -1.1648  1.8124
    2CHL1    C5   82   0.233   2.208   6.041  0.4351  0.0201 -0.8738
    2CHL1    C6   83   0.238   2.321   5.980  0.5697  0.3608  0.8793
    2CHL1    H6   84   0.187   2.408   6.024 -0.2340  1.3157 -1.7693
    2CHL1    C7   85   0.285   2.334   5.838  0.7737  1.1604  0.4071
    2CHL1   H7A   86   0.223   2.396   5.770  0.0282 -1.8504 -1.8661
    2CHL1   H7B   87   0.392   2.363   5.828  1.6179 -1.7388  0.2991
    2CHL1    C8   88   0.288   2.201   5.764 -0.2284 -0.5238  0.0612
    2CHL1    H8   89   0.182   2.170   5.748 -0.4472 -1.3910  2.6035
    2CHL1   C14   90   0.363   2.222   5.630 -0.1546 -0.1622 -0.6618
    2CHL1   H14   91   0.466   2.251   5.656 -0.2224 -0.6826  0.2001
    2CHL1   C15   92   0.315   2.331   5.532 -1.0501  0.4872  0.0605
    2CHL1  H15A   93   0.204   2.330   5.536 -1.0809  1.3733 -0.3019
    2CHL1  H15B   94   0.345   2.433   5.565 -0.1700  0.4105 -0.4762
    2CHL1   C16   95   0.377   2.292   5.396 -0.0714 -0.9376 -0.2067
    2CHL1  H16A   96   0.297   2.283   5.319 -1.0494 -0.1654  0.6952
    2CHL1  H16B   97   0.454   2.368   5.372 -0.1160 -0.2556  1.6266
    2CHL1   C17   98   0.445   2.150   5.419  0.8802  0.0305  0.2608
    2CHL1   H17   99   0.546   2.186   5.451  0.3179  4.1304 -1.8267
    2CHL1   C13  100   0.377   2.092   5.544  0.8548  0.2293  0.1033
    2CHL1   C18  101   0.232   2.039   5.499 -0.3301 -0.6825  0.0266
    2CHL1  H18A  102   0.154   2.048   5.577 -0.4376  1.0809 -0.2427
    2CHL1  H18B  103   0.189   2.087   5.408  0.5751 -0.8955 -0.5261
    2CHL1  H18C  104   0.246   1.932   5.470  2.1913 -0.1825 -0.8359
    2CHL1   C12  105   0.449   1.987   5.635 -0.0003 -0.7149  0.3916
    2CHL1  H12A  106   0.448   1.893   5.576 -0.4656 -0.5189  0.0828
    2CHL1  H12B  107   0.551   2.025   5.660  0.6855 -1.7835 -0.7197
    2CHL1   C11  108   0.366   1.960   5.768 -0.0929  0.3227  0.7964
    2CHL1  H11A  109   0.263   1.926   5.744 -0.8472  3.0942 -0.2163
    2CHL1  H11B  110   0.411   1.875   5.823  1.4333 -0.0332 -0.8966
    2CHL1    C9  111   0.352   2.085   5.848 -0.0548 -0.2363  0.3154
    2CHL1    H9  112   0.455   2.124   5.866  0.2387 -0.2535 -1.1943
    2CHL1   C10  113   0.282   2.076   5.984  0.0632 -0.5178  0.4638
    2CHL1   C19  114   0.150   1.992   5.973  0.0100 -0.0255  0.4020
    2CHL1  H19A  115   0.110   1.956   6.070  1.1351 -0.5221  0.7001
    2CHL1  H19B  116   0.068   2.044   5.920 -1.0194 -2.0066 -0.0796
    2CHL1  H19C  117   0.165   1.894   5.922  1.7060  0.6187 -0.4300
    2CHL1    C1  118   0.384   2.014   6.074 -1.4946  0.2504 -0.4805
    2CHL1   H1A  119   0.415   1.914   6.036 -0.1956  0.3350  0.3119
    2CHL1   H1B  120   0.474   2.078   6.065 -0.0840 -1.3189  1.4399
    2CHL1    C2  121   0.339   1.998   6.221  0.2480  0.7223  0.9553
    2CHL1   H2A  122   0.422   1.962   6.285 -0.7788 -3.1976  0.3459
    2CHL1   H2B  123   0.255   1.926   6.223 -0.6751  1.7816  2.1737
    2CHL1   C20  124   0.457   2.070   5.293  0.3077  0.4233 -0.0054
    2CHL1   H20  125   0.356   2.035   5.263  0.5849 -3.6491  2.8793
    2CHL1   C21  126   0.529   1.932   5.320  0.4324 -0.5115  0.3570
    2CHL1  H21A  127   0.467   1.871   5.389 -1.0493  1.0557  0.4993
    2CHL1  H21B  128   0.632   1.959   5.351  0.9627 -1.8583 -0.1752
    2CHL1  H21C  129   0.534   1.882   5.221  0.1924  1.2252 -0.5695
    2CHL1   C22  130   0.526   2.156   5.180 -0.6882  0.0074  0.2949
    2CHL1  H22A  131   0.455   2.238   5.156  0.1203  0.3881 -0.9096
    2CHL1  H22B  132   0.619   2.202   5.221 -0.6447  1.7367 -1.5669
    2CHL1   C23  133   0.555   2.087   5.045  0.0016  0.3950  0.1515
    2CHL1  H23A  134   0.627   2.003   5.061 -2.1963 -1.6200 -0.0628
    2CHL1  H23B  135   0.469   2.028   5.007  0.4932 -1.2959  1.5588
    2CHL1   C24  136   0.606   2.186   4.941 -0.6211  0.1621  1.0009
    2CHL1  H24A  137   0.529   2.263   4.920  0.7656  0.9843 -1.3668
    2CHL1  H24B  138   0.695   2.235   4.985 -0.7380 -0.2603  1.7261
    2CHL1   C25  139   0.645   2.117   4.810  0.6333 -0.6312 -0.2891
    2CHL1   H25  140   0.716   2.035   4.835  2.1606  1.0810  1.2958
    2CHL1   C26  141   0.526   2.056   4.728 -0.0213  0.4371 -0.0098
    2CHL1  H26A  142   0.569   2.011   4.636  1.6864  1.5244  0.1967
    2CHL1  H26B  143   0.463   1.990   4.790  1.5803 -0.5275  0.6511
    2CHL1  H26C  144   0.459   2.137   4.690  0.4521  0.3140 -1.1300
    2CHL1   C27  145   0.723   2.213   4.713 -0.3003  0.2320  0.3891
    2CHL1  H27A  146   0.816   2.252   4.759 -0.6259  1.2458  0.2227
    2CHL1  H27B  147   0.746   2.162   4.617  2.5372  0.0824  1.0600
    2CHL1  H27C  148   0.663   2.304   4.690 -1.4842 -0.4676  0.5898
    3CHL1    C3  149   0.645   1.694   6.381  0.0434  0.3892  0.0345
    3CHL1    H3  150   0.625   1.797   6.343 -1.2121 -0.2357 -1.0795
    3CHL1    O3  151   0.690   1.696   6.512 -0.2850  0.0776 -0.0393
    3CHL1   H3'  152   0.736   1.613   6.525 -1.7279 -1.0240 -1.4877
    3CHL1    C4  153   0.518   1.607   6.377 -0.4346  1.0914  0.0714
    3CHL1   H4A  154   0.548   1.509   6.419  1.4353  1.4499 -0.3034
    3CHL1   H4B  155   0.443   1.658   6.441 -3.0754 -1.7741 -0.5108
    3CHL1    C5  156   0.469   1.583   6.234  0.3564  0.3163 -0.0805
    3CHL1    C6  157   0.351   1.632   6.187  0.2146  0.3928 -0.7496
    3CHL1    H6  158   0.275   1.668   6.257 -0.1099 -1.6057  0.0135
    3CHL1    C7  159   0.292   1.610   6.053  0.4541 -0.3523  0.4599
    3CHL1   H7A  160   0.190   1.568   6.060  0.6231 -1.0395 -0.8382
    3CHL1   H7B  161   0.274   1.709   6.006 -0.4352 -0.8199 -0.2066
    3CHL1    C8  162   0.379   1.520   5.958 -0.0056 -0.1438 -0.5275
    3CHL1    H8  163   0.351   1.419   5.997 -0.7731  0.4602  0.5620
    3CHL1   C14  164   0.352   1.534   5.810  0.3004 -0.1295  0.4481
    3CHL1   H14  165   0.383   1.637   5.784 -2.6313  0.8693  0.4773
    3CHL1   C15  166   0.205   1.531   5.763 -0.6249  0.2443 -0.6737
    3CHL1  H15A  167   0.172   1.434   5.804  1.9558 -0.6427 -0.5652
    3CHL1  H15B  168   0.137   1.614   5.793 -2.2908 -0.7356 -1.5617
    3CHL1   C16  169   0.226   1.526   5.615  0.2984 -0.4771  0.2688
    3CHL1  H16A  170   0.151   1.462   5.563 -0.7712 -0.0549  1.2630
    3CHL1  H16B  171   0.218   1.624   5.564 -0.2522 -1.7115 -2.2162
    3CHL1   C17  172   0.370   1.474   5.586 -0.4563  0.2081 -0.8007
    3CHL1   H17  173   0.425   1.566   5.558 -0.0295 -0.3113 -1.7055
    3CHL1   C13  174   0.427   1.430   5.723  0.3074  0.0420  0.5942
    3CHL1   C18  175   0.390   1.286   5.755 -0.0276 -1.0453  0.1598
    3CHL1  H18A  176   0.394   1.270   5.865 -3.2257 -0.8769  0.3781
    3CHL1  H18B  177   0.286   1.254   5.732  0.3486 -1.4864 -1.0192
    3CHL1  H18C  178   0.464   1.217   5.708  1.6201  1.3879 -1.0221
    3CHL1   C12  179   0.579   1.455   5.740  0.4331  0.2149 -0.0424
    3CHL1  H12A  180   0.624   1.373   5.680 -0.3186 -0.6400  0.5311
    3CHL1  H12B  181   0.593   1.556   5.696 -0.0877 -0.1305 -1.0193
    3CHL1   C11  182   0.621   1.448   5.887 -0.4128  0.5756  0.0732
    3CHL1  H11A  183   0.620   1.342   5.920  2.0470  0.7195  0.8060
    3CHL1  H11B  184   0.727   1.481   5.880 -0.9304  2.0839 -1.1227
    3CHL1    C9  185   0.535   1.531   5.986  0.1764 -0.4680 -0.0582
    3CHL1    H9  186   0.566   1.632   5.950  1.3181 -1.9379 -3.7262
    3CHL1   C10  187   0.574   1.531   6.134  0.9333 -0.6492 -0.3143
    3CHL1   C19  188   0.611   1.392   6.171 -0.4518  0.2980  0.0241
    3CHL1  H19A  189   0.625   1.390   6.281  0.8613  3.9884  0.0598
    3CHL1  H19B  190   0.530   1.320   6.145  1.0839 -1.7610  0.6133
    3CHL1  H19C  191   0.711   1.360   6.135 -1.1268 -0.7720 -0.9993
    3CHL1    C1  192   0.699   1.621   6.147 -0.4307  0.5646 -0.1694
    3CHL1   H1A  193   0.784   1.601   6.079 -0.0686  0.5505  0.2899
    3CHL1   H1B  194   0.668   1.722   6.111  2.9120  1.6568 -0.3223
    3CHL1    C2  195   0.756   1.636   6.293 -0.3528  0.0192 -0.3681
    3CHL1   H2A  196   0.841   1.706   6.280  1.8058 -2.5775 -1.0917
    3CHL1   H2B  197   0.798   1.544   6.338 -1.2427 -0.7738 -1.1105
    3CHL1   C20  198   0.388   1.385   5.465  0.1565 -0.5578  0.3004
    3CHL1   H20  199   0.338   1.292   5.499  1.3761 -0.7145  1.7861
    3CHL1   C21  200   0.538   1.350   5.437 -0.1227 -0.3836  0.3829
    3CHL1  H21A  201   0.542   1.299   5.338 -0.8159 -0.4320  0.3770
    3CHL1  H21B  202   0.581   1.280   5.512 -0.0224 -0.1018  0.5906
    3CHL1  H21C  203   0.597   1.443   5.425 -1.4144  0.3255 -0.6000
    3CHL1   C22  204   0.307   1.433   5.342 -0.1613 -0.9055  0.9529
    3CHL1  H22A  205   0.315   1.355   5.263  0.9056 -0.9338  1.0785
    3CHL1  H22B  206   0.196   1.431   5.351 -0.1430  1.1733  2.2934
    3CHL1   C23  207   0.361   1.558   5.277 -0.3666 -0.2171  0.5434
    3CHL1  H23A  208   0.352   1.643   5.348 -1.9918  0.2310 -0.1529
    3CHL1  H23B  209   0.471   1.549   5.261 -0.4901  0.0166 -0.5381
    3CHL1   C24  210   0.278   1.585   5.148 -0.1384  0.9400 -0.8433
    3CHL1  H24A  211   0.273   1.504   5.072  0.7111  0.3067 -0.2356
    3CHL1  H24B  212   0.178   1.592   5.194 -1.4066 -0.5854 -3.1853
    3CHL1   C25  213   0.325   1.715   5.083  0.2242 -0.4550 -0.1428
    3CHL1   H25  214   0.319   1.792   5.162 -0.5603 -1.1390  0.4801
    3CHL1   C26  215   0.464   1.711   5.035  0.2965  0.4386  0.6001
    3CHL1  H26A  216   0.547   1.681   5.102  0.9695  0.7454 -0.0800
    3CHL1  H26B  217   0.460   1.642   4.948  0.0224  2.8386 -1.4162
    3CHL1  H26C  218   0.493   1.807   4.986  0.4160 -0.0599 -0.3408
    3CHL1   C27  219   0.236   1.742   4.964 -0.0173  0.4828 -0.1989
    3CHL1  H27A  220   0.245   1.845   4.922 -0.7740 -0.1027 -1.8884
    3CHL1  H27B  221   0.247   1.675   4.876 -2.8057  0.5092 -0.6419
    3CHL1  H27C  222   0.129   1.731   4.992  0.3530 -1.4134  0.6251
    4CHL1    C3  223   6.076   2.389   6.119 -0.7739 -0.3283  0.1121
    4CHL1    H3  224   5.985   2.340   6.080 -0.9957  0.6246 -0.5782
    4CHL1    O3  225   6.103   2.364   6.258  0.3555 -0.1762  0.4759
    4CHL1   H3'  226   6.190   2.400   6.275  0.5328  0.2644 -1.1562
    4CHL1    C4  227   6.200   2.350   6.035  0.2268 -0.0464 -0.1155
    4CHL1   H4A  228   6.292   2.381   6.089  1.8573 -3.4357 -0.6997
    4CHL1   H4B  229   6.215   2.240   6.037 -0.5930 -0.2017 -1.2817
    4CHL1    C5  230   6.199   2.394   5.897  0.0554 -0.0311 -0.8698
    4CHL1    C6  231   6.209   2.302   5.800  0.0202 -0.0290 -0.0418
    4CHL1    H6  232   6.229   2.195   5.818  0.7394  0.2723  1.0208
    4CHL1    C7  233   6.227   2.340   5.653  0.0824  0.0703  0.2598
    4CHL1   H7A  234   6.326   2.311   5.610 -0.8848 -0.1931 -1.9208
    4CHL1   H7B  235   6.151   2.287   5.592 -1.2963  0.2933  1.7184
    4CHL1    C8  236   6.212   2.489   5.626 -0.5185  0.2638 -0.5861
    4CHL1    H8  237   6.314   2.532   5.632  0.0128 -0.5712 -2.6292
    4CHL1   C14  238   6.166   2.517   5.488  0.4684 -0.0637  0.2940
    4CHL1   H14  239   6.059   2.488   5.483 -0.1760  2.0581  0.7718
    4CHL1   C15  240   6.235   2.437   5.373  0.4424  0.4323  0.3357
    4CHL1  H15A  241   6.340   2.446   5.407  0.3790 -1.5151  1.1415
    4CHL1  H15B  242   6.221   2.327   5.379  0.0245  0.4720  0.1323
    4CHL1   C16  243   6.188   2.512   5.247 -0.6233 -0.2931 -0.2851
    4CHL1  H16A  244   6.275   2.542   5.183 -3.0005  1.0599 -3.1570
    4CHL1  H16B  245   6.109   2.456   5.193 -2.0536  1.3135  0.0563
    4CHL1   C17  246   6.125   2.647   5.292 -0.4433  0.1432 -0.0038
    4CHL1   H17  247   6.018   2.620   5.305  0.0008 -1.3906  0.6617
    4CHL1   C13  248   6.169   2.668   5.439  0.5604  0.1870 -0.0025
    4CHL1   C18  249   6.318   2.713   5.440 -0.6407  0.2125  0.3792
    4CHL1  H18A  250   6.327   2.819   5.409 -0.3206 -0.0763 -0.5454
    4CHL1  H18B  251   6.357   2.711   5.544 -3.3738 -1.6609  1.5036
    4CHL1  H18C  252   6.382   2.648   5.377 -2.8995 -2.4808  0.6462
    4CHL1   C12  253   6.086   2.743   5.529  0.5737 -0.0032 -0.9338
    4CHL1  H12A  254   6.094   2.852   5.512  0.0441  1.0355  3.9540
    4CHL1  H12B  255   5.985   2.699   5.510 -0.4274  0.7941  2.0199
    4CHL1   C11  256   6.116   2.718   5.683 -0.3147  0.2161  0.0087
    4CHL1  H11A  257   6.219   2.757   5.698  0.4306 -1.3785 -0.6932
    4CHL1  H11B  258   6.042   2.776   5.742 -1.6776  0.3625 -1.7389
    4CHL1    C9  259   6.121   2.563   5.723 -0.4453 -0.6534 -0.5691
    4CHL1    H9  260   6.022   2.514   5.714 -0.8933  0.0710  0.2510
    4CHL1   C10  261   6.160   2.542   5.877  0.1428 -0.2114 -0.3060
    4CHL1   C19  262   6.288   2.619   5.925  0.1748 -0.0438 -0.2366
    4CHL1  H19A  263   6.365   2.595   5.848 -1.0720 -1.8934 -0.9741
    4CHL1  H19B  264   6.277   2.729   5.934 -0.4524 -0.1192 -0.0796
    4CHL1  H19C  265   6.316   2.575   6.023  0.1631 -3.2660 -1.5816
    4CHL1    C1  266   6.039   2.582   5.968  0.5616 -0.7909  0.4938
    4CHL1   H1A  267   6.024   2.690   5.949 -0.4745 -1.2732 -1.8426
    4CHL1   H1B  268   5.948   2.535   5.925  0.9664  0.2377 -1.6230
    4CHL1    C2  269   6.061   2.540   6.115  0.1688 -1.0161  1.0924
    4CHL1   H2A  270   5.974   2.569   6.178 -2.3997 -2.0619 -1.7201
    4CHL1   H2B  271   6.150   2.591   6.158 -0.0727 -0.3880  0.8691
    4CHL1   C20  272   6.141   2.767   5.194  0.5664  0.3363  0.1575
    4CHL1   H20  273   6.251   2.787   5.189  1.0122 -2.0808 -1.0714
    4CHL1   C21  274   6.063   2.888   5.239 -0.5962 -0.6674 -0.6666
    4CHL1  H21A  275   5.985   2.853   5.310 -2.2237  1.1903 -1.4334
    4CHL1  H21B  276   6.004   2.959   5.178 -0.5981  1.9746  2.1364
    4CHL1  H21C  277   6.131   2.943   5.308  0.5441 -0.7615 -1.6827
    4CHL1   C22  278   6.104   2.738   5.048  0.2605 -0.2010 -0.5311
    4CHL1  H22A  279   6.149   2.642   5.013  1.1085 -0.1315  0.3245
    4CHL1  H22B  280   5.993   2.737   5.040  0.2251  0.7739 -0.2576
    4CHL1   C23  281   6.164   2.838   4.948  0.3475 -0.3687 -0.2504
    4CHL1  H23A  282   6.123   2.940   4.958  0.9112 -0.1710  0.1454
    4CHL1  H23B  283   6.275   2.834   4.961  0.3314  0.4360  0.1816
    4CHL1   C24  284   6.123   2.788   4.812  1.0969 -0.3554  0.5269
    4CHL1  H24A  285   6.167   2.686   4.800 -0.4202 -1.1017  1.1310
    4CHL1  H24B  286   6.012   2.786   4.813  0.9273  3.1868  0.3284
    4CHL1   C25  287   6.174   2.882   4.699 -0.7419 -0.3172  0.1729
    4CHL1   H25  288   6.133   2.979   4.735 -1.3234 -1.0897  1.6719
    4CHL1   C26  289   6.331   2.870   4.702  0.7800  0.3252  0.0945
    4CHL1  H26A  290   6.365   2.764   4.700 -0.7302 -0.1702 -0.7945
    4CHL1  H26B  291   6.383   2.922   4.618  0.0051  2.1272  0.6833
    4CHL1  H26C  292   6.363   2.919   4.796 -0.1889 -0.2123  0.7171
    4CHL1   C27  293   6.107   2.861   4.566  0.4579  0.7522  0.3260
    4CHL1  H27A  294   6.165   2.781   4.514 -2.5600 -1.3086 -0.1491
    4CHL1  H27B  295   6.009   2.811   4.581  1.4079 -0.6418  2.3893
    4CHL1  H27C  296   6.085   2.958   4.516 -0.1659  0.4376 -0.0216
    5CHL1    C3  297   5.714   4.786   6.676 -0.2162  0.1867 -0.3200
    5CHL1    H3  298   5.624   4.850   6.680  0.5705  1.2619  3.1167
    5CHL1    O3  299   5.724   4.733   6.811  0.1518 -0.1228 -0.9028
    5CHL1   H3'  300   5.713   4.810   6.867  0.0926 -1.2210  0.6374
    5CHL1    C4  301   5.712   4.676   6.580 -0.3517  0.2137  0.8398
    5CHL1   H4A  302   5.809   4.624   6.594 -1.4332 -1.4731  2.5415
    5CHL1   H4B  303   5.629   4.605   6.605 -1.1381  0.1897 -1.5709
    5CHL1    C5  304   5.710   4.719   6.437  0.0143 -0.2844  0.1012
    5CHL1    C6  305   5.608   4.696   6.352 -0.0635  0.8316  0.2498
    5CHL1    H6  306   5.524   4.638   6.393  1.0880  0.9181  2.8826
    5CHL1    C7  307   5.618   4.725   6.201 -0.2116 -0.0369  0.2697
    5CHL1   H7A  308   5.587   4.636   6.141  0.8943 -0.6119  0.5276
    5CHL1   H7B  309   5.540   4.801   6.177 -1.0157 -0.8949  0.0943
    5CHL1    C8  310   5.762   4.765   6.147 -0.2016  0.2077 -0.3356
    5CHL1    H8  311   5.826   4.675   6.139  0.9252  1.0255 -0.8085
    5CHL1   C14  312   5.756   4.833   6.016 -0.6540 -0.2684  0.1117
    5CHL1   H14  313   5.691   4.921   6.032 -1.1773 -0.6154 -0.0802
    5CHL1   C15  314   5.688   4.759   5.896  0.1743  0.1985  0.1431
    5CHL1  H15A  315   5.721   4.653   5.885 -0.0963 -0.0441  1.4107
    5CHL1  H15B  316   5.577   4.754   5.886  0.3968 -2.7514 -2.2175
    5CHL1   C16  317   5.734   4.840   5.771  0.3259  0.8498 -0.6802
    5CHL1  H16A  318   5.792   4.784   5.694  0.3068  1.5331 -1.2003
    5CHL1  H16B  319   5.657   4.906   5.725 -0.5857  1.4042  1.4961
    5CHL1   C17  320   5.842   4.948   5.828  0.2191 -0.6501 -0.0843
    5CHL1   H17  321   5.788   5.041   5.853  0.0718 -1.1214  1.4671
    5CHL1   C13  322   5.885   4.887   5.961  0.1823 -0.2253  0.9250
    5CHL1   C18  323   5.976   4.762   5.943 -0.0230  0.1622  0.0294
    5CHL1  H18A  324   6.081   4.801   5.938  0.8459 -1.8040  1.6735
    5CHL1  H18B  325   5.973   4.696   6.032 -2.8606  0.1775  0.0250
    5CHL1  H18C  326   5.940   4.707   5.854  0.0520 -0.3591  0.3185
    5CHL1   C12  327   5.950   4.992   6.056  0.5559  0.1754 -0.2351
    5CHL1  H12A  328   6.055   5.008   6.024  0.1720 -1.6749 -2.7485
    5CHL1  H12B  329   5.901   5.091   6.056  0.8844  0.3773  1.4931
    5CHL1   C11  330   5.949   4.947   6.203 -0.1523 -0.1168  0.1896
    5CHL1  H11A  331   6.044   4.890   6.207 -0.9836 -1.5903 -0.5485
    5CHL1  H11B  332   5.964   5.028   6.278 -1.6303 -0.5045  0.9515
    5CHL1    C9  333   5.827   4.863   6.251  0.1587  0.0153 -0.2441
    5CHL1    H9  334   5.745   4.936   6.266 -0.6062 -0.6996 -0.8088
    5CHL1   C10  335   5.834   4.798   6.392 -0.5870  0.0708  0.5788
    5CHL1   C19  336   5.952   4.708   6.389 -0.2963  0.2956 -0.1181
    5CHL1  H19A  337   5.941   4.629   6.312  0.4085 -1.4436  1.4873
    5CHL1  H19B  338   6.041   4.773   6.371  0.7488 -1.3162 -1.0380
    5CHL1  H19C  339   5.976   4.654   6.483  1.3912  1.8884  0.4386
    5CHL1    C1  340   5.844   4.906   6.501 -0.1117  0.4551 -0.4585
    5CHL1   H1A  341   5.940   4.960   6.484  0.0414  0.3117 -0.0662
    5CHL1   H1B  342   5.767   4.983   6.478 -0.4930 -0.4505 -2.5053
    5CHL1    C2  343   5.838   4.873   6.652 -0.2185 -0.5133  0.4317
    5CHL1   H2A  344   5.828   4.968   6.709 -0.0548  0.2970 -0.8377
    5CHL1   H2B  345   5.933   4.825   6.683  1.4828  1.6944 -0.9999
    5CHL1   C20  346   5.939   4.990   5.719  0.1013 -0.1691 -0.0337
    5CHL1   H20  347   5.995   4.899   5.687 -1.5919 -1.7187  1.1880
    5CHL1   C21  348   6.035   5.107   5.758 -0.0086 -0.3244 -0.0081
    5CHL1  H21A  349   5.981   5.203   5.774  0.0198  0.1842 -2.6051
    5CHL1  H21B  350   6.111   5.132   5.681 -1.0915  0.2595 -0.9305
    5CHL1  H21C  351   6.092   5.083   5.850 -0.7151 -0.0167  0.5269
    5CHL1   C22  352   5.870   5.018   5.582 -0.6094 -0.0753 -0.2494
    5CHL1  H22A  353   5.801   4.934   5.557 -0.4956  0.0945 -1.1782
    5CHL1  H22B  354   5.811   5.112   5.594  0.4969  0.5624  0.2596
    5CHL1   C23  355   5.972   5.029   5.466 -0.1866  0.3316 -0.1282
    5CHL1  H23A  356   6.053   5.103   5.481 -0.0556  0.2117 -0.2341
    5CHL1  H23B  357   6.020   4.930   5.447 -0.8888  0.0939 -0.7091
    5CHL1   C24  358   5.902   5.086   5.335  0.2026  0.2467  0.1264
    5CHL1  H24A  359   5.819   5.021   5.301  0.7352  0.7882 -2.4398
    5CHL1  H24B  360   5.853   5.181   5.367 -2.5377 -0.9155 -0.3359
    5CHL1   C25  361   5.987   5.112   5.213 -0.4449  0.0133 -0.7252
    5CHL1   H25  362   6.060   5.192   5.236 -0.3506  0.6510 -2.9308
    5CHL1   C26  363   6.070   4.989   5.163  0.9952 -0.0912  0.3064
    5CHL1  H26A  364   6.123   5.009   5.067  1.5236 -1.1853  0.3505
    5CHL1  H26B  365   6.147   4.947   5.231 -0.3821  0.3622  2.2157
    5CHL1  H26C  366   5.997   4.912   5.131 -0.3360  1.8149 -1.5248
    5CHL1   C27  367   5.904   5.178   5.109 -0.4498  1.3435  0.4726
    5CHL1  H27A  368   5.825   5.109   5.070  2.1446 -0.0390 -2.8179
    5CHL1  H27B  369   5.863   5.274   5.147 -0.0428  1.1301  1.4807
    5CHL1  H27C  370   5.965   5.209   5.022 -0.3975  0.3597  0.1431
    6CHL1    C3  371   4.672   0.096   6.677 -0.0084  0.2128 -0.7825
    6CHL1    H3  372   4.760   0.030   6.662  0.1208  0.3596 -0.6750
    6CHL1    O3  373   4.665   0.127   6.819 -0.3551  0.0810  0.4713
    6CHL1   H3'  374   4.606   0.203   6.828 -0.8540 -0.3094  0.5390
    6CHL1    C4  375   4.689   0.227   6.594  0.5833  0.3007 -0.2151
    6CHL1   H4A  376   4.613   0.302   6.624  1.6374  0.5052  2.1659
    6CHL1   H4B  377   4.786   0.267   6.630  0.9938  0.2890 -1.2600
    6CHL1    C5  378   4.686   0.214   6.440  0.4969  0.9553  0.4215
    6CHL1    C6  379   4.788   0.250   6.361 -0.3106 -0.0422 -0.3008
    6CHL1    H6  380   4.873   0.303   6.408 -0.9453 -0.9463  1.9747
    6CHL1    C7  381   4.789   0.243   6.209 -0.0624 -0.5728  0.0298
    6CHL1   H7A  382   4.812   0.341   6.163  1.1258  0.2060  2.1151
    6CHL1   H7B  383   4.871   0.177   6.172 -0.3439 -0.4377 -0.8625
    6CHL1    C8  384   4.658   0.191   6.153  0.6534 -0.2944 -0.0730
    6CHL1    H8  385   4.598   0.285   6.154  0.3031 -0.5155 -0.2977
    6CHL1   C14  386   4.669   0.124   6.014 -0.7827  0.2046 -0.0834
    6CHL1   H14  387   4.724   0.032   6.043  1.9332  1.8665  0.3555
    6CHL1   C15  388   4.747   0.201   5.906 -0.4760 -0.0071 -0.5803
    6CHL1  H15A  389   4.731   0.311   5.906  0.8923  0.2244  0.8886
    6CHL1  H15B  390   4.857   0.186   5.908 -0.3057  1.1948  0.2403
    6CHL1   C16  391   4.697   0.157   5.770 -0.3700  0.0801  0.4953
    6CHL1  H16A  392   4.638   0.242   5.728 -3.3978 -2.0681  0.0301
    6CHL1  H16B  393   4.787   0.128   5.712  0.1180  0.1838  1.1889
    6CHL1   C17  394   4.595   0.042   5.799  0.8281 -0.1694 -0.1387
    6CHL1   H17  395   4.642  -0.058   5.811  0.1784 -0.1748  3.5737
    6CHL1   C13  396   4.537   0.075   5.949 -0.2257  0.1474  0.2172
    6CHL1   C18  397   4.436   0.194   5.941 -0.0009  0.0431  0.6400
    6CHL1  H18A  398   4.331   0.163   5.923 -0.1245  0.6175  0.3373
    6CHL1  H18B  399   4.428   0.241   6.042  1.1582  1.9540 -0.1088
    6CHL1  H18C  400   4.467   0.270   5.866 -1.7785  0.6788  0.4880
    6CHL1   C12  401   4.480  -0.038   6.040  0.0804 -0.3563  0.1503
    6CHL1  H12A  402   4.383  -0.081   6.006 -0.6433 -0.4747  2.2082
    6CHL1  H12B  403   4.553  -0.121   6.027 -0.7461 -1.1312  0.3879
    6CHL1   C11  404   4.463   0.013   6.184 -0.1909 -0.6731 -0.6115
    6CHL1  H11A  405   4.379   0.085   6.174  0.4905  0.4169  1.0571
    6CHL1  H11B  406   4.440  -0.075   6.248  1.9473 -0.5285  0.4390
    6CHL1    C9  407   4.597   0.080   6.242  0.3456 -0.3936  0.4474
    6CHL1    H9  408   4.678   0.005   6.245  1.2064  0.5468  1.7723
    6CHL1   C10  409   4.573   0.121   6.387  0.7191  0.2500  0.6420
    6CHL1   C19  410   4.444   0.210   6.402 -0.4945 -0.3843  0.5797
    6CHL1  H19A  411   4.433   0.304   6.345  0.8602  0.2698  1.3606
    6CHL1  H19B  412   4.349   0.154   6.386 -0.2885 -1.2645  2.2180
    6CHL1  H19C  413   4.433   0.249   6.505 -2.9060 -0.9248  0.6024
    6CHL1    C1  414   4.552  -0.006   6.481 -0.4348 -0.5995  0.1775
    6CHL1   H1A  415   4.456  -0.049   6.445 -1.2125  0.2026  1.2603
    6CHL1   H1B  416   4.631  -0.083   6.464  1.0700  0.4774  1.9361
    6CHL1    C2  417   4.544   0.029   6.635 -0.8488  1.0192  0.8834
    6CHL1   H2A  418   4.532  -0.062   6.698 -1.4124 -0.0902 -0.7594
    6CHL1   H2B  419   4.451   0.086   6.657 -2.1415 -0.1879 -1.1417
    6CHL1   C20  420   4.482   0.030   5.694  0.0358  0.1110  0.5315
    6CHL1   H20  421   4.408   0.112   5.707 -0.4652 -0.0087 -1.2973
    6CHL1   C21  422   4.402  -0.102   5.714 -0.2294  0.2779  0.3026
    6CHL1  H21A  423   4.349  -0.097   5.812 -1.6999  0.5322 -0.4691
    6CHL1  H21B  424   4.460  -0.195   5.701  1.6749  1.2962  1.1088
    6CHL1  H21C  425   4.327  -0.105   5.631  0.1361 -1.2296  0.0044
    6CHL1   C22  426   4.519   0.035   5.538 -0.5510  1.4725  0.2926
    6CHL1  H22A  427   4.431  -0.001   5.481 -1.3521  0.8013  1.9028
    6CHL1  H22B  428   4.527   0.141   5.505  2.2883  1.4725  0.7076
    6CHL1   C23  429   4.653  -0.041   5.503  0.6797  0.2312 -0.0658
    6CHL1  H23A  430   4.732  -0.007   5.573 -0.7505  2.2067  0.6729
    6CHL1  H23B  431   4.647  -0.152   5.508 -0.7811  0.3669  3.1547
    6CHL1   C24  432   4.706   0.006   5.365 -0.0445  0.4790  0.1079
    6CHL1  H24A  433   4.712   0.117   5.362  0.0557  0.4949  0.7627
    6CHL1  H24B  434   4.809  -0.034   5.352  1.7104  3.6251  2.7484
    6CHL1   C25  435   4.602  -0.014   5.251  0.8067 -0.2776 -0.4252
    6CHL1   H25  436   4.508   0.035   5.283  0.4260  1.2596 -3.4640
    6CHL1   C26  437   4.636   0.064   5.121  0.6978  0.2297 -0.0292
    6CHL1  H26A  438   4.649   0.171   5.150  1.9993 -0.3069  1.5567
    6CHL1  H26B  439   4.727   0.031   5.065 -1.0454 -0.0462 -2.8766
    6CHL1  H26C  440   4.550   0.063   5.051  0.4732  1.6331  0.1846
    6CHL1   C27  441   4.577  -0.155   5.218  0.0700  0.4803  0.3334
    6CHL1  H27A  442   4.520  -0.208   5.297 -1.8248  0.6502 -0.8463
    6CHL1  H27B  443   4.525  -0.169   5.121  0.9608 -1.4060  0.0795
    6CHL1  H27C  444   4.676  -0.206   5.206 -0.7108 -0.8552 -0.7689
    7CHL1    C3  445   0.886   6.239   6.674  0.0749  0.0693  0.4918
    7CHL1    H3  446   0.859   6.131   6.671  0.2723  0.0173  0.5339
    7CHL1    O3  447   0.886   6.290   6.807 -0.2259 -0.2037  0.2518
    7CHL1   H3'  448   0.962   6.244   6.843 -0.2755 -0.7068 -0.2571
    7CHL1    C4  449   1.025   6.267   6.613  0.1630  0.6111 -0.2739
    7CHL1   H4A  450   1.048   6.375   6.621 -1.3797  1.1351 -2.2345
    7CHL1   H4B  451   1.106   6.222   6.675  2.0598  2.7356 -1.1015
    7CHL1    C5  452   1.027   6.227   6.469 -0.2540  0.3053 -0.5793
    7CHL1    C6  453   1.110   6.131   6.416 -0.2607  0.3146 -0.0444
    7CHL1    H6  454   1.185   6.078   6.476 -1.8163 -2.6841 -0.5946
    7CHL1    C7  455   1.114   6.077   6.270  0.3774 -0.7250 -0.3815
    7CHL1   H7A  456   1.217   6.071   6.229  0.6941  1.1559  0.0048
    7CHL1   H7B  457   1.059   5.983   6.250  0.6502 -1.0729  0.4365
    7CHL1    C8  458   1.053   6.192   6.182  0.3986 -1.3326 -0.2917
    7CHL1    H8  459   1.122   6.279   6.175 -0.9365 -0.2310 -0.1917
    7CHL1   C14  460   1.044   6.143   6.042  0.1052 -0.1174 -0.0200
    7CHL1   H14  461   0.965   6.067   6.060 -1.0991  1.0636 -0.0898
    7CHL1   C15  462   1.156   6.060   5.972 -0.7410 -0.4509  0.0450
    7CHL1  H15A  463   1.247   6.124   5.966 -0.6534 -0.4056  1.4601
    7CHL1  H15B  464   1.187   5.967   6.025  2.1895  0.3646 -0.0609
    7CHL1   C16  465   1.105   6.053   5.832  1.1527  0.3254  0.8476
    7CHL1  H16A  466   1.178   6.059   5.749 -0.4145  0.1878 -0.5954
    7CHL1  H16B  467   1.068   5.950   5.813  0.1296  0.4766  1.8819
    7CHL1   C17  468   0.980   6.154   5.822  0.2234  0.2245  0.1588
    7CHL1   H17  469   0.887   6.096   5.834 -0.0798  0.8500  0.9201
    7CHL1   C13  470   0.979   6.242   5.946  0.9424 -0.3124  0.0422
    7CHL1   C18  471   1.068   6.368   5.926 -0.2826  0.2021 -0.0340
    7CHL1  H18A  472   1.090   6.426   6.018 -2.5060  0.0025  0.6764
    7CHL1  H18B  473   1.158   6.342   5.866 -0.0994 -0.6797  0.6063
    7CHL1  H18C  474   0.998   6.431   5.867  0.7130  0.7008 -0.7286
    7CHL1   C12  475   0.835   6.278   6.002 -0.4722  0.3167 -0.0118
    7CHL1  H12A  476   0.789   6.345   5.926 -1.7898 -2.2185 -1.5704
    7CHL1  H12B  477   0.773   6.187   6.006 -1.1531  0.8199  1.7034
    7CHL1   C11  478   0.845   6.335   6.140  0.1493 -0.1064  0.2698
    7CHL1  H11A  479   0.898   6.430   6.118  1.2985 -1.2320 -2.0789
    7CHL1  H11B  480   0.742   6.346   6.181  0.2063  0.1369  0.3480
    7CHL1    C9  481   0.922   6.236   6.243 -0.1846  0.6732  0.2052
    7CHL1    H9  482   0.869   6.138   6.246 -1.9859  1.3412 -3.6028
    7CHL1   C10  483   0.918   6.295   6.384 -1.0397  0.0896  0.4015
    7CHL1   C19  484   0.948   6.445   6.381  0.8807 -1.0117 -0.1465
    7CHL1  H19A  485   0.869   6.498   6.323  0.2210 -2.6131 -0.7738
    7CHL1  H19B  486   0.974   6.486   6.480  0.8227 -0.3617 -0.3959
    7CHL1  H19C  487   1.044   6.469   6.330 -1.0804  2.1218 -2.7772
    7CHL1    C1  488   0.784   6.267   6.452  0.1025  0.1367 -0.9960
    7CHL1   H1A  489   0.712   6.322   6.388  1.6482  0.2179 -2.7439
    7CHL1   H1B  490   0.747   6.163   6.442 -1.6356  0.5976  0.1243
    7CHL1    C2  491   0.776   6.317   6.597  0.5661 -0.8213 -0.2892
    7CHL1   H2A  492   0.681   6.297   6.652  0.7862 -0.3763  0.2558
    7CHL1   H2B  493   0.793   6.426   6.596 -1.2150 -0.5012  0.5421
    7CHL1   C20  494   0.961   6.224   5.688  0.5670 -0.1698 -0.0780
    7CHL1   H20  495   1.045   6.297   5.683  0.1889  0.2625 -0.1341
    7CHL1   C21  496   0.834   6.316   5.666  0.0434 -0.2448 -0.2711
    7CHL1  H21A  497   0.814   6.340   5.559  1.5308 -0.0313 -0.5238
    7CHL1  H21B  498   0.830   6.408   5.729  2.3122 -1.0665  1.1951
    7CHL1  H21C  499   0.744   6.260   5.698 -0.3353  0.7892  0.5279
    7CHL1   C22  500   0.974   6.135   5.569  0.1430  0.0180  0.0867
    7CHL1  H22A  501   1.005   6.193   5.479  0.2252 -1.9213 -1.2051
    7CHL1  H22B  502   1.067   6.075   5.574  1.1067  1.5321  1.1619
    7CHL1   C23  503   0.855   6.053   5.527 -0.1557  0.2379  0.1873
    7CHL1  H23A  504   0.815   5.995   5.613 -0.7404  0.1969 -0.1052
    7CHL1  H23B  505   0.774   6.121   5.494 -0.6331 -0.5800 -0.3583
    7CHL1   C24  506   0.889   5.947   5.412  0.5196 -0.0856 -0.6837
    7CHL1  H24A  507   0.972   5.886   5.453 -1.9091 -1.0705  3.2760
    7CHL1  H24B  508   0.807   5.873   5.411 -1.0024  1.4256  1.9878
    7CHL1   C25  509   0.918   5.997   5.271 -0.2786 -0.1872  0.0538
    7CHL1   H25  510   0.996   6.074   5.286 -0.1606 -0.4132  0.5955
    7CHL1   C26  511   0.982   5.885   5.187  0.7213  0.6304  0.6278
    7CHL1  H26A  512   1.077   5.854   5.235  1.8250  1.8931 -0.6179
    7CHL1  H26B  513   0.917   5.795   5.178  0.9917  0.3683  1.2465
    7CHL1  H26C  514   1.015   5.926   5.089 -2.3823 -0.0709 -0.8331
    7CHL1   C27  515   0.796   6.047   5.200 -0.1299  0.4953 -0.1760
    7CHL1  H27A  516   0.820   6.090   5.100 -0.9467  1.2296 -0.0666
    7CHL1  H27B  517   0.719   5.970   5.178 -1.0135  1.4480 -0.4894
    7CHL1  H27C  518   0.755   6.131   5.259  1.7376  2.1402 -1.0753
    8CHL1    C3  519   4.817   0.780   6.612 -0.0136 -0.0611  0.2718
    8CHL1    H3  520   4.913   0.739   6.574 -0.9317 -1.4306 -0.6525
    8CHL1    O3  521   4.839   0.826   6.740  0.2318  0.4821  0.9764
    8CHL1   H3'  522   4.751   0.823   6.777 -1.4931 -0.0999 -2.7261
    8CHL1    C4  523   4.783   0.896   6.519 -0.2786  0.0258 -0.6687
    8CHL1   H4A  524   4.693   0.952   6.552  0.4460  1.2345 -0.7057
    8CHL1   H4B  525   4.863   0.973   6.521 -1.0760  0.8867  1.4234
    8CHL1    C5  526   4.744   0.861   6.378 -0.0063 -0.9025 -0.3186
    8CHL1    C6  527   4.800   0.922   6.273 -0.1985  0.5221  0.1916
    8CHL1    H6  528   4.886   0.990   6.277  0.3396  0.0934 -2.2977
    8CHL1    C7  529   4.761   0.888   6.132 -0.1248  1.0522  0.2488
    8CHL1   H7A  530   4.742   0.979   6.071  1.0853  1.5422  0.5642
    8CHL1   H7B  531   4.836   0.825   6.080  1.4175  1.8448  1.4221
    8CHL1    C8  532   4.630   0.810   6.119  0.5521  0.2417  0.0731
    8CHL1    H8  533   4.551   0.882   6.149  1.0392  1.6451 -1.8152
    8CHL1   C14  534   4.588   0.770   5.971  0.6811 -1.2095 -0.3710
    8CHL1   H14  535   4.674   0.711   5.933  0.5802 -0.5193 -1.7593
    8CHL1   C15  536   4.574   0.889   5.877  0.2870  0.3642 -0.2667
    8CHL1  H15A  537   4.508   0.967   5.921  0.3197  1.2195 -1.6726
    8CHL1  H15B  538   4.672   0.936   5.852  1.2770 -0.5896  1.6326
    8CHL1   C16  539   4.492   0.828   5.764  0.1290 -0.2848  0.3145
    8CHL1  H16A  540   4.395   0.880   5.747  0.5708 -0.2036 -2.3721
    8CHL1  H16B  541   4.541   0.834   5.664 -0.8990  0.4764 -0.1683
    8CHL1   C17  542   4.465   0.675   5.796 -0.2222 -0.4781  1.0792
    8CHL1   H17  543   4.561   0.625   5.769 -0.4651 -1.2341  1.5923
    8CHL1   C13  544   4.463   0.680   5.951 -0.2417 -0.0867 -1.1829
    8CHL1   C18  545   4.334   0.741   5.998 -0.0692 -0.4299 -0.4234
    8CHL1  H18A  546   4.253   0.666   5.983  0.0083 -0.1655 -2.3792
    8CHL1  H18B  547   4.337   0.773   6.105 -2.3868 -0.1804 -0.3685
    8CHL1  H18C  548   4.293   0.821   5.933  1.7755  1.5522  0.7134
    8CHL1   C12  549   4.493   0.552   6.035 -0.2490 -0.0153 -0.1509
    8CHL1  H12A  550   4.417   0.473   6.018 -0.4132  0.0563  0.2434
    8CHL1  H12B  551   4.588   0.503   6.006 -0.0307 -0.6518  1.5245
    8CHL1   C11  552   4.512   0.580   6.188 -0.9422  0.1804 -0.3818
    8CHL1  H11A  553   4.411   0.608   6.224 -1.5599 -2.6266  0.3297
    8CHL1  H11B  554   4.529   0.488   6.248  0.3688  0.5768 -0.1309
    8CHL1    C9  555   4.630   0.688   6.215 -0.1419 -0.6021 -0.3211
    8CHL1    H9  556   4.722   0.632   6.191 -0.1780 -0.9094  0.2382
    8CHL1   C10  557   4.641   0.741   6.367 -0.0425  0.5180  0.0267
    8CHL1   C19  558   4.499   0.792   6.400  0.5032  0.3050  0.0099
    8CHL1  H19A  559   4.501   0.826   6.506 -1.2555  1.1376 -0.1838
    8CHL1  H19B  560   4.466   0.876   6.335  0.3631  0.3528  0.1407
    8CHL1  H19C  561   4.425   0.710   6.389 -0.3626  1.0734 -0.1095
    8CHL1    C1  562   4.694   0.630   6.456  0.3246  0.1860  0.3498
    8CHL1   H1A  563   4.621   0.547   6.445  0.1329  0.3396  0.4500
    8CHL1   H1B  564   4.792   0.595   6.417  0.2338 -1.6360  1.6473
    8CHL1    C2  565   4.711   0.666   6.600 -0.6267 -0.4726 -0.2300
    8CHL1   H2A  566   4.743   0.570   6.647  1.8574  0.8525  0.9803
    8CHL1   H2B  567   4.608   0.683   6.639 -1.4899  1.4740 -3.0167
    8CHL1   C20  568   4.338   0.619   5.724  0.5155  0.2749  0.2610
    8CHL1   H20  569   4.246   0.675   5.753 -0.5896  0.4628 -3.1720
    8CHL1   C21  570   4.301   0.473   5.757 -0.7594 -0.3109  0.1875
    8CHL1  H21A  571   4.383   0.400   5.738  0.0205  0.3965  0.7413
    8CHL1  H21B  572   4.215   0.435   5.698 -0.2054 -2.8607  0.8868
    8CHL1  H21C  573   4.279   0.471   5.866  0.0031  0.5076  0.3662
    8CHL1   C22  574   4.352   0.629   5.571 -0.4485 -0.0960  0.8367
    8CHL1  H22A  575   4.261   0.580   5.530  0.2185 -1.1276  0.5568
    8CHL1  H22B  576   4.351   0.738   5.547 -0.5401  0.4683  3.1715
    8CHL1   C23  577   4.475   0.562   5.510 -0.9181  0.0582 -0.0224
    8CHL1  H23A  578   4.565   0.593   5.566 -1.5903 -1.1865  1.8612
    8CHL1  H23B  579   4.465   0.452   5.517 -2.8197  0.1543 -0.4196
    8CHL1   C24  580   4.485   0.588   5.365 -0.5796  0.1538  0.5420
    8CHL1  H24A  581   4.392   0.562   5.310  0.6871  0.1416 -1.7002
    8CHL1  H24B  582   4.514   0.695   5.353 -0.9655  0.4342  1.8827
    8CHL1   C25  583   4.588   0.498   5.292  0.1961  0.1936  0.6440
    8CHL1   H25  584   4.566   0.397   5.333  0.1730  0.9456  2.6325
    8CHL1   C26  585   4.560   0.495   5.138 -0.0108  0.0561 -0.2020
    8CHL1  H26A  586   4.573   0.598   5.100 -0.7711 -0.0539 -0.7889
    8CHL1  H26B  587   4.634   0.429   5.087 -0.2623 -0.0793 -0.3978
    8CHL1  H26C  588   4.463   0.448   5.109 -0.0524  0.1230 -0.1698
    8CHL1   C27  589   4.727   0.532   5.336 -0.0977  0.4564 -0.5822
    8CHL1  H27A  590   4.757   0.639   5.326  0.6727  0.2571 -0.4793
    8CHL1  H27B  591   4.738   0.502   5.443 -0.3880  0.0303 -0.6709
    8CHL1  H27C  592   4.791   0.466   5.274 -0.4827  0.7356 -1.2799
    9CHL1    C3  593   0.982   0.138   6.435 -0.5203  0.5022  0.4648
    9CHL1    H3  594   0.948   0.243   6.419 -0.1376  0.3928 -1.3800
    9CHL1    O3  595   0.976   0.113   6.577 -0.3193 -0.6672 -0.0498
    9CHL1   H3'  596   0.987   0.018   6.576 -0.1376 -0.6852  1.2453
    9CHL1    C4  597   0.872   0.054   6.360  0.2350 -0.4324 -0.5057
    9CHL1   H4A  598   0.893  -0.051   6.391  1.1510  0.0206  0.4309
    9CHL1   H4B  599   0.773   0.082   6.402  0.5064 -1.0446  0.5739
    9CHL1    C5  600   0.880   0.051   6.211  0.9523 -0.1902  1.0265
    9CHL1    C6  601   0.772   0.092   6.135  0.2316 -0.5429  0.1193
    9CHL1    H6  602   0.686   0.112   6.200 -0.2671 -0.0702 -0.6650
    9CHL1    C7  603   0.767   0.098   5.982  0.4320 -0.1218  0.0764
    9CHL1   H7A  604   0.665   0.061   5.958  1.5757 -3.4424 -0.1001
    9CHL1   H7B  605   0.772   0.202   5.942 -1.6920 -0.3367 -0.8903
    9CHL1    C8  606   0.883   0.007   5.920  0.6252  0.0398  0.2241
    9CHL1    H8  607   0.848  -0.094   5.948  0.5311  0.5544  2.1002
    9CHL1   C14  608   0.894   0.035   5.769  0.2039  0.5335  0.5268
    9CHL1   H14  609   0.927   0.141   5.761 -0.8420  0.7412 -2.9101
    9CHL1   C15  610   0.775   0.013   5.679  0.5526  0.1157  0.6127
    9CHL1  H15A  611   0.725  -0.081   5.712  1.6153 -1.1340 -1.1255
    9CHL1  H15B  612   0.706   0.099   5.687  0.5290  0.2467 -0.8875
    9CHL1   C16  613   0.831   0.001   5.539  0.5940 -0.4272  0.2058
    9CHL1  H16A  614   0.792  -0.095   5.500 -0.0616  0.1522 -0.6251
    9CHL1  H16B  615   0.799   0.091   5.481  0.2849  1.0058  2.4739
    9CHL1   C17  616   0.984   0.008   5.554  0.7395  0.3679 -0.1408
    9CHL1   H17  617   1.008   0.116   5.553 -2.6596  1.3080  2.2501
    9CHL1   C13  618   1.008  -0.042   5.697  0.3917  1.7282  0.2260
    9CHL1   C18  619   0.989  -0.201   5.702 -0.3420 -0.9508  0.6212
    9CHL1  H18A  620   1.078  -0.261   5.675  0.2445  0.0826  0.2246
    9CHL1  H18B  621   0.967  -0.220   5.810  2.0347 -0.3598  1.2530
    9CHL1  H18C  622   0.900  -0.233   5.644 -0.5831  1.6987 -0.6183
    9CHL1   C12  623   1.148  -0.012   5.758 -0.1336 -0.2616 -0.4924
    9CHL1  H12A  624   1.216  -0.084   5.707  0.5972 -0.6499  0.9632
    9CHL1  H12B  625   1.172   0.095   5.741 -0.1703 -0.0553  0.6551
    9CHL1   C11  626   1.137  -0.031   5.913 -1.1874 -0.2314  0.1491
    9CHL1  H11A  627   1.142  -0.139   5.939  0.4304 -0.2308 -0.0188
    9CHL1  H11B  628   1.226   0.011   5.965 -0.1201 -2.1727 -0.0107
    9CHL1    C9  629   1.022   0.044   5.990 -0.1320 -0.0315 -0.4244
    9CHL1    H9  630   1.037   0.153   5.976  1.7354  0.1020  1.9482
    9CHL1   C10  631   1.022   0.021   6.146 -0.0179  0.4241  0.2297
    9CHL1   C19  632   1.050  -0.126   6.183  0.1961  0.4355 -0.0841
    9CHL1  H19A  633   0.985  -0.206   6.141  2.0905 -2.4970  2.2186
    9CHL1  H19B  634   1.151  -0.159   6.153  0.0556 -1.2475  1.1645
    9CHL1  H19C  635   1.043  -0.141   6.293 -1.2680 -1.3215 -0.3711
    9CHL1    C1  636   1.124   0.114   6.221 -0.9755 -0.3920 -0.3280
    9CHL1   H1A  637   1.222   0.076   6.185  0.3282  1.4572  1.0414
    9CHL1   H1B  638   1.100   0.220   6.198  1.8298  0.1788 -0.9473
    9CHL1    C2  639   1.119   0.106   6.381  0.6376  0.2557  0.3892
    9CHL1   H2A  640   1.195   0.175   6.423 -0.2985  1.7108 -0.2402
    9CHL1   H2B  641   1.150   0.008   6.424 -0.6072  0.8191  2.7710
    9CHL1   C20  642   1.061  -0.055   5.432  0.6959  0.2718 -1.0308
    9CHL1   H20  643   1.048  -0.166   5.436  2.7351  0.0277  0.0630
    9CHL1   C21  644   1.209  -0.031   5.429 -0.4241  0.2389  0.2868
    9CHL1  H21A  645   1.267  -0.010   5.522 -1.3593  0.1482  0.8978
    9CHL1  H21B  646   1.232   0.057   5.365  0.0652 -0.5923 -0.7015
    9CHL1  H21C  647   1.260  -0.115   5.378  0.5851  0.5462  0.7542
    9CHL1   C22  648   1.001  -0.024   5.295  0.0998  0.6043  0.1280
    9CHL1  H22A  649   0.892  -0.046   5.307  0.2107  0.2798  0.5711
    9CHL1  H22B  650   1.014   0.084   5.271 -0.4473  0.3545 -1.4031
    9CHL1   C23  651   1.043  -0.123   5.186 -0.3654 -0.4185  0.0804
    9CHL1  H23A  652   1.014  -0.084   5.086 -1.5905 -2.3684 -0.3783
    9CHL1  H23B  653   1.154  -0.127   5.180 -0.4010 -0.5049 -0.5970
    9CHL1   C24  654   0.988  -0.258   5.195 -0.5655  0.1715 -0.1628
    9CHL1  H24A  655   1.037  -0.307   5.282  0.7142  1.9783  0.2028
    9CHL1  H24B  656   0.879  -0.245   5.212 -0.5007  1.6269 -0.6989
    9CHL1   C25  657   1.002  -0.343   5.058  0.9810 -0.8177 -0.0896
    9CHL1   H25  658   1.111  -0.331   5.037  0.8514 -0.2867 -0.4755
    9CHL1   C26  659   0.963  -0.481   5.087  0.7498 -0.0567  0.5745
    9CHL1  H26A  660   1.008  -0.541   5.005 -1.3832  0.1657 -0.8588
    9CHL1  H26B  661   1.006  -0.516   5.183  1.1124 -0.1581  0.3773
    9CHL1  H26C  662   0.853  -0.495   5.099  0.7851  0.7343  2.0024
    9CHL1   C27  663   0.937  -0.282   4.933  0.1429 -0.4492 -0.5277
    9CHL1  H27A  664   0.851  -0.217   4.962  1.1187  0.0339  1.4073
    9CHL1  H27B  665   0.997  -0.214   4.869 -0.1056  0.7573  0.4833
    9CHL1  H27C  666   0.912  -0.368   4.867  0.4262 -0.0505 -1.1683
   10CHL1    C3  667   6.758   2.736   6.674  0.5323 -0.5957 -0.4315
   10CHL1    H3  668   6.838   2.813   6.684 -0.3233  0.0603  1.9129
   10CHL1    O3  669   6.719   2.693   6.801 -0.0970 -0.0709  0.7299
   10CHL1   H3'  670   6.794   2.640   6.827 -1.2210 -1.1672  1.8722
   10CHL1    C4  671   6.638   2.787   6.600 -0.4733 -0.2210 -0.2783
   10CHL1   H4A  672   6.553   2.715   6.602 -1.1008  0.2594 -3.6624
   10CHL1   H4B  673   6.610   2.879   6.655  0.0179 -0.4866  0.4259
   10CHL1    C5  674   6.668   2.817   6.453 -0.2905 -0.4393  0.8539
   10CHL1    C6  675   6.629   2.932   6.399 -0.2527 -0.1691 -0.0221
   10CHL1    H6  676   6.575   3.002   6.464 -0.4880 -0.0711 -0.3183
   10CHL1    C7  677   6.657   2.969   6.256 -0.0569  0.1689  0.4797
   10CHL1   H7A  678   6.567   3.005   6.204  0.8093  1.4217 -0.1954
   10CHL1   H7B  679   6.741   3.038   6.232 -0.0132 -0.2843 -0.7650
   10CHL1    C8  680   6.692   2.840   6.173 -0.1387  1.2464 -0.1269
   10CHL1    H8  681   6.606   2.771   6.159  1.2718 -0.0743 -3.4751
   10CHL1   C14  682   6.744   2.870   6.030  0.1822  0.4801 -0.0527
   10CHL1   H14  683   6.847   2.911   6.045 -0.5271  1.3779  2.9714
   10CHL1   C15  684   6.665   2.978   5.960  0.6159 -0.6492  0.3966
   10CHL1  H15A  685   6.554   2.971   5.962  0.2114  3.6904  1.4842
   10CHL1  H15B  686   6.687   3.075   6.009  0.8933 -0.2244 -0.5515
   10CHL1   C16  687   6.712   2.961   5.811  0.2180  0.9346 -0.3413
   10CHL1  H16A  688   6.624   2.944   5.746  0.0577 -2.3478  0.5728
   10CHL1  H16B  689   6.772   3.050   5.780  1.7243 -0.2007 -0.8183
   10CHL1   C17  690   6.790   2.824   5.804  0.8227  0.2650  0.0871
   10CHL1   H17  691   6.892   2.866   5.816  0.6154  0.2597  2.4954
   10CHL1   C13  692   6.760   2.751   5.936  0.9627  0.5241  0.1505
   10CHL1   C18  693   6.628   2.666   5.916 -0.5903 -0.5748  0.1230
   10CHL1  H18A  694   6.544   2.731   5.882 -0.3508 -0.8760 -1.1138
   10CHL1  H18B  695   6.644   2.593   5.834  0.6747  1.0760 -1.1812
   10CHL1  H18C  696   6.594   2.620   6.011  0.9984 -0.1137  0.9517
   10CHL1   C12  697   6.870   2.664   5.992  0.0404  0.2953  0.4832
   10CHL1  H12A  698   6.882   2.572   5.931  0.9832  0.6877  0.0541
   10CHL1  H12B  699   6.963   2.725   5.990 -0.5096  1.1377 -1.1964
   10CHL1   C11  700   6.844   2.628   6.143 -0.2631  0.1388 -0.2335
   10CHL1  H11A  701   6.774   2.542   6.130  1.4262 -1.1259 -1.4377
   10CHL1  H11B  702   6.941   2.592   6.181 -1.3197  0.3763  2.9828
   10CHL1    C9  703   6.795   2.746   6.231 -0.5900 -0.3074 -0.4163
   10CHL1    H9  704   6.888   2.804   6.250  0.1273 -1.1001 -1.4202
   10CHL1   C10  705   6.747   2.703   6.380 -0.4575 -0.4868 -0.2952
   10CHL1   C19  706   6.655   2.582   6.368  0.0841 -0.1984 -0.2082
   10CHL1  H19A  707   6.611   2.548   6.465 -1.1588 -0.5214 -0.8544
   10CHL1  H19B  708   6.577   2.578   6.289 -2.6215 -6.3826  2.0978
   10CHL1  H19C  709   6.722   2.501   6.333  2.3693  1.5554 -0.1231
   10CHL1    C1  710   6.877   2.655   6.457  0.0526 -0.1406  0.2759
   10CHL1   H1A  711   6.900   2.557   6.410 -0.6297  0.4539 -1.3780
   10CHL1   H1B  712   6.961   2.727   6.461  1.9323 -2.2363  0.1353
   10CHL1    C2  713   6.836   2.617   6.601 -0.2167  0.3936  0.1771
   10CHL1   H2A  714   6.921   2.588   6.666 -0.1095 -0.7146 -0.4413
   10CHL1   H2B  715   6.780   2.522   6.593  1.9600 -0.9804  0.4331
   10CHL1   C20  716   6.797   2.754   5.667  0.6177 -0.2320 -0.0397
   10CHL1   H20  717   6.694   2.716   5.655 -0.1997  2.0306 -0.7352
   10CHL1   C21  718   6.888   2.628   5.666 -0.0886 -0.5144  0.4399
   10CHL1  H21A  719   6.851   2.548   5.733  0.8075 -2.3507 -1.1480
   10CHL1  H21B  720   6.992   2.647   5.700 -0.0620 -0.1529  0.1667
   10CHL1  H21C  721   6.895   2.592   5.561  0.0842  0.5636  0.0653
   10CHL1   C22  722   6.831   2.855   5.555 -0.0330  0.3427  0.0548
   10CHL1  H22A  723   6.797   2.958   5.578 -0.5292  0.1172  0.3379
   10CHL1  H22B  724   6.942   2.859   5.542 -0.1371 -2.0435 -2.3415
   10CHL1   C23  725   6.777   2.808   5.420 -0.3603  1.0871 -0.6607
   10CHL1  H23A  726   6.831   2.714   5.393  1.3310  2.2386 -1.4269
   10CHL1  H23B  727   6.669   2.785   5.434 -0.3012 -0.0921 -1.9141
   10CHL1   C24  728   6.784   2.906   5.304 -0.3574 -0.2951 -0.5903
   10CHL1  H24A  729   6.743   3.000   5.347  1.8490  0.0885  0.8487
   10CHL1  H24B  730   6.890   2.914   5.274 -0.5014  0.1408 -0.9937
   10CHL1   C25  731   6.690   2.860   5.185  0.3835 -0.3654 -0.2753
   10CHL1   H25  732   6.708   2.754   5.156 -1.8149 -0.2505 -2.3746
   10CHL1   C26  733   6.539   2.870   5.204  0.5808  0.0022 -0.1954
   10CHL1  H26A  734   6.524   2.926   5.299 -1.2033 -0.4020 -0.2065
   10CHL1  H26B  735   6.486   2.924   5.122 -1.3788 -1.6272 -0.0957
   10CHL1  H26C  736   6.498   2.767   5.206  0.6807 -0.0608 -0.8920
   10CHL1   C27  737   6.738   2.952   5.062  0.4717  0.2060  0.0308
   10CHL1  H27A  738   6.843   2.933   5.032  0.3326  2.1795 -1.9602
   10CHL1  H27B  739   6.679   2.940   4.969  1.3136  0.2988 -0.5198
   10CHL1  H27C  740   6.738   3.057   5.098  2.5520  0.0155  0.7114
   11CHL1    C3  741   4.432   5.817   6.798  0.7199  0.3522  0.1774
   11CHL1    H3  742   4.499   5.729   6.782 -1.7629 -1.3767 -1.5309
   11CHL1    O3  743   4.427   5.836   6.939 -0.6487  0.0359  0.3280
   11CHL1   H3'  744   4.334   5.852   6.955 -0.6721 -0.5413  0.8062
   11CHL1    C4  745   4.486   5.943   6.737  0.0226  0.9817 -0.6211
   11CHL1   H4A  746   4.432   6.031   6.779 -0.2223  1.3810 -1.7369
   11CHL1   H4B  747   4.586   5.950   6.785 -1.1697 -0.6823  2.3450
   11CHL1    C5  748   4.487   5.944   6.584 -0.0297 -0.0209  0.3713
   11CHL1    C6  749   4.599   5.959   6.513  0.1057 -0.3731 -0.3257
   11CHL1    H6  750   4.697   5.982   6.557 -0.0630  1.3365 -0.7893
   11CHL1    C7  751   4.599   5.967   6.370  0.8992  0.1836  0.7734
   11CHL1   H7A  752   4.667   6.044   6.328 -0.4592  0.6579 -0.6639
   11CHL1   H7B  753   4.631   5.869   6.328 -3.6475 -1.0870 -0.2892
   11CHL1    C8  754   4.455   5.981   6.304 -0.7031  0.2544  0.2622
   11CHL1    H8  755   4.410   6.082   6.318  2.3587  1.8549 -0.4766
   11CHL1   C14  756   4.462   5.949   6.158  0.1365  0.6147 -0.2693
   11CHL1   H14  757   4.493   5.843   6.146 -0.7162  0.4138 -0.7941
   11CHL1   C15  758   4.550   6.032   6.068  0.7315 -0.0296  0.0712
   11CHL1  H15A  759   4.537   6.135   6.109  0.9173  0.9375 -2.1689
   11CHL1  H15B  760   4.652   5.990   6.078  0.3330 -0.7653  1.2698
   11CHL1   C16  761   4.498   5.993   5.929 -0.2534 -0.5916  0.0216
   11CHL1  H16A  762   4.490   6.087   5.870  1.3683  0.5509  1.5134
   11CHL1  H16B  763   4.571   5.932   5.872  2.4256  1.7991  0.6957
   11CHL1   C17  764   4.363   5.914   5.943 -0.0521  0.2286  0.2598
   11CHL1   H17  765   4.387   5.806   5.944 -0.9091  0.0354  0.9196
   11CHL1   C13  766   4.319   5.948   6.084  0.2732  0.1203 -0.6795
   11CHL1   C18  767   4.249   6.087   6.085 -0.5141  0.2297  0.1092
   11CHL1  H18A  768   4.305   6.172   6.040 -2.2908  0.9858 -0.7570
   11CHL1  H18B  769   4.155   6.085   6.027 -0.4948  2.8967 -0.1189
   11CHL1  H18C  770   4.219   6.120   6.186  0.8266 -0.1228  0.6489
   11CHL1   C12  771   4.227   5.843   6.156 -0.4487  0.0555  0.0294
   11CHL1  H12A  772   4.128   5.857   6.108 -0.6197 -1.7501 -0.2394
   11CHL1  H12B  773   4.264   5.738   6.155  0.6366  0.4077  1.0996
   11CHL1   C11  774   4.223   5.877   6.312  0.5688  0.4860  0.3784
   11CHL1  H11A  775   4.175   5.977   6.317  0.3171  0.6224 -2.6720
   11CHL1  H11B  776   4.159   5.797   6.356 -1.1633  0.5865 -1.7608
   11CHL1    C9  777   4.361   5.885   6.378 -0.3085  0.2036 -0.2354
   11CHL1    H9  778   4.412   5.788   6.359  0.1185  0.4633 -0.4186
   11CHL1   C10  779   4.354   5.907   6.528 -0.3338 -0.0379  0.0814
   11CHL1   C19  780   4.257   6.029   6.552 -0.8037 -0.1143 -0.1273
   11CHL1  H19A  781   4.269   6.120   6.489 -0.1340 -0.3076 -0.2838
   11CHL1  H19B  782   4.155   5.987   6.543 -0.4706 -0.9627 -0.0283
   11CHL1  H19C  783   4.272   6.047   6.660  4.0984 -2.3764 -0.1520
   11CHL1    C1  784   4.298   5.775   6.589 -0.0124  0.2236  0.1566
   11CHL1   H1A  785   4.197   5.757   6.547  0.2334  0.7589 -0.6734
   11CHL1   H1B  786   4.362   5.690   6.557 -0.8478 -1.4011  2.5352
   11CHL1    C2  787   4.295   5.785   6.746 -0.2758  0.0356  0.2601
   11CHL1   H2A  788   4.272   5.682   6.779  3.7849 -1.4048 -0.8768
   11CHL1   H2B  789   4.219   5.858   6.782 -0.1243 -0.1642  0.9961
   11CHL1   C20  790   4.267   5.928   5.821  0.9650  0.0854  0.4809
   11CHL1   H20  791   4.249   6.038   5.820  0.1135 -0.0458  0.6905
   11CHL1   C21  792   4.138   5.842   5.841 -0.8837  0.4504  0.2467
   11CHL1  H21A  793   4.180   5.746   5.879 -1.2212 -0.0122 -0.5188
   11CHL1  H21B  794   4.102   5.810   5.741 -0.2919 -1.7737  0.6782
   11CHL1  H21C  795   4.057   5.886   5.902 -1.0181 -1.0861  1.2263
   11CHL1   C22  796   4.328   5.885   5.688  0.0591  0.5354 -0.4990
   11CHL1  H22A  797   4.435   5.913   5.691  0.7613 -1.9594  0.2635
   11CHL1  H22B  798   4.320   5.775   5.676  0.0037  0.4014  0.5942
   11CHL1   C23  799   4.256   5.949   5.565  0.1835  0.2924  0.4002
   11CHL1  H23A  800   4.149   5.920   5.573  0.7758 -1.5887  2.8756
   11CHL1  H23B  801   4.268   6.059   5.574  4.5346  0.2713 -2.4385
   11CHL1   C24  802   4.299   5.910   5.431  0.0676  0.6157  0.4579
   11CHL1  H24A  803   4.396   5.956   5.403  0.6154 -0.4986  0.4854
   11CHL1  H24B  804   4.308   5.799   5.433  1.8507  0.7219  2.9221
   11CHL1   C25  805   4.191   5.945   5.325  0.2479  0.2159 -0.0998
   11CHL1   H25  806   4.103   5.877   5.337  0.0475  0.3816 -0.5978
   11CHL1   C26  807   4.148   6.092   5.332 -1.3553  0.4706  0.1855
   11CHL1  H26A  808   4.238   6.151   5.306 -1.6471  0.4995 -0.7791
   11CHL1  H26B  809   4.094   6.116   5.238  1.2283  2.7524 -0.8714
   11CHL1  H26C  810   4.089   6.131   5.418 -0.7070  0.8423  0.4683
   11CHL1   C27  811   4.247   5.926   5.180  0.7189 -0.0394  0.1229
   11CHL1  H27A  812   4.157   5.921   5.114  1.8560 -3.7548 -1.4360
   11CHL1  H27B  813   4.310   6.010   5.145  0.8620 -0.5201 -0.8034
   11CHL1  H27C  814   4.306   5.832   5.167 -2.3107 -1.9738 -0.7207
   12CHL1    C3  815   4.970   6.620   6.820  0.0392 -0.1678  0.7689
   12CHL1    H3  816   4.954   6.510   6.811  0.0881 -0.2057  1.1504
   12CHL1    O3  817   4.967   6.647   6.958 -0.4358 -0.2630  0.3267
   12CHL1   H3'  818   4.880   6.688   6.964  0.3990  1.4311  1.9358
   12CHL1    C4  819   5.110   6.669   6.776  0.1950  0.6635 -0.4848
   12CHL1   H4A  820   5.131   6.770   6.818 -0.8910  0.6935  0.0280
   12CHL1   H4B  821   5.177   6.602   6.834 -0.3588  0.3742 -0.1628
   12CHL1    C5  822   5.143   6.664   6.629 -1.0623  0.3035  0.3608
   12CHL1    C6  823   5.245   6.588   6.589 -1.1577 -0.3258  0.8867
   12CHL1    H6  824   5.317   6.545   6.660  1.9532  3.6045  0.4300
   12CHL1    C7  825   5.278   6.573   6.440 -0.6223  0.1863 -0.3949
   12CHL1   H7A  826   5.385   6.586   6.415 -0.5489 -0.8692 -0.7068
   12CHL1   H7B  827   5.247   6.467   6.423  3.4860 -1.5035  1.3584
   12CHL1    C8  828   5.199   6.665   6.347  0.6135  0.1650 -0.5551
   12CHL1    H8  829   5.240   6.768   6.341 -1.6145  1.1474  0.0071
   12CHL1   C14  830   5.197   6.602   6.208  0.4739  0.4427  0.0885
   12CHL1   H14  831   5.142   6.505   6.214 -1.4359  1.3679 -1.3796
   12CHL1   C15  832   5.333   6.561   6.148  0.2427 -0.5750 -0.2045
   12CHL1  H15A  833   5.407   6.643   6.165  0.6019 -0.9158 -0.1037
   12CHL1  H15B  834   5.364   6.461   6.187 -2.4781 -1.2272  0.4757
   12CHL1   C16  835   5.298   6.543   5.993 -0.2141 -0.2619 -0.3312
   12CHL1  H16A  836   5.371   6.607   5.937 -1.5555  3.8149  2.1122
   12CHL1  H16B  837   5.300   6.435   5.967  0.6707 -0.2597 -0.3062
   12CHL1   C17  838   5.147   6.607   5.975 -0.0270  0.0174  0.0610
   12CHL1   H17  839   5.076   6.522   5.983 -0.4357  0.2242 -1.2301
   12CHL1   C13  840   5.130   6.693   6.104 -0.0869  0.5906  0.7447
   12CHL1   C18  841   5.214   6.818   6.081  0.0347  0.3182  0.3710
   12CHL1  H18A  842   5.158   6.884   6.011 -1.2736  0.2363  1.2953
   12CHL1  H18B  843   5.216   6.863   6.183 -1.3761 -1.7400  1.3786
   12CHL1  H18C  844   5.318   6.803   6.044 -0.2961 -1.5253  0.1137
   12CHL1   C12  845   4.983   6.732   6.142 -0.3330  0.5266 -0.2107
   12CHL1  H12A  846   4.931   6.793   6.065  1.2304  4.1759  1.3764
   12CHL1  H12B  847   4.926   6.637   6.145  0.4402  0.0348 -0.7456
   12CHL1   C11  848   4.968   6.782   6.288 -0.0562  0.2022  0.5974
   12CHL1  H11A  849   5.017   6.881   6.297  2.2205 -0.7674 -0.2480
   12CHL1  H11B  850   4.863   6.785   6.323 -0.4367  0.4854 -0.5319
   12CHL1    C9  851   5.048   6.687   6.386  0.6161 -0.6242  0.1072
   12CHL1    H9  852   4.998   6.588   6.373  1.0990 -0.6040 -2.4545
   12CHL1   C10  853   5.035   6.728   6.539 -0.6688  0.2580 -0.0123
   12CHL1   C19  854   5.062   6.878   6.561 -1.1657 -0.5065  0.5221
   12CHL1  H19A  855   4.993   6.944   6.503  0.6272  1.3967  0.4533
   12CHL1  H19B  856   5.065   6.908   6.668 -1.0789 -3.5195  1.4654
   12CHL1  H19C  857   5.165   6.909   6.532  0.2324 -0.5771  4.7653
   12CHL1    C1  858   4.897   6.681   6.591 -0.0954  0.2261  0.2288
   12CHL1   H1A  859   4.822   6.733   6.529 -1.8596 -0.7634  1.4379
   12CHL1   H1B  860   4.894   6.571   6.576 -0.1306  0.2686 -0.0797
   12CHL1    C2  861   4.860   6.690   6.739  0.6915 -0.1469  0.6207
   12CHL1   H2A  862   4.758   6.653   6.764  0.8072  0.0866  1.4704
   12CHL1   H2B  863   4.858   6.794   6.777  2.4428  0.0415  0.2815
   12CHL1   C20  864   5.129   6.661   5.832 -0.3985 -0.0520  0.0643
   12CHL1   H20  865   5.199   6.747   5.833  1.1842 -1.2871 -0.7068
   12CHL1   C21  866   4.987   6.708   5.809 -0.1689 -0.0523  0.1420
   12CHL1  H21A  867   4.910   6.640   5.851  0.2487  0.0977  1.2036
   12CHL1  H21B  868   4.974   6.725   5.700  3.1018  1.5843 -0.1160
   12CHL1  H21C  869   4.960   6.800   5.866 -0.7578  0.2446 -0.6034
   12CHL1   C22  870   5.181   6.572   5.722  0.4727 -0.3084  0.1337
   12CHL1  H22A  871   5.170   6.632   5.629 -2.6656  1.3151  1.4083
   12CHL1  H22B  872   5.290   6.552   5.731  0.8215  0.8324 -1.2303
   12CHL1   C23  873   5.111   6.437   5.707 -0.1447  0.3493 -1.1892
   12CHL1  H23A  874   5.121   6.373   5.797 -2.6088 -1.1206 -1.8618
   12CHL1  H23B  875   5.000   6.449   5.705 -0.5341 -2.5217 -1.5485
   12CHL1   C24  876   5.146   6.360   5.574  0.6084  0.3466 -0.3164
   12CHL1  H24A  877   5.249   6.321   5.591  1.5077  2.4224 -0.7914
   12CHL1  H24B  878   5.066   6.283   5.582  1.1390 -0.0329  2.5417
   12CHL1   C25  879   5.129   6.435   5.439 -0.6676  0.4594  0.6031
   12CHL1   H25  880   5.204   6.517   5.436 -0.4946  0.2774  0.0157
   12CHL1   C26  881   5.159   6.358   5.314 -0.0963  0.1371  0.6237
   12CHL1  H26A  882   5.125   6.411   5.223  2.6877 -0.5048 -0.9073
   12CHL1  H26B  883   5.267   6.330   5.312  0.0341  0.1874  3.5424
   12CHL1  H26C  884   5.090   6.271   5.316 -1.3582  1.1240  2.5503
   12CHL1   C27  885   4.991   6.494   5.436  0.2086  0.8876 -0.3992
   12CHL1  H27A  886   4.963   6.559   5.522 -0.0862 -0.6638  0.7208
   12CHL1  H27B  887   4.990   6.545   5.338 -2.0380 -0.5898 -1.2277
   12CHL1  H27C  888   4.915   6.413   5.427  2.0027 -0.7479 -1.6458
   13CHL1    C3  889   0.036   0.726   6.248 -0.0432 -0.9138 -0.6714
   13CHL1    H3  890   0.127   0.778   6.213 -1.2406  0.7592 -1.4405
   13CHL1    O3  891   0.029   0.749   6.385  0.5537  0.4722  0.4407
   13CHL1   H3'  892  -0.060   0.721   6.406  0.7550 -0.7199 -0.1753
   13CHL1    C4  893  -0.094   0.783   6.182 -0.4886  0.3923  0.0274
   13CHL1   H4A  894  -0.180   0.731   6.231 -1.3857  0.6293 -1.2363
   13CHL1   H4B  895  -0.113   0.891   6.198 -2.0854  0.4886 -2.1009
   13CHL1    C5  896  -0.096   0.740   6.037  0.5724  0.2603 -0.0718
   13CHL1    C6  897  -0.118   0.835   5.943 -0.1153 -0.1429 -0.4990
   13CHL1    H6  898  -0.126   0.939   5.975 -0.0516 -0.1065 -0.5994
   13CHL1    C7  899  -0.127   0.806   5.798 -0.0106  0.2067 -0.2661
   13CHL1   H7A  900  -0.216   0.858   5.757 -0.0897 -0.4843 -0.9884
   13CHL1   H7B  901  -0.037   0.852   5.753 -0.5090  1.1511 -0.3137
   13CHL1    C8  902  -0.149   0.654   5.757 -0.4365  0.4021  0.1956
   13CHL1    H8  903  -0.250   0.621   5.789  0.5259 -1.9036  1.1103
   13CHL1   C14  904  -0.114   0.627   5.611  0.6567  0.3054 -0.8472
   13CHL1   H14  905  -0.009   0.664   5.604  0.8799 -0.2466 -0.4862
   13CHL1   C15  906  -0.196   0.707   5.502  0.1075 -0.1789 -0.0519
   13CHL1  H15A  907  -0.299   0.688   5.539  1.8060 -3.1598  3.9068
   13CHL1  H15B  908  -0.159   0.812   5.502  0.9303 -0.4475 -1.2285
   13CHL1   C16  909  -0.174   0.635   5.369  0.1791  0.5963 -0.0982
   13CHL1  H16A  910  -0.273   0.635   5.320  0.6751  2.8230 -1.2573
   13CHL1  H16B  911  -0.113   0.694   5.296 -1.3978  0.1267 -1.8815
   13CHL1   C17  912  -0.099   0.508   5.417  0.6038  0.5053  0.3156
   13CHL1   H17  913   0.004   0.546   5.404  0.9994 -0.8634 -0.8771
   13CHL1   C13  914  -0.124   0.482   5.563 -0.0886  0.1948 -0.8190
   13CHL1   C18  915  -0.272   0.434   5.585  0.3338  0.8618  0.0725
   13CHL1  H18A  916  -0.344   0.463   5.504 -0.1201  0.4522  0.3215
   13CHL1  H18B  917  -0.279   0.323   5.583  1.3748  0.8012 -0.7173
   13CHL1  H18C  918  -0.320   0.473   5.677 -1.1887  0.7192 -0.6091
   13CHL1   C12  919  -0.034   0.396   5.650  0.0442  0.1605 -0.1305
   13CHL1  H12A  920  -0.042   0.288   5.622 -0.7755  0.5118 -1.3474
   13CHL1  H12B  921   0.070   0.429   5.631  0.3408  1.5919  3.2639
   13CHL1   C11  922  -0.062   0.418   5.797  0.6086 -0.1174 -0.5716
   13CHL1  H11A  923  -0.157   0.366   5.819 -0.2524  1.2417 -0.9914
   13CHL1  H11B  924   0.010   0.359   5.858 -0.3481 -2.0455 -1.2377
   13CHL1    C9  925  -0.059   0.571   5.844  0.6042 -0.0116 -0.3225
   13CHL1    H9  926   0.046   0.596   5.818  0.8413 -0.8403 -0.1755
   13CHL1   C10  927  -0.081   0.595   6.003  0.2079  0.5277  0.0461
   13CHL1   C19  928  -0.204   0.503   6.047  0.1510 -0.1009  0.3686
   13CHL1  H19A  929  -0.214   0.510   6.157  1.7800  5.0187  0.4619
   13CHL1  H19B  930  -0.296   0.549   6.006 -0.4970  1.0759  2.9565
   13CHL1  H19C  931  -0.194   0.396   6.017 -0.7913  0.3762 -1.8830
   13CHL1    C1  932   0.047   0.546   6.074  0.7558  0.2166  0.4344
   13CHL1   H1A  933   0.053   0.435   6.066  0.1891  0.2424 -0.4161
   13CHL1   H1B  934   0.137   0.591   6.028  1.1262 -2.7519 -2.1137
   13CHL1    C2  935   0.048   0.582   6.227  0.1061 -0.1739 -0.5084
   13CHL1   H2A  936   0.143   0.535   6.259 -0.5390 -1.4401 -0.3929
   13CHL1   H2B  937  -0.039   0.532   6.275  0.2754 -1.8953 -1.9084
   13CHL1   C20  938  -0.105   0.382   5.329 -0.3543  0.4169 -0.1014
   13CHL1   H20  939  -0.183   0.315   5.372 -0.1856 -1.1016 -1.9851
   13CHL1   C21  940   0.034   0.308   5.343 -0.3687 -0.4272 -0.1998
   13CHL1  H21A  941   0.029   0.211   5.289 -2.3903 -0.6178  0.2359
   13CHL1  H21B  942   0.063   0.293   5.449  2.1033  1.9438 -0.4635
   13CHL1  H21C  943   0.108   0.382   5.307 -0.3807 -0.6699 -0.7261
   13CHL1   C22  944  -0.120   0.420   5.179 -0.3861 -0.4233  0.4614
   13CHL1  H22A  945  -0.221   0.465   5.169 -0.4902 -0.4894  1.1592
   13CHL1  H22B  946  -0.040   0.493   5.156 -1.6763  0.5923 -1.0434
   13CHL1   C23  947  -0.104   0.296   5.079 -0.5347 -0.0739 -0.4513
   13CHL1  H23A  948   0.000   0.259   5.084 -0.2916  0.5231 -1.0443
   13CHL1  H23B  949  -0.169   0.214   5.118 -1.5328  0.5510 -0.7579
   13CHL1   C24  950  -0.135   0.334   4.934 -0.8060  0.1975 -0.7377
   13CHL1  H24A  951  -0.246   0.346   4.934 -0.9620 -0.8679  0.6236
   13CHL1  H24B  952  -0.086   0.426   4.898  1.2107 -0.6079 -0.1748
   13CHL1   C25  953  -0.107   0.210   4.845  0.4615 -0.5859  0.5778
   13CHL1   H25  954  -0.002   0.175   4.850 -0.0040 -2.4787 -1.2355
   13CHL1   C26  955  -0.195   0.091   4.892 -0.4013 -0.4297  0.0087
   13CHL1  H26A  956  -0.301   0.121   4.907  0.1257  0.7457  1.6705
   13CHL1  H26B  957  -0.213   0.009   4.820 -0.8620  1.1386 -1.7530
   13CHL1  H26C  958  -0.148   0.040   4.979 -2.2435  0.8962  1.8945
   13CHL1   C27  959  -0.129   0.251   4.701  0.5008  0.1218  0.2677
   13CHL1  H27A  960  -0.052   0.328   4.677 -0.8632  1.1634 -0.9901
   13CHL1  H27B  961  -0.103   0.164   4.638  2.7371  1.3292 -0.5700
   13CHL1  H27C  962  -0.228   0.296   4.679 -0.5803 -1.6510  1.2639
   14CHL1    C3  963   5.092   3.902   6.782 -0.2872  0.4661 -0.3738
   14CHL1    H3  964   4.999   3.873   6.728  0.4485 -1.8778 -0.4831
   14CHL1    O3  965   5.082   3.835   6.911  0.5389 -0.2092  0.2207
   14CHL1   H3'  966   5.080   3.741   6.891  1.2026  0.1311 -1.6800
   14CHL1    C4  967   5.217   3.849   6.701  0.0443  0.0698 -0.2218
   14CHL1   H4A  968   5.300   3.857   6.774 -0.8017 -3.3781  1.2828
   14CHL1   H4B  969   5.203   3.739   6.691  1.1346 -0.4007  2.6552
   14CHL1    C5  970   5.237   3.930   6.571 -0.4948  0.3831 -0.3961
   14CHL1    C6  971   5.240   3.854   6.461 -0.5471  0.4577 -0.0339
   14CHL1    H6  972   5.230   3.744   6.462 -0.6767  0.3963 -2.3010
   14CHL1    C7  973   5.261   3.911   6.326  0.1198  0.0849  0.0173
   14CHL1   H7A  974   5.321   3.845   6.260 -0.9842 -0.6893 -0.2337
   14CHL1   H7B  975   5.161   3.916   6.279  0.2599 -1.5792 -0.5193
   14CHL1    C8  976   5.313   4.057   6.321 -0.0066 -0.2254 -0.1264
   14CHL1    H8  977   5.422   4.052   6.342 -0.3730  0.5006  2.1257
   14CHL1   C14  978   5.302   4.111   6.177  0.5342  0.6058  0.0693
   14CHL1   H14  979   5.194   4.127   6.156  0.5090 -0.7636 -1.0149
   14CHL1   C15  980   5.351   4.025   6.054 -0.6756 -0.6630 -0.8073
   14CHL1  H15A  981   5.447   3.985   6.095 -1.3625 -0.8170  0.7173
   14CHL1  H15B  982   5.282   3.941   6.031 -0.2530 -1.1896 -0.1863
   14CHL1   C16  983   5.373   4.132   5.948  0.6499  0.0455  0.2191
   14CHL1  H16A  984   5.478   4.129   5.911 -0.0088 -0.2855 -1.7421
   14CHL1  H16B  985   5.302   4.115   5.864  0.6326 -0.1355  0.2707
   14CHL1   C17  986   5.337   4.270   6.012 -0.8863  0.6093  0.0582
   14CHL1   H17  987   5.229   4.286   5.993 -0.4564  2.2385 -1.1621
   14CHL1   C13  988   5.348   4.257   6.164 -0.3169 -0.0276  1.0334
   14CHL1   C18  989   5.508   4.279   6.194  0.3804  0.5195  0.6465
   14CHL1  H18A  990   5.518   4.258   6.303 -1.5810  0.1548  0.7851
   14CHL1  H18B  991   5.556   4.203   6.130 -2.8953 -1.9868  0.8841
   14CHL1  H18C  992   5.538   4.383   6.169 -1.0866  1.1655  1.4258
   14CHL1   C12  993   5.259   4.345   6.257 -0.5406 -0.7404  0.2776
   14CHL1  H12A  994   5.292   4.451   6.248  0.7350 -1.1062  0.4964
   14CHL1  H12B  995   5.150   4.338   6.234 -0.3340  0.5759 -1.3242
   14CHL1   C11  996   5.273   4.298   6.406  0.3403 -0.4490  0.5200
   14CHL1  H11A  997   5.374   4.326   6.441  0.2721 -1.6059  1.7268
   14CHL1  H11B  998   5.193   4.360   6.453 -1.6918 -0.1467 -2.9857
   14CHL1    C9  999   5.236   4.147   6.420 -0.2134  0.4047 -0.1682
   14CHL1    H9 1000   5.130   4.136   6.387 -0.5746  0.7598  0.8634
   14CHL1   C10 1001   5.239   4.085   6.567 -0.3227 -0.1161  0.1843
   14CHL1   C19 1002   5.375   4.124   6.628 -0.1666  0.1341  0.6472
   14CHL1  H19A 1003   5.368   4.233   6.645  1.1004  0.2468  0.5161
   14CHL1  H19B 1004   5.390   4.087   6.732 -3.0207 -0.2902  0.9944
   14CHL1  H19C 1005   5.464   4.109   6.564 -0.6797  0.5358 -0.1719
   14CHL1    C1 1006   5.125   4.141   6.662 -0.9564 -0.7408 -0.1310
   14CHL1   H1A 1007   5.144   4.246   6.689  0.4958 -1.4438  1.7916
   14CHL1   H1B 1008   5.026   4.139   6.611 -2.3933 -1.4333  2.4965
   14CHL1    C2 1009   5.108   4.063   6.795 -0.0116  0.0622 -0.6251
   14CHL1   H2A 1010   5.023   4.105   6.853  0.8327 -0.1207  0.7882
   14CHL1   H2B 1011   5.200   4.072   6.857 -0.5212 -0.2267  0.1796
   14CHL1   C20 1012   5.411   4.390   5.940  0.2163  0.2009  0.3923
   14CHL1   H20 1013   5.516   4.397   5.977  0.8855 -2.8332 -0.6087
   14CHL1   C21 1014   5.329   4.522   5.976 -0.2785  0.8009  0.0531
   14CHL1  H21A 1015   5.238   4.508   5.914 -2.0008  0.6027  2.4601
   14CHL1  H21B 1016   5.379   4.606   5.924 -0.0809 -0.9268 -2.7716
   14CHL1  H21C 1017   5.290   4.532   6.079  1.5218  0.3112  0.8299
   14CHL1   C22 1018   5.425   4.368   5.785  1.3147 -0.2503  0.3740
   14CHL1  H22A 1019   5.476   4.271   5.771  1.4027 -0.4599  1.9039
   14CHL1  H22B 1020   5.323   4.361   5.741  1.2541 -1.0164  0.6251
   14CHL1   C23 1021   5.501   4.474   5.705  0.4873 -0.0358  0.4012
   14CHL1  H23A 1022   5.435   4.563   5.704 -1.8453 -1.6192  2.3187
   14CHL1  H23B 1023   5.588   4.494   5.772  0.9890 -0.8937  0.0378
   14CHL1   C24 1024   5.533   4.438   5.564 -0.8532 -0.0485  0.2100
   14CHL1  H24A 1025   5.577   4.336   5.566 -0.8782 -0.0785  2.2352
   14CHL1  H24B 1026   5.435   4.425   5.515 -0.7726 -2.8594  0.6507
   14CHL1   C25 1027   5.627   4.529   5.474 -0.3803  0.1149 -0.0885
   14CHL1   H25 1028   5.720   4.550   5.531 -0.8526  0.6369  0.5065
   14CHL1   C26 1029   5.662   4.467   5.331  0.4388  0.3771  0.7962
   14CHL1  H26A 1030   5.564   4.459   5.280  1.7090  0.5118 -1.8136
   14CHL1  H26B 1031   5.737   4.536   5.287 -2.0066  1.5789 -1.7302
   14CHL1  H26C 1032   5.695   4.362   5.346 -2.1284 -0.6124  0.1081
   14CHL1   C27 1033   5.576   4.672   5.464 -0.5768  0.2965  0.2381
   14CHL1  H27A 1034   5.483   4.663   5.404 -0.4260 -0.6309  0.1337
   14CHL1  H27B 1035   5.552   4.716   5.563 -0.1685  2.1786 -0.4409
   14CHL1  H27C 1036   5.651   4.740   5.417  1.6299 -1.1564  1.4660
   15CHL1    C3 1037   5.376   3.315   6.523 -0.3515 -0.8755 -0.1667
   15CHL1    H3 1038   5.271   3.291   6.497 -1.4215  1.5803  1.5683
   15CHL1    O3 1039   5.395   3.282   6.664 -0.1938 -0.2066  0.7073
   15CHL1   H3' 1040   5.444   3.200   6.658  0.7783  0.3975  0.0567
   15CHL1    C4 1041   5.460   3.224   6.444 -0.7781 -0.7424 -0.3419
   15CHL1   H4A 1042   5.564   3.248   6.473 -0.6664 -1.6117  0.0030
   15CHL1   H4B 1043   5.449   3.118   6.475 -1.8049  0.4268  4.1038
   15CHL1    C5 1044   5.448   3.247   6.297 -0.6323  0.3966  0.9475
   15CHL1    C6 1045   5.417   3.152   6.207 -0.9001  1.2198  0.0004
   15CHL1    H6 1046   5.398   3.052   6.250  0.7435  0.7207 -0.3476
   15CHL1    C7 1047   5.405   3.163   6.059  0.1853 -0.9585  0.1153
   15CHL1   H7A 1048   5.454   3.080   6.004 -0.3618  0.3634 -2.5496
   15CHL1   H7B 1049   5.296   3.163   6.037  0.2632  2.0591 -0.7241
   15CHL1    C8 1050   5.458   3.298   6.010  0.3272 -0.0264 -0.1527
   15CHL1    H8 1051   5.568   3.298   6.000  0.2857  1.0483 -0.7629
   15CHL1   C14 1052   5.400   3.341   5.872  0.0842 -0.3387 -0.6377
   15CHL1   H14 1053   5.292   3.358   5.892  0.4844  1.4445  0.1983
   15CHL1   C15 1054   5.409   3.230   5.767  1.0212 -0.2626 -0.1283
   15CHL1  H15A 1055   5.510   3.184   5.776 -0.1926 -2.9488  0.7558
   15CHL1  H15B 1056   5.332   3.150   5.776  2.0933 -1.2392  0.7566
   15CHL1   C16 1057   5.385   3.313   5.645  0.0620  0.5616  0.2059
   15CHL1  H16A 1058   5.474   3.299   5.580  1.5843  1.0118  2.1033
   15CHL1  H16B 1059   5.289   3.290   5.594  0.4822  2.0936 -1.3574
   15CHL1   C17 1060   5.379   3.467   5.679 -0.2081 -0.8631  0.0967
   15CHL1   H17 1061   5.272   3.493   5.689 -0.2330 -0.6398 -0.7089
   15CHL1   C13 1062   5.449   3.471   5.815 -0.1120 -0.1020  0.0037
   15CHL1   C18 1063   5.607   3.467   5.795  0.3653  0.5566  0.0838
   15CHL1  H18A 1064   5.643   3.378   5.739  0.6512  0.0263  1.0853
   15CHL1  H18B 1065   5.632   3.566   5.751  0.2172  1.0771  1.1371
   15CHL1  H18C 1066   5.656   3.471   5.895  0.0056  0.5959  0.2597
   15CHL1   C12 1067   5.409   3.581   5.912 -0.3799 -0.0437 -0.7901
   15CHL1  H12A 1068   5.447   3.677   5.872 -0.1099 -0.0446 -0.5376
   15CHL1  H12B 1069   5.299   3.597   5.919 -0.3023  0.2809 -0.3141
   15CHL1   C11 1070   5.448   3.561   6.059  0.1586  0.4127 -0.0064
   15CHL1  H11A 1071   5.557   3.580   6.067  0.1280  0.7781 -0.4371
   15CHL1  H11B 1072   5.410   3.644   6.121  1.0926  0.4142  0.5939
   15CHL1    C9 1073   5.423   3.415   6.110  0.1087  0.1248  0.6950
   15CHL1    H9 1074   5.313   3.407   6.114  0.0421 -2.9010 -2.0971
   15CHL1   C10 1075   5.475   3.391   6.247 -0.0983  0.1794  0.0584
   15CHL1   C19 1076   5.622   3.428   6.248  0.0827 -0.2621  0.5186
   15CHL1  H19A 1077   5.677   3.374   6.328 -1.2829  1.3770  2.6485
   15CHL1  H19B 1078   5.674   3.393   6.156  1.9361  1.2060  0.9459
   15CHL1  H19C 1079   5.650   3.535   6.259 -0.3793 -0.1528  0.6388
   15CHL1    C1 1080   5.395   3.488   6.340  0.5300  0.2789 -0.0115
   15CHL1   H1A 1081   5.424   3.595   6.326  0.6416  0.3274  0.5397
   15CHL1   H1B 1082   5.290   3.462   6.316 -0.0382  3.2689 -1.1671
   15CHL1    C2 1083   5.413   3.457   6.489  0.3496  0.1994  0.1739
   15CHL1   H2A 1084   5.368   3.517   6.571 -0.5138 -1.1671  0.7283
   15CHL1   H2B 1085   5.524   3.457   6.498  0.3828 -0.2277 -0.1847
   15CHL1   C20 1086   5.437   3.561   5.570 -0.0538 -0.9164  0.2911
   15CHL1   H20 1087   5.544   3.535   5.556  0.3644  0.6003  0.5391
   15CHL1   C21 1088   5.419   3.707   5.609  0.6091 -0.6196  0.1180
   15CHL1  H21A 1089   5.316   3.719   5.649  0.6953  1.2395 -0.1476
   15CHL1  H21B 1090   5.423   3.769   5.517  1.4787 -0.5978  0.1628
   15CHL1  H21C 1091   5.488   3.752   5.683  0.8698  1.6928 -1.4278
   15CHL1   C22 1092   5.359   3.530   5.439  0.1493  0.4643  0.0468
   15CHL1  H22A 1093   5.331   3.423   5.424  0.1787  0.1525  2.0120
   15CHL1  H22B 1094   5.269   3.596   5.432  0.1828  0.8086  2.3563
   15CHL1   C23 1095   5.446   3.566   5.316  0.2672  0.2850 -0.3991
   15CHL1  H23A 1096   5.485   3.668   5.331 -0.7696  0.5140  0.9741
   15CHL1  H23B 1097   5.531   3.495   5.303 -0.1411 -0.0559 -1.2965
   15CHL1   C24 1098   5.372   3.555   5.186 -0.5631  0.1903  0.4249
   15CHL1  H24A 1099   5.324   3.455   5.177  0.3606 -0.3752  1.5297
   15CHL1  H24B 1100   5.291   3.631   5.184  0.1085  0.9315 -2.1400
   15CHL1   C25 1101   5.446   3.578   5.052 -0.4071  0.3778  0.0526
   15CHL1   H25 1102   5.465   3.688   5.048 -0.9805  0.4419 -1.3950
   15CHL1   C26 1103   5.581   3.509   5.040  0.1391 -0.2245  0.1643
   15CHL1  H26A 1104   5.563   3.399   5.043  0.8124 -0.3204  1.1825
   15CHL1  H26B 1105   5.625   3.540   4.943 -2.4966  1.4756 -0.5836
   15CHL1  H26C 1106   5.653   3.535   5.120 -1.0161  1.4520  0.7039
   15CHL1   C27 1107   5.347   3.551   4.939  0.4605 -0.2708 -0.1984
   15CHL1  H27A 1108   5.403   3.593   4.853  0.6153 -0.5187 -0.2197
   15CHL1  H27B 1109   5.335   3.441   4.927  0.5940 -0.4078  0.8493
   15CHL1  H27C 1110   5.255   3.606   4.967  0.8399  0.8899 -1.1813
   16CHL1    C3 1111   3.156   6.740   6.786 -0.1024 -0.4342 -0.2848
   16CHL1    H3 1112   3.224   6.828   6.785 -2.2142  1.2859 -1.0465
   16CHL1    O3 1113   3.155   6.684   6.913  0.2371  0.9408 -0.0678
   16CHL1   H3' 1114   3.085   6.620   6.903 -1.1896  2.4990 -0.6481
   16CHL1    C4 1115   3.015   6.779   6.744 -0.5228  0.2260  0.3496
   16CHL1   H4A 1116   2.955   6.686   6.734  0.5424 -0.3979 -0.3880
   16CHL1   H4B 1117   2.983   6.850   6.823  1.4094  0.2395  1.1804
   16CHL1    C5 1118   3.031   6.831   6.597  0.1651 -0.3900 -0.0210
   16CHL1    C6 1119   3.000   6.965   6.573 -0.5010  0.3898  0.1111
   16CHL1    H6 1120   2.951   7.025   6.652 -1.6651  0.0017 -0.2876
   16CHL1    C7 1121   3.004   7.022   6.436 -0.1136  0.2337  0.1698
   16CHL1   H7A 1122   2.907   7.070   6.412  0.3370 -0.2375 -3.1191
   16CHL1   H7B 1123   3.085   7.096   6.420 -0.5127  0.6216 -0.0746
   16CHL1    C8 1124   3.018   6.909   6.323  0.7566  0.5185  0.7211
   16CHL1    H8 1125   2.918   6.861   6.319  0.9373  0.0118  1.8039
   16CHL1   C14 1126   3.044   6.978   6.190 -0.0653 -0.8489  0.3195
   16CHL1   H14 1127   3.138   7.037   6.201  0.6488 -1.3435 -2.4465
   16CHL1   C15 1128   2.945   7.084   6.140  0.2050  0.1744  0.1137
   16CHL1  H15A 1129   2.842   7.044   6.151  1.6400 -3.6815  1.1426
   16CHL1  H15B 1130   2.963   7.172   6.204  0.9497  0.8294 -0.9514
   16CHL1   C16 1131   2.975   7.096   5.987 -1.2708  0.1968  0.2012
   16CHL1  H16A 1132   2.878   7.082   5.933 -1.2304 -0.3709  0.2651
   16CHL1  H16B 1133   3.010   7.200   5.976 -1.0276 -0.0036 -1.1832
   16CHL1   C17 1134   3.083   6.982   5.955 -0.4154 -0.0890  0.4176
   16CHL1   H17 1135   3.189   7.017   5.963 -0.2402 -0.4562 -0.2668
   16CHL1   C13 1136   3.059   6.886   6.074  0.3423 -0.2614 -0.9518
   16CHL1   C18 1137   2.934   6.792   6.047 -0.4294 -0.7756  0.2285
   16CHL1  H18A 1138   2.901   6.732   6.134 -0.3026 -0.5536  0.4341
   16CHL1  H18B 1139   2.850   6.856   6.012  2.3130  2.7748 -0.5237
   16CHL1  H18C 1140   2.959   6.717   5.970 -1.4849 -0.7705 -0.1251
   16CHL1   C12 1141   3.178   6.793   6.105 -0.7140 -0.0305  0.4581
   16CHL1  H12A 1142   3.186   6.723   6.019  2.4613  2.6257 -1.6515
   16CHL1  H12B 1143   3.274   6.849   6.105  0.9751 -2.6470  2.1873
   16CHL1   C11 1144   3.157   6.729   6.245  0.7484  0.1797  0.3488
   16CHL1  H11A 1145   3.072   6.659   6.229  1.4810 -0.6908  0.1653
   16CHL1  H11B 1146   3.241   6.661   6.271  1.0954  0.5552  0.2178
   16CHL1    C9 1147   3.129   6.818   6.361  0.5594  0.2344 -0.6184
   16CHL1    H9 1148   3.212   6.883   6.396 -0.4131  1.0647  0.2367
   16CHL1   C10 1149   3.096   6.740   6.494  0.1539  0.0229 -0.5365
   16CHL1   C19 1150   2.986   6.633   6.468  0.2632 -0.9469 -0.6315
   16CHL1  H19A 1151   3.020   6.545   6.409  1.8342 -0.7863 -0.0181
   16CHL1  H19B 1152   2.957   6.587   6.565 -1.1780  1.2047  0.0340
   16CHL1  H19C 1153   2.893   6.677   6.425 -0.7947 -0.4674  1.9673
   16CHL1    C1 1154   3.230   6.674   6.547 -0.0435  0.6123  0.3302
   16CHL1   H1A 1155   3.257   6.593   6.476 -2.0163  0.4723 -0.3125
   16CHL1   H1B 1156   3.308   6.753   6.546 -2.9221  3.7163  1.4024
   16CHL1    C2 1157   3.208   6.628   6.696  0.3925 -0.3730  0.1276
   16CHL1   H2A 1158   3.308   6.598   6.734 -0.4893 -0.3398  2.6548
   16CHL1   H2B 1159   3.136   6.544   6.691 -0.8852  0.5486  1.6086
   16CHL1   C20 1160   3.065   6.935   5.811 -0.0760  0.1634  0.6582
   16CHL1   H20 1161   2.962   6.896   5.798  0.5748 -1.3082 -0.3993
   16CHL1   C21 1162   3.159   6.827   5.771 -0.6014 -0.3900  0.2300
   16CHL1  H21A 1163   3.150   6.791   5.667  1.8436 -2.3443  0.5955
   16CHL1  H21B 1164   3.129   6.738   5.830  0.0368  0.1855  1.4923
   16CHL1  H21C 1165   3.267   6.854   5.784  0.1984 -2.2072 -2.0169
   16CHL1   C22 1166   3.090   7.054   5.715  0.4718  0.3565  0.1357
   16CHL1  H22A 1167   3.031   7.147   5.734 -0.7849 -0.6039  1.1566
   16CHL1  H22B 1168   3.197   7.081   5.714  0.3260  1.0016 -1.3631
   16CHL1   C23 1169   3.066   7.023   5.564  0.6330  0.1281  0.4569
   16CHL1  H23A 1170   3.135   6.941   5.534  0.7974 -0.2274  1.7394
   16CHL1  H23B 1171   2.960   6.992   5.546  0.7290  1.6702 -3.9365
   16CHL1   C24 1172   3.090   7.150   5.478 -0.4663  0.3400 -1.2080
   16CHL1  H24A 1173   3.039   7.230   5.536 -0.6531 -0.6719  0.0819
   16CHL1  H24B 1174   3.201   7.160   5.474 -0.0547 -2.4160  0.2160
   16CHL1   C25 1175   3.032   7.145   5.340  0.1233  0.0504 -0.4721
   16CHL1   H25 1176   2.924   7.119   5.344 -0.1364  1.1954  0.8656
   16CHL1   C26 1177   3.042   7.284   5.291 -0.5177 -0.5736 -0.1034
   16CHL1  H26A 1178   3.010   7.359   5.367 -0.7075 -2.6842  2.0223
   16CHL1  H26B 1179   3.151   7.298   5.274 -0.1161 -1.5014  1.4518
   16CHL1  H26C 1180   2.991   7.302   5.195 -0.9429 -2.0543 -0.1746
   16CHL1   C27 1181   3.112   7.054   5.247 -0.3098 -0.0408 -0.0722
   16CHL1  H27A 1182   3.096   6.953   5.290  1.0812 -0.0557  0.4591
   16CHL1  H27B 1183   3.061   7.057   5.148 -0.6584 -1.8753  0.0325
   16CHL1  H27C 1184   3.219   7.079   5.234 -0.2986  0.4457  0.8976
   17CHL1    C3 1185   3.839   4.778   6.885  0.1570 -0.8041  0.4967
   17CHL1    H3 1186   3.747   4.814   6.834  0.9339  2.6380  1.2884
   17CHL1    O3 1187   3.809   4.796   7.023 -0.4719 -0.0802 -0.0111
   17CHL1   H3' 1188   3.899   4.785   7.054 -0.1832  1.0488 -0.4164
   17CHL1    C4 1189   3.882   4.634   6.852 -0.6284  0.0282  0.5280
   17CHL1   H4A 1190   3.986   4.629   6.892 -0.0158  1.2166 -0.8172
   17CHL1   H4B 1191   3.820   4.567   6.915  1.3870 -0.0818  2.5374
   17CHL1    C5 1192   3.877   4.618   6.699 -0.0741  0.3550 -0.7206
   17CHL1    C6 1193   3.789   4.535   6.646 -0.2957  0.3964  0.1339
   17CHL1    H6 1194   3.720   4.475   6.706 -0.9017  1.1622  0.2303
   17CHL1    C7 1195   3.764   4.527   6.499  0.2580  0.6531  0.2124
   17CHL1   H7A 1196   3.755   4.421   6.466 -0.9443  0.2285  1.7912
   17CHL1   H7B 1197   3.674   4.579   6.459 -0.6009 -1.3354 -0.6013
   17CHL1    C8 1198   3.883   4.586   6.410  0.1004 -0.6443 -0.7707
   17CHL1    H8 1199   3.966   4.512   6.408  1.1041  0.4743 -1.3109
   17CHL1   C14 1200   3.846   4.598   6.263 -0.2474  0.3964 -0.2086
   17CHL1   H14 1201   3.758   4.665   6.262 -2.5379 -2.3933  0.9163
   17CHL1   C15 1202   3.766   4.489   6.191  0.5893 -0.1432  0.7114
   17CHL1  H15A 1203   3.794   4.389   6.229 -1.7889 -1.5381 -0.9004
   17CHL1  H15B 1204   3.656   4.493   6.205  0.3600 -0.4771 -0.8563
   17CHL1   C16 1205   3.800   4.503   6.040 -0.2627  0.2419 -0.5730
   17CHL1  H16A 1206   3.863   4.417   6.009  1.5773  0.5790  1.8783
   17CHL1  H16B 1207   3.715   4.506   5.969 -0.1680 -1.5702 -0.7907
   17CHL1   C17 1208   3.885   4.634   6.035  0.0640  0.0171  0.0405
   17CHL1   H17 1209   3.811   4.716   6.031 -0.3419 -0.3872 -1.9017
   17CHL1   C13 1210   3.962   4.641   6.171  0.2655  0.1584 -0.0749
   17CHL1   C18 1211   4.071   4.530   6.170 -0.0946  0.3861  0.4826
   17CHL1  H18A 1212   4.149   4.557   6.096 -0.6594  0.8491  0.0436
   17CHL1  H18B 1213   4.121   4.522   6.269 -0.9215  1.1529  0.9797
   17CHL1  H18C 1214   4.030   4.432   6.138 -1.5903  1.0225  0.3804
   17CHL1   C12 1215   4.017   4.777   6.221  0.6354 -0.2555  0.3460
   17CHL1  H12A 1216   4.111   4.800   6.166  0.6564 -0.2457  0.3856
   17CHL1  H12B 1217   3.939   4.852   6.198  1.5859 -0.1873 -3.2676
   17CHL1   C11 1218   4.057   4.779   6.374  0.3118 -0.4920  1.0198
   17CHL1  H11A 1219   4.153   4.726   6.391 -0.4783 -1.9766  1.1001
   17CHL1  H11B 1220   4.068   4.884   6.409 -1.6216 -0.4002  1.4517
   17CHL1    C9 1221   3.947   4.719   6.462  0.0298  0.2407  0.0363
   17CHL1    H9 1222   3.861   4.788   6.450  0.2021  0.2380 -1.3670
   17CHL1   C10 1223   3.974   4.714   6.620  0.2950 -1.1207  0.4348
   17CHL1   C19 1224   4.117   4.659   6.646 -0.2902  1.0621  0.0904
   17CHL1  H19A 1225   4.128   4.559   6.598 -1.8490  0.4672  0.8739
   17CHL1  H19B 1226   4.191   4.721   6.592 -0.7046 -0.5118 -2.4729
   17CHL1  H19C 1227   4.136   4.645   6.754  0.0359 -0.3373 -0.1192
   17CHL1    C1 1228   3.969   4.861   6.682  0.2095 -0.0518  0.2230
   17CHL1   H1A 1229   4.053   4.927   6.653 -0.6009  1.3384  0.9156
   17CHL1   H1B 1230   3.880   4.904   6.631 -0.0504  1.0087  1.4825
   17CHL1    C2 1231   3.951   4.870   6.834  0.3009  0.1203  0.6981
   17CHL1   H2A 1232   3.930   4.970   6.878  1.6067 -0.0803  1.8604
   17CHL1   H2B 1233   4.050   4.853   6.883  1.1209  0.8862 -0.6388
   17CHL1   C20 1234   3.977   4.642   5.911  0.1541 -0.1601  0.3962
   17CHL1   H20 1235   4.061   4.569   5.912 -0.7829 -1.2646  1.7141
   17CHL1   C21 1236   4.017   4.800   5.898  0.4282 -0.2385 -0.4987
   17CHL1  H21A 1237   4.064   4.821   5.799  2.4523  0.0388  0.4622
   17CHL1  H21B 1238   4.104   4.812   5.966 -0.5023 -0.2713  0.7155
   17CHL1  H21C 1239   3.929   4.864   5.922  0.6833 -0.3435  0.7637
   17CHL1   C22 1240   3.899   4.602   5.785  0.4436 -1.1646  0.4166
   17CHL1  H22A 1241   3.886   4.492   5.785  0.5744 -1.2157 -1.7122
   17CHL1  H22B 1242   3.799   4.648   5.771  1.7009  1.0180 -2.5689
   17CHL1   C23 1243   3.979   4.619   5.652  0.0476 -0.2719  0.1300
   17CHL1  H23A 1244   3.952   4.713   5.600  1.3050 -0.4702 -0.9019
   17CHL1  H23B 1245   4.087   4.609   5.674 -0.0714 -2.6572 -0.0735
   17CHL1   C24 1246   3.932   4.500   5.564  0.1030 -0.2237  0.6377
   17CHL1  H24A 1247   3.959   4.412   5.626  0.7202 -0.0770  0.5851
   17CHL1  H24B 1248   3.821   4.498   5.559  0.1247 -1.3479  0.4561
   17CHL1   C25 1249   3.992   4.484   5.420  0.0394  0.2512 -0.1597
   17CHL1   H25 1250   3.970   4.380   5.387 -1.8966 -0.6545  3.4357
   17CHL1   C26 1251   3.949   4.577   5.317  0.8444 -0.1374 -0.1164
   17CHL1  H26A 1252   4.010   4.563   5.225  1.0481 -3.1283  0.3917
   17CHL1  H26B 1253   3.845   4.553   5.286  1.3126 -2.3298 -0.1260
   17CHL1  H26C 1254   3.951   4.681   5.358 -1.9991 -0.4590  1.0467
   17CHL1   C27 1255   4.149   4.487   5.429  0.1527 -0.1654 -0.7181
   17CHL1  H27A 1256   4.186   4.419   5.509 -3.0883 -1.3377 -0.0406
   17CHL1  H27B 1257   4.197   4.456   5.334  3.0865  2.0445 -0.1015
   17CHL1  H27C 1258   4.197   4.586   5.445  1.6774 -0.8906 -0.6761
   18CHL1    C3 1259   5.134   6.162   6.875  0.0671  0.0309 -0.4025
   18CHL1    H3 1260   5.197   6.071   6.872 -1.7964 -1.2974 -2.4826
   18CHL1    O3 1261   5.113   6.201   7.007 -0.3403 -0.2627  0.0062
   18CHL1   H3' 1262   5.104   6.296   7.013  0.5239 -0.1705  0.0921
   18CHL1    C4 1263   5.183   6.274   6.780  0.5475  0.6229 -0.6646
   18CHL1   H4A 1264   5.105   6.354   6.775  1.2492  1.3357 -0.4474
   18CHL1   H4B 1265   5.277   6.317   6.823 -0.5511  0.5485  2.0291
   18CHL1    C5 1266   5.197   6.235   6.635 -1.1503  0.2490  0.9623
   18CHL1    C6 1267   5.309   6.235   6.564 -0.2614 -0.4522 -0.2127
   18CHL1    H6 1268   5.400   6.281   6.605 -1.5883  1.6688  0.5259
   18CHL1    C7 1269   5.312   6.197   6.416  0.6143 -0.5668 -0.0735
   18CHL1   H7A 1270   5.370   6.278   6.367  0.1659 -0.5082 -0.5171
   18CHL1   H7B 1271   5.376   6.107   6.402  1.0750  0.0195 -1.9967
   18CHL1    C8 1272   5.171   6.187   6.353  0.1507  0.5414  0.4319
   18CHL1    H8 1273   5.132   6.290   6.343 -0.7255  0.2495  0.7004
   18CHL1   C14 1274   5.182   6.117   6.219  0.6936 -0.2219 -0.8938
   18CHL1   H14 1275   5.215   6.014   6.243 -1.2659 -0.9825 -1.3016
   18CHL1   C15 1276   5.286   6.175   6.121  0.4900  0.2671 -0.5407
   18CHL1  H15A 1277   5.280   6.285   6.103 -2.0496  0.2628 -0.1155
   18CHL1  H15B 1278   5.391   6.157   6.150 -0.3954 -0.4418  2.5193
   18CHL1   C16 1279   5.252   6.105   5.988  0.2808  0.4027 -0.8772
   18CHL1  H16A 1280   5.224   6.192   5.925 -1.8439  0.0997 -0.4231
   18CHL1  H16B 1281   5.328   6.029   5.958  0.3590  0.0766  0.1153
   18CHL1   C17 1282   5.113   6.028   6.009 -0.1563 -0.1976 -0.5775
   18CHL1   H17 1283   5.148   5.925   6.033 -0.3910 -0.2417 -0.4237
   18CHL1   C13 1284   5.052   6.092   6.138  0.1667  0.5232 -0.3741
   18CHL1   C18 1285   4.979   6.223   6.093  0.2682 -0.1924 -0.8049
   18CHL1  H18A 1286   4.881   6.204   6.043  0.2926  1.5484 -1.5961
   18CHL1  H18B 1287   4.970   6.295   6.177  1.0044 -0.5471 -0.4131
   18CHL1  H18C 1288   5.043   6.281   6.023  1.1767  0.5276  0.5966
   18CHL1   C12 1289   4.957   6.006   6.228 -0.0007 -0.7543  0.2589
   18CHL1  H12A 1290   4.861   5.987   6.176 -1.3166  3.1249  0.9645
   18CHL1  H12B 1291   5.005   5.906   6.240 -0.6590 -0.7923  3.2484
   18CHL1   C11 1292   4.946   6.064   6.365  0.2671 -0.1002  0.6295
   18CHL1  H11A 1293   4.882   6.155   6.356  1.3088  0.5991  0.0771
   18CHL1  H11B 1294   4.888   5.986   6.417  0.8297  0.7524  2.6195
   18CHL1    C9 1295   5.077   6.106   6.439 -0.3634  0.5268  0.0863
   18CHL1    H9 1296   5.130   6.010   6.456  0.0777  0.8170  0.3745
   18CHL1   C10 1297   5.061   6.180   6.577 -0.2806  0.6047 -0.4373
   18CHL1   C19 1298   4.966   6.302   6.562  0.6687  0.5453  0.4539
   18CHL1  H19A 1299   4.932   6.342   6.660 -2.8054 -0.1399 -0.3337
   18CHL1  H19B 1300   4.997   6.374   6.483  1.1250 -1.4766 -1.3269
   18CHL1  H19C 1301   4.870   6.255   6.531  1.1829 -0.5485  0.4767
   18CHL1    C1 1302   5.005   6.072   6.680  0.1091 -0.9638  0.0849
   18CHL1   H1A 1303   4.910   6.034   6.638 -0.5174  0.2969  0.3037
   18CHL1   H1B 1304   5.076   5.987   6.669  1.2068 -0.4567  2.6478
   18CHL1    C2 1305   4.998   6.120   6.823  0.9658  0.4080  0.0949
   18CHL1   H2A 1306   4.960   6.036   6.885  3.9829 -1.4232 -0.3405
   18CHL1   H2B 1307   4.934   6.210   6.834  2.2300  1.1838  1.4427
   18CHL1   C20 1308   5.028   6.014   5.880 -0.4371  0.3444  0.6483
   18CHL1   H20 1309   4.989   6.109   5.838  2.3287  0.0172 -3.1778
   18CHL1   C21 1310   4.917   5.908   5.895 -0.3117  0.4331 -0.3080
   18CHL1  H21A 1311   4.860   5.908   5.799  0.5015  1.2018 -0.8063
   18CHL1  H21B 1312   4.842   5.924   5.976 -0.8531  0.8806 -0.8858
   18CHL1  H21C 1313   4.960   5.808   5.913 -0.3940  0.8386  2.5646
   18CHL1   C22 1314   5.114   5.971   5.761  0.0082 -0.6385 -0.0600
   18CHL1  H22A 1315   5.177   6.057   5.729 -0.5851  0.4132  1.5047
   18CHL1  H22B 1316   5.172   5.878   5.779 -0.3200 -0.5903  1.3302
   18CHL1   C23 1317   5.041   5.950   5.629 -0.6484  0.0117 -0.1100
   18CHL1  H23A 1318   4.979   5.858   5.640  2.8195 -2.4241  0.8860
   18CHL1  H23B 1319   4.985   6.041   5.599  1.0178  0.0770 -3.6440
   18CHL1   C24 1320   5.145   5.931   5.508  0.5664 -0.0666 -0.9321
   18CHL1  H24A 1321   5.222   6.008   5.524  1.0606 -1.1546  2.8920
   18CHL1  H24B 1322   5.190   5.829   5.515 -0.0797 -0.2908  0.2153
   18CHL1   C25 1323   5.076   5.945   5.375 -0.9210  0.3262 -0.0564
   18CHL1   H25 1324   5.011   6.034   5.376  1.3310  2.1185 -1.6815
   18CHL1   C26 1325   5.179   5.986   5.269  1.1767  0.3091  0.0475
   18CHL1  H26A 1326   5.236   6.077   5.297 -0.1196  0.6659  1.6788
   18CHL1  H26B 1327   5.263   5.917   5.248  2.3910  2.0621 -1.1911
   18CHL1  H26C 1328   5.139   6.005   5.167  2.1723 -3.8805 -1.3185
   18CHL1   C27 1329   4.991   5.827   5.335  0.3958 -0.0202 -0.3642
   18CHL1  H27A 1330   4.952   5.846   5.233 -1.9864 -2.1852  0.0212
   18CHL1  H27B 1331   5.056   5.737   5.331  0.7594  0.0557  2.0581
   18CHL1  H27C 1332   4.908   5.820   5.410  1.7627 -1.9618  1.0671
   19CHL1    C3 1333   4.146   5.167   7.136  0.3343  0.1102  0.2806
   19CHL1    H3 1334   4.141   5.058   7.113  1.9978 -0.1863  1.1631
   19CHL1    O3 1335   4.138   5.182   7.276  0.0534 -0.1517  0.4826
   19CHL1   H3' 1336   4.046   5.208   7.291  0.4197  1.5890 -0.1536
   19CHL1    C4 1337   4.291   5.204   7.091  0.0240 -0.4169 -0.3243
   19CHL1   H4A 1338   4.304   5.312   7.113 -1.4893  0.6491 -4.0171
   19CHL1   H4B 1339   4.362   5.140   7.149 -0.9677 -2.0662 -0.8768
   19CHL1    C5 1340   4.302   5.195   6.942  0.6617 -0.0725  0.5256
   19CHL1    C6 1341   4.393   5.120   6.886 -0.8458  0.9006  0.4692
   19CHL1    H6 1342   4.458   5.053   6.944  1.3418  1.4086 -1.2335
   19CHL1    C7 1343   4.412   5.108   6.732  0.4995 -0.2803 -0.1334
   19CHL1   H7A 1344   4.515   5.122   6.691  0.7890 -0.1169  0.6312
   19CHL1   H7B 1345   4.378   5.006   6.704 -0.9843 -0.6882  2.7195
   19CHL1    C8 1346   4.333   5.216   6.653  0.2811  0.3395  0.7244
   19CHL1    H8 1347   4.393   5.309   6.657 -1.8806  1.7775  1.1598
   19CHL1   C14 1348   4.311   5.179   6.505 -0.4897  0.1417 -0.1002
   19CHL1   H14 1349   4.233   5.101   6.498 -2.6111  2.2845 -1.7997
   19CHL1   C15 1350   4.429   5.125   6.423  0.5527 -0.3723  0.3354
   19CHL1  H15A 1351   4.512   5.195   6.447 -0.8433  1.4056  0.1969
   19CHL1  H15B 1352   4.446   5.020   6.457 -0.3732 -1.8936 -3.4271
   19CHL1   C16 1353   4.388   5.151   6.278  0.6840 -0.2822 -0.0140
   19CHL1  H16A 1354   4.461   5.223   6.234 -0.1590  0.1815 -0.6654
   19CHL1  H16B 1355   4.381   5.059   6.216  1.6505  0.6076 -1.5331
   19CHL1   C17 1356   4.250   5.224   6.275  0.1069  0.8438  0.8671
   19CHL1   H17 1357   4.182   5.136   6.266 -3.2977  3.4219 -1.2751
   19CHL1   C13 1358   4.240   5.285   6.418  0.4631  0.0453 -0.2018
   19CHL1   C18 1359   4.330   5.412   6.416 -0.1314  1.0274  0.3742
   19CHL1  H18A 1360   4.433   5.389   6.380  0.2628 -1.2653  2.6782
   19CHL1  H18B 1361   4.288   5.500   6.363  0.5129  0.8458 -0.4723
   19CHL1  H18C 1362   4.346   5.445   6.521 -0.1350  1.4903  0.2305
   19CHL1   C12 1363   4.102   5.305   6.478 -0.3393 -0.4203 -0.1745
   19CHL1  H12A 1364   4.042   5.387   6.433 -0.6127  0.3756  1.5538
   19CHL1  H12B 1365   4.038   5.215   6.466  0.8206 -1.3876  0.7019
   19CHL1   C11 1366   4.114   5.351   6.632  0.3052  0.2413 -0.2172
   19CHL1  H11A 1367   4.166   5.449   6.632 -1.7303  1.3870  0.9040
   19CHL1  H11B 1368   4.015   5.370   6.678  0.5311 -2.3270  1.5112
   19CHL1    C9 1369   4.193   5.243   6.715 -0.2215  0.3692  0.2314
   19CHL1    H9 1370   4.142   5.145   6.707 -1.8846  1.1499  0.8754
   19CHL1   C10 1371   4.195   5.280   6.866 -0.0211  0.0818 -0.4229
   19CHL1   C19 1372   4.232   5.433   6.889 -0.4123  1.3812 -0.5082
   19CHL1  H19A 1373   4.235   5.475   6.991  0.5543 -0.1284  0.1205
   19CHL1  H19B 1374   4.333   5.455   6.849  0.6930 -1.0025  0.7638
   19CHL1  H19C 1375   4.174   5.509   6.832  1.1926  4.4197  1.6009
   19CHL1    C1 1376   4.053   5.250   6.920  0.0327  0.4304 -0.0358
   19CHL1   H1A 1377   3.982   5.328   6.887  1.0906  1.7384  0.7091
   19CHL1   H1B 1378   4.022   5.148   6.888  1.2504  0.5299 -1.6354
   19CHL1    C2 1379   4.036   5.252   7.070  0.0041  0.1829 -0.2415
   19CHL1   H2A 1380   3.932   5.221   7.095 -0.0021  1.9526  2.2263
   19CHL1   H2B 1381   4.043   5.359   7.096  1.0913  0.2030 -0.5576
   19CHL1   C20 1382   4.240   5.312   6.147  0.4303 -0.2053  0.0183
   19CHL1   H20 1383   4.316   5.392   6.162  0.5295 -0.5968  1.9593
   19CHL1   C21 1384   4.092   5.366   6.152  0.5763 -0.0124  0.0546
   19CHL1  H21A 1385   4.062   5.428   6.239  0.0973  0.7660 -0.6422
   19CHL1  H21B 1386   4.026   5.279   6.133 -0.6273  0.7139  0.8076
   19CHL1  H21C 1387   4.078   5.424   6.058  1.7349 -0.0566 -0.1559
   19CHL1   C22 1388   4.281   5.242   6.017  0.3576 -0.3102  0.0163
   19CHL1  H22A 1389   4.370   5.178   6.033  1.3376 -0.2854 -4.2650
   19CHL1  H22B 1390   4.193   5.183   5.983  0.3629 -1.4412  1.8217
   19CHL1   C23 1391   4.325   5.337   5.909  0.5331  0.2800  0.2119
   19CHL1  H23A 1392   4.267   5.432   5.915  0.0005 -0.1062  1.3702
   19CHL1  H23B 1393   4.433   5.361   5.913  0.7617 -0.8569  1.0215
   19CHL1   C24 1394   4.294   5.278   5.771  0.6064 -0.3795 -0.2771
   19CHL1  H24A 1395   4.358   5.192   5.742  0.7490 -0.5050  0.3813
   19CHL1  H24B 1396   4.188   5.252   5.750 -0.3076  3.7642 -1.8351
   19CHL1   C25 1397   4.314   5.391   5.667 -0.0402 -0.4730  0.0731
   19CHL1   H25 1398   4.409   5.444   5.691  0.6937 -1.9168  0.4530
   19CHL1   C26 1399   4.344   5.334   5.528 -1.5357 -1.0099 -0.3121
   19CHL1  H26A 1400   4.360   5.414   5.452  3.3876 -0.8719  0.5478
   19CHL1  H26B 1401   4.439   5.276   5.532 -1.7070 -1.2392  0.7154
   19CHL1  H26C 1402   4.261   5.266   5.499 -0.0226 -3.5949  1.1504
   19CHL1   C27 1403   4.201   5.492   5.657  0.7519 -0.1857  0.3375
   19CHL1  H27A 1404   4.205   5.553   5.750 -1.9633  0.6138  0.0314
   19CHL1  H27B 1405   4.222   5.562   5.574 -1.9377  0.4104  0.0689
   19CHL1  H27C 1406   4.100   5.446   5.642  0.4278  0.6763 -0.1873
   20CHL1    C3 1407   3.214   5.319   6.866 -0.2150  0.1657 -0.2095
   20CHL1    H3 1408   3.292   5.243   6.844  0.2242  1.2364 -2.7279
   20CHL1    O3 1409   3.177   5.321   7.003 -0.3807 -0.4347 -0.2159
   20CHL1   H3' 1410   3.125   5.245   7.031 -1.4768  0.6388  0.8118
   20CHL1    C4 1411   3.259   5.451   6.812  0.1075  0.2411  0.1501
   20CHL1   H4A 1412   3.171   5.518   6.819  0.2909  0.4856  0.1204
   20CHL1   H4B 1413   3.345   5.495   6.866  0.2598  0.7527 -0.4945
   20CHL1    C5 1414   3.294   5.441   6.667  0.0758 -0.5462 -0.3965
   20CHL1    C6 1415   3.412   5.475   6.615 -0.3062 -0.5362 -0.4015
   20CHL1    H6 1416   3.493   5.507   6.682 -1.8249  0.7581  0.8940
   20CHL1    C7 1417   3.446   5.478   6.471 -0.6055 -0.2083  0.1896
   20CHL1   H7A 1418   3.486   5.576   6.435 -1.2939 -0.0927 -0.2756
   20CHL1   H7B 1419   3.527   5.406   6.448  0.5853  0.7889  1.1207
   20CHL1    C8 1420   3.326   5.438   6.376  0.2450  0.0212 -0.2196
   20CHL1    H8 1421   3.267   5.530   6.354  2.0331  1.4402  0.6756
   20CHL1   C14 1422   3.373   5.390   6.241  0.0315 -0.1008  0.2998
   20CHL1   H14 1423   3.437   5.301   6.255  4.9907  3.1324  0.7528
   20CHL1   C15 1424   3.474   5.480   6.154  0.0089 -0.0843  0.1191
   20CHL1  H15A 1425   3.438   5.584   6.167 -3.2802 -1.0777 -0.1069
   20CHL1  H15B 1426   3.578   5.467   6.189  1.3883 -0.8910 -3.7761
   20CHL1   C16 1427   3.443   5.443   6.008 -0.2370  0.1012  0.0064
   20CHL1  H16A 1428   3.395   5.528   5.955 -2.3246 -1.6846 -1.1454
   20CHL1  H16B 1429   3.535   5.418   5.950  0.9000 -2.6180  2.7154
   20CHL1   C17 1430   3.341   5.326   6.018  0.3023 -0.6657 -0.1915
   20CHL1   H17 1431   3.402   5.234   6.025 -0.0875 -0.9180 -0.0423
   20CHL1   C13 1432   3.258   5.351   6.143 -0.5703 -1.0073  0.5265
   20CHL1   C18 1433   3.161   5.477   6.112  0.2346  0.0130  0.0308
   20CHL1  H18A 1434   3.119   5.528   6.201  0.0901  0.7306 -0.4455
   20CHL1  H18B 1435   3.229   5.552   6.067  1.9478 -2.4848 -1.8521
   20CHL1  H18C 1436   3.080   5.459   6.038  0.7158  2.4471 -1.1798
   20CHL1   C12 1437   3.176   5.245   6.205  0.1842 -0.7500  0.3025
   20CHL1  H12A 1438   3.097   5.224   6.130  2.2935  0.1830 -2.3081
   20CHL1  H12B 1439   3.244   5.157   6.213  1.3318  0.2418  2.3735
   20CHL1   C11 1440   3.122   5.274   6.344 -0.4608  0.1667  0.2133
   20CHL1  H11A 1441   3.046   5.352   6.327 -0.3414 -0.0214 -1.2954
   20CHL1  H11B 1442   3.070   5.186   6.389 -2.4174  1.0462 -0.2371
   20CHL1    C9 1443   3.242   5.327   6.439  0.6120 -1.2178 -0.3142
   20CHL1    H9 1444   3.312   5.243   6.459 -0.4721 -1.8001  1.1516
   20CHL1   C10 1445   3.190   5.370   6.585  0.9141  0.7587 -0.0551
   20CHL1   C19 1446   3.075   5.476   6.549 -0.6501 -0.9755 -0.1920
   20CHL1  H19A 1447   3.024   5.509   6.642 -0.7122 -0.7632 -0.2994
   20CHL1  H19B 1448   3.108   5.559   6.483  1.1530 -1.7242 -0.2662
   20CHL1  H19C 1449   2.986   5.426   6.505 -1.0038  0.3923 -1.1051
   20CHL1    C1 1450   3.138   5.242   6.649  0.1213  0.8410  0.2049
   20CHL1   H1A 1451   3.059   5.194   6.587  1.8795 -0.7865 -0.9323
   20CHL1   H1B 1452   3.217   5.164   6.659  0.2035  0.4545 -2.5807
   20CHL1    C2 1453   3.090   5.267   6.789 -0.8181 -0.7783  0.3086
   20CHL1   H2A 1454   3.058   5.173   6.839 -2.0655  0.3886  1.8282
   20CHL1   H2B 1455   3.008   5.342   6.795  0.2960  0.6505 -1.4780
   20CHL1   C20 1456   3.270   5.298   5.879  0.0175 -0.5908 -0.5487
   20CHL1   H20 1457   3.170   5.347   5.883  0.0525 -0.5939  0.6345
   20CHL1   C21 1458   3.244   5.144   5.879  0.1200 -0.1147  0.2765
   20CHL1  H21A 1459   3.343   5.096   5.865 -0.4643 -0.5669 -3.2614
   20CHL1  H21B 1460   3.175   5.120   5.796  0.5506 -0.0021 -0.1189
   20CHL1  H21C 1461   3.215   5.102   5.977  3.7718  0.5802  1.8273
   20CHL1   C22 1462   3.350   5.337   5.752  0.2710  0.3954 -0.2924
   20CHL1  H22A 1463   3.369   5.447   5.754 -1.8649  0.7933  0.5667
   20CHL1  H22B 1464   3.444   5.278   5.763 -0.4689 -0.7735 -0.1844
   20CHL1   C23 1465   3.271   5.305   5.619  0.0370 -0.4368 -0.2003
   20CHL1  H23A 1466   3.256   5.199   5.591  0.7857 -0.3742 -0.8924
   20CHL1  H23B 1467   3.163   5.331   5.627 -0.5215 -2.3529 -0.9365
   20CHL1   C24 1468   3.333   5.384   5.502 -0.9200 -0.0852  0.4609
   20CHL1  H24A 1469   3.337   5.493   5.524 -1.6043  0.1607 -0.5622
   20CHL1  H24B 1470   3.434   5.337   5.499 -1.3390 -1.0742  1.4047
   20CHL1   C25 1471   3.253   5.371   5.376  0.3216 -0.9976  0.3176
   20CHL1   H25 1472   3.147   5.400   5.398 -0.2089 -0.0354 -2.9845
   20CHL1   C26 1473   3.291   5.479   5.269 -0.0228 -0.2837 -0.1721
   20CHL1  H26A 1474   3.398   5.473   5.240  0.4404  2.5466  0.5623
   20CHL1  H26B 1475   3.231   5.468   5.176  0.3284  1.7193 -0.6981
   20CHL1  H26C 1476   3.285   5.580   5.316 -2.8398  0.4194 -1.7706
   20CHL1   C27 1477   3.271   5.227   5.320 -0.4179  0.0983 -0.3864
   20CHL1  H27A 1478   3.218   5.151   5.381 -2.1077  0.5963 -1.1797
   20CHL1  H27B 1479   3.218   5.228   5.222 -3.1429 -1.8659  0.9695
   20CHL1  H27C 1480   3.381   5.212   5.308 -0.0232  2.4139 -0.2570
   21CHL1    C3 1481   2.516   6.127   6.655  0.2833  0.0759 -0.0813
   21CHL1    H3 1482   2.592   6.049   6.637 -0.5583 -1.1749  1.4690
   21CHL1    O3 1483   2.471   6.128   6.792 -0.2744 -0.4937 -0.1638
   21CHL1   H3' 1484   2.545   6.104   6.848  1.0071 -1.6353 -2.2314
   21CHL1    C4 1485   2.569   6.271   6.621 -0.3685 -0.1303 -0.9047
   21CHL1   H4A 1486   2.490   6.339   6.660  0.7923 -0.3721  2.1854
   21CHL1   H4B 1487   2.653   6.290   6.692 -2.1117  2.6176  0.6143
   21CHL1    C5 1488   2.604   6.297   6.477  0.0882  0.5848  0.1595
   21CHL1    C6 1489   2.731   6.327   6.439  0.1147  0.7340 -0.6110
   21CHL1    H6 1490   2.804   6.347   6.519 -0.7667  2.0743 -0.0827
   21CHL1    C7 1491   2.758   6.361   6.298  0.7769  0.2385  0.4244
   21CHL1   H7A 1492   2.821   6.452   6.287  1.4498 -0.2949 -0.2638
   21CHL1   H7B 1493   2.807   6.268   6.260 -3.1352 -1.5688 -0.7962
   21CHL1    C8 1494   2.632   6.383   6.209  0.4925 -0.0427 -0.0563
   21CHL1    H8 1495   2.587   6.480   6.239  0.6583 -0.0483  0.2096
   21CHL1   C14 1496   2.676   6.374   6.062  0.2647  0.1776 -0.0163
   21CHL1   H14 1497   2.708   6.268   6.056 -1.2517 -0.2261 -2.2360
   21CHL1   C15 1498   2.791   6.458   5.999 -0.1695 -0.3438  0.1313
   21CHL1  H15A 1499   2.776   6.561   6.037  0.9252 -0.2645  0.3773
   21CHL1  H15B 1500   2.883   6.417   6.045 -0.8693 -0.4928  1.4299
   21CHL1   C16 1501   2.779   6.448   5.849 -0.7597 -0.4495 -0.0838
   21CHL1  H16A 1502   2.760   6.553   5.817 -1.0625  0.2597  2.2782
   21CHL1  H16B 1503   2.865   6.397   5.800  1.2870  1.3083  1.4692
   21CHL1   C17 1504   2.643   6.376   5.823 -0.1635  0.4331 -0.3586
   21CHL1   H17 1505   2.663   6.268   5.807  2.7433  0.3191  2.9089
   21CHL1   C13 1506   2.564   6.387   5.957  0.6464 -0.0184 -0.5510
   21CHL1   C18 1507   2.497   6.525   5.967  0.0111 -0.7446 -0.2960
   21CHL1  H18A 1508   2.491   6.550   6.076  2.2926  1.1770 -0.5147
   21CHL1  H18B 1509   2.572   6.595   5.924  2.1321 -1.4700  1.9848
   21CHL1  H18C 1510   2.393   6.545   5.935  0.0205  1.8079  1.0062
   21CHL1   C12 1511   2.458   6.270   5.977 -0.4872  0.2556 -0.1535
   21CHL1  H12A 1512   2.369   6.265   5.910  0.5697 -2.5734 -1.5064
   21CHL1  H12B 1513   2.515   6.176   5.962 -0.0895  0.2956  0.9970
   21CHL1   C11 1514   2.407   6.281   6.128  0.4435 -0.5603  0.0531
   21CHL1  H11A 1515   2.352   6.377   6.137 -1.1902 -1.4222 -0.1971
   21CHL1  H11B 1516   2.342   6.191   6.139  1.2790 -1.0717  1.0205
   21CHL1    C9 1517   2.523   6.274   6.232  0.1570  0.3230 -0.0576
   21CHL1    H9 1518   2.579   6.180   6.212  1.9316  1.6484 -1.6025
   21CHL1   C10 1519   2.486   6.262   6.386 -0.1490  0.1194 -0.2576
   21CHL1   C19 1520   2.385   6.377   6.412  0.6555 -0.2862  0.1972
   21CHL1  H19A 1521   2.287   6.360   6.364  0.6004 -1.2780  0.6416
   21CHL1  H19B 1522   2.370   6.395   6.521  2.3493  1.4680  0.1938
   21CHL1  H19C 1523   2.425   6.479   6.391  0.0499  0.5240  2.5537
   21CHL1    C1 1524   2.432   6.125   6.416  1.0533 -0.0990 -1.0892
   21CHL1   H1A 1525   2.339   6.101   6.360  0.1773 -0.4618  0.4401
   21CHL1   H1B 1526   2.503   6.049   6.378  0.1166 -1.6707  0.1549
   21CHL1    C2 1527   2.395   6.108   6.567  0.7289  0.1791 -0.6558
   21CHL1   H2A 1528   2.343   6.014   6.592 -2.1063  2.2713  2.1089
   21CHL1   H2B 1529   2.323   6.185   6.602  0.2809 -1.0644  1.2536
   21CHL1   C20 1530   2.584   6.429   5.691  0.4167  0.1495  0.8617
   21CHL1   H20 1531   2.584   6.540   5.691  0.8324  0.1592 -0.1472
   21CHL1   C21 1532   2.444   6.371   5.669 -0.1271  0.0160 -0.9054
   21CHL1  H21A 1533   2.397   6.407   5.575 -1.8604 -0.4962 -0.2615
   21CHL1  H21B 1534   2.377   6.394   5.755  1.7964 -0.2786  0.7664
   21CHL1  H21C 1535   2.456   6.261   5.668  0.6134  0.0521  0.6656
   21CHL1   C22 1536   2.666   6.400   5.562  0.3275 -0.4348  0.1702
   21CHL1  H22A 1537   2.773   6.403   5.591  0.2965  1.2247  0.2167
   21CHL1  H22B 1538   2.660   6.292   5.539  1.8414 -0.3608 -0.7184
   21CHL1   C23 1539   2.637   6.495   5.446  1.4167  0.0778 -0.7692
   21CHL1  H23A 1540   2.536   6.474   5.403  2.2004 -0.0540 -2.6502
   21CHL1  H23B 1541   2.645   6.596   5.492 -3.4803  1.0027 -1.3743
   21CHL1   C24 1542   2.744   6.490   5.327 -0.5977  0.1730 -1.1897
   21CHL1  H24A 1543   2.763   6.382   5.309  3.1642  0.4465  0.1549
   21CHL1  H24B 1544   2.704   6.548   5.241 -1.1965  1.0013 -0.3725
   21CHL1   C25 1545   2.888   6.548   5.362  0.2505  0.0633 -0.2250
   21CHL1   H25 1546   2.934   6.479   5.436 -2.4546 -0.1819  1.4081
   21CHL1   C26 1547   2.980   6.535   5.244  0.3521  0.1831 -0.1717
   21CHL1  H26A 1548   2.944   6.613   5.173 -0.0174  2.5694  2.4518
   21CHL1  H26B 1549   3.088   6.553   5.263  0.4742 -0.1813 -0.4984
   21CHL1  H26C 1550   2.966   6.432   5.203 -2.0864  0.7591 -1.0133
   21CHL1   C27 1551   2.884   6.691   5.417 -0.0717  0.1673  0.5110
   21CHL1  H27A 1552   2.824   6.752   5.346 -0.0497  1.7168  1.7838
   21CHL1  H27B 1553   2.837   6.695   5.517  1.0434 -0.5386  1.0880
   21CHL1  H27C 1554   2.986   6.736   5.423 -0.0299  0.2308 -0.4387
   22CHL1    C3 1555   4.424   2.791   7.034 -0.0937 -0.5657  0.2004
   22CHL1    H3 1556   4.456   2.897   7.027  2.1808 -1.2764 -1.5040
   22CHL1    O3 1557   4.456   2.731   7.159 -0.1914 -0.5701 -0.1590
   22CHL1   H3' 1558   4.419   2.790   7.225 -1.7322 -0.4149 -1.1216
   22CHL1    C4 1559   4.278   2.780   7.009 -0.2411 -0.1191  0.3312
   22CHL1   H4A 1560   4.260   2.673   7.032 -0.8769  0.4905  3.0125
   22CHL1   H4B 1561   4.234   2.847   7.085  0.7041  0.2570  0.5660
   22CHL1    C5 1562   4.243   2.803   6.863 -0.2760 -0.1697  0.8679
   22CHL1    C6 1563   4.149   2.896   6.823 -0.1912 -0.3840  0.8804
   22CHL1    H6 1564   4.109   2.961   6.903  2.6613  1.2369  1.1191
   22CHL1    C7 1565   4.112   2.929   6.680 -0.5305  0.3835  0.1751
   22CHL1   H7A 1566   4.005   2.957   6.684  0.1140  3.0673  0.3274
   22CHL1   H7B 1567   4.165   3.025   6.664  1.0085 -0.3239  0.8061
   22CHL1    C8 1568   4.160   2.813   6.589  0.5093 -0.1013 -0.2770
   22CHL1    H8 1569   4.088   2.730   6.607  0.5843 -0.2380 -0.6005
   22CHL1   C14 1570   4.145   2.861   6.449 -0.1563 -0.6146 -0.3192
   22CHL1   H14 1571   4.223   2.938   6.436  1.6914 -2.0723  1.5563
   22CHL1   C15 1572   4.012   2.924   6.402 -0.9429 -0.4451 -0.0541
   22CHL1  H15A 1573   3.922   2.882   6.451 -1.9339 -0.8937 -2.1429
   22CHL1  H15B 1574   4.021   3.032   6.429 -1.3638 -0.3506 -0.2870
   22CHL1   C16 1575   4.018   2.908   6.251 -0.1571  0.7415 -0.3586
   22CHL1  H16A 1576   3.941   2.849   6.199 -0.4197  1.0304 -0.2986
   22CHL1  H16B 1577   4.011   3.008   6.203  3.2323  0.4522 -1.7248
   22CHL1   C17 1578   4.155   2.836   6.211  0.4691 -0.4546  0.4173
   22CHL1   H17 1579   4.226   2.920   6.199 -1.2296  1.3577  2.2185
   22CHL1   C13 1580   4.195   2.758   6.341 -0.4450  0.1239  0.5998
   22CHL1   C18 1581   4.101   2.630   6.355 -0.2799  0.1776 -0.4890
   22CHL1  H18A 1582   4.124   2.561   6.271 -0.8157 -0.8927  0.2129
   22CHL1  H18B 1583   4.119   2.585   6.455  0.7708  2.0831  0.2362
   22CHL1  H18C 1584   3.997   2.663   6.334 -0.2765  0.2883 -0.3276
   22CHL1   C12 1585   4.343   2.731   6.361 -0.1258 -0.0140 -0.1288
   22CHL1  H12A 1586   4.386   2.650   6.298  0.1633 -0.7473  0.9853
   22CHL1  H12B 1587   4.397   2.826   6.341 -0.0756  0.4086  1.7954
   22CHL1   C11 1588   4.389   2.703   6.509  0.0057 -0.6006  0.0111
   22CHL1  H11A 1589   4.358   2.597   6.522 -0.0537 -0.3171  2.5775
   22CHL1  H11B 1590   4.499   2.696   6.522 -0.1799 -1.5579  1.2440
   22CHL1    C9 1591   4.309   2.787   6.612 -0.3518 -0.1531  0.1362
   22CHL1    H9 1592   4.363   2.884   6.609  0.2457 -0.4778 -2.8079
   22CHL1   C10 1593   4.321   2.729   6.754 -0.4974  0.4025  0.2353
   22CHL1   C19 1594   4.275   2.581   6.755  0.3546  0.0392  0.3076
   22CHL1  H19A 1595   4.173   2.569   6.712  0.8571 -2.4247 -0.3832
   22CHL1  H19B 1596   4.355   2.517   6.712  1.9622  0.0977  3.0234
   22CHL1  H19C 1597   4.268   2.534   6.855 -1.2835  1.2766  0.8256
   22CHL1    C1 1598   4.473   2.730   6.788 -0.2137 -0.1334 -0.0073
   22CHL1   H1A 1599   4.524   2.648   6.733  0.6154  0.5248 -0.2372
   22CHL1   H1B 1600   4.524   2.823   6.754  0.2887  0.2723  1.7142
   22CHL1    C2 1601   4.505   2.714   6.935  0.2627  0.5748 -0.4462
   22CHL1   H2A 1602   4.613   2.742   6.941  0.6563 -1.0880  1.5978
   22CHL1   H2B 1603   4.506   2.605   6.958  1.0545  0.4025 -1.2588
   22CHL1   C20 1604   4.161   2.765   6.074 -0.2141  0.2601  0.1697
   22CHL1   H20 1605   4.152   2.657   6.096  3.1377 -0.0533  0.5127
   22CHL1   C21 1606   4.305   2.785   6.023 -0.6482  0.1128 -0.2064
   22CHL1  H21A 1607   4.328   2.892   6.004  0.1279 -0.2106 -1.1933
   22CHL1  H21B 1608   4.334   2.721   5.937  1.2965  0.4425  0.1427
   22CHL1  H21C 1609   4.368   2.746   6.106 -0.5384 -1.7128 -1.0836
   22CHL1   C22 1610   4.059   2.818   5.967 -0.5561  0.2993 -0.4535
   22CHL1  H22A 1611   3.958   2.785   6.000 -0.3209  2.3618  2.7368
   22CHL1  H22B 1612   4.070   2.929   5.968  2.4755  0.0950  1.5484
   22CHL1   C23 1613   4.069   2.766   5.827 -0.4430  0.0940  0.7456
   22CHL1  H23A 1614   4.165   2.800   5.783 -0.3398 -0.0391  0.8666
   22CHL1  H23B 1615   4.066   2.655   5.832 -4.5826  0.0986  3.0109
   22CHL1   C24 1616   3.957   2.818   5.741  0.2889  0.5727 -0.2431
   22CHL1  H24A 1617   3.867   2.772   5.786  1.6783 -0.1391  1.9299
   22CHL1  H24B 1618   3.946   2.928   5.751 -1.0159  0.4839 -0.4613
   22CHL1   C25 1619   3.972   2.779   5.589  0.6322  0.0933  0.9040
   22CHL1   H25 1620   3.974   2.669   5.577  1.1328  0.1251  0.6547
   22CHL1   C26 1621   3.847   2.836   5.523 -0.3845 -0.1005  0.2163
   22CHL1  H26A 1622   3.761   2.805   5.587 -2.1102 -0.1161 -2.0035
   22CHL1  H26B 1623   3.854   2.947   5.528 -0.3503 -0.1056  0.2853
   22CHL1  H26C 1624   3.838   2.797   5.420 -2.2864 -0.5173  0.4865
   22CHL1   C27 1625   4.097   2.836   5.527 -0.3713 -0.0265 -0.0200
   22CHL1  H27A 1626   4.107   2.944   5.553 -1.5224 -0.1379  0.9670
   22CHL1  H27B 1627   4.186   2.790   5.576  0.8545  0.8497 -1.3437
   22CHL1  H27C 1628   4.104   2.803   5.421 -0.0571 -1.4564  0.4227
   23CHL1    C3 1629   1.961   6.432   6.467  0.1557 -0.3904  0.4166
   23CHL1    H3 1630   2.068   6.451   6.494  0.2065  0.1264 -0.1483
   23CHL1    O3 1631   1.888   6.395   6.582 -0.0509  0.2290 -0.1882
   23CHL1   H3' 1632   1.811   6.352   6.545  0.4934  0.1749 -1.2939
   23CHL1    C4 1633   1.898   6.562   6.411  0.6235 -0.1191 -0.1753
   23CHL1   H4A 1634   1.788   6.547   6.409  0.4957  0.0002  2.7255
   23CHL1   H4B 1635   1.899   6.647   6.483 -0.0511 -0.8319  0.6821
   23CHL1    C5 1636   1.950   6.605   6.274  0.0333  0.0294 -0.2374
   23CHL1    C6 1637   1.989   6.732   6.242 -0.4297  0.5611  0.2734
   23CHL1    H6 1638   1.982   6.820   6.307  0.8122  0.6774  0.2704
   23CHL1    C7 1639   2.047   6.759   6.101  0.5499  0.2416 -0.1078
   23CHL1   H7A 1640   2.028   6.863   6.067 -0.6044  0.0085 -0.2081
   23CHL1   H7B 1641   2.157   6.742   6.096  0.4465 -0.0783 -2.5505
   23CHL1    C8 1642   1.993   6.674   5.984 -0.1497 -0.1884  0.1490
   23CHL1    H8 1643   1.888   6.701   5.964 -0.4057 -2.4655 -2.0720
   23CHL1   C14 1644   2.086   6.700   5.853  1.3088  0.3129 -0.0231
   23CHL1   H14 1645   2.188   6.668   5.881  1.3034  3.0328  3.9342
   23CHL1   C15 1646   2.104   6.839   5.803 -0.8552  0.0360  0.1306
   23CHL1  H15A 1647   2.007   6.892   5.809 -0.4154  1.2639 -2.1845
   23CHL1  H15B 1648   2.177   6.894   5.867  0.9327 -4.2794  2.2105
   23CHL1   C16 1649   2.150   6.814   5.664  0.0386  0.1020  0.1977
   23CHL1  H16A 1650   2.081   6.873   5.600 -1.9776 -1.2712  1.0126
   23CHL1  H16B 1651   2.256   6.844   5.651  0.2578  0.4259  2.3257
   23CHL1   C17 1652   2.140   6.660   5.630 -0.0105  0.1667  0.5111
   23CHL1   H17 1653   2.239   6.626   5.664  0.5697  1.2720 -0.0184
   23CHL1   C13 1654   2.041   6.615   5.734 -0.2596  0.8120 -0.2234
   23CHL1   C18 1655   1.902   6.657   5.691 -0.2391  0.5478  0.2148
   23CHL1  H18A 1656   1.853   6.578   5.629  1.4032  0.7116 -1.3702
   23CHL1  H18B 1657   1.826   6.681   5.769 -3.6691  2.4534 -3.3370
   23CHL1  H18C 1658   1.898   6.734   5.611 -2.2572 -1.8621 -2.2057
   23CHL1   C12 1659   2.055   6.460   5.784 -0.1103 -0.2792  0.4576
   23CHL1  H12A 1660   2.018   6.415   5.689 -0.3171  0.8048  0.0120
   23CHL1  H12B 1661   2.163   6.443   5.805  0.1433  1.1585  0.4212
   23CHL1   C11 1662   1.966   6.433   5.907  0.5300  0.1132  0.4438
   23CHL1  H11A 1663   1.859   6.445   5.879  0.5367 -0.4151  0.1943
   23CHL1  H11B 1664   1.984   6.326   5.930  2.6019  0.2245 -0.4686
   23CHL1    C9 1665   2.007   6.529   6.017  0.8193 -0.0118  0.0905
   23CHL1    H9 1666   2.118   6.517   6.023  1.1063  0.3805 -2.7599
   23CHL1   C10 1667   1.950   6.494   6.162  0.5523 -0.2211  0.3984
   23CHL1   C19 1668   1.801   6.476   6.135 -0.2343 -0.1259 -0.7886
   23CHL1  H19A 1669   1.784   6.389   6.069  0.9971 -0.6880 -0.3890
   23CHL1  H19B 1670   1.742   6.474   6.230 -0.5298  1.6367 -0.9055
   23CHL1  H19C 1671   1.767   6.569   6.083  0.4446  0.4404 -0.2396
   23CHL1    C1 1672   2.024   6.362   6.220  0.0170  0.1625  0.0963
   23CHL1   H1A 1673   2.006   6.281   6.146 -0.3229  1.4423 -1.2678
   23CHL1   H1B 1674   2.134   6.376   6.222 -0.1195  1.3342 -0.0979
   23CHL1    C2 1675   1.962   6.322   6.358 -0.7235  1.0075 -0.4068
   23CHL1   H2A 1676   2.031   6.241   6.389 -1.6371  0.5732  0.5640
   23CHL1   H2B 1677   1.860   6.281   6.337  0.2011 -0.5717 -2.1428
   23CHL1   C20 1678   2.122   6.624   5.481  0.0391  0.6649 -0.4630
   23CHL1   H20 1679   2.030   6.675   5.446 -1.6986 -1.1998  1.0844
   23CHL1   C21 1680   2.083   6.473   5.464 -0.2736  0.2836  0.0708
   23CHL1  H21A 1681   1.978   6.450   5.492  0.5202 -1.0084  2.2470
   23CHL1  H21B 1682   2.152   6.407   5.519 -0.4474  0.0322 -0.0124
   23CHL1  H21C 1683   2.076   6.440   5.358 -1.5575  3.0988 -0.8436
   23CHL1   C22 1684   2.243   6.656   5.390 -0.6363 -0.1231 -0.0723
   23CHL1  H22A 1685   2.285   6.754   5.419 -1.9242  0.3379  0.3176
   23CHL1  H22B 1686   2.322   6.583   5.417  0.8708  0.9788 -1.3577
   23CHL1   C23 1687   2.212   6.646   5.237  0.0161  0.4954 -0.2042
   23CHL1  H23A 1688   2.156   6.556   5.207 -0.2924  0.3835  0.6811
   23CHL1  H23B 1689   2.137   6.725   5.218  0.0914  0.3885 -0.9693
   23CHL1   C24 1690   2.338   6.671   5.148 -0.7617 -0.5975  0.9858
   23CHL1  H24A 1691   2.390   6.767   5.171  0.3458 -0.7751 -0.6078
   23CHL1  H24B 1692   2.408   6.587   5.168 -0.0587  0.0726  1.4062
   23CHL1   C25 1693   2.306   6.674   4.989 -0.1712  0.8480 -0.1013
   23CHL1   H25 1694   2.246   6.583   4.972  1.2748  0.0816 -1.4176
   23CHL1   C26 1695   2.226   6.800   4.960  0.2617  0.1085 -0.0433
   23CHL1  H26A 1696   2.205   6.813   4.852  0.9567 -1.1655 -0.3505
   23CHL1  H26B 1697   2.127   6.793   5.010  1.3717  0.8030  2.3974
   23CHL1  H26C 1698   2.271   6.896   4.994 -1.2905  1.1011 -0.6716
   23CHL1   C27 1699   2.437   6.673   4.907 -0.2464  0.0075  0.2806
   23CHL1  H27A 1700   2.505   6.588   4.930  0.5836  0.6408  0.2340
   23CHL1  H27B 1701   2.407   6.667   4.800 -0.4031 -1.5781  0.3880
   23CHL1  H27C 1702   2.495   6.766   4.924 -0.3898  0.2582 -0.5609
   24CHL1    C3 1703   3.781   4.125   6.848 -0.4512 -0.6951 -0.4764
   24CHL1    H3 1704   3.724   4.211   6.807  1.2930 -0.5075 -2.6959
   24CHL1    O3 1705   3.756   4.099   6.985  0.9799  0.4473  0.4082
   24CHL1   H3' 1706   3.800   4.015   7.000  0.2429  0.3658  2.3942
   24CHL1    C4 1707   3.745   4.001   6.769 -0.1033 -0.0890  0.3926
   24CHL1   H4A 1708   3.806   3.917   6.807  1.3150  0.5854 -0.3443
   24CHL1   H4B 1709   3.637   3.973   6.776 -0.3409  0.8689  0.6978
   24CHL1    C5 1710   3.788   4.008   6.623  0.4167  1.0334  0.1088
   24CHL1    C6 1711   3.699   3.977   6.524 -0.3469 -0.8621 -0.5163
   24CHL1    H6 1712   3.598   3.956   6.561 -1.0104  2.5948 -0.0757
   24CHL1    C7 1713   3.727   3.978   6.379 -0.0072  0.3467  0.4377
   24CHL1   H7A 1714   3.688   3.889   6.324 -0.0132 -0.3526  1.5323
   24CHL1   H7B 1715   3.685   4.073   6.340  1.2314 -0.3544 -2.9120
   24CHL1    C8 1716   3.880   3.999   6.353  0.3240  0.8322  0.3555
   24CHL1    H8 1717   3.925   3.898   6.358 -0.2580  0.5087 -0.5408
   24CHL1   C14 1718   3.891   4.058   6.214 -0.1891 -0.0204  0.4657
   24CHL1   H14 1719   3.850   4.161   6.218 -0.1752  0.0414 -0.5727
   24CHL1   C15 1720   3.824   3.993   6.098 -0.0536 -0.0925 -1.2909
   24CHL1  H15A 1721   3.833   3.883   6.105 -1.3831 -0.1636 -0.3676
   24CHL1  H15B 1722   3.716   4.018   6.092  0.1989  1.5796  0.2157
   24CHL1   C16 1723   3.894   4.046   5.983  0.0106 -0.3629 -0.2462
   24CHL1  H16A 1724   3.923   3.959   5.920  2.0933 -1.8426  2.5261
   24CHL1  H16B 1725   3.836   4.114   5.917  0.2760  1.1820  1.0723
   24CHL1   C17 1726   4.013   4.128   6.032 -0.2056 -0.2421 -0.0843
   24CHL1   H17 1727   3.970   4.230   6.042 -1.1095 -0.6605  0.4533
   24CHL1   C13 1728   4.041   4.081   6.174 -0.5951 -0.1195  0.2434
   24CHL1   C18 1729   4.122   3.948   6.165 -0.4269 -0.3129 -0.1331
   24CHL1  H18A 1730   4.118   3.903   6.266  1.7653  1.2071  0.6981
   24CHL1  H18B 1731   4.060   3.887   6.095 -1.1203 -0.5520  0.6756
   24CHL1  H18C 1732   4.228   3.950   6.132  0.3259 -1.0063  2.0940
   24CHL1   C12 1733   4.101   4.181   6.278 -0.1049 -0.0099  0.4038
   24CHL1  H12A 1734   4.205   4.212   6.254  0.3258 -0.5412  1.5009
   24CHL1  H12B 1735   4.033   4.269   6.279 -0.7271 -0.4773  0.1114
   24CHL1   C11 1736   4.097   4.134   6.420 -0.3618  0.5910  0.5784
   24CHL1  H11A 1737   4.166   4.047   6.425 -1.1110 -0.3085 -2.4142
   24CHL1  H11B 1738   4.135   4.217   6.482  1.8466  0.2779 -0.2811
   24CHL1    C9 1739   3.952   4.091   6.454 -0.4557  0.1079  0.8262
   24CHL1    H9 1740   3.897   4.186   6.444  3.8473  2.7188 -0.3191
   24CHL1   C10 1741   3.930   4.056   6.601  0.1705  0.6450  0.4303
   24CHL1   C19 1742   4.036   3.949   6.637 -0.4007  0.5823  0.7372
   24CHL1  H19A 1743   3.990   3.869   6.700  4.5062 -2.1801  1.2740
   24CHL1  H19B 1744   4.076   3.888   6.553  1.4075 -1.2555  2.8051
   24CHL1  H19C 1745   4.120   3.989   6.696 -0.3326 -0.9027  1.6812
   24CHL1    C1 1746   3.956   4.179   6.690  0.4318  0.3575  0.6831
   24CHL1   H1A 1747   4.065   4.201   6.690  0.5947 -0.4073 -0.2925
   24CHL1   H1B 1748   3.904   4.270   6.653  0.0999 -0.2570 -0.3915
   24CHL1    C2 1749   3.926   4.146   6.835 -0.5354 -0.7238  0.3506
   24CHL1   H2A 1750   3.965   4.229   6.896  1.4256  0.5975 -2.4748
   24CHL1   H2B 1751   3.991   4.064   6.873 -0.6446  0.0395  2.2863
   24CHL1   C20 1752   4.132   4.140   5.933  0.0818 -0.0768  0.0288
   24CHL1   H20 1753   4.198   4.052   5.947  0.0321  0.1288  1.7950
   24CHL1   C21 1754   4.211   4.269   5.968  0.0374  0.3467 -0.5918
   24CHL1  H21A 1755   4.271   4.260   6.061  1.8159 -0.1388 -1.7342
   24CHL1  H21B 1756   4.138   4.352   5.976  0.9773  1.2810 -1.3886
   24CHL1  H21C 1757   4.277   4.300   5.884  1.4903 -2.4570 -0.5962
   24CHL1   C22 1758   4.081   4.144   5.789 -0.6406  0.0732 -0.4971
   24CHL1  H22A 1759   4.013   4.062   5.758  1.2804 -2.6591  1.9287
   24CHL1  H22B 1760   4.036   4.244   5.770 -3.0384 -0.9651 -0.5414
   24CHL1   C23 1761   4.197   4.130   5.686  0.3052  0.0585 -0.1055
   24CHL1  H23A 1762   4.258   4.220   5.709  0.2177 -0.4131  2.1743
   24CHL1  H23B 1763   4.261   4.050   5.728  0.2297  0.9055  1.6921
   24CHL1   C24 1764   4.161   4.109   5.539 -0.3725 -0.1979  0.7271
   24CHL1  H24A 1765   4.088   4.027   5.524 -2.1481  1.5777 -0.8305
   24CHL1  H24B 1766   4.118   4.209   5.514  0.8867  0.1934  0.0514
   24CHL1   C25 1767   4.274   4.088   5.431  0.6963  0.6255 -0.1363
   24CHL1   H25 1768   4.323   4.185   5.409  0.0162  0.5875 -1.9862
   24CHL1   C26 1769   4.374   3.979   5.481 -0.3969  0.2466  0.4693
   24CHL1  H26A 1770   4.332   3.876   5.478 -1.5478  0.7027  0.4481
   24CHL1  H26B 1771   4.461   3.978   5.412 -0.0123  4.2131  0.6608
   24CHL1  H26C 1772   4.413   4.005   5.582  0.3907 -2.7814  1.0682
   24CHL1   C27 1773   4.206   4.047   5.297  0.7873 -0.1584 -1.0620
   24CHL1  H27A 1774   4.121   4.115   5.274 -1.5171 -2.1147  1.0349
   24CHL1  H27B 1775   4.273   4.040   5.208 -1.0875  0.5565 -2.6081
   24CHL1  H27C 1776   4.153   3.951   5.315 -0.6701  0.8800  0.5143
   25CHL1    C3 1777   1.649   5.201   6.166  0.0740  0.6657  0.4420
   25CHL1    H3 1778   1.604   5.120   6.227 -0.6549  0.5868 -0.1779
   25CHL1    O3 1779   1.636   5.321   6.239  0.1646  0.4683 -0.3370
   25CHL1   H3' 1780   1.722   5.360   6.224  1.5822 -1.9640  0.8538
   25CHL1    C4 1781   1.800   5.166   6.138  1.2321 -0.4114  0.3479
   25CHL1   H4A 1782   1.848   5.253   6.089 -1.3748  0.0012 -1.6909
   25CHL1   H4B 1783   1.846   5.155   6.239  0.8264 -0.9266  0.4853
   25CHL1    C5 1784   1.811   5.047   6.046 -0.0143  0.2432  0.7968
   25CHL1    C6 1785   1.894   4.951   6.077  0.3070  0.1869 -0.0368
   25CHL1    H6 1786   1.948   4.951   6.173 -0.2710  0.0694  0.2910
   25CHL1    C7 1787   1.920   4.836   5.991 -0.5208  0.6871  0.2096
   25CHL1   H7A 1788   2.028   4.811   5.994 -0.8372 -0.8516 -0.0726
   25CHL1   H7B 1789   1.869   4.747   6.035 -3.4336  1.8893 -0.5445
   25CHL1    C8 1790   1.861   4.848   5.848 -0.1403 -0.1489  0.0476
   25CHL1    H8 1791   1.937   4.901   5.787 -2.1527 -1.8376 -4.3647
   25CHL1   C14 1792   1.850   4.709   5.784 -0.1897 -0.1436 -0.5931
   25CHL1   H14 1793   1.774   4.651   5.840  0.2832 -0.4512 -0.2525
   25CHL1   C15 1794   1.977   4.627   5.787  0.5685  0.8193 -0.5646
   25CHL1  H15A 1795   2.068   4.687   5.763 -0.1056  1.9654 -0.3147
   25CHL1  H15B 1796   2.004   4.582   5.885  2.4362 -1.9664 -2.1862
   25CHL1   C16 1797   1.959   4.523   5.683 -0.2062  0.1554  0.2591
   25CHL1  H16A 1798   2.036   4.500   5.606  0.4334 -0.8134  1.1581
   25CHL1  H16B 1799   1.940   4.434   5.746  0.9276  0.9674  1.8386
   25CHL1   C17 1800   1.820   4.553   5.612  0.8021 -0.0803  0.7552
   25CHL1   H17 1801   1.748   4.502   5.680 -0.9131 -1.2220 -1.8025
   25CHL1   C13 1802   1.802   4.705   5.635  0.2881 -0.2739 -0.0193
   25CHL1   C18 1803   1.892   4.784   5.542 -0.7788 -0.4410  0.7122
   25CHL1  H18A 1804   1.991   4.739   5.517 -0.1649  0.8706  0.7085
   25CHL1  H18B 1805   1.833   4.799   5.449 -0.0525 -1.5773  0.0420
   25CHL1  H18C 1806   1.915   4.884   5.583  1.7942  0.6266 -2.8124
   25CHL1   C12 1807   1.666   4.764   5.637 -0.0487  0.0918 -0.1448
   25CHL1  H12A 1808   1.610   4.774   5.542 -1.9383  1.0844  1.0177
   25CHL1  H12B 1809   1.610   4.695   5.703  2.3849 -2.6523 -0.7609
   25CHL1   C11 1810   1.662   4.901   5.705  0.1837  0.0164  0.1894
   25CHL1  H11A 1811   1.706   4.979   5.639  1.1071 -1.0683 -0.5094
   25CHL1  H11B 1812   1.552   4.916   5.700  0.1464 -0.7315 -3.2520
   25CHL1    C9 1813   1.720   4.910   5.842 -1.1364 -0.1910 -0.0197
   25CHL1    H9 1814   1.652   4.844   5.900  1.4559 -1.3521  1.9244
   25CHL1   C10 1815   1.721   5.048   5.918  0.1786  0.5426  0.4779
   25CHL1   C19 1816   1.785   5.154   5.830 -0.2499 -0.3991 -0.0339
   25CHL1  H19A 1817   1.724   5.171   5.738  0.3206  1.5136 -0.1039
   25CHL1  H19B 1818   1.786   5.257   5.873  2.7252 -0.1957 -0.3272
   25CHL1  H19C 1819   1.887   5.123   5.797  0.1198 -1.0327  1.6291
   25CHL1    C1 1820   1.571   5.079   5.950 -0.7698 -0.5472 -1.2468
   25CHL1   H1A 1821   1.515   5.101   5.856  0.0234  0.2867 -1.5342
   25CHL1   H1B 1822   1.519   4.993   5.997  0.7345 -0.2376  1.1031
   25CHL1    C2 1823   1.561   5.206   6.042  0.0215 -0.1672  0.5076
   25CHL1   H2A 1824   1.456   5.235   6.059 -0.6046  0.9236 -3.9525
   25CHL1   H2B 1825   1.611   5.286   5.983  2.5873 -1.2218  1.1015
   25CHL1   C20 1826   1.804   4.499   5.471  0.3461 -0.2377 -0.1542
   25CHL1   H20 1827   1.866   4.569   5.411  0.8067  0.5763  1.2216
   25CHL1   C21 1828   1.653   4.507   5.423  0.3571  0.1149  0.1634
   25CHL1  H21A 1829   1.629   4.471   5.320 -0.6378 -1.3644  0.8889
   25CHL1  H21B 1830   1.626   4.615   5.420  2.6155  0.7447  1.0406
   25CHL1  H21C 1831   1.602   4.450   5.504  2.5896 -0.2737  1.3665
   25CHL1   C22 1832   1.861   4.359   5.447  0.2917  0.6110  0.1352
   25CHL1  H22A 1833   1.884   4.356   5.339  1.7494 -1.4270  0.4443
   25CHL1  H22B 1834   1.962   4.361   5.492  0.8001  3.5449 -0.8925
   25CHL1   C23 1835   1.786   4.234   5.497  0.4029 -0.0659  0.6623
   25CHL1  H23A 1836   1.775   4.239   5.608  2.5036  0.0585  0.9070
   25CHL1  H23B 1837   1.685   4.236   5.453  1.4363 -1.3549 -1.9734
   25CHL1   C24 1838   1.856   4.095   5.480 -0.4840  0.0002  1.2525
   25CHL1  H24A 1839   1.964   4.098   5.504 -0.2157 -0.3026  0.1199
   25CHL1  H24B 1840   1.819   4.019   5.553 -2.3676  0.2784  0.6384
   25CHL1   C25 1841   1.845   4.037   5.339  0.1428 -0.2364  0.1784
   25CHL1   H25 1842   1.894   4.111   5.272 -0.7099 -0.0648 -0.2637
   25CHL1   C26 1843   1.931   3.908   5.337  0.0022  0.1761 -0.0096
   25CHL1  H26A 1844   1.900   3.825   5.403 -0.8374  0.5815  0.1189
   25CHL1  H26B 1845   1.924   3.859   5.237  0.4254 -0.7562  0.4106
   25CHL1  H26C 1846   2.039   3.922   5.356  0.1186 -1.4487  0.6944
   25CHL1   C27 1847   1.701   4.006   5.292  0.0632  0.0078  0.5913
   25CHL1  H27A 1848   1.644   3.940   5.360  1.4393 -1.3072  0.5112
   25CHL1  H27B 1849   1.649   4.104   5.289  3.2530  1.8283 -0.8969
   25CHL1  H27C 1850   1.693   3.952   5.195 -1.9606 -0.2612  0.8643
   26CHL1    C3 1851   5.299   5.725   6.941 -0.1793 -0.0897  0.3332
   26CHL1    H3 1852   5.190   5.746   6.935 -0.1781 -0.2932 -4.2974
   26CHL1    O3 1853   5.336   5.739   7.076 -0.1989  0.2250 -0.3697
   26CHL1   H3' 1854   5.429   5.719   7.075  0.0297  0.9422  1.6965
   26CHL1    C4 1855   5.337   5.582   6.884  1.3697  0.1015 -0.8580
   26CHL1   H4A 1856   5.447   5.573   6.897  0.9466 -0.8464  3.5507
   26CHL1   H4B 1857   5.287   5.506   6.948 -0.9644  2.0026 -0.3100
   26CHL1    C5 1858   5.293   5.568   6.742  0.4628 -0.0343 -0.6275
   26CHL1    C6 1859   5.209   5.471   6.694 -0.1295 -0.3718 -0.3881
   26CHL1    H6 1860   5.168   5.395   6.763 -2.2933  0.9393 -0.1233
   26CHL1    C7 1861   5.166   5.461   6.553  0.2978  0.2329  0.3686
   26CHL1   H7A 1862   5.166   5.353   6.526 -1.8882  0.6652 -1.7304
   26CHL1   H7B 1863   5.064   5.503   6.547  0.0283 -0.2392  1.4851
   26CHL1    C8 1864   5.254   5.536   6.454  0.8472 -0.1564  0.1394
   26CHL1    H8 1865   5.351   5.482   6.449  0.4249 -1.0888  1.3756
   26CHL1   C14 1866   5.185   5.539   6.314  0.2124 -0.0595 -0.1794
   26CHL1   H14 1867   5.094   5.602   6.319  0.6260  0.5272 -0.0574
   26CHL1   C15 1868   5.138   5.401   6.259 -0.5066 -0.0189 -0.3555
   26CHL1  H15A 1869   5.219   5.327   6.274 -0.6594 -0.6067 -2.1433
   26CHL1  H15B 1870   5.041   5.360   6.294 -0.4127 -0.9085 -1.0942
   26CHL1   C16 1871   5.122   5.435   6.112 -0.2457  0.1177  0.1471
   26CHL1  H16A 1872   5.180   5.352   6.067 -1.6266 -0.4876 -0.5842
   26CHL1  H16B 1873   5.014   5.436   6.084 -0.2652 -1.7168  0.0015
   26CHL1   C17 1874   5.191   5.569   6.083  0.0079 -0.1729  0.2764
   26CHL1   H17 1875   5.114   5.649   6.085 -0.5029 -0.6594  0.3669
   26CHL1   C13 1876   5.276   5.596   6.214  0.8999 -0.6106 -0.6184
   26CHL1   C18 1877   5.412   5.531   6.205 -0.7647  0.1594 -0.5304
   26CHL1  H18A 1878   5.393   5.437   6.150 -1.6099 -0.6456  1.0549
   26CHL1  H18B 1879   5.487   5.592   6.151 -1.0247  1.4333  0.4935
   26CHL1  H18C 1880   5.454   5.505   6.305 -2.9104 -0.1834  0.3437
   26CHL1   C12 1881   5.307   5.748   6.263  0.4568  0.1153  0.1762
   26CHL1  H12A 1882   5.365   5.809   6.191 -0.6623  0.3613 -0.5506
   26CHL1  H12B 1883   5.210   5.803   6.261 -0.1274 -0.9058 -2.1139
   26CHL1   C11 1884   5.367   5.760   6.400 -0.0928 -0.4424  0.4485
   26CHL1  H11A 1885   5.469   5.717   6.397  1.7468  3.4907  0.5466
   26CHL1  H11B 1886   5.373   5.870   6.416 -1.5220 -0.0575 -1.3818
   26CHL1    C9 1887   5.282   5.680   6.506 -0.1011 -0.2964  0.2928
   26CHL1    H9 1888   5.188   5.738   6.508  1.2100  1.9084  1.1651
   26CHL1   C10 1889   5.349   5.677   6.644  0.0153  0.0429 -1.1727
   26CHL1   C19 1890   5.504   5.644   6.635 -0.2299 -0.1267 -0.0542
   26CHL1  H19A 1891   5.533   5.540   6.605  1.6810 -0.0849  1.4396
   26CHL1  H19B 1892   5.552   5.712   6.561 -4.7786  4.2808  0.4987
   26CHL1  H19C 1893   5.548   5.662   6.735  0.2194  1.5574 -0.5248
   26CHL1    C1 1894   5.332   5.824   6.703  0.2781  0.2170 -0.6903
   26CHL1   H1A 1895   5.393   5.896   6.645 -0.1413  0.3675 -0.9560
   26CHL1   H1B 1896   5.222   5.839   6.689  0.0269  0.2178  1.0677
   26CHL1    C2 1897   5.374   5.832   6.853  0.4909  0.1614 -0.3762
   26CHL1   H2A 1898   5.326   5.923   6.895  0.2871  0.1494 -0.5829
   26CHL1   H2B 1899   5.484   5.843   6.869  0.2882  0.4098  0.9161
   26CHL1   C20 1900   5.248   5.573   5.942  0.2812  0.3197 -0.2051
   26CHL1   H20 1901   5.314   5.484   5.928  1.5446  0.6367  2.8497
   26CHL1   C21 1902   5.331   5.708   5.919  0.3695  0.5280  0.0820
   26CHL1  H21A 1903   5.264   5.796   5.932  0.4680  0.4892  0.9403
   26CHL1  H21B 1904   5.379   5.700   5.819 -0.7901  1.9803 -0.6184
   26CHL1  H21C 1905   5.416   5.704   5.991  0.6891  1.2992 -0.2481
   26CHL1   C22 1906   5.146   5.553   5.833  0.0998 -0.3067 -0.0678
   26CHL1  H22A 1907   5.054   5.504   5.872  0.3356 -2.3004 -1.8451
   26CHL1  H22B 1908   5.129   5.658   5.800  1.0892  0.1412  0.7782
   26CHL1   C23 1909   5.202   5.476   5.711  0.1077  0.7648 -0.9798
   26CHL1  H23A 1910   5.296   5.528   5.682  0.4933  0.0119 -1.1079
   26CHL1  H23B 1911   5.228   5.371   5.735 -1.7617  1.0787  3.2942
   26CHL1   C24 1912   5.104   5.475   5.586 -0.0229 -0.0881 -0.0209
   26CHL1  H24A 1913   5.013   5.417   5.611 -1.0298  0.7692 -1.5160
   26CHL1  H24B 1914   5.085   5.584   5.573 -0.4331 -0.1584 -0.0035
   26CHL1   C25 1915   5.151   5.410   5.455 -0.5621  0.2723  0.2721
   26CHL1   H25 1916   5.188   5.309   5.482 -0.8932  0.6563  2.2678
   26CHL1   C26 1917   5.023   5.396   5.365  0.3095  0.5923 -0.2035
   26CHL1  H26A 1918   5.046   5.334   5.276  3.2843  2.2340 -0.7332
   26CHL1  H26B 1919   4.942   5.355   5.428  0.5548  1.7577  0.9158
   26CHL1  H26C 1920   4.988   5.498   5.336  0.7367  1.6278  2.6178
   26CHL1   C27 1921   5.247   5.499   5.382 -0.0901  0.3899 -1.4351
   26CHL1  H27A 1922   5.204   5.595   5.344  1.3486  1.7749  0.2570
   26CHL1  H27B 1923   5.337   5.514   5.446 -0.4551 -2.2345 -0.1768
   26CHL1  H27C 1924   5.284   5.452   5.288  0.2920  0.0201 -1.1019
   27CHL1    C3 1925   3.716   3.408   6.938  0.0731  0.0788 -0.7283
   27CHL1    H3 1926   3.784   3.321   6.952  0.1036  0.1189 -0.6251
   27CHL1    O3 1927   3.657   3.444   7.067 -0.3685  0.2873  0.1242
   27CHL1   H3' 1928   3.708   3.515   7.107  0.3766  0.0845 -0.4557
   27CHL1    C4 1929   3.788   3.527   6.889 -0.0511 -0.2568 -0.0309
   27CHL1   H4A 1930   3.723   3.616   6.898 -3.1084 -2.5041  2.7936
   27CHL1   H4B 1931   3.864   3.551   6.967  0.5496  1.0976 -1.0030
   27CHL1    C5 1932   3.852   3.514   6.758  0.2230 -0.4633 -0.5044
   27CHL1    C6 1933   3.985   3.517   6.733  0.5148 -0.0418  0.3508
   27CHL1    H6 1934   4.048   3.537   6.821 -0.7815  0.7799  1.1268
   27CHL1    C7 1935   4.057   3.491   6.604 -0.4175 -0.8020  0.5023
   27CHL1   H7A 1936   4.134   3.570   6.594 -1.2638  0.2317  1.7942
   27CHL1   H7B 1937   4.117   3.400   6.627 -0.1644 -0.8826 -0.4528
   27CHL1    C8 1938   3.960   3.479   6.489 -0.4342  0.0493 -0.0531
   27CHL1    H8 1939   3.941   3.586   6.463 -1.6658 -0.3001 -0.6742
   27CHL1   C14 1940   4.031   3.405   6.370  0.0558  0.0090 -0.2999
   27CHL1   H14 1941   4.044   3.302   6.411 -2.9720 -1.6863 -3.0427
   27CHL1   C15 1942   4.164   3.456   6.322 -0.0216 -0.3050 -0.0278
   27CHL1  H15A 1943   4.160   3.566   6.307 -1.6890 -0.5117 -1.3510
   27CHL1  H15B 1944   4.250   3.423   6.384 -1.3357 -1.4439  1.2526
   27CHL1   C16 1945   4.185   3.395   6.179  0.4154  0.4786  0.5517
   27CHL1  H16A 1946   4.209   3.477   6.108  0.2906 -1.9202 -2.4502
   27CHL1  H16B 1947   4.254   3.310   6.166 -2.7494 -2.3280  0.6330
   27CHL1   C17 1948   4.051   3.334   6.147 -0.3226 -0.6738 -0.1729
   27CHL1   H17 1949   4.042   3.230   6.185 -1.1943 -0.1699  1.0458
   27CHL1   C13 1950   3.941   3.396   6.243  0.1715  0.4466  0.8684
   27CHL1   C18 1951   3.906   3.533   6.192 -0.0852  0.4713 -0.0355
   27CHL1  H18A 1952   3.984   3.589   6.136  2.4010 -1.0045  1.7272
   27CHL1  H18B 1953   3.826   3.515   6.117  1.3494 -1.1010 -1.2900
   27CHL1  H18C 1954   3.867   3.606   6.266  0.3741  0.8470 -0.1554
   27CHL1   C12 1955   3.826   3.306   6.285  0.3296 -0.3864 -0.6158
   27CHL1  H12A 1956   3.762   3.294   6.195  1.3218 -1.7199 -1.1909
   27CHL1  H12B 1957   3.850   3.198   6.301 -0.7577 -0.6165 -0.4604
   27CHL1   C11 1958   3.748   3.369   6.398 -0.3391  0.1912  0.1406
   27CHL1  H11A 1959   3.707   3.464   6.359 -1.0734 -0.8712 -1.8357
   27CHL1  H11B 1960   3.662   3.307   6.431 -2.5928  2.1452 -1.6698
   27CHL1    C9 1961   3.832   3.405   6.532 -0.0603 -0.5239 -0.0485
   27CHL1    H9 1962   3.869   3.306   6.567 -2.3499 -1.6590 -0.6607
   27CHL1   C10 1963   3.751   3.461   6.650 -0.4872 -0.0509  0.0182
   27CHL1   C19 1964   3.671   3.585   6.603  0.5225 -0.0043  1.3357
   27CHL1  H19A 1965   3.606   3.548   6.521  0.5789 -1.4104  1.9073
   27CHL1  H19B 1966   3.608   3.642   6.676  0.5704 -1.6415  2.7086
   27CHL1  H19C 1967   3.728   3.665   6.552 -1.6995  0.0785 -1.2290
   27CHL1    C1 1968   3.661   3.345   6.695 -0.2253 -0.4962  0.3174
   27CHL1   H1A 1969   3.574   3.335   6.628 -0.5010  1.6481  0.2827
   27CHL1   H1B 1970   3.719   3.250   6.693  0.2091 -0.3137  2.2435
   27CHL1    C2 1971   3.610   3.361   6.840  0.3949 -0.0004  0.3165
   27CHL1   H2A 1972   3.562   3.266   6.871 -2.5561  1.4833  0.6736
   27CHL1   H2B 1973   3.530   3.438   6.832  0.1817 -0.4496 -3.2622
   27CHL1   C20 1974   4.027   3.319   5.992  0.5046 -0.1935  0.3748
   27CHL1   H20 1975   3.930   3.266   5.984  0.1567  0.4535  0.3172
   27CHL1   C21 1976   4.143   3.238   5.948 -0.0162 -0.0291 -0.2412
   27CHL1  H21A 1977   4.239   3.293   5.940  0.2745 -0.2128  1.5272
   27CHL1  H21B 1978   4.132   3.188   5.849  2.6195 -1.5534  0.1139
   27CHL1  H21C 1979   4.169   3.159   6.023 -0.8670 -1.2556 -1.2093
   27CHL1   C22 1980   4.006   3.450   5.910 -0.3494  0.5661  0.5154
   27CHL1  H22A 1981   3.906   3.492   5.936 -1.8213 -1.7434 -1.0022
   27CHL1  H22B 1982   4.084   3.523   5.940  1.6394 -1.5961  0.8869
   27CHL1   C23 1983   4.019   3.429   5.759  0.5732  0.5130 -0.2178
   27CHL1  H23A 1984   4.124   3.408   5.728  0.3668  2.1567 -2.2615
   27CHL1  H23B 1985   3.974   3.341   5.707  2.8604  0.1965 -1.8359
   27CHL1   C24 1986   3.949   3.549   5.678 -0.0991 -0.3948 -0.2683
   27CHL1  H24A 1987   3.843   3.540   5.709  0.5340 -2.4289  1.5824
   27CHL1  H24B 1988   3.996   3.641   5.719 -1.5070  0.6523 -0.9021
   27CHL1   C25 1989   3.971   3.534   5.528  0.0303 -0.0795 -0.1025
   27CHL1   H25 1990   3.926   3.437   5.500 -0.4494 -0.7105  2.5644
   27CHL1   C26 1991   3.878   3.634   5.452  0.6228 -0.2545 -0.0156
   27CHL1  H26A 1992   3.772   3.629   5.483  0.5337  2.0331  0.2741
   27CHL1  H26B 1993   3.910   3.735   5.486 -1.7073  0.7114 -0.5116
   27CHL1  H26C 1994   3.880   3.609   5.344 -2.1268 -0.9722  0.0362
   27CHL1   C27 1995   4.120   3.566   5.489  0.7365  0.1684  0.7652
   27CHL1  H27A 1996   4.121   3.570   5.378  1.5445  2.4028  0.7855
   27CHL1  H27B 1997   4.160   3.665   5.521  0.6099  1.0386 -1.5771
   27CHL1  H27C 1998   4.185   3.482   5.524  1.0480 -0.6601 -1.6294
   28CHL1    C3 1999   3.098   4.763   6.967  0.5135  0.3233  0.4037
   28CHL1    H3 2000   3.151   4.668   6.988  0.6298  0.5490  1.1428
   28CHL1    O3 2001   3.036   4.821   7.083 -0.0123  0.0223 -0.0152
   28CHL1   H3' 2002   2.981   4.753   7.123  0.9550  1.1801  3.6254
   28CHL1    C4 2003   3.194   4.875   6.901 -0.2528  0.3707 -1.2513
   28CHL1   H4A 2004   3.139   4.970   6.890 -0.2942  0.2698 -1.9212
   28CHL1   H4B 2005   3.274   4.888   6.978 -1.5730  2.0815 -0.1007
   28CHL1    C5 2006   3.241   4.847   6.765 -0.0762 -0.0622 -0.0363
   28CHL1    C6 2007   3.369   4.857   6.726 -0.2782  0.4533  0.3850
   28CHL1    H6 2008   3.446   4.886   6.800 -1.3435 -2.6207  2.9122
   28CHL1    C7 2009   3.414   4.834   6.585 -0.3476  0.4159  0.1440
   28CHL1   H7A 2010   3.496   4.905   6.562  2.5294 -1.8392  2.5592
   28CHL1   H7B 2011   3.479   4.744   6.583  0.2928  0.8729 -0.0337
   28CHL1    C8 2012   3.301   4.817   6.477 -0.3138 -0.7420 -1.0942
   28CHL1    H8 2013   3.252   4.915   6.459 -3.0220 -1.8168 -0.1139
   28CHL1   C14 2014   3.362   4.765   6.348  0.5721 -0.5527  0.2084
   28CHL1   H14 2015   3.405   4.666   6.374  0.9825  0.4250  3.9423
   28CHL1   C15 2016   3.484   4.834   6.288 -0.1395 -0.1240 -0.4102
   28CHL1  H15A 2017   3.473   4.945   6.296 -1.2482 -0.3413  1.5760
   28CHL1  H15B 2018   3.585   4.807   6.327 -0.3877  0.1712  0.4691
   28CHL1   C16 2019   3.477   4.789   6.141  0.3166  0.3705  0.0888
   28CHL1  H16A 2020   3.473   4.870   6.065 -0.4039  0.1166 -0.1518
   28CHL1  H16B 2021   3.566   4.726   6.119 -0.5066 -0.7119 -0.2224
   28CHL1   C17 2022   3.358   4.693   6.126 -0.1364  0.5608  0.4153
   28CHL1   H17 2023   3.394   4.589   6.144  0.2407  0.6575  0.2379
   28CHL1   C13 2024   3.262   4.737   6.242  0.0814 -0.4061  0.3187
   28CHL1   C18 2025   3.201   4.877   6.195  0.1000 -0.4458  0.1493
   28CHL1  H18A 2026   3.280   4.944   6.154  0.0182 -1.5318 -1.9080
   28CHL1  H18B 2027   3.130   4.871   6.110  1.7552  0.3994 -1.3671
   28CHL1  H18C 2028   3.144   4.930   6.275 -0.6057  0.7510 -1.0983
   28CHL1   C12 2029   3.159   4.637   6.298  0.4598  0.5562  0.0194
   28CHL1  H12A 2030   3.080   4.612   6.225  2.0687 -1.2556 -1.2106
   28CHL1  H12B 2031   3.208   4.538   6.306 -0.2955 -0.1301 -2.8299
   28CHL1   C11 2032   3.086   4.684   6.432 -0.1343 -0.0155  0.6407
   28CHL1  H11A 2033   3.011   4.762   6.405  0.5937  0.8275  0.9945
   28CHL1  H11B 2034   3.027   4.604   6.481 -1.8440  0.7904 -0.0276
   28CHL1    C9 2035   3.187   4.730   6.534 -0.0678  0.4773 -0.7001
   28CHL1    H9 2036   3.246   4.640   6.560 -0.2537  0.5146 -0.1183
   28CHL1   C10 2037   3.131   4.796   6.667 -0.8247  0.3035 -0.3408
   28CHL1   C19 2038   3.043   4.923   6.622 -0.5656  0.0816 -0.3045
   28CHL1  H19A 2039   3.009   4.972   6.716  1.8523  0.0203  0.6826
   28CHL1  H19B 2040   3.114   4.993   6.573  0.7839  1.1244  2.8264
   28CHL1  H19C 2041   2.963   4.893   6.551  1.2453 -0.7883 -2.0715
   28CHL1    C1 2042   3.035   4.686   6.733 -0.3573 -0.3893 -0.9500
   28CHL1   H1A 2043   2.942   4.668   6.674 -1.2583 -1.1373  0.6059
   28CHL1   H1B 2044   3.086   4.589   6.752  2.3986  1.1621  0.1643
   28CHL1    C2 2045   2.979   4.735   6.872  0.3336  0.4542  0.2083
   28CHL1   H2A 2046   2.906   4.670   6.926  0.5030  1.8392  2.2096
   28CHL1   H2B 2047   2.923   4.831   6.861 -0.7229 -0.2075 -0.3821
   28CHL1   C20 2048   3.302   4.692   5.981  0.0455  0.2754  0.3992
   28CHL1   H20 2049   3.271   4.796   5.955  1.7191  0.3610 -1.4721
   28CHL1   C21 2050   3.181   4.595   5.966 -0.0718  0.4860  0.1859
   28CHL1  H21A 2051   3.190   4.490   6.001  0.1163  0.5675  0.3876
   28CHL1  H21B 2052   3.155   4.597   5.858  1.2697  2.2190 -0.1597
   28CHL1  H21C 2053   3.087   4.625   6.017 -0.7957 -3.6237  1.6027
   28CHL1   C22 2054   3.409   4.661   5.865  0.0257 -0.1362  0.0160
   28CHL1  H22A 2055   3.512   4.692   5.893 -0.0484 -1.4060  1.9156
   28CHL1  H22B 2056   3.409   4.551   5.853 -0.3735 -0.0427 -0.9462
   28CHL1   C23 2057   3.383   4.741   5.735  0.2319  0.9990  0.7116
   28CHL1  H23A 2058   3.286   4.716   5.687  1.2253 -1.5568 -0.1481
   28CHL1  H23B 2059   3.373   4.851   5.741  0.3139  1.0992 -0.5971
   28CHL1   C24 2060   3.484   4.686   5.626  0.1678  0.1849 -0.0310
   28CHL1  H24A 2061   3.582   4.679   5.679 -0.1772  2.0423  0.9442
   28CHL1  H24B 2062   3.454   4.581   5.605  0.4157  0.3583 -1.3362
   28CHL1   C25 2063   3.499   4.764   5.500  0.8227  0.6006  0.7669
   28CHL1   H25 2064   3.507   4.873   5.520  0.8003  0.7743 -0.1242
   28CHL1   C26 2065   3.623   4.726   5.418 -0.4886  0.2419  0.4266
   28CHL1  H26A 2066   3.714   4.754   5.475 -0.8888 -2.9152  2.9440
   28CHL1  H26B 2067   3.627   4.620   5.383  0.6067  0.6674 -0.7856
   28CHL1  H26C 2068   3.632   4.791   5.329 -1.9956  1.0754  0.8375
   28CHL1   C27 2069   3.381   4.740   5.399  0.3531  0.4334  0.0546
   28CHL1  H27A 2070   3.395   4.639   5.355  0.8341  1.0001 -1.1346
   28CHL1  H27B 2071   3.284   4.764   5.449  1.3095  2.5467  1.0127
   28CHL1  H27C 2072   3.388   4.811   5.314 -0.5612  2.0318  1.2553
   29CHL1    C3 2073   3.139   1.568   3.804 -0.2915 -0.4690  0.3288
   29CHL1    H3 2074   3.109   1.470   3.846  0.0432 -0.0310  1.6169
   29CHL1    O3 2075   3.113   1.581   3.665 -0.3334  0.0227 -0.4907
   29CHL1   H3' 2076   3.017   1.583   3.666 -0.3528  0.7393 -1.5127
   29CHL1    C4 2077   3.049   1.682   3.873 -0.2532  0.7532 -0.2709
   29CHL1   H4A 2078   3.064   1.776   3.815  1.1782 -0.1839 -1.4857
   29CHL1   H4B 2079   2.942   1.657   3.856 -0.0267  0.1726 -0.8852
   29CHL1    C5 2080   3.084   1.697   4.019 -0.3896 -0.7715  0.6390
   29CHL1    C6 2081   2.986   1.682   4.111 -0.0948  0.1764 -0.3004
   29CHL1    H6 2082   2.880   1.666   4.087 -0.7567 -1.5615  3.1809
   29CHL1    C7 2083   3.012   1.692   4.256  0.1284 -0.0441  0.2382
   29CHL1   H7A 2084   2.937   1.764   4.296 -2.0711 -1.3001 -1.4190
   29CHL1   H7B 2085   3.016   1.595   4.309 -0.0034  0.5420  1.3477
   29CHL1    C8 2086   3.160   1.762   4.292 -0.4170  0.5671  0.6215
   29CHL1    H8 2087   3.148   1.867   4.258 -0.3827 -0.2149 -2.0514
   29CHL1   C14 2088   3.192   1.756   4.438 -0.6614  0.4032  0.0718
   29CHL1   H14 2089   3.209   1.650   4.466  1.4133  0.3980 -0.9902
   29CHL1   C15 2090   3.091   1.806   4.535 -0.0057 -0.3484 -0.3857
   29CHL1  H15A 2091   3.045   1.903   4.506  1.1055  0.0611 -0.8373
   29CHL1  H15B 2092   3.014   1.727   4.549  0.9239 -1.6176 -2.0856
   29CHL1   C16 2093   3.164   1.836   4.663 -0.2917 -0.4891 -0.5210
   29CHL1  H16A 2094   3.153   1.943   4.693 -0.8558 -0.9917  1.1488
   29CHL1  H16B 2095   3.134   1.776   4.751 -1.4508 -1.5020 -1.5603
   29CHL1   C17 2096   3.319   1.813   4.630  0.2524  0.5897  0.0597
   29CHL1   H17 2097   3.336   1.707   4.661 -1.4593  0.1584 -0.3923
   29CHL1   C13 2098   3.324   1.823   4.479 -0.0011  0.0095 -0.0702
   29CHL1   C18 2099   3.322   1.972   4.441 -0.5807 -0.2293 -0.1925
   29CHL1  H18A 2100   3.233   2.011   4.494 -1.1997 -1.4016 -0.3195
   29CHL1  H18B 2101   3.411   2.025   4.481 -0.0211 -0.2206 -1.4001
   29CHL1  H18C 2102   3.300   1.992   4.334  2.1086 -2.5448 -1.3290
   29CHL1   C12 2103   3.429   1.744   4.404  1.0278 -0.3774 -0.1153
   29CHL1  H12A 2104   3.529   1.789   4.422  0.8298 -0.2715  0.7684
   29CHL1  H12B 2105   3.435   1.636   4.431  0.5259 -1.3745 -3.4182
   29CHL1   C11 2106   3.407   1.738   4.250 -0.0505 -0.5010 -0.6369
   29CHL1  H11A 2107   3.444   1.839   4.222  0.2076 -0.2330  0.6362
   29CHL1  H11B 2108   3.482   1.667   4.211  0.6162  0.4126 -1.0670
   29CHL1    C9 2109   3.267   1.696   4.205  0.1666  0.5050 -0.6568
   29CHL1    H9 2110   3.270   1.587   4.222 -1.2644  0.6779  0.8970
   29CHL1   C10 2111   3.238   1.713   4.054  0.1312  0.1021 -0.1564
   29CHL1   C19 2112   3.287   1.858   4.011 -0.1753 -0.2128 -0.1913
   29CHL1  H19A 2113   3.394   1.873   4.038 -0.9655 -0.5203  3.7106
   29CHL1  H19B 2114   3.267   1.873   3.902 -1.9869  1.1063  0.2717
   29CHL1  H19C 2115   3.232   1.934   4.070 -0.2439 -0.5766  0.2149
   29CHL1    C1 2116   3.324   1.608   3.973 -0.2028  0.2003  0.1956
   29CHL1   H1A 2117   3.432   1.633   3.972 -0.2050  0.5220 -2.7947
   29CHL1   H1B 2118   3.310   1.509   4.021 -1.3269 -0.6332 -1.7221
   29CHL1    C2 2119   3.282   1.590   3.822  0.3315 -0.3701 -0.5496
   29CHL1   H2A 2120   3.342   1.514   3.767  1.3945  0.2583 -0.2743
   29CHL1   H2B 2121   3.313   1.685   3.775  0.5399 -0.2177 -0.1074
   29CHL1   C20 2122   3.417   1.896   4.720 -0.4307 -0.1336  0.0096
   29CHL1   H20 2123   3.395   2.003   4.702 -0.2688  0.1008  1.0961
   29CHL1   C21 2124   3.561   1.882   4.680 -0.7598  0.6819  0.5369
   29CHL1  H21A 2125   3.585   1.775   4.697 -0.0820  0.8173  0.4386
   29CHL1  H21B 2126   3.628   1.946   4.741  0.1857  1.2276 -1.0148
   29CHL1  H21C 2127   3.585   1.921   4.578  3.5640 -1.1204  0.6551
   29CHL1   C22 2128   3.400   1.865   4.871  1.2859  0.1975  0.4440
   29CHL1  H22A 2129   3.292   1.885   4.889  0.6229 -2.1539 -0.5042
   29CHL1  H22B 2130   3.406   1.755   4.889 -0.4446  0.2111  1.3548
   29CHL1   C23 2131   3.486   1.953   4.965  0.1170 -0.2762 -0.3762
   29CHL1  H23A 2132   3.597   1.947   4.959  0.1290 -0.7126  0.1672
   29CHL1  H23B 2133   3.471   2.062   4.951  0.1950 -0.4619 -2.1503
   29CHL1   C24 2134   3.446   1.915   5.106 -0.1571 -0.5469 -0.8917
   29CHL1  H24A 2135   3.336   1.912   5.117  0.0596 -0.2045  1.9217
   29CHL1  H24B 2136   3.472   1.808   5.117  0.0754 -0.2735  1.8240
   29CHL1   C25 2137   3.521   1.998   5.208 -0.1372 -0.0127 -0.1087
   29CHL1   H25 2138   3.624   1.994   5.167 -0.3009 -2.1078 -0.3978
   29CHL1   C26 2139   3.464   2.141   5.223 -0.0975 -0.3107  0.0863
   29CHL1  H26A 2140   3.356   2.153   5.249 -0.8139 -2.4436 -1.6237
   29CHL1  H26B 2141   3.514   2.190   5.310  0.0930 -1.1028  0.4367
   29CHL1  H26C 2142   3.486   2.208   5.138 -2.1954 -1.4313 -1.4183
   29CHL1   C27 2143   3.513   1.939   5.348 -0.3037 -0.6870 -0.1442
   29CHL1  H27A 2144   3.555   1.836   5.356  2.5022  0.5093  2.6905
   29CHL1  H27B 2145   3.569   1.998   5.424 -0.3636 -0.6603 -0.1208
   29CHL1  H27C 2146   3.407   1.931   5.380 -0.4438  1.1015 -0.0600
   30CHL1    C3 2147   4.747   4.428   4.083 -0.5293 -0.1089 -0.3460
   30CHL1    H3 2148   4.684   4.349   4.131 -1.5377  0.7678 -0.1855
   30CHL1    O3 2149   4.772   4.397   3.942  0.3883  0.5756 -0.0210
   30CHL1   H3' 2150   4.832   4.467   3.915 -1.7611  2.1555 -0.9610
   30CHL1    C4 2151   4.685   4.566   4.106  0.7471  0.9019 -0.1298
   30CHL1   H4A 2152   4.754   4.631   4.048  0.6773  2.0170  0.9967
   30CHL1   H4B 2153   4.584   4.566   4.058  0.3322 -1.8905  0.5594
   30CHL1    C5 2154   4.674   4.604   4.247  0.0895  0.0401  0.1775
   30CHL1    C6 2155   4.553   4.627   4.303  0.4859 -0.6051  0.1839
   30CHL1    H6 2156   4.457   4.614   4.251 -0.7192  0.8481  1.9102
   30CHL1    C7 2157   4.536   4.684   4.434  0.3731  0.0477 -0.7506
   30CHL1   H7A 2158   4.455   4.760   4.442 -1.8909 -2.1774 -0.9245
   30CHL1   H7B 2159   4.508   4.604   4.505  0.0130 -1.5532 -2.5994
   30CHL1    C8 2160   4.662   4.733   4.497 -0.1620  0.6708 -0.3707
   30CHL1    H8 2161   4.701   4.826   4.450  0.4639 -0.8143 -3.0132
   30CHL1   C14 2162   4.654   4.759   4.650  0.9909  0.4575  0.1467
   30CHL1   H14 2163   4.633   4.658   4.690  0.3005  0.4379 -0.2486
   30CHL1   C15 2164   4.532   4.847   4.686  0.4916  0.4585  0.5120
   30CHL1  H15A 2165   4.516   4.916   4.601  0.6224  1.2927  1.1491
   30CHL1  H15B 2166   4.441   4.785   4.700  0.7563 -0.0163  0.1714
   30CHL1   C16 2167   4.575   4.910   4.818  0.0790  0.6212  0.1883
   30CHL1  H16A 2168   4.588   5.019   4.802 -0.3583  1.0865  2.5605
   30CHL1  H16B 2169   4.502   4.907   4.901  1.4038  3.3556  1.5965
   30CHL1   C17 2170   4.718   4.849   4.853 -0.3730 -0.1955 -0.0588
   30CHL1   H17 2171   4.703   4.751   4.904 -2.8729 -0.0418 -0.3651
   30CHL1   C13 2172   4.776   4.806   4.721 -0.2175 -0.0310  0.0709
   30CHL1   C18 2173   4.843   4.939   4.645 -0.2067  0.3127 -0.6370
   30CHL1  H18A 2174   4.941   4.957   4.695 -0.4722 -1.3920  0.5997
   30CHL1  H18B 2175   4.858   4.923   4.536 -0.1713 -1.2840 -0.4294
   30CHL1  H18C 2176   4.782   5.031   4.659 -1.4141 -0.5869  0.1862
   30CHL1   C12 2177   4.874   4.695   4.707 -0.1369 -0.1799  0.4964
   30CHL1  H12A 2178   4.973   4.727   4.747  0.0221 -2.7689  2.5357
   30CHL1  H12B 2179   4.843   4.606   4.766  0.6010 -0.5836  0.2878
   30CHL1   C11 2180   4.907   4.660   4.554  0.0270 -0.1297 -0.5531
   30CHL1  H11A 2181   4.971   4.744   4.520  1.3589 -0.7146  0.3810
   30CHL1  H11B 2182   4.971   4.570   4.539  0.0868  0.0771 -1.5965
   30CHL1    C9 2183   4.781   4.633   4.475 -0.5342 -0.0460  0.4883
   30CHL1    H9 2184   4.735   4.541   4.517 -3.3072  0.2476 -1.6684
   30CHL1   C10 2185   4.806   4.607   4.323  0.3219  0.3566 -0.0462
   30CHL1   C19 2186   4.892   4.721   4.262 -0.0191 -0.1566  0.4802
   30CHL1  H19A 2187   4.993   4.707   4.305  0.7865 -1.8219 -1.7574
   30CHL1  H19B 2188   4.903   4.707   4.152 -0.7177 -1.5872  0.5619
   30CHL1  H19C 2189   4.847   4.818   4.292 -3.1986 -1.5148  0.5762
   30CHL1    C1 2190   4.883   4.475   4.302  0.0772 -0.0839 -0.9006
   30CHL1   H1A 2191   4.986   4.488   4.342 -1.1765 -0.7849  3.0400
   30CHL1   H1B 2192   4.824   4.403   4.363 -1.6143  2.1899  0.3082
   30CHL1    C2 2193   4.882   4.425   4.153  0.6952  0.0887 -1.1746
   30CHL1   H2A 2194   4.921   4.321   4.152  3.1049  0.8712  0.5748
   30CHL1   H2B 2195   4.964   4.483   4.105  1.6217 -0.1739  0.0220
   30CHL1   C20 2196   4.807   4.937   4.947  0.5512  0.7635  0.6198
   30CHL1   H20 2197   4.848   5.023   4.890  0.9220 -0.0301 -0.3546
   30CHL1   C21 2198   4.933   4.858   4.998  0.1716  0.2757  0.3026
   30CHL1  H21A 2199   5.008   4.871   4.917 -0.0034  1.8895  0.3742
   30CHL1  H21B 2200   4.905   4.753   5.019  1.6710 -0.2373 -0.1564
   30CHL1  H21C 2201   4.979   4.908   5.085 -0.2635  2.0021 -0.4211
   30CHL1   C22 2202   4.726   4.990   5.064 -1.1285 -0.1615  0.2935
   30CHL1  H22A 2203   4.784   5.072   5.111 -0.5108  0.0634 -0.8225
   30CHL1  H22B 2204   4.640   5.055   5.036 -1.2624 -0.0105  1.0295
   30CHL1   C23 2205   4.684   4.894   5.181  0.4282 -0.3929  0.1819
   30CHL1  H23A 2206   4.654   4.800   5.130  0.5733  1.1576 -3.0040
   30CHL1  H23B 2207   4.769   4.868   5.248  2.8113  0.0241 -2.5007
   30CHL1   C24 2208   4.577   4.949   5.280  0.0875  0.0143 -0.0569
   30CHL1  H24A 2209   4.618   5.032   5.341  1.1438 -1.6575  1.6159
   30CHL1  H24B 2210   4.485   4.977   5.225 -0.3619 -0.6357  0.3554
   30CHL1   C25 2211   4.537   4.837   5.383 -1.5230  0.0748  0.4261
   30CHL1   H25 2212   4.527   4.746   5.321 -1.4349  0.3237  0.0406
   30CHL1   C26 2213   4.655   4.817   5.487  0.3987 -0.1318  0.1851
   30CHL1  H26A 2214   4.666   4.893   5.567 -0.4938  0.2736 -0.0642
   30CHL1  H26B 2215   4.628   4.719   5.532 -0.4964 -0.4216 -0.9363
   30CHL1  H26C 2216   4.752   4.800   5.435  0.5135 -0.4893  0.5070
   30CHL1   C27 2217   4.398   4.858   5.449  0.3669  0.6758  0.5497
   30CHL1  H27A 2218   4.318   4.833   5.377 -0.1149 -1.8585  1.8277
   30CHL1  H27B 2219   4.394   4.781   5.529  0.9204 -0.5341 -0.5601
   30CHL1  H27C 2220   4.390   4.957   5.498  0.2118 -0.4334  2.9190
   31CHL1    C3 2221   6.582   4.363   3.649  0.0168  0.0849  0.0352
   31CHL1    H3 2222   6.615   4.265   3.689 -0.2674 -0.3250 -0.7040
   31CHL1    O3 2223   6.576   4.363   3.511  0.5472 -0.5410 -0.0431
   31CHL1   H3' 2224   6.656   4.407   3.483 -0.0892  1.1014  0.6054
   31CHL1    C4 2225   6.453   4.401   3.715  0.1007  0.8391  0.2395
   31CHL1   H4A 2226   6.436   4.502   3.670  0.7837  0.6385 -0.4990
   31CHL1   H4B 2227   6.369   4.334   3.690 -0.3884  0.1579  3.3580
   31CHL1    C5 2228   6.460   4.410   3.869 -0.6690 -1.0174 -0.4722
   31CHL1    C6 2229   6.385   4.334   3.950  0.0666  0.2778  0.4782
   31CHL1    H6 2230   6.301   4.276   3.910 -1.3209  1.1182  2.0584
   31CHL1    C7 2231   6.380   4.348   4.103  0.9466  0.3588  0.4153
   31CHL1   H7A 2232   6.283   4.334   4.155  0.3703 -2.9452 -1.2799
   31CHL1   H7B 2233   6.442   4.266   4.144  1.2506  0.5141  0.2662
   31CHL1    C8 2234   6.457   4.482   4.147 -0.1506 -0.6399  0.3970
   31CHL1    H8 2235   6.383   4.558   4.116 -1.4420 -2.1373 -0.3613
   31CHL1   C14 2236   6.490   4.494   4.289  0.5926 -0.1101 -0.5847
   31CHL1   H14 2237   6.562   4.412   4.310  0.3136 -1.1477 -3.3959
   31CHL1   C15 2238   6.366   4.469   4.383 -0.0052  0.0920 -0.5733
   31CHL1  H15A 2239   6.290   4.544   4.353  1.3974  2.0840  0.6259
   31CHL1  H15B 2240   6.327   4.365   4.396 -1.0738  0.5716  0.1611
   31CHL1   C16 2241   6.412   4.518   4.516 -0.3529 -0.2643  0.5508
   31CHL1  H16A 2242   6.336   4.577   4.571  1.5476  1.2282  1.7045
   31CHL1  H16B 2243   6.444   4.432   4.580  1.0420 -0.0360  0.1854
   31CHL1   C17 2244   6.541   4.599   4.494 -0.0328  0.5795 -0.1850
   31CHL1   H17 2245   6.621   4.525   4.516 -2.2953 -1.5017  1.4601
   31CHL1   C13 2246   6.551   4.624   4.343  0.3499 -0.4209  0.2305
   31CHL1   C18 2247   6.459   4.749   4.323 -0.1215  0.4586  0.0107
   31CHL1  H18A 2248   6.509   4.845   4.346  0.6573 -0.5774  3.1015
   31CHL1  H18B 2249   6.427   4.749   4.217  2.0615 -0.2865 -0.7099
   31CHL1  H18C 2250   6.367   4.739   4.384  0.4877 -1.4445  0.7144
   31CHL1   C12 2251   6.686   4.644   4.272 -0.7356  0.1403 -1.3110
   31CHL1  H12A 2252   6.726   4.743   4.303 -1.2554 -0.6575  2.3283
   31CHL1  H12B 2253   6.761   4.570   4.306 -0.8898  0.3508 -0.5076
   31CHL1   C11 2254   6.665   4.640   4.127 -0.2127  0.4588 -0.0231
   31CHL1  H11A 2255   6.605   4.731   4.106 -1.2386 -0.1743  0.0914
   31CHL1  H11B 2256   6.760   4.645   4.069  0.7577 -1.7115  1.2528
   31CHL1    C9 2257   6.585   4.511   4.067  0.0277  0.0322  0.1328
   31CHL1    H9 2258   6.659   4.431   4.094  2.0106  1.2418 -1.3910
   31CHL1   C10 2259   6.562   4.511   3.911 -0.3091 -0.1933  0.1418
   31CHL1   C19 2260   6.522   4.655   3.869 -0.5862 -0.3772  0.3105
   31CHL1  H19A 2261   6.416   4.677   3.895 -0.7469  0.5783 -1.0568
   31CHL1  H19B 2262   6.582   4.741   3.907  2.5750 -2.0413 -0.5505
   31CHL1  H19C 2263   6.543   4.661   3.760  1.5615 -1.5118  0.6043
   31CHL1    C1 2264   6.700   4.475   3.846  0.4010 -0.0755 -0.1478
   31CHL1   H1A 2265   6.783   4.544   3.869  2.4112 -2.6477  0.8974
   31CHL1   H1B 2266   6.729   4.373   3.879 -1.8537 -1.3482 -1.8300
   31CHL1    C2 2267   6.690   4.459   3.693  0.5790  0.1349  0.3457
   31CHL1   H2A 2268   6.787   4.412   3.666  0.6482  1.0131 -1.0110
   31CHL1   H2B 2269   6.683   4.558   3.644 -0.4459  0.5199  1.2409
   31CHL1   C20 2270   6.548   4.715   4.592 -0.2401  0.0299  0.2366
   31CHL1   H20 2271   6.466   4.787   4.570 -0.9364 -0.1886  1.9534
   31CHL1   C21 2272   6.682   4.785   4.565 -1.0090 -0.1211  0.1362
   31CHL1  H21A 2273   6.685   4.864   4.487 -0.5149  1.0700  1.3322
   31CHL1  H21B 2274   6.770   4.721   4.543  0.2727  1.6705 -0.0999
   31CHL1  H21C 2275   6.700   4.841   4.659  1.3347 -0.7067  0.0958
   31CHL1   C22 2276   6.531   4.664   4.733  0.6484  0.0845  0.5298
   31CHL1  H22A 2277   6.423   4.650   4.757  1.1573 -2.7024  1.6056
   31CHL1  H22B 2278   6.581   4.565   4.737  0.9565  0.1912 -0.4982
   31CHL1   C23 2279   6.573   4.753   4.854  0.7604  0.3630 -0.4215
   31CHL1  H23A 2280   6.683   4.768   4.862  0.6909  1.0227 -0.7161
   31CHL1  H23B 2281   6.534   4.855   4.839 -0.1027 -0.1237 -1.6369
   31CHL1   C24 2282   6.523   4.701   4.992  0.3861  0.1696  0.5981
   31CHL1  H24A 2283   6.416   4.673   4.985  0.5998 -0.3144 -2.0023
   31CHL1  H24B 2284   6.573   4.606   5.021 -0.6408 -0.3403  0.7437
   31CHL1   C25 2285   6.551   4.794   5.116  0.1296  0.0632 -0.4497
   31CHL1   H25 2286   6.522   4.891   5.069 -0.8614 -0.4767 -0.9963
   31CHL1   C26 2287   6.469   4.753   5.238 -0.1955 -0.9889  0.0131
   31CHL1  H26A 2288   6.497   4.813   5.328  0.0063  1.4017 -1.5342
   31CHL1  H26B 2289   6.361   4.761   5.215 -0.7606  0.2166  2.7514
   31CHL1  H26C 2290   6.487   4.646   5.262  0.1432 -1.1022 -0.6996
   31CHL1   C27 2291   6.701   4.811   5.156  0.0309  0.2824  0.1669
   31CHL1  H27A 2292   6.749   4.712   5.177  1.1265  0.7449 -0.0883
   31CHL1  H27B 2293   6.758   4.861   5.075 -0.0401 -1.0494 -0.7498
   31CHL1  H27C 2294   6.713   4.872   5.248 -1.6763  0.7216  0.1224
   32CHL1    C3 2295   3.537   1.892   3.713  0.3266 -0.6901  0.1239
   32CHL1    H3 2296   3.461   1.844   3.778  0.9151 -0.4542  1.0149
   32CHL1    O3 2297   3.499   1.872   3.576  0.5110 -0.3302 -0.6244
   32CHL1   H3' 2298   3.549   1.940   3.530  0.8067 -0.8733 -1.1068
   32CHL1    C4 2299   3.527   2.046   3.737 -0.0483  0.7543 -0.2231
   32CHL1   H4A 2300   3.600   2.107   3.679  0.5488  3.3801  2.9657
   32CHL1   H4B 2301   3.426   2.084   3.709  0.3680  1.2972 -1.0445
   32CHL1    C5 2302   3.546   2.074   3.884 -0.3849  0.0837  0.1038
   32CHL1    C6 2303   3.452   2.129   3.961  0.3766 -0.5245  0.3294
   32CHL1    H6 2304   3.355   2.147   3.914  1.5613  0.1798 -1.9892
   32CHL1    C7 2305   3.458   2.156   4.108 -0.0129 -0.5831  0.1711
   32CHL1   H7A 2306   3.426   2.259   4.136  1.5352 -0.2443  0.7966
   32CHL1   H7B 2307   3.411   2.077   4.171  0.3211 -0.8242  0.1209
   32CHL1    C8 2308   3.608   2.164   4.146  0.1394  0.1095  0.5820
   32CHL1    H8 2309   3.650   2.254   4.095 -1.2512  1.8653  2.3622
   32CHL1   C14 2310   3.623   2.175   4.300  0.4395 -0.3645 -0.1330
   32CHL1   H14 2311   3.585   2.084   4.352  1.9347 -2.0279 -1.7985
   32CHL1   C15 2312   3.548   2.294   4.354 -0.2732 -0.3259 -0.6609
   32CHL1  H15A 2313   3.571   2.393   4.309  2.2064 -0.4409  0.1548
   32CHL1  H15B 2314   3.440   2.272   4.352 -0.7167  1.5060  0.3528
   32CHL1   C16 2315   3.597   2.299   4.507  0.1713 -0.1775  0.0481
   32CHL1  H16A 2316   3.613   2.407   4.526 -0.5154  0.2885 -1.7553
   32CHL1  H16B 2317   3.524   2.246   4.571  0.9941 -0.7666  0.5216
   32CHL1   C17 2318   3.725   2.218   4.509 -0.5315 -0.3035  1.0198
   32CHL1   H17 2319   3.701   2.121   4.557 -0.0468 -0.0462  1.8025
   32CHL1   C13 2320   3.762   2.185   4.359 -0.2486 -0.1202 -0.8031
   32CHL1   C18 2321   3.836   2.312   4.302 -0.4105  0.9222  0.3052
   32CHL1  H18A 2322   3.939   2.317   4.343 -1.1871  1.1314  2.3655
   32CHL1  H18B 2323   3.839   2.304   4.191 -0.0311  0.1075  0.3632
   32CHL1  H18C 2324   3.783   2.406   4.326  0.6855  1.2437  1.5863
   32CHL1   C12 2325   3.832   2.048   4.310 -0.1500  0.2300  0.0073
   32CHL1  H12A 2326   3.940   2.039   4.337 -0.0538  1.8132  0.2525
   32CHL1  H12B 2327   3.768   1.974   4.362 -1.2930  0.1101 -1.5174
   32CHL1   C11 2328   3.824   2.027   4.155 -0.0524  0.3416 -0.2298
   32CHL1  H11A 2329   3.906   2.082   4.104  1.4198 -1.3049  0.2391
   32CHL1  H11B 2330   3.847   1.921   4.130 -1.6262  0.0034 -0.3619
   32CHL1    C9 2331   3.682   2.040   4.091 -0.2574 -0.3716 -0.3624
   32CHL1    H9 2332   3.628   1.953   4.133  0.5201 -0.0019  1.5117
   32CHL1   C10 2333   3.685   2.034   3.939 -0.6010  0.7026 -0.3237
   32CHL1   C19 2334   3.794   2.123   3.879 -0.6103 -0.3743  0.3611
   32CHL1  H19A 2335   3.898   2.084   3.887  0.3052  1.8337 -0.0825
   32CHL1  H19B 2336   3.779   2.141   3.770  0.4281 -0.0743  0.2521
   32CHL1  H19C 2337   3.792   2.228   3.914 -2.1068  0.9087 -3.0912
   32CHL1    C1 2338   3.709   1.885   3.890 -0.3055  0.4808 -0.4417
   32CHL1   H1A 2339   3.810   1.850   3.922 -1.1963 -1.9127 -0.0218
   32CHL1   H1B 2340   3.639   1.821   3.949 -0.5440  2.0376  1.0483
   32CHL1    C2 2341   3.681   1.853   3.742 -0.3727 -0.2568  0.1477
   32CHL1   H2A 2342   3.683   1.742   3.739  0.0837 -0.2352 -0.6837
   32CHL1   H2B 2343   3.756   1.900   3.675 -1.2458  1.1841  0.1388
   32CHL1   C20 2344   3.820   2.279   4.616  0.2608 -0.4914 -0.7604
   32CHL1   H20 2345   3.844   2.384   4.592 -1.5887  0.6595  1.9109
   32CHL1   C21 2346   3.945   2.194   4.626 -0.3155  0.4128  0.5517
   32CHL1  H21A 2347   3.974   2.163   4.523 -1.0413 -2.9543  1.2574
   32CHL1  H21B 2348   3.929   2.103   4.687  2.8698 -1.7491 -1.4892
   32CHL1  H21C 2349   4.033   2.254   4.660  1.2130 -0.7867 -1.1132
   32CHL1   C22 2350   3.742   2.292   4.761 -0.9528 -0.6222 -0.0781
   32CHL1  H22A 2351   3.658   2.364   4.747  2.7004  5.1435  3.4504
   32CHL1  H22B 2352   3.711   2.188   4.783 -0.8854 -0.9802 -1.5309
   32CHL1   C23 2353   3.823   2.342   4.880  0.5632  0.7736  0.4053
   32CHL1  H23A 2354   3.917   2.284   4.893  1.3164  2.0340  0.8062
   32CHL1  H23B 2355   3.860   2.445   4.861 -1.6094  1.5961  0.3134
   32CHL1   C24 2356   3.745   2.354   5.010 -0.1529 -0.3559 -0.4293
   32CHL1  H24A 2357   3.670   2.435   5.004  1.0130  0.9399  1.6512
   32CHL1  H24B 2358   3.691   2.259   5.032 -2.5874  1.5969  2.7880
   32CHL1   C25 2359   3.838   2.396   5.128  0.2528 -0.5264  0.3083
   32CHL1   H25 2360   3.930   2.335   5.121  1.0372  0.8293 -1.8484
   32CHL1   C26 2361   3.888   2.542   5.144 -0.2908  0.3928 -0.0398
   32CHL1  H26A 2362   3.960   2.553   5.059  0.2997 -0.6463  0.3041
   32CHL1  H26B 2363   3.806   2.615   5.128  0.3325  1.6102  2.0092
   32CHL1  H26C 2364   3.931   2.562   5.244 -1.4913 -1.6471  0.9325
   32CHL1   C27 2365   3.770   2.371   5.261  0.6516  0.3323 -0.2929
   32CHL1  H27A 2366   3.702   2.455   5.286 -1.2653 -1.1200 -0.3581
   32CHL1  H27B 2367   3.705   2.281   5.270  2.5307 -1.0833 -0.4796
   32CHL1  H27C 2368   3.843   2.364   5.344 -0.4200  1.7284  0.8235
   33CHL1    C3 2369   2.458   3.146   3.123  0.2061  0.1674 -1.4243
   33CHL1    H3 2370   2.473   3.256   3.115 -0.3358  0.4036  0.2831
   33CHL1    O3 2371   2.446   3.092   2.993 -0.4314  0.3463  0.0358
   33CHL1   H3' 2372   2.500   3.013   3.005 -1.3721 -0.4481 -0.8323
   33CHL1    C4 2373   2.577   3.086   3.201 -0.0441  0.3246 -0.1486
   33CHL1   H4A 2374   2.566   2.976   3.194 -0.6075  0.4548 -1.8569
   33CHL1   H4B 2375   2.670   3.117   3.149  0.7697  0.9083  1.5613
   33CHL1    C5 2376   2.584   3.125   3.349 -0.1838  0.3696 -0.2956
   33CHL1    C6 2377   2.693   3.177   3.398 -0.0245  0.6018 -0.2571
   33CHL1    H6 2378   2.784   3.189   3.337  0.2618  0.6964  0.1848
   33CHL1    C7 2379   2.712   3.205   3.544  0.1131 -0.6525  0.2377
   33CHL1   H7A 2380   2.807   3.159   3.579 -0.1545 -0.0741  1.7884
   33CHL1   H7B 2381   2.718   3.314   3.564 -1.5212 -0.8406  1.9462
   33CHL1    C8 2382   2.602   3.146   3.627  0.4363 -0.3331  0.1645
   33CHL1    H8 2383   2.601   3.035   3.622 -4.4610 -0.4183 -1.9439
   33CHL1   C14 2384   2.607   3.202   3.771  0.9081 -0.0719 -0.5062
   33CHL1   H14 2385   2.604   3.313   3.766 -0.6653 -0.0691 -0.0580
   33CHL1   C15 2386   2.735   3.177   3.855  0.1855  0.3595 -0.4044
   33CHL1  H15A 2387   2.763   3.071   3.868 -0.7258  0.4280  2.9774
   33CHL1  H15B 2388   2.824   3.233   3.817  0.2426  0.8195  0.3867
   33CHL1   C16 2389   2.687   3.219   3.995  0.3607 -0.3295 -0.6935
   33CHL1  H16A 2390   2.721   3.166   4.086  0.8292  2.9947  1.2159
   33CHL1  H16B 2391   2.732   3.317   4.020 -2.4728  1.1000 -0.8434
   33CHL1   C17 2392   2.531   3.238   3.991 -0.1772  0.2980 -0.6100
   33CHL1   H17 2393   2.500   3.342   3.967  1.9322  1.2312  0.4477
   33CHL1   C13 2394   2.489   3.160   3.864  0.3292 -0.1413  0.3835
   33CHL1   C18 2395   2.509   3.006   3.892  0.4677 -0.0798 -0.8184
   33CHL1  H18A 2396   2.416   2.962   3.933  1.6881 -2.1470 -0.0625
   33CHL1  H18B 2397   2.532   2.947   3.801 -2.1539 -1.4873 -0.6611
   33CHL1  H18C 2398   2.585   2.987   3.971 -1.0566 -0.3945  0.6200
   33CHL1   C12 2399   2.356   3.202   3.794 -1.0818  0.4930 -0.6314
   33CHL1  H12A 2400   2.271   3.183   3.864 -0.0326 -2.2014  0.0637
   33CHL1  H12B 2401   2.369   3.312   3.790 -2.1917  0.6893  0.5340
   33CHL1   C11 2402   2.343   3.126   3.660  0.8313 -0.0367 -0.1018
   33CHL1  H11A 2403   2.347   3.017   3.677 -0.8796 -0.7653 -3.5118
   33CHL1  H11B 2404   2.241   3.143   3.619  0.0395 -0.7729  1.4867
   33CHL1    C9 2405   2.457   3.169   3.565 -0.1430  0.7263  0.3796
   33CHL1    H9 2406   2.448   3.279   3.558  1.6778  1.0291  1.9520
   33CHL1   C10 2407   2.455   3.105   3.425  0.8458 -0.7934 -0.7530
   33CHL1   C19 2408   2.416   2.954   3.442  0.9371 -0.4302  0.3243
   33CHL1  H19A 2409   2.480   2.916   3.525  1.3703  0.8109  0.5788
   33CHL1  H19B 2410   2.310   2.939   3.472  0.1657  0.5159 -1.7414
   33CHL1  H19C 2411   2.431   2.904   3.344 -0.5353  0.1022 -0.1972
   33CHL1    C1 2412   2.348   3.176   3.335  0.2984  0.7127 -0.3357
   33CHL1   H1A 2413   2.249   3.179   3.387  1.8301  1.6147  2.7579
   33CHL1   H1B 2414   2.379   3.282   3.320  0.3090  0.8292  0.4918
   33CHL1    C2 2415   2.339   3.108   3.192  0.7418 -0.0896 -0.4484
   33CHL1   H2A 2416   2.254   3.158   3.140  0.6473 -0.2799 -0.4780
   33CHL1   H2B 2417   2.312   3.000   3.202 -0.1815  0.0168 -1.5585
   33CHL1   C20 2418   2.490   3.192   4.131  0.2281 -0.0546  0.4588
   33CHL1   H20 2419   2.540   3.096   4.154  1.3685  0.5989  0.8304
   33CHL1   C21 2420   2.336   3.185   4.140  0.0331 -0.1390 -0.2929
   33CHL1  H21A 2421   2.301   3.144   4.238  0.7168  2.1704  0.9842
   33CHL1  H21B 2422   2.289   3.116   4.066 -0.4239  0.7625 -0.8573
   33CHL1  H21C 2423   2.296   3.287   4.125 -1.3643 -0.4405  1.0089
   33CHL1   C22 2424   2.536   3.289   4.245  0.4174  0.3446 -0.7524
   33CHL1  H22A 2425   2.630   3.344   4.223  0.1749  0.4915 -1.4633
   33CHL1  H22B 2426   2.470   3.378   4.244  1.6448  1.2765 -1.2449
   33CHL1   C23 2427   2.536   3.216   4.383  0.1651  0.2767  0.7960
   33CHL1  H23A 2428   2.430   3.203   4.411 -0.1059  1.6070  0.4710
   33CHL1  H23B 2429   2.588   3.120   4.363 -1.0284  0.1215 -1.9711
   33CHL1   C24 2430   2.605   3.309   4.481 -1.0057 -0.0319 -0.4948
   33CHL1  H24A 2431   2.696   3.351   4.432 -0.2133 -0.6885  0.3876
   33CHL1  H24B 2432   2.540   3.397   4.500 -1.7024 -0.1125 -2.2765
   33CHL1   C25 2433   2.661   3.236   4.605  0.3846  0.6359  0.1781
   33CHL1   H25 2434   2.578   3.174   4.644  0.3662 -0.1224 -1.0105
   33CHL1   C26 2435   2.769   3.132   4.575  0.6289 -0.5794 -0.8322
   33CHL1  H26A 2436   2.728   3.047   4.515  0.5263  0.0622 -1.6908
   33CHL1  H26B 2437   2.851   3.173   4.512  2.0100  1.2213  1.9680
   33CHL1  H26C 2438   2.805   3.088   4.670  0.3287 -0.4043 -0.6387
   33CHL1   C27 2439   2.707   3.346   4.707  0.2727 -0.6364  0.4408
   33CHL1  H27A 2440   2.620   3.408   4.739  0.6658  0.1473  0.0380
   33CHL1  H27B 2441   2.767   3.309   4.793 -0.1399 -0.3016  0.8850
   33CHL1  H27C 2442   2.771   3.418   4.652 -0.7656 -0.2830 -0.3254
   34CHL1    C3 2443   6.419   3.892   3.398 -0.0639 -0.3405 -0.6590
   34CHL1    H3 2444   6.514   3.950   3.390 -0.6342  1.3061  2.5304
   34CHL1    O3 2445   6.373   3.872   3.266  0.0483 -0.1631  0.2187
   34CHL1   H3' 2446   6.436   3.812   3.226 -0.3053  0.6676 -1.6940
   34CHL1    C4 2447   6.441   3.754   3.458  0.0195 -0.1253  0.0550
   34CHL1   H4A 2448   6.345   3.701   3.442 -0.4948  1.3807 -2.3869
   34CHL1   H4B 2449   6.523   3.713   3.396  1.8267  1.3869  1.3222
   34CHL1    C5 2450   6.484   3.763   3.607 -0.5420  0.1726  0.0386
   34CHL1    C6 2451   6.595   3.709   3.650  0.4517  0.9826 -0.7400
   34CHL1    H6 2452   6.659   3.644   3.588 -0.4626  0.5096 -1.1999
   34CHL1    C7 2453   6.637   3.703   3.797 -0.1245 -0.3417  0.0549
   34CHL1   H7A 2454   6.673   3.600   3.814  0.1139 -0.3914 -0.7437
   34CHL1   H7B 2455   6.721   3.773   3.820  0.8189 -1.6841  0.8111
   34CHL1    C8 2456   6.521   3.749   3.890 -0.0082 -0.3001  1.6068
   34CHL1    H8 2457   6.447   3.665   3.890  0.6987 -1.0840 -2.0006
   34CHL1   C14 2458   6.582   3.788   4.015 -0.1471 -0.1124 -0.6699
   34CHL1   H14 2459   6.642   3.879   3.995  0.7755 -0.3154  0.9527
   34CHL1   C15 2460   6.687   3.689   4.078 -0.5085 -0.0733 -0.0936
   34CHL1  H15A 2461   6.637   3.590   4.066  0.7457 -0.6122 -1.0379
   34CHL1  H15B 2462   6.788   3.688   4.032 -0.3106  0.6397  0.3055
   34CHL1   C16 2463   6.684   3.733   4.221  0.3736  0.2064 -0.4070
   34CHL1  H16A 2464   6.657   3.647   4.286 -1.8149 -0.5409 -2.1685
   34CHL1  H16B 2465   6.784   3.766   4.255  0.0845  0.5934  0.0898
   34CHL1   C17 2466   6.587   3.843   4.246 -0.1153 -0.5576 -0.2497
   34CHL1   H17 2467   6.634   3.941   4.221  0.7689 -1.1059 -0.8014
   34CHL1   C13 2468   6.491   3.825   4.131  0.4548  0.0044 -0.7097
   34CHL1   C18 2469   6.378   3.721   4.173 -0.4297  0.3499 -0.4569
   34CHL1  H18A 2470   6.313   3.717   4.083 -1.6069 -0.8842  0.3921
   34CHL1  H18B 2471   6.416   3.619   4.196 -0.8790  0.1449 -0.6009
   34CHL1  H18C 2472   6.324   3.759   4.262  1.3185  0.6665  0.5060
   34CHL1   C12 2473   6.426   3.955   4.076  0.4156 -0.1134  0.4486
   34CHL1  H12A 2474   6.348   3.994   4.145 -0.5783 -0.5663 -0.3905
   34CHL1  H12B 2475   6.512   4.022   4.057 -0.5143  0.8265 -0.6154
   34CHL1   C11 2476   6.354   3.931   3.939  0.2326 -0.4419  0.1675
   34CHL1  H11A 2477   6.268   3.863   3.951  0.4457 -1.0583 -1.6210
   34CHL1  H11B 2478   6.324   4.031   3.899  1.0491 -0.1219  0.3309
   34CHL1    C9 2479   6.449   3.875   3.830 -0.1668  0.0334 -0.6743
   34CHL1    H9 2480   6.525   3.956   3.822 -1.6853  1.4991 -0.7164
   34CHL1   C10 2481   6.390   3.853   3.690 -0.5060  0.0158 -0.3821
   34CHL1   C19 2482   6.257   3.775   3.694  1.2066 -0.0719 -0.2130
   34CHL1  H19A 2483   6.224   3.762   3.588  0.2917 -0.2486  0.0793
   34CHL1  H19B 2484   6.246   3.676   3.742 -2.0945 -0.4185 -1.3822
   34CHL1  H19C 2485   6.186   3.837   3.753  1.8348 -1.0846  1.6573
   34CHL1    C1 2486   6.365   3.991   3.615  0.4119 -0.3980  0.0426
   34CHL1   H1A 2487   6.289   4.043   3.677  1.1020 -0.0111  0.5848
   34CHL1   H1B 2488   6.456   4.055   3.615  1.1044 -1.2875 -2.8049
   34CHL1    C2 2489   6.318   3.985   3.471  0.0954  0.2228  0.6321
   34CHL1   H2A 2490   6.307   4.083   3.421 -2.0222 -1.3208 -2.2228
   34CHL1   H2B 2491   6.218   3.940   3.459 -0.0865  0.9496 -0.7415
   34CHL1   C20 2492   6.521   3.853   4.391 -0.1499 -0.0247  0.5567
   34CHL1   H20 2493   6.466   3.758   4.405 -1.4314  0.3405 -1.5417
   34CHL1   C21 2494   6.430   3.979   4.390 -0.5711  0.1968 -0.2748
   34CHL1  H21A 2495   6.477   4.064   4.337 -0.9048  0.6477  0.1569
   34CHL1  H21B 2496   6.411   4.017   4.492 -1.4259  0.0024 -0.3527
   34CHL1  H21C 2497   6.327   3.963   4.351 -1.3944  0.3730  1.7068
   34CHL1   C22 2498   6.628   3.852   4.493  0.4055 -0.0110 -0.1746
   34CHL1  H22A 2499   6.707   3.776   4.473  0.7190  0.0190  0.8856
   34CHL1  H22B 2500   6.685   3.948   4.491  1.5199 -0.4638  3.3426
   34CHL1   C23 2501   6.548   3.831   4.631  0.1904  0.7764  0.0425
   34CHL1  H23A 2502   6.484   3.920   4.650  1.4131  1.4225  1.3230
   34CHL1  H23B 2503   6.490   3.738   4.616 -1.3433  1.7952 -0.5366
   34CHL1   C24 2504   6.652   3.822   4.741  0.1620  0.7613  0.4545
   34CHL1  H24A 2505   6.717   3.736   4.717  0.4845  1.1711 -0.1762
   34CHL1  H24B 2506   6.725   3.906   4.749 -0.7527  1.7595 -1.0093
   34CHL1   C25 2507   6.574   3.827   4.875  0.5896 -0.1963  0.1332
   34CHL1   H25 2508   6.518   3.923   4.878 -0.3282 -0.7000 -0.4684
   34CHL1   C26 2509   6.481   3.710   4.892 -0.5043  0.3507  0.1358
   34CHL1  H26A 2510   6.425   3.727   4.987  0.1278 -1.9976  1.0097
   34CHL1  H26B 2511   6.409   3.688   4.810  0.9239 -3.2521 -0.3378
   34CHL1  H26C 2512   6.543   3.619   4.910 -0.4854  0.5043  0.9086
   34CHL1   C27 2513   6.664   3.821   4.996 -0.4385  0.2968 -0.7621
   34CHL1  H27A 2514   6.734   3.735   4.983  0.1211  0.7349 -0.6789
   34CHL1  H27B 2515   6.734   3.907   5.002 -0.7137  0.4100  2.4631
   34CHL1  H27C 2516   6.610   3.811   5.093  0.3168 -2.2649 -0.5196
   35CHL1    C3 2517   2.798   5.377   3.617 -0.7214 -0.3668 -0.0232
   35CHL1    H3 2518   2.746   5.279   3.630 -0.6990 -0.4550 -0.5499
   35CHL1    O3 2519   2.863   5.377   3.489 -0.2108 -0.2246  0.0936
   35CHL1   H3' 2520   2.919   5.300   3.489 -0.4070 -0.4051  1.7123
   35CHL1    C4 2521   2.699   5.492   3.631  0.1602  0.0912 -0.5242
   35CHL1   H4A 2522   2.746   5.590   3.606  1.4805 -0.5511 -0.6138
   35CHL1   H4B 2523   2.623   5.480   3.551 -0.1126 -0.9297 -0.1224
   35CHL1    C5 2524   2.641   5.492   3.774  0.0530  0.4127  0.1005
   35CHL1    C6 2525   2.507   5.487   3.791 -0.0542 -0.0396 -0.1973
   35CHL1    H6 2526   2.434   5.485   3.709 -0.4256  2.2322  0.0204
   35CHL1    C7 2527   2.446   5.497   3.926 -0.0963  0.2278  0.1913
   35CHL1   H7A 2528   2.356   5.562   3.930 -0.3626 -0.1977  2.2523
   35CHL1   H7B 2529   2.401   5.399   3.955  1.2299 -0.8497 -1.2378
   35CHL1    C8 2530   2.540   5.546   4.033 -0.0470 -0.1357 -0.1118
   35CHL1    H8 2531   2.560   5.652   4.009 -3.9733  1.1400  1.4493
   35CHL1   C14 2532   2.481   5.532   4.173 -0.2791 -0.2109 -0.6066
   35CHL1   H14 2533   2.448   5.426   4.185 -0.9384 -0.2226 -2.3179
   35CHL1   C15 2534   2.342   5.602   4.195  0.4967  0.1160  0.1724
   35CHL1  H15A 2535   2.346   5.706   4.156  1.4047 -0.1777 -0.5401
   35CHL1  H15B 2536   2.262   5.550   4.139  0.7761  1.8083 -1.9433
   35CHL1   C16 2537   2.331   5.603   4.345 -0.1472 -0.1851  0.5701
   35CHL1  H16A 2538   2.307   5.708   4.372 -0.5535  0.1415 -0.9747
   35CHL1  H16B 2539   2.246   5.539   4.378 -0.8054 -0.1906 -1.0074
   35CHL1   C17 2540   2.467   5.557   4.409  0.1355  0.3529  0.3366
   35CHL1   H17 2541   2.455   5.447   4.419 -2.3269  0.6492  1.3876
   35CHL1   C13 2542   2.569   5.574   4.295 -0.1123  0.0814 -0.7021
   35CHL1   C18 2543   2.595   5.726   4.296 -0.0308 -0.0599 -0.3572
   35CHL1  H18A 2544   2.672   5.744   4.374 -1.6050  0.3540  1.1681
   35CHL1  H18B 2545   2.625   5.760   4.195 -1.0413 -1.3331 -1.1198
   35CHL1  H18C 2546   2.506   5.786   4.323  0.3915  0.7190 -0.6773
   35CHL1   C12 2547   2.697   5.488   4.291 -0.3409 -0.2607  0.2578
   35CHL1  H12A 2548   2.763   5.519   4.375 -1.2349 -1.2220  1.3484
   35CHL1  H12B 2549   2.680   5.379   4.305 -1.7851 -0.0592  0.1767
   35CHL1   C11 2550   2.764   5.510   4.151 -0.1895  0.2933  0.6095
   35CHL1  H11A 2551   2.802   5.614   4.150  1.3803 -0.2397  1.7888
   35CHL1  H11B 2552   2.849   5.439   4.160  1.0628  1.9589  3.3004
   35CHL1    C9 2553   2.671   5.478   4.029 -0.6645 -0.5976  0.2655
   35CHL1    H9 2554   2.649   5.369   4.040 -0.1743 -0.7663 -0.3569
   35CHL1   C10 2555   2.745   5.502   3.888 -0.6260 -0.1149  0.8154
   35CHL1   C19 2556   2.819   5.635   3.895  0.3028  0.1951 -0.3801
   35CHL1  H19A 2557   2.758   5.722   3.929 -0.5193 -1.0718  1.5354
   35CHL1  H19B 2558   2.906   5.616   3.961  0.8789  1.3512 -0.7810
   35CHL1  H19C 2559   2.861   5.669   3.798 -0.8398 -1.7150 -1.6179
   35CHL1    C1 2560   2.852   5.387   3.859  0.8492 -0.6782  0.2131
   35CHL1   H1A 2561   2.929   5.405   3.937 -1.3519  1.4970  2.0423
   35CHL1   H1B 2562   2.788   5.300   3.883 -1.0977 -0.0595 -2.2799
   35CHL1    C2 2563   2.913   5.386   3.722  0.6901 -1.1303  0.8139
   35CHL1   H2A 2564   2.967   5.290   3.703  0.6200 -0.8285 -1.0137
   35CHL1   H2B 2565   2.980   5.473   3.704  0.3693 -1.1792 -0.7358
   35CHL1   C20 2566   2.501   5.609   4.552 -0.1696  0.4052 -0.1790
   35CHL1   H20 2567   2.544   5.711   4.555  0.0205  0.3173  0.1025
   35CHL1   C21 2568   2.598   5.499   4.620 -0.6995 -0.1121  0.3551
   35CHL1  H21A 2569   2.621   5.533   4.723  1.1479  1.0395 -0.3706
   35CHL1  H21B 2570   2.693   5.488   4.562 -1.0828  0.5209 -0.4050
   35CHL1  H21C 2571   2.558   5.396   4.626 -0.0404 -0.3834  0.2705
   35CHL1   C22 2572   2.373   5.618   4.636 -0.4554  0.3721  0.4817
   35CHL1  H22A 2573   2.298   5.682   4.585 -1.5126 -1.8662 -0.9323
   35CHL1  H22B 2574   2.325   5.518   4.645 -1.2777  0.8372  1.5037
   35CHL1   C23 2575   2.390   5.690   4.771  0.4684  0.9136 -0.4241
   35CHL1  H23A 2576   2.466   5.632   4.826 -0.5985 -1.5905 -1.4509
   35CHL1  H23B 2577   2.423   5.795   4.756 -2.1550  1.7946 -0.5564
   35CHL1   C24 2578   2.262   5.701   4.853 -0.4746 -0.2569 -0.0696
   35CHL1  H24A 2579   2.178   5.746   4.795  0.2099  1.0498 -0.0926
   35CHL1  H24B 2580   2.245   5.597   4.886  1.2829  0.0022  1.9117
   35CHL1   C25 2581   2.265   5.778   4.980 -0.3529 -0.4337  0.0923
   35CHL1   H25 2582   2.365   5.780   5.028 -0.7366  1.0574  0.9000
   35CHL1   C26 2583   2.238   5.924   4.950 -0.2179 -0.0720  0.2660
   35CHL1  H26A 2584   2.235   5.982   5.045 -1.0804 -0.0115  0.2081
   35CHL1  H26B 2585   2.316   5.960   4.879 -0.9641 -0.6433 -0.8508
   35CHL1  H26C 2586   2.143   5.934   4.893 -0.2068  1.1979  0.4316
   35CHL1   C27 2587   2.159   5.726   5.084  0.1002  0.1906  0.4121
   35CHL1  H27A 2588   2.059   5.752   5.042 -0.1966 -1.3885  0.0415
   35CHL1  H27B 2589   2.162   5.615   5.074  0.6553  0.3981 -2.7811
   35CHL1  H27C 2590   2.181   5.766   5.184 -0.3443 -1.3693  1.1754
   36CHL1    C3 2591   4.754   1.837   3.375  0.5735  0.4467 -0.0680
   36CHL1    H3 2592   4.673   1.769   3.411 -1.6710  1.4051 -2.8952
   36CHL1    O3 2593   4.763   1.795   3.235 -0.1584 -0.0279  0.6186
   36CHL1   H3' 2594   4.781   1.874   3.184  3.4231 -0.4654  0.9425
   36CHL1    C4 2595   4.714   1.983   3.388 -0.4118  0.2439  0.2443
   36CHL1   H4A 2596   4.790   2.043   3.333 -0.4096  1.4545  1.5270
   36CHL1   H4B 2597   4.620   2.011   3.336  0.1639  0.7520 -0.5510
   36CHL1    C5 2598   4.708   2.016   3.537  0.0430 -0.9035 -0.6915
   36CHL1    C6 2599   4.590   2.062   3.593 -0.5042 -0.5907 -0.1045
   36CHL1    H6 2600   4.504   2.074   3.524 -1.2048  1.7081  1.0731
   36CHL1    C7 2601   4.568   2.099   3.738 -0.2165  0.2352 -0.6854
   36CHL1   H7A 2602   4.518   2.198   3.741  0.6175  0.6631  2.2425
   36CHL1   H7B 2603   4.508   2.020   3.789 -0.1565  1.2176  0.9716
   36CHL1    C8 2604   4.699   2.106   3.810 -0.4389  0.2060 -0.0683
   36CHL1    H8 2605   4.746   2.203   3.781 -0.0177 -0.2700 -1.0363
   36CHL1   C14 2606   4.674   2.096   3.954  0.6290 -0.9358  0.3107
   36CHL1   H14 2607   4.636   1.994   3.978 -0.4560 -0.1823  1.9864
   36CHL1   C15 2608   4.576   2.195   4.011  0.2151  0.0730 -0.4965
   36CHL1  H15A 2609   4.594   2.296   3.968  0.6753 -0.2164 -0.9847
   36CHL1  H15B 2610   4.468   2.181   3.990 -0.3252  1.3728  1.1203
   36CHL1   C16 2611   4.595   2.198   4.157 -0.1904 -0.2892  0.2179
   36CHL1  H16A 2612   4.614   2.300   4.198  0.7876 -0.5945  0.5651
   36CHL1  H16B 2613   4.507   2.156   4.209 -0.6922 -3.1235 -2.6254
   36CHL1   C17 2614   4.732   2.121   4.184  0.6341  0.3305  0.0371
   36CHL1   H17 2615   4.700   2.019   4.214  3.1791 -0.4549  0.2541
   36CHL1   C13 2616   4.792   2.117   4.043  0.3110  0.3095 -0.6036
   36CHL1   C18 2617   4.861   2.255   4.019 -0.1197  0.5666  0.5767
   36CHL1  H18A 2618   4.802   2.346   4.043  0.3648  1.3111 -0.9065
   36CHL1  H18B 2619   4.955   2.263   4.078  1.0799  2.0828 -1.4249
   36CHL1  H18C 2620   4.903   2.245   3.917 -0.8055  1.5865  0.1833
   36CHL1   C12 2621   4.893   2.007   4.008 -0.0450  0.3289 -0.3441
   36CHL1  H12A 2622   4.984   2.035   4.066 -0.6662 -0.0237  0.8393
   36CHL1  H12B 2623   4.859   1.908   4.047  0.9726 -0.2828 -0.9680
   36CHL1   C11 2624   4.922   1.994   3.856 -0.4419  0.0732  0.1485
   36CHL1  H11A 2625   5.003   2.068   3.836 -0.9530  0.3848 -0.7906
   36CHL1  H11B 2626   4.977   1.897   3.850 -0.4821 -0.0107  1.0838
   36CHL1    C9 2627   4.798   1.994   3.769 -0.0505 -0.3824  0.0089
   36CHL1    H9 2628   4.746   1.897   3.786  0.0469 -0.3588  0.4508
   36CHL1   C10 2629   4.838   1.990   3.621  0.0497 -0.3933  0.0101
   36CHL1   C19 2630   4.942   2.103   3.584 -0.5073 -0.2331 -0.6223
   36CHL1  H19A 2631   5.037   2.076   3.635 -1.9853 -1.2024  1.8484
   36CHL1  H19B 2632   4.956   2.105   3.474  0.6234  0.0953 -0.4805
   36CHL1  H19C 2633   4.913   2.209   3.603 -0.4724  0.0257 -1.9303
   36CHL1    C1 2634   4.886   1.851   3.589 -0.7373  0.2184 -0.0334
   36CHL1   H1A 2635   4.982   1.821   3.636  0.1593 -0.5193 -2.2085
   36CHL1   H1B 2636   4.801   1.790   3.627 -0.8330  0.1697 -0.3220
   36CHL1    C2 2637   4.890   1.811   3.439  0.1919 -0.6251 -0.1369
   36CHL1   H2A 2638   4.904   1.702   3.422 -2.3040 -1.0944  0.4305
   36CHL1   H2B 2639   4.956   1.869   3.372 -1.9215 -0.4203 -2.1480
   36CHL1   C20 2640   4.810   2.180   4.305  0.4422  0.1551 -0.4735
   36CHL1   H20 2641   4.822   2.286   4.273 -0.5859 -0.4369 -3.1230
   36CHL1   C21 2642   4.944   2.113   4.327  0.0728 -0.1317 -0.7100
   36CHL1  H21A 2643   4.996   2.134   4.423 -2.1753 -1.6412  0.9501
   36CHL1  H21B 2644   5.018   2.121   4.245 -0.2544 -0.0534 -1.0008
   36CHL1  H21C 2645   4.920   2.006   4.346 -0.8271  0.5285  2.4241
   36CHL1   C22 2646   4.723   2.178   4.435 -0.3617 -0.2121 -0.6097
   36CHL1  H22A 2647   4.622   2.220   4.414  0.6625  1.8033 -1.7083
   36CHL1  H22B 2648   4.700   2.079   4.480 -1.5849  0.8939  1.3478
   36CHL1   C23 2649   4.797   2.250   4.557  0.2636 -0.1557  0.2533
   36CHL1  H23A 2650   4.905   2.227   4.551  0.2221 -0.0825 -0.8524
   36CHL1  H23B 2651   4.781   2.359   4.562 -2.2350 -0.4968  1.2943
   36CHL1   C24 2652   4.734   2.204   4.689 -0.4685 -0.3643 -0.0604
   36CHL1  H24A 2653   4.624   2.216   4.694 -0.6727 -2.1367  0.4442
   36CHL1  H24B 2654   4.758   2.095   4.689  0.6754 -0.1367 -0.6720
   36CHL1   C25 2655   4.790   2.286   4.820  0.2351  0.4715 -0.2210
   36CHL1   H25 2656   4.734   2.234   4.901 -1.8448  1.1994 -1.1184
   36CHL1   C26 2657   4.942   2.269   4.852  0.4624  0.3209 -0.0915
   36CHL1  H26A 2658   4.966   2.163   4.875  2.4169  0.9028  0.7749
   36CHL1  H26B 2659   4.995   2.294   4.757  0.5609  0.4753  0.0030
   36CHL1  H26C 2660   4.984   2.334   4.931  2.4537  1.3193 -1.8617
   36CHL1   C27 2661   4.744   2.432   4.811  0.5352  0.1214 -0.4673
   36CHL1  H27A 2662   4.783   2.480   4.903  0.4735 -1.9847  0.7357
   36CHL1  H27B 2663   4.801   2.473   4.725 -1.0959 -1.0920 -2.1922
   36CHL1  H27C 2664   4.635   2.447   4.797  0.7761  1.6990 -0.7889
   37CHL1    C3 2665   1.863   4.260   3.419 -0.5719  0.1059 -0.6775
   37CHL1    H3 2666   1.792   4.342   3.400 -0.3365  0.3060 -0.6922
   37CHL1    O3 2667   1.921   4.232   3.295 -0.3566  0.5083  0.3586
   37CHL1   H3' 2668   1.929   4.137   3.286  1.5086  0.5162  1.3999
   37CHL1    C4 2669   1.974   4.303   3.522  0.0409 -0.1199  0.7450
   37CHL1   H4A 2670   2.068   4.243   3.525  2.7388  3.5243 -2.0240
   37CHL1   H4B 2671   2.015   4.402   3.492  2.8815 -1.3193  0.3261
   37CHL1    C5 2672   1.918   4.306   3.658  0.1367  0.0492 -0.2471
   37CHL1    C6 2673   1.944   4.416   3.729 -0.3315  0.1758  0.6559
   37CHL1    H6 2674   1.993   4.501   3.679 -1.7209  0.1408 -0.8417
   37CHL1    C7 2675   1.899   4.433   3.879  0.2180 -0.0032  0.2976
   37CHL1   H7A 2676   1.979   4.480   3.939  0.6338 -1.8142  1.2403
   37CHL1   H7B 2677   1.807   4.492   3.896  0.9794  0.5374  2.8786
   37CHL1    C8 2678   1.872   4.294   3.947 -0.7068 -0.6017 -0.3137
   37CHL1    H8 2679   1.971   4.246   3.964  0.9994  2.4680 -0.8843
   37CHL1   C14 2680   1.801   4.306   4.082 -0.1441  0.1907 -0.0110
   37CHL1   H14 2681   1.704   4.350   4.051  0.1383 -0.5643 -2.1635
   37CHL1   C15 2682   1.857   4.416   4.182  0.9479  0.3508  0.3917
   37CHL1  H15A 2683   1.965   4.392   4.198  0.8381 -0.8820 -0.6124
   37CHL1  H15B 2684   1.827   4.521   4.166  0.6559  0.2952  0.5637
   37CHL1   C16 2685   1.791   4.374   4.321  0.1710  0.2845  0.4678
   37CHL1  H16A 2686   1.878   4.374   4.390  0.0207 -0.3907  0.6655
   37CHL1  H16B 2687   1.733   4.459   4.362  0.0580 -0.1160  1.1572
   37CHL1   C17 2688   1.719   4.243   4.294 -0.0669 -0.9346 -0.6914
   37CHL1   H17 2689   1.614   4.269   4.268 -0.8893 -1.7673  1.4956
   37CHL1   C13 2690   1.771   4.179   4.161 -0.4281  0.5222 -0.2019
   37CHL1   C18 2691   1.908   4.106   4.195  0.0331 -0.5155 -0.3563
   37CHL1  H18A 2692   1.982   4.101   4.113  1.4453 -1.1178  0.9049
   37CHL1  H18B 2693   1.947   4.145   4.292  1.9451  0.3633 -1.4413
   37CHL1  H18C 2694   1.877   4.005   4.231 -0.2614  0.0137  0.9375
   37CHL1   C12 2695   1.684   4.087   4.068  0.0494  1.0390 -0.1159
   37CHL1  H12A 2696   1.662   3.985   4.106  1.4852  1.1651  1.1579
   37CHL1  H12B 2697   1.584   4.135   4.064 -0.7157  0.2525  4.3755
   37CHL1   C11 2698   1.739   4.068   3.920 -0.4513  0.3070  0.2491
   37CHL1  H11A 2699   1.835   4.012   3.933 -0.4374  0.1927 -0.3046
   37CHL1  H11B 2700   1.668   4.004   3.863 -1.3124  0.8278  0.7247
   37CHL1    C9 2701   1.789   4.201   3.854 -0.1606 -0.1425  0.1143
   37CHL1    H9 2702   1.696   4.260   3.843  1.5859  2.5611 -1.3045
   37CHL1   C10 2703   1.848   4.178   3.714  0.0020  0.4159  0.7779
   37CHL1   C19 2704   1.950   4.057   3.717 -0.5416  0.3253  0.3446
   37CHL1  H19A 2705   2.014   4.064   3.808  0.7448 -0.0553 -0.5033
   37CHL1  H19B 2706   1.901   3.958   3.726 -1.4100  0.7880  0.7828
   37CHL1  H19C 2707   2.022   4.061   3.632  0.3502  0.5936  1.0961
   37CHL1    C1 2708   1.738   4.136   3.615 -0.1045 -0.3352  0.0866
   37CHL1   H1A 2709   1.702   4.033   3.637  1.2182 -0.6169  1.0117
   37CHL1   H1B 2710   1.655   4.208   3.629 -1.0026 -0.2951 -4.0736
   37CHL1    C2 2711   1.782   4.133   3.462  0.0009  0.2551 -0.0514
   37CHL1   H2A 2712   1.691   4.117   3.399 -0.5956 -0.6635  0.9972
   37CHL1   H2B 2713   1.845   4.042   3.450  1.1768  1.1264 -0.7179
   37CHL1   C20 2714   1.708   4.157   4.417 -0.2558 -0.0720  0.2747
   37CHL1   H20 2715   1.806   4.118   4.449 -0.3636  0.3269  1.1364
   37CHL1   C21 2716   1.609   4.043   4.381 -0.2796 -0.2754 -0.5249
   37CHL1  H21A 2717   1.571   3.990   4.471 -1.2730 -1.2803 -1.5151
   37CHL1  H21B 2718   1.664   3.972   4.317 -0.5535 -0.4595 -0.5556
   37CHL1  H21C 2719   1.516   4.088   4.339 -1.4045 -1.1586  0.8925
   37CHL1   C22 2720   1.665   4.230   4.544  0.4591 -0.6894  0.2627
   37CHL1  H22A 2721   1.738   4.313   4.556 -1.5196  1.0256  1.1006
   37CHL1  H22B 2722   1.568   4.280   4.526 -0.1863 -1.6551  0.9804
   37CHL1   C23 2723   1.665   4.162   4.682  0.3170  0.0508  0.5140
   37CHL1  H23A 2724   1.614   4.063   4.682 -2.3306  1.3362  0.7515
   37CHL1  H23B 2725   1.771   4.135   4.703  0.3932 -0.6514 -0.6787
   37CHL1   C24 2726   1.613   4.267   4.785  0.2389  0.6416  1.2039
   37CHL1  H24A 2727   1.671   4.361   4.781 -2.0367  2.0804 -0.1780
   37CHL1  H24B 2728   1.512   4.294   4.746  0.0110 -0.7593  0.7621
   37CHL1   C25 2729   1.598   4.223   4.937  0.0033  0.0689 -0.1436
   37CHL1   H25 2730   1.704   4.207   4.969 -0.1411  1.0223  0.8664
   37CHL1   C26 2731   1.534   4.336   5.017 -0.5226 -0.4024 -0.2153
   37CHL1  H26A 2732   1.539   4.319   5.126  1.2481 -0.8151 -0.3236
   37CHL1  H26B 2733   1.603   4.422   5.001  1.1271 -1.4122  1.2174
   37CHL1  H26C 2734   1.434   4.362   4.975 -0.0581  0.9058 -0.5763
   37CHL1   C27 2735   1.527   4.086   4.956  0.0818 -0.6385 -0.1912
   37CHL1  H27A 2736   1.577   4.005   4.898 -1.4422 -1.1005 -0.9058
   37CHL1  H27B 2737   1.543   4.067   5.065  0.2606  2.1649  0.3320
   37CHL1  H27C 2738   1.419   4.091   4.931 -0.5547 -2.8482  1.7152
   38CHL1    C3 2739   3.755   3.207   3.798 -0.2736 -0.2359 -0.6696
   38CHL1    H3 2740   3.829   3.288   3.812 -1.0937  0.2189  1.4242
   38CHL1    O3 2741   3.772   3.160   3.667  0.4283  0.2063 -0.0706
   38CHL1   H3' 2742   3.865   3.142   3.654  0.0010 -2.7754  0.3988
   38CHL1    C4 2743   3.794   3.090   3.891 -0.2004 -0.1092 -0.2058
   38CHL1   H4A 2744   3.730   3.004   3.860  2.2477 -1.9050 -0.5367
   38CHL1   H4B 2745   3.900   3.067   3.867  0.6587  1.5805  1.7198
   38CHL1    C5 2746   3.783   3.122   4.040 -0.0091  0.1991 -0.2726
   38CHL1    C6 2747   3.887   3.105   4.122  0.4393  0.2147  0.2267
   38CHL1    H6 2748   3.985   3.070   4.086  1.8619  2.2219  1.9010
   38CHL1    C7 2749   3.890   3.135   4.270  0.3662 -0.1740  0.0369
   38CHL1   H7A 2750   3.937   3.050   4.324 -0.6386 -1.5979 -1.2324
   38CHL1   H7B 2751   3.953   3.226   4.282  1.7514 -0.8879 -1.4781
   38CHL1    C8 2752   3.741   3.167   4.320  0.0950 -0.3128 -0.0746
   38CHL1    H8 2753   3.684   3.071   4.316 -1.2327  0.5052 -1.5644
   38CHL1   C14 2754   3.743   3.225   4.464 -0.7260 -0.9489  0.7146
   38CHL1   H14 2755   3.796   3.321   4.447 -0.9944 -0.7512  0.9943
   38CHL1   C15 2756   3.833   3.160   4.569  0.1346 -0.0440  0.6941
   38CHL1  H15A 2757   3.812   3.051   4.576  0.1838 -0.0825  0.2656
   38CHL1  H15B 2758   3.942   3.168   4.550 -0.2844 -0.8821 -2.7192
   38CHL1   C16 2759   3.789   3.224   4.696 -1.0927  0.5696 -0.1377
   38CHL1  H16A 2760   3.760   3.147   4.771 -0.8673  0.3900 -0.2361
   38CHL1  H16B 2761   3.871   3.283   4.741 -1.2153  0.4099  0.3012
   38CHL1   C17 2762   3.673   3.325   4.661  0.2038  0.1329  0.1442
   38CHL1   H17 2763   3.723   3.421   4.637 -0.1661 -0.2272 -2.4220
   38CHL1   C13 2764   3.617   3.267   4.530  0.0099  0.3852  0.2987
   38CHL1   C18 2765   3.533   3.143   4.564 -0.3544 -0.0892 -0.8779
   38CHL1  H18A 2766   3.434   3.179   4.598 -1.2393 -1.4433 -1.9145
   38CHL1  H18B 2767   3.515   3.077   4.476  1.7690 -1.3071 -0.4714
   38CHL1  H18C 2768   3.573   3.079   4.645  0.6224  2.3035  0.6633
   38CHL1   C12 2769   3.543   3.362   4.433 -0.1783 -0.6840 -0.3928
   38CHL1  H12A 2770   3.444   3.384   4.479  0.2071 -0.7671  0.4863
   38CHL1  H12B 2771   3.594   3.460   4.425 -1.1666 -0.1471 -0.3686
   38CHL1   C11 2772   3.528   3.307   4.292 -0.0239 -0.0613 -0.4699
   38CHL1  H11A 2773   3.455   3.224   4.293 -2.9673  2.3832  0.4054
   38CHL1  H11B 2774   3.489   3.386   4.224  1.1083 -0.9512 -2.2302
   38CHL1    C9 2775   3.663   3.258   4.228 -0.1801 -0.6830  0.0081
   38CHL1    H9 2776   3.729   3.346   4.214 -2.7880  1.5407  0.8257
   38CHL1   C10 2777   3.650   3.196   4.085 -0.4831  0.0373 -0.5980
   38CHL1   C19 2778   3.535   3.089   4.088 -0.0634  0.8561 -0.4285
   38CHL1  H19A 2779   3.549   3.019   4.003  1.7230 -0.2547  0.7214
   38CHL1  H19B 2780   3.548   3.018   4.172  2.7099  1.4248 -0.3104
   38CHL1  H19C 2781   3.435   3.138   4.093 -1.6294 -2.1818  0.7456
   38CHL1    C1 2782   3.628   3.305   3.989 -0.4254 -0.5793  0.8014
   38CHL1   H1A 2783   3.538   3.364   4.017  1.0451  1.2785  1.8916
   38CHL1   H1B 2784   3.720   3.366   3.997  1.0013 -2.1055 -2.2321
   38CHL1    C2 2785   3.623   3.266   3.835  0.4696  0.6230  0.3664
   38CHL1   H2A 2786   3.594   3.346   3.764  0.3863  1.1809  1.0165
   38CHL1   H2B 2787   3.545   3.188   3.827  0.9109  0.2628 -0.4468
   38CHL1   C20 2788   3.582   3.355   4.777 -0.0043  0.7714 -0.1956
   38CHL1   H20 2789   3.519   3.273   4.817  1.3179  0.3500  1.1045
   38CHL1   C21 2790   3.488   3.478   4.754  0.0820  0.8177 -0.6567
   38CHL1  H21A 2791   3.423   3.438   4.673 -0.6585  1.4558 -0.3860
   38CHL1  H21B 2792   3.542   3.573   4.731  0.4592  0.4649 -1.2463
   38CHL1  H21C 2793   3.419   3.490   4.840 -1.3323  1.5074 -1.8502
   38CHL1   C22 2794   3.670   3.397   4.899  0.0212 -0.2193  0.6399
   38CHL1  H22A 2795   3.601   3.406   4.986  0.1751  1.8503  0.6074
   38CHL1  H22B 2796   3.739   3.317   4.934  0.1202  0.7013  2.6820
   38CHL1   C23 2797   3.759   3.523   4.885 -0.9087  0.2732 -0.3750
   38CHL1  H23A 2798   3.827   3.519   4.798 -0.5630 -0.2180 -0.0896
   38CHL1  H23B 2799   3.696   3.614   4.877 -1.6434 -0.1038  0.7825
   38CHL1   C24 2800   3.864   3.535   4.997  0.3850 -0.8842  0.4885
   38CHL1  H24A 2801   3.825   3.509   5.098  1.4022 -0.6454  0.9660
   38CHL1  H24B 2802   3.948   3.469   4.967  1.1138  0.9114 -1.6936
   38CHL1   C25 2803   3.921   3.685   5.004 -0.4176 -0.4768 -0.6059
   38CHL1   H25 2804   3.835   3.746   5.040  0.2819 -0.3550  0.9723
   38CHL1   C26 2805   4.041   3.696   5.102  0.0338  0.6615 -0.7717
   38CHL1  H26A 2806   4.084   3.799   5.106 -0.7410  0.9684 -0.2700
   38CHL1  H26B 2807   3.998   3.679   5.203  0.9080  2.1234 -0.1138
   38CHL1  H26C 2808   4.108   3.612   5.072 -0.7976  0.6934 -2.8663
   38CHL1   C27 2809   3.964   3.741   4.874 -0.0115 -0.1814 -0.1969
   38CHL1  H27A 2810   3.884   3.740   4.797 -1.0062 -0.4463  0.8019
   38CHL1  H27B 2811   3.986   3.850   4.869 -2.8308  0.4532 -0.3691
   38CHL1  H27C 2812   4.046   3.687   4.822 -1.3984 -1.8020 -0.7816
   39CHL1    C3 2813   5.334   4.034   3.531 -0.4856 -0.1398  0.0144
   39CHL1    H3 2814   5.239   3.977   3.525 -0.2201 -0.7076  1.0465
   39CHL1    O3 2815   5.364   4.054   3.391 -0.3369  0.7693 -0.0734
   39CHL1   H3' 2816   5.460   4.054   3.385 -0.3327  1.0282 -0.0178
   39CHL1    C4 2817   5.300   4.167   3.606 -0.1015 -0.0328  1.0091
   39CHL1   H4A 2818   5.382   4.235   3.575 -0.8958 -0.0668 -1.3651
   39CHL1   H4B 2819   5.212   4.208   3.551  1.1265  2.4842  0.7835
   39CHL1    C5 2820   5.283   4.170   3.757  0.3393 -0.5465  0.2474
   39CHL1    C6 2821   5.174   4.227   3.811 -0.8999  0.7571  0.0762
   39CHL1    H6 2822   5.101   4.289   3.756 -0.8374  1.1818  0.4669
   39CHL1    C7 2823   5.163   4.215   3.967 -0.3025  0.5793 -0.2297
   39CHL1   H7A 2824   5.136   4.314   4.009 -0.2821  0.9979 -1.1663
   39CHL1   H7B 2825   5.081   4.143   3.985 -0.7329  1.2263  0.4447
   39CHL1    C8 2826   5.292   4.163   4.039  0.2032 -0.4748  0.8113
   39CHL1    H8 2827   5.375   4.236   4.024  1.5001 -2.1172 -0.5541
   39CHL1   C14 2828   5.265   4.133   4.184 -0.0983 -0.3285 -0.3315
   39CHL1   H14 2829   5.189   4.052   4.178 -1.0030  0.5015 -0.2741
   39CHL1   C15 2830   5.204   4.245   4.273 -0.2912 -0.4972  0.4769
   39CHL1  H15A 2831   5.232   4.346   4.234 -2.4736  0.1825  0.5389
   39CHL1  H15B 2832   5.094   4.232   4.281 -0.2240 -1.8511 -0.5431
   39CHL1   C16 2833   5.248   4.206   4.415  0.7528  0.1989  0.2340
   39CHL1  H16A 2834   5.318   4.276   4.465  0.9734 -2.2859  3.8157
   39CHL1  H16B 2835   5.160   4.189   4.481  1.8610 -1.5778  1.3494
   39CHL1   C17 2836   5.328   4.074   4.402  0.4564 -0.2985  0.2618
   39CHL1   H17 2837   5.242   4.004   4.399  0.1722  0.0798 -1.1028
   39CHL1   C13 2838   5.379   4.077   4.260 -0.0394 -0.3537 -0.2920
   39CHL1   C18 2839   5.503   4.168   4.248  0.4387  0.7141 -0.6557
   39CHL1  H18A 2840   5.531   4.193   4.144  2.0877  1.4823 -0.0655
   39CHL1  H18B 2841   5.491   4.269   4.293  1.7029 -0.4065  2.5137
   39CHL1  H18C 2842   5.593   4.124   4.295 -0.2400 -0.3705 -0.3255
   39CHL1   C12 2843   5.405   3.936   4.202 -0.3073  0.3575 -0.1102
   39CHL1  H12A 2844   5.491   3.897   4.261 -1.3295 -1.9866 -0.0812
   39CHL1  H12B 2845   5.320   3.866   4.212 -0.9000  1.1858  0.8839
   39CHL1   C11 2846   5.439   3.949   4.053 -0.9011 -0.1624 -0.4196
   39CHL1  H11A 2847   5.541   3.992   4.048 -0.3102 -1.5066 -0.3162
   39CHL1  H11B 2848   5.440   3.843   4.021  0.1552  0.1816 -1.6032
   39CHL1    C9 2849   5.337   4.039   3.970 -0.5300 -0.1062 -0.1737
   39CHL1    H9 2850   5.248   3.974   3.960  0.4771 -1.4562 -0.7358
   39CHL1   C10 2851   5.387   4.079   3.824 -0.4812  0.0033 -0.3861
   39CHL1   C19 2852   5.524   4.153   3.826 -0.1130 -0.2245 -0.6882
   39CHL1  H19A 2853   5.511   4.256   3.867  1.4634  0.4364 -1.7367
   39CHL1  H19B 2854   5.596   4.100   3.892 -0.2125  2.5691  1.9045
   39CHL1  H19C 2855   5.573   4.163   3.726  0.7730 -1.4595 -0.3917
   39CHL1    C1 2856   5.403   3.945   3.749 -0.6955 -0.0301 -0.1002
   39CHL1   H1A 2857   5.472   3.872   3.797  1.0635  3.1776  2.7529
   39CHL1   H1B 2858   5.306   3.892   3.764  0.8368 -2.3678  2.6261
   39CHL1    C2 2859   5.446   3.957   3.603  0.2620 -0.7819 -0.0513
   39CHL1   H2A 2860   5.449   3.866   3.541 -1.0846  0.8553 -2.7127
   39CHL1   H2B 2861   5.549   3.998   3.604  0.0254 -0.1759  0.5748
   39CHL1   C20 2862   5.434   4.036   4.513  0.4811  0.1261  0.2262
   39CHL1   H20 2863   5.522   3.991   4.462  1.3643  0.9720  0.9687
   39CHL1   C21 2864   5.377   3.923   4.596 -0.2266 -0.3596  0.3927
   39CHL1  H21A 2865   5.336   3.842   4.533 -3.1350  0.9924  0.3737
   39CHL1  H21B 2866   5.295   3.971   4.653  0.1850  2.6334 -1.2962
   39CHL1  H21C 2867   5.449   3.876   4.666  1.9413 -0.7235 -1.9141
   39CHL1   C22 2868   5.491   4.153   4.592  0.2982  0.0281 -0.9491
   39CHL1  H22A 2869   5.520   4.241   4.531  1.8731 -0.4197 -0.8884
   39CHL1  H22B 2870   5.408   4.180   4.660 -0.0083  0.3277 -1.4373
   39CHL1   C23 2871   5.616   4.120   4.665 -0.5177  0.5669  0.4194
   39CHL1  H23A 2872   5.606   4.016   4.702  1.2524 -0.1506 -0.9790
   39CHL1  H23B 2873   5.709   4.117   4.604 -0.1552  0.3297  0.9679
   39CHL1   C24 2874   5.646   4.210   4.783 -0.1080 -0.1404 -1.0192
   39CHL1  H24A 2875   5.655   4.315   4.747 -1.4926  0.9315  1.5077
   39CHL1  H24B 2876   5.553   4.203   4.844 -0.2241  0.1665 -1.1589
   39CHL1   C25 2877   5.769   4.183   4.875  0.3236  0.3985  0.4549
   39CHL1   H25 2878   5.844   4.177   4.793  3.4812  0.7677  3.1030
   39CHL1   C26 2879   5.807   4.304   4.960 -0.1281  0.7371  0.0604
   39CHL1  H26A 2880   5.814   4.389   4.889  2.0334  0.3730 -0.2215
   39CHL1  H26B 2881   5.728   4.319   5.036 -0.8678  0.3380 -0.6015
   39CHL1  H26C 2882   5.904   4.280   5.007  0.5128 -2.4997 -2.4922
   39CHL1   C27 2883   5.764   4.055   4.952 -0.0640  0.0105  0.2888
   39CHL1  H27A 2884   5.667   4.051   5.007 -0.7735 -1.4438 -0.9846
   39CHL1  H27B 2885   5.755   3.968   4.884  0.6482 -1.3098  1.7946
   39CHL1  H27C 2886   5.856   4.030   5.009  1.6735 -1.2100 -2.8348
   40CHL1    C3 2887   0.505   1.337   3.272 -0.1926 -0.1470 -1.3257
   40CHL1    H3 2888   0.438   1.418   3.308 -2.4477 -0.8118 -3.7044
   40CHL1    O3 2889   0.564   1.375   3.150  0.8285  0.2314  0.2995
   40CHL1   H3' 2890   0.642   1.430   3.160 -0.0242  1.2166  1.9697
   40CHL1    C4 2891   0.610   1.296   3.376 -0.7004 -0.9069 -0.1189
   40CHL1   H4A 2892   0.676   1.217   3.333  0.9349 -1.0934  2.5301
   40CHL1   H4B 2893   0.668   1.387   3.399 -0.7305  0.5630 -4.8513
   40CHL1    C5 2894   0.549   1.240   3.504 -0.1833  0.0579  0.3938
   40CHL1    C6 2895   0.591   1.284   3.627 -0.3591 -0.7644  0.0420
   40CHL1    H6 2896   0.674   1.354   3.644  0.3778 -1.8225  1.0285
   40CHL1    C7 2897   0.551   1.220   3.756 -0.1849  0.5498  0.5327
   40CHL1   H7A 2898   0.641   1.180   3.807  0.7589  0.6596 -0.9651
   40CHL1   H7B 2899   0.501   1.298   3.816 -0.6504  1.7111 -1.2810
   40CHL1    C8 2900   0.452   1.103   3.737 -0.2345 -0.0953 -0.2825
   40CHL1    H8 2901   0.515   1.015   3.715 -1.8765 -1.4826  0.3691
   40CHL1   C14 2902   0.374   1.069   3.865  0.8926 -0.1792  1.2755
   40CHL1   H14 2903   0.318   1.164   3.880 -1.2901 -1.0887 -0.4010
   40CHL1   C15 2904   0.453   1.045   3.995  0.0267 -0.7609  0.3144
   40CHL1  H15A 2905   0.538   0.975   3.975 -1.0456 -1.8282 -0.6585
   40CHL1  H15B 2906   0.493   1.141   4.033 -1.5156  1.0513 -2.3065
   40CHL1   C16 2907   0.348   0.974   4.084 -0.4240  0.2535 -0.3083
   40CHL1  H16A 2908   0.390   0.876   4.116 -2.1361 -0.9691 -1.6336
   40CHL1  H16B 2909   0.316   1.039   4.168  0.2460 -1.6676  1.5223
   40CHL1   C17 2910   0.220   0.950   4.002 -0.0328  0.2009  0.4177
   40CHL1   H17 2911   0.164   1.046   4.008 -2.2015 -1.0775  1.8342
   40CHL1   C13 2912   0.274   0.951   3.856  0.1619 -0.0185  0.4380
   40CHL1   C18 2913   0.351   0.822   3.828 -0.1488  0.1114  0.3170
   40CHL1  H18A 2914   0.421   0.794   3.910 -1.1444 -0.8808  0.8522
   40CHL1  H18B 2915   0.281   0.738   3.807 -3.0072  2.7200 -1.2965
   40CHL1  H18C 2916   0.415   0.828   3.737  0.1131 -1.1358  0.3970
   40CHL1   C12 2917   0.171   0.988   3.743 -0.0412 -0.3466  0.5189
   40CHL1  H12A 2918   0.122   0.888   3.731  3.6471 -2.1529 -1.1289
   40CHL1  H12B 2919   0.099   1.067   3.774 -0.3627 -0.5801  0.3781
   40CHL1   C11 2920   0.250   1.014   3.615  0.4139  0.9442  0.5918
   40CHL1  H11A 2921   0.293   0.917   3.581 -1.1599  0.5644 -0.4352
   40CHL1  H11B 2922   0.179   1.024   3.530 -1.0719 -1.1080  1.5111
   40CHL1    C9 2923   0.360   1.125   3.615  0.3944 -0.0321 -0.0871
   40CHL1    H9 2924   0.314   1.225   3.633  1.3028  0.9145 -2.5463
   40CHL1   C10 2925   0.432   1.134   3.479 -0.5975 -0.1322 -0.1135
   40CHL1   C19 2926   0.504   0.996   3.446 -0.2796 -0.0347 -0.2907
   40CHL1  H19A 2927   0.430   0.916   3.428  0.3991 -0.7065 -0.1723
   40CHL1  H19B 2928   0.568   1.016   3.357  0.3056 -1.3479 -0.1854
   40CHL1  H19C 2929   0.578   0.966   3.524 -0.1430 -1.7242 -1.0311
   40CHL1    C1 2930   0.337   1.177   3.359 -0.1529 -0.8776  0.4852
   40CHL1   H1A 2931   0.259   1.101   3.336 -0.0948 -0.1432 -2.4099
   40CHL1   H1B 2932   0.290   1.268   3.402  0.0505 -0.8693  0.6917
   40CHL1    C2 2933   0.422   1.218   3.242  0.7462 -0.0977  0.2866
   40CHL1   H2A 2934   0.355   1.234   3.155  0.9675  1.1932  0.3311
   40CHL1   H2B 2935   0.492   1.139   3.207  2.1711  0.5051  1.6521
   40CHL1   C20 2936   0.130   0.842   4.060  0.4788 -0.1631 -0.8565
   40CHL1   H20 2937   0.183   0.746   4.044  0.5587 -0.0148 -1.4988
   40CHL1   C21 2938  -0.004   0.840   3.990  0.6399  0.3842 -0.6130
   40CHL1  H21A 2939  -0.048   0.941   3.982 -0.0528  0.1191 -0.2337
   40CHL1  H21B 2940  -0.086   0.783   4.038 -0.9548  1.0746 -2.3781
   40CHL1  H21C 2941  -0.009   0.806   3.884  0.5338  1.2965 -0.9096
   40CHL1   C22 2942   0.103   0.860   4.208 -0.0090 -0.2178 -0.6330
   40CHL1  H22A 2943   0.197   0.884   4.261  0.6870 -1.1762 -1.4034
   40CHL1  H22B 2944   0.036   0.948   4.214 -0.9997 -0.9658 -0.4769
   40CHL1   C23 2945   0.040   0.745   4.290 -0.0990  0.2119  0.5375
   40CHL1  H23A 2946  -0.069   0.744   4.269 -0.2229  1.8562  0.9827
   40CHL1  H23B 2947   0.068   0.644   4.252 -0.2201  0.6846 -0.8460
   40CHL1   C24 2948   0.070   0.753   4.443 -0.5231 -0.4099  0.3723
   40CHL1  H24A 2949   0.178   0.776   4.453 -0.2554 -1.1770 -0.6221
   40CHL1  H24B 2950   0.023   0.845   4.483 -0.4991  0.1877 -0.9204
   40CHL1   C25 2951   0.019   0.633   4.517  0.5983  0.8814  0.1676
   40CHL1   H25 2952   0.063   0.535   4.488 -1.2621 -0.2860  1.0866
   40CHL1   C26 2953   0.059   0.643   4.663  0.0110 -0.5608  0.2305
   40CHL1  H26A 2954   0.030   0.738   4.713  1.0238  0.0525 -0.3229
   40CHL1  H26B 2955   0.004   0.562   4.715 -0.1045 -0.0001  0.9974
   40CHL1  H26C 2956   0.166   0.629   4.689  0.1611  0.9188  0.4866
   40CHL1   C27 2957  -0.129   0.619   4.517  0.4611  0.3774 -0.1333
   40CHL1  H27A 2958  -0.162   0.572   4.613 -1.3981  0.0591 -0.8690
   40CHL1  H27B 2959  -0.182   0.715   4.499  1.1011  0.6929 -0.3314
   40CHL1  H27C 2960  -0.169   0.565   4.428 -1.1794  2.0651 -0.4730
   41CHL1    C3 2961   5.543   4.531   3.511 -0.4402 -0.4685  0.5775
   41CHL1    H3 2962   5.491   4.434   3.522 -0.2051 -0.8262 -1.2045
   41CHL1    O3 2963   5.576   4.555   3.375  0.4804  0.2752  0.7493
   41CHL1   H3' 2964   5.646   4.620   3.363  0.7556 -0.2936 -0.9607
   41CHL1    C4 2965   5.460   4.658   3.554  0.6133 -0.2603  0.7811
   41CHL1   H4A 2966   5.527   4.740   3.522 -0.0944 -0.6836 -2.0953
   41CHL1   H4B 2967   5.373   4.664   3.485 -1.5358  1.1439  3.4178
   41CHL1    C5 2968   5.428   4.638   3.696  0.7595  0.6390 -0.3635
   41CHL1    C6 2969   5.304   4.644   3.736  0.1294 -0.1048  0.0133
   41CHL1    H6 2970   5.228   4.651   3.657  0.0985 -0.3722  0.0201
   41CHL1    C7 2971   5.271   4.638   3.885 -0.3600 -0.6478  0.8062
   41CHL1   H7A 2972   5.194   4.708   3.922 -0.4830 -0.7125  0.6758
   41CHL1   H7B 2973   5.257   4.533   3.920  3.2067 -1.1170  1.1830
   41CHL1    C8 2974   5.392   4.671   3.980  0.3287  0.1433  0.0463
   41CHL1    H8 2975   5.413   4.780   3.974 -2.2770  0.6403 -2.2998
   41CHL1   C14 2976   5.362   4.637   4.124  0.2428  0.2400  0.4976
   41CHL1   H14 2977   5.344   4.528   4.131  1.9432 -0.0356  1.1835
   41CHL1   C15 2978   5.239   4.700   4.182  0.9781 -0.2921 -0.5093
   41CHL1  H15A 2979   5.223   4.804   4.145 -0.0860 -0.0538  0.5312
   41CHL1  H15B 2980   5.140   4.653   4.162  0.3099 -0.2845  2.3152
   41CHL1   C16 2981   5.267   4.694   4.327  0.3129 -0.7644 -1.0851
   41CHL1  H16A 2982   5.246   4.795   4.368 -0.3249 -0.6100 -1.7618
   41CHL1  H16B 2983   5.197   4.617   4.366 -0.3630 -0.4346 -1.6127
   41CHL1   C17 2984   5.407   4.641   4.356 -0.4851 -0.3980 -0.1490
   41CHL1   H17 2985   5.405   4.531   4.364  0.7437 -0.5721 -1.5694
   41CHL1   C13 2986   5.479   4.660   4.223  0.0253 -0.1088  0.1064
   41CHL1   C18 2987   5.537   4.805   4.220 -0.5314 -0.8828  0.3854
   41CHL1  H18A 2988   5.591   4.832   4.127 -0.4130  0.5400  0.8468
   41CHL1  H18B 2989   5.458   4.882   4.234  0.9716  0.6836  0.5888
   41CHL1  H18C 2990   5.617   4.827   4.294 -0.9176  0.6090  0.3893
   41CHL1   C12 2991   5.595   4.573   4.186 -0.0971  0.3886 -0.3445
   41CHL1  H12A 2992   5.686   4.599   4.244 -0.5075  0.3571  0.3261
   41CHL1  H12B 2993   5.569   4.468   4.210 -0.2164 -0.4459 -3.5742
   41CHL1   C11 2994   5.634   4.589   4.035  0.3733  0.1348  0.6916
   41CHL1  H11A 2995   5.687   4.687   4.038  1.8986 -0.6751  1.2324
   41CHL1  H11B 2996   5.702   4.504   4.011  1.3136  1.3376 -1.1254
   41CHL1    C9 2997   5.511   4.599   3.936 -0.7839  0.0322 -0.2478
   41CHL1    H9 2998   5.464   4.499   3.948 -0.9024  0.1530  0.3519
   41CHL1   C10 2999   5.544   4.630   3.790 -0.0981  0.6451 -0.0427
   41CHL1   C19 3000   5.616   4.766   3.799  0.1537 -0.1860  1.0757
   41CHL1  H19A 3001   5.716   4.773   3.846 -0.0805  1.2212  1.3874
   41CHL1  H19B 3002   5.654   4.794   3.698  1.6602 -0.1233  1.6328
   41CHL1  H19C 3003   5.552   4.850   3.831 -0.8357 -0.8336  0.8432
   41CHL1    C1 3004   5.640   4.513   3.736 -0.4499 -0.5070  0.0850
   41CHL1   H1A 3005   5.739   4.504   3.784 -0.9079 -0.8005  1.0072
   41CHL1   H1B 3006   5.600   4.410   3.752  2.6538 -1.8336 -0.1022
   41CHL1    C2 3007   5.674   4.533   3.582  0.1168  1.0035  0.2726
   41CHL1   H2A 3008   5.738   4.446   3.552  1.5099  2.5613 -1.5187
   41CHL1   H2B 3009   5.742   4.621   3.583  1.8533 -0.2787  1.2405
   41CHL1   C20 3010   5.471   4.694   4.489  0.2089 -0.2937  0.3929
   41CHL1   H20 3011   5.482   4.803   4.473 -0.1075 -0.5201 -1.5436
   41CHL1   C21 3012   5.615   4.643   4.522 -0.0992  0.4476  0.5716
   41CHL1  H21A 3013   5.684   4.686   4.446  1.5122 -2.3430  0.3204
   41CHL1  H21B 3014   5.616   4.532   4.520  1.2947  0.4080  1.7450
   41CHL1  H21C 3015   5.653   4.672   4.623  1.6856 -1.2533  0.4441
   41CHL1   C22 3016   5.365   4.685   4.609 -0.7634  0.3516 -0.4434
   41CHL1  H22A 3017   5.423   4.742   4.685 -2.8559  1.1610  0.5938
   41CHL1  H22B 3018   5.274   4.746   4.594  0.3077  1.5232 -2.6439
   41CHL1   C23 3019   5.319   4.553   4.664  0.1029 -0.0493 -0.2116
   41CHL1  H23A 3020   5.250   4.496   4.597 -1.2831  0.1789  0.9818
   41CHL1  H23B 3021   5.409   4.491   4.686 -0.5331 -1.2873 -0.9880
   41CHL1   C24 3022   5.238   4.568   4.796 -0.2986  0.1010 -0.2661
   41CHL1  H24A 3023   5.293   4.615   4.881  0.6877 -0.5541 -0.5287
   41CHL1  H24B 3024   5.141   4.618   4.777 -1.3467 -1.6752  0.2016
   41CHL1   C25 3025   5.192   4.432   4.850  0.1674 -0.4449 -1.0229
   41CHL1   H25 3026   5.281   4.365   4.848 -0.1258 -1.0412  1.7113
   41CHL1   C26 3027   5.138   4.444   5.001 -0.9340 -0.6706  0.0613
   41CHL1  H26A 3028   5.124   4.341   5.040 -1.1928 -0.6251  0.0919
   41CHL1  H26B 3029   5.219   4.489   5.061  1.3923 -1.8750 -1.9832
   41CHL1  H26C 3030   5.047   4.507   5.007 -0.5480  0.1344 -1.8408
   41CHL1   C27 3031   5.084   4.359   4.770  0.7579  0.2325  0.8476
   41CHL1  H27A 3032   4.984   4.378   4.815  0.2702 -0.5403  0.1131
   41CHL1  H27B 3033   5.086   4.396   4.665  0.1026 -0.3574  0.6209
   41CHL1  H27C 3034   5.100   4.250   4.781 -0.6542  0.0691  1.5941
   42CHL1    C3 3035   1.831   4.675   3.236  0.3429  0.2868 -0.3690
   42CHL1    H3 3036   1.737   4.618   3.251  1.2656 -1.5180 -1.0651
   42CHL1    O3 3037   1.892   4.648   3.107  0.5798  0.1721 -0.1569
   42CHL1   H3' 3038   1.969   4.592   3.122  1.4415  1.5375  0.8947
   42CHL1    C4 3039   1.788   4.821   3.230  0.4322 -0.2792  0.3596
   42CHL1   H4A 3040   1.868   4.883   3.183 -0.1485 -0.8943 -1.5284
   42CHL1   H4B 3041   1.703   4.824   3.159  0.5997 -4.1225 -0.2088
   42CHL1    C5 3042   1.744   4.871   3.367 -0.8182  0.1023  1.6514
   42CHL1    C6 3043   1.623   4.929   3.369  0.2660 -0.1696  0.1807
   42CHL1    H6 3044   1.560   4.935   3.279 -0.9419  0.3160  1.0296
   42CHL1    C7 3045   1.574   4.989   3.501  0.6457 -0.7116  0.6992
   42CHL1   H7A 3046   1.514   5.081   3.482 -0.1292 -1.5577 -1.1678
   42CHL1   H7B 3047   1.503   4.920   3.551 -2.1114  1.0967 -0.4833
   42CHL1    C8 3048   1.684   5.016   3.606 -0.1935  0.0957  0.1729
   42CHL1    H8 3049   1.739   5.107   3.575  0.1125  0.9746  3.0256
   42CHL1   C14 3050   1.618   5.035   3.735 -0.2263 -0.1357 -0.4043
   42CHL1   H14 3051   1.550   4.950   3.759  0.2878 -0.5060 -0.2344
   42CHL1   C15 3052   1.538   5.164   3.749  0.1998  0.7579 -0.1045
   42CHL1  H15A 3053   1.595   5.255   3.718  0.1239  1.4306  1.6485
   42CHL1  H15B 3054   1.436   5.154   3.705  0.8088 -0.7875 -1.2719
   42CHL1   C16 3055   1.517   5.181   3.901  0.2925  0.2750 -0.5332
   42CHL1  H16A 3056   1.547   5.285   3.928  0.7991 -0.2653  1.0645
   42CHL1  H16B 3057   1.413   5.159   3.932  0.2752  1.8047  0.6223
   42CHL1   C17 3058   1.614   5.078   3.970 -0.0790 -0.7851  0.4713
   42CHL1   H17 3059   1.560   4.984   3.995 -0.3119 -0.2835  2.0155
   42CHL1   C13 3060   1.718   5.047   3.852 -0.3566  0.2153  0.2853
   42CHL1   C18 3061   1.823   5.155   3.829 -0.8421  0.3838 -0.0582
   42CHL1  H18A 3062   1.902   5.144   3.752 -1.0595  1.3358 -0.4297
   42CHL1  H18B 3063   1.770   5.250   3.804 -0.7587 -0.0931 -2.2362
   42CHL1  H18C 3064   1.867   5.167   3.930 -4.0131 -1.0563  1.6387
   42CHL1   C12 3065   1.791   4.908   3.874 -0.4366 -0.0447 -0.0172
   42CHL1  H12A 3066   1.867   4.903   3.955 -1.2692 -0.8562  0.7404
   42CHL1  H12B 3067   1.716   4.830   3.898  1.5463 -2.0999 -0.1407
   42CHL1   C11 3068   1.864   4.872   3.746 -0.1123  0.5481 -0.3306
   42CHL1  H11A 3069   1.953   4.937   3.741  0.5340 -0.2713  0.1374
   42CHL1  H11B 3070   1.899   4.768   3.767  2.2609  1.1476 -1.1077
   42CHL1    C9 3071   1.766   4.882   3.617 -0.0533 -0.5834 -0.2478
   42CHL1    H9 3072   1.682   4.813   3.639 -1.1465  0.9130  0.3971
   42CHL1   C10 3073   1.841   4.848   3.484  0.0563 -0.1329  0.1206
   42CHL1   C19 3074   1.975   4.922   3.478  0.1540 -0.0922 -0.9399
   42CHL1  H19A 3075   2.028   4.878   3.565 -0.2089 -0.1521 -0.7479
   42CHL1  H19B 3076   2.024   4.896   3.382  1.9948 -1.2527  0.2526
   42CHL1  H19C 3077   1.947   5.029   3.490  0.2417 -0.3113  1.8670
   42CHL1    C1 3078   1.881   4.695   3.480 -0.7892  0.7308 -0.1177
   42CHL1   H1A 3079   1.959   4.668   3.555 -2.2980 -1.2467  0.8479
   42CHL1   H1B 3080   1.798   4.628   3.509  0.3130 -0.5329  0.2460
   42CHL1    C2 3081   1.932   4.639   3.349  0.2607  0.1523 -0.1512
   42CHL1   H2A 3082   1.938   4.528   3.345 -1.1427  0.1076 -2.2015
   42CHL1   H2B 3083   2.030   4.685   3.323 -0.3706  0.5708 -1.9101
   42CHL1   C20 3084   1.667   5.133   4.108 -0.3696 -0.0960  0.2194
   42CHL1   H20 3085   1.710   5.228   4.068 -0.0732 -0.3758 -0.1418
   42CHL1   C21 3086   1.765   5.037   4.178  0.1783  0.4504 -0.4910
   42CHL1  H21A 3087   1.722   4.936   4.162  0.4672  0.0185  1.3175
   42CHL1  H21B 3088   1.759   5.052   4.288 -0.0854 -0.5209 -0.3661
   42CHL1  H21C 3089   1.871   5.044   4.145 -0.5769  0.3305 -3.2486
   42CHL1   C22 3090   1.552   5.163   4.207  0.4783  0.2743  0.8086
   42CHL1  H22A 3091   1.467   5.214   4.156 -0.5407 -1.4084  0.7520
   42CHL1  H22B 3092   1.509   5.067   4.241 -1.7394  0.6672 -0.6322
   42CHL1   C23 3093   1.584   5.253   4.321  1.0699  0.0554  0.4527
   42CHL1  H23A 3094   1.666   5.206   4.379  0.6460 -1.2708  0.0263
   42CHL1  H23B 3095   1.629   5.345   4.279 -1.8571  1.4764  0.1893
   42CHL1   C24 3096   1.471   5.288   4.427 -1.1421 -0.2640  0.5016
   42CHL1  H24A 3097   1.385   5.327   4.370 -1.6733 -1.8598  0.1656
   42CHL1  H24B 3098   1.433   5.195   4.475  0.5390 -1.4109 -0.2930
   42CHL1   C25 3099   1.530   5.381   4.539 -0.7765  0.9213  0.4594
   42CHL1   H25 3100   1.584   5.468   4.497  0.3631  0.7770  1.5754
   42CHL1   C26 3101   1.416   5.444   4.627  0.8794  0.4251 -0.3084
   42CHL1  H26A 3102   1.368   5.528   4.572 -2.6348 -0.5786  0.9150
   42CHL1  H26B 3103   1.347   5.369   4.673 -0.0407  1.2735 -0.2723
   42CHL1  H26C 3104   1.464   5.499   4.710 -1.1755  1.2054  0.4290
   42CHL1   C27 3105   1.626   5.307   4.638  0.1640 -0.3659  1.4412
   42CHL1  H27A 3106   1.580   5.209   4.662  0.4566 -0.7613  0.3963
   42CHL1  H27B 3107   1.723   5.275   4.596 -0.9268  1.2503 -2.7710
   42CHL1  H27C 3108   1.642   5.361   4.734 -0.2885 -1.6095  2.2344
   43CHL1    C3 3109   3.223   3.429   3.510  0.5688 -0.3601 -1.2878
   43CHL1    H3 3110   3.210   3.536   3.484  1.1104 -0.3077 -1.3364
   43CHL1    O3 3111   3.266   3.368   3.391 -0.4309 -0.0432 -0.5667
   43CHL1   H3' 3112   3.213   3.289   3.382  0.0003 -0.3117 -0.7574
   43CHL1    C4 3113   3.330   3.411   3.622  0.4173 -0.8908 -0.2430
   43CHL1   H4A 3114   3.346   3.302   3.636  0.0648 -0.9925 -0.5938
   43CHL1   H4B 3115   3.427   3.451   3.585  0.0067  0.4350  0.0516
   43CHL1    C5 3116   3.283   3.471   3.755  0.5543 -0.1054  0.2338
   43CHL1    C6 3117   3.366   3.554   3.816  0.1315 -0.1897  0.2113
   43CHL1    H6 3118   3.461   3.570   3.762 -0.2915  0.7926 -0.2717
   43CHL1    C7 3119   3.344   3.609   3.950 -0.5373 -0.2883  0.7470
   43CHL1   H7A 3120   3.436   3.624   4.009 -0.8486 -0.8014  1.3803
   43CHL1   H7B 3121   3.299   3.709   3.931  0.9492  0.3453  0.4567
   43CHL1    C8 3122   3.236   3.531   4.026  0.0325 -0.7349  0.1019
   43CHL1    H8 3123   3.266   3.427   4.051 -0.1927 -0.6872  0.6005
   43CHL1   C14 3124   3.193   3.617   4.145  0.5465  0.5304 -0.3041
   43CHL1   H14 3125   3.168   3.715   4.099 -0.5313 -1.0370 -3.2943
   43CHL1   C15 3126   3.308   3.653   4.245 -0.2295 -0.4543  0.0548
   43CHL1  H15A 3127   3.360   3.559   4.269  0.8580 -0.5086 -2.2796
   43CHL1  H15B 3128   3.384   3.721   4.202 -0.4328 -1.1463 -1.4556
   43CHL1   C16 3129   3.241   3.711   4.374 -0.0636 -0.8555 -1.1482
   43CHL1  H16A 3130   3.279   3.658   4.464 -0.0068  0.3338 -0.4487
   43CHL1  H16B 3131   3.268   3.817   4.390 -1.6479 -0.8182  1.8927
   43CHL1   C17 3132   3.085   3.679   4.357 -0.5753  0.0589  0.3927
   43CHL1   H17 3133   3.038   3.771   4.317  2.8656  2.0095  0.5087
   43CHL1   C13 3134   3.080   3.571   4.234  0.1819 -0.9400  0.3611
   43CHL1   C18 3135   3.119   3.436   4.298 -0.0196  0.4841 -0.1799
   43CHL1  H18A 3136   3.138   3.345   4.236  4.1327  0.7837  0.3710
   43CHL1  H18B 3137   3.215   3.436   4.353 -1.7534 -1.3679  3.2236
   43CHL1  H18C 3138   3.039   3.416   4.373 -0.6953  1.1853 -0.6979
   43CHL1   C12 3139   2.956   3.560   4.141 -0.6172  0.1489 -0.0185
   43CHL1  H12A 3140   2.865   3.518   4.188 -1.6997  2.9907  0.6354
   43CHL1  H12B 3141   2.941   3.662   4.098 -2.5767 -0.6298 -1.3052
   43CHL1   C11 3142   2.989   3.471   4.017 -0.0240 -0.9652 -0.1221
   43CHL1  H11A 3143   2.998   3.364   4.047  2.4212 -1.2775 -1.6843
   43CHL1  H11B 3144   2.902   3.471   3.947  0.9485 -2.2791 -1.3909
   43CHL1    C9 3145   3.114   3.508   3.932  0.1598  0.6306  0.5709
   43CHL1    H9 3146   3.084   3.600   3.878  0.2095 -0.9065 -2.2563
   43CHL1   C10 3147   3.149   3.417   3.806 -0.3194 -0.2145  0.0732
   43CHL1   C19 3148   3.156   3.272   3.847 -0.6860 -0.0956 -0.4644
   43CHL1  H19A 3149   3.192   3.198   3.773 -0.3625 -1.1263  0.6786
   43CHL1  H19B 3150   3.222   3.262   3.937 -0.3981 -0.0089 -0.6652
   43CHL1  H19C 3151   3.055   3.235   3.876 -0.3716 -0.6711 -0.0716
   43CHL1    C1 3152   3.052   3.443   3.692  0.4315 -0.3955 -0.6434
   43CHL1   H1A 3153   2.950   3.411   3.723 -1.0595  3.0430 -1.4572
   43CHL1   H1B 3154   3.034   3.552   3.678  2.5328  0.0376 -0.3168
   43CHL1    C2 3155   3.088   3.377   3.562  0.1495 -0.4805 -0.0195
   43CHL1   H2A 3156   3.006   3.380   3.486 -0.1351  2.5622  0.3011
   43CHL1   H2B 3157   3.108   3.269   3.581 -0.3130 -0.4772  0.4845
   43CHL1   C20 3158   3.014   3.649   4.489  0.4977  0.1545 -0.7854
   43CHL1   H20 3159   3.049   3.551   4.530 -0.5549 -0.2809 -0.8869
   43CHL1   C21 3160   2.857   3.641   4.470  0.6043  0.4163  0.3090
   43CHL1  H21A 3161   2.830   3.727   4.404  3.8419  0.5454 -1.0333
   43CHL1  H21B 3162   2.811   3.648   4.571 -1.8127 -0.9148 -0.6144
   43CHL1  H21C 3163   2.831   3.540   4.433  0.8168  0.3151  0.4342
   43CHL1   C22 3164   3.040   3.751   4.607  0.0805  0.6231  0.2748
   43CHL1  H22A 3165   3.145   3.786   4.613  0.2668 -0.1109  1.6087
   43CHL1  H22B 3166   2.985   3.846   4.591  1.5984  1.5623  0.4141
   43CHL1   C23 3167   3.008   3.691   4.747  0.3762 -0.1967 -0.3588
   43CHL1  H23A 3168   2.899   3.674   4.761  0.1558 -0.6266 -2.3076
   43CHL1  H23B 3169   3.050   3.589   4.759  1.8803  0.1497 -2.1308
   43CHL1   C24 3170   3.055   3.781   4.860 -0.0625 -0.6049 -0.4378
   43CHL1  H24A 3171   3.159   3.814   4.836 -0.1532 -1.0013 -1.4280
   43CHL1  H24B 3172   2.989   3.870   4.850 -1.0881 -1.5566 -2.7909
   43CHL1   C25 3173   3.046   3.730   5.000  0.2334 -0.1556  0.0541
   43CHL1   H25 3174   3.069   3.823   5.056  1.5364 -0.5456  0.2110
   43CHL1   C26 3175   2.903   3.680   5.050 -0.1404 -0.4827 -0.1464
   43CHL1  H26A 3176   2.903   3.664   5.160  0.2322  0.8853  0.0688
   43CHL1  H26B 3177   2.828   3.760   5.030  0.8950  0.4341 -0.5040
   43CHL1  H26C 3178   2.874   3.588   4.995 -0.5518 -0.5767  0.2281
   43CHL1   C27 3179   3.163   3.626   5.041  0.4508  0.1422 -0.1554
   43CHL1  H27A 3180   3.263   3.674   5.027  1.3664 -1.8621 -0.8935
   43CHL1  H27B 3181   3.160   3.592   5.146 -0.9127  1.3368  0.2173
   43CHL1  H27C 3182   3.165   3.539   4.973  0.4642 -0.2739  0.3727
   44CHL1    C3 3183   0.546   4.876   3.398 -0.5881 -0.5129 -0.2279
   44CHL1    H3 3184   0.486   4.787   3.426 -1.2557 -0.4160 -1.2896
   44CHL1    O3 3185   0.552   4.870   3.255  0.2660  0.5424  0.4548
   44CHL1   H3' 3186   0.597   4.951   3.228  0.9754  0.2136  0.6373
   44CHL1    C4 3187   0.471   5.005   3.445 -0.3716  0.8490  0.1666
   44CHL1   H4A 3188   0.534   5.089   3.411  1.2881 -0.9576 -1.4867
   44CHL1   H4B 3189   0.369   5.001   3.400 -1.9646  1.2988  3.4549
   44CHL1    C5 3190   0.465   5.024   3.592 -0.1564  0.2584 -0.0982
   44CHL1    C6 3191   0.348   5.046   3.652  0.4852  0.1619  0.6200
   44CHL1    H6 3192   0.255   5.034   3.593 -1.1530  1.0443  2.8927
   44CHL1    C7 3193   0.333   5.072   3.801  0.6847  0.3590  0.0260
   44CHL1   H7A 3194   0.267   5.158   3.823  1.0184  0.6043  0.0742
   44CHL1   H7B 3195   0.289   4.977   3.839 -1.9174  0.4946 -2.3318
   44CHL1    C8 3196   0.472   5.097   3.873  0.2883 -0.0134 -0.5888
   44CHL1    H8 3197   0.490   5.206   3.871 -0.3049  0.5764  5.8766
   44CHL1   C14 3198   0.452   5.062   4.022 -0.5819 -0.3984 -0.3526
   44CHL1   H14 3199   0.447   4.952   4.036 -0.4144 -0.0899  2.5653
   44CHL1   C15 3200   0.334   5.121   4.107 -0.0559 -0.2533 -0.0015
   44CHL1  H15A 3201   0.293   5.219   4.076  0.4186 -0.2855 -0.7555
   44CHL1  H15B 3202   0.252   5.047   4.100 -1.0298  0.9383 -2.0608
   44CHL1   C16 3203   0.387   5.119   4.255 -0.8789 -0.1561  0.3587
   44CHL1  H16A 3204   0.373   5.221   4.297 -1.6796  0.4115 -1.2149
   44CHL1  H16B 3205   0.323   5.055   4.320 -0.8997 -0.9005 -0.3836
   44CHL1   C17 3206   0.537   5.076   4.243  0.3493  0.3752 -0.4793
   44CHL1   H17 3207   0.538   4.965   4.249  1.4542  0.2659 -2.1440
   44CHL1   C13 3208   0.581   5.107   4.095 -0.6584  1.0877  0.6263
   44CHL1   C18 3209   0.615   5.258   4.089  0.2398 -0.2019  0.1080
   44CHL1  H18A 3210   0.531   5.323   4.121  0.9388  0.1149  1.3618
   44CHL1  H18B 3211   0.705   5.289   4.146  0.1574 -1.3159  0.8829
   44CHL1  H18C 3212   0.632   5.299   3.987  2.0852  2.5983  1.4195
   44CHL1   C12 3213   0.701   5.021   4.050 -0.0362  0.2443 -0.2047
   44CHL1  H12A 3214   0.797   5.060   4.088 -0.6078 -0.4864  2.2078
   44CHL1  H12B 3215   0.701   4.918   4.092  2.7884  0.0414 -0.5414
   44CHL1   C11 3216   0.713   5.014   3.897 -0.8409 -0.6624  0.4193
   44CHL1  H11A 3217   0.776   5.103   3.882 -3.5451  1.3599  0.3438
   44CHL1  H11B 3218   0.786   4.935   3.871  0.7263 -0.0070  2.5478
   44CHL1    C9 3219   0.582   5.005   3.815  0.1934 -0.6674 -0.0330
   44CHL1    H9 3220   0.543   4.903   3.835 -0.3630 -0.2303  1.1837
   44CHL1   C10 3221   0.601   5.017   3.665 -0.1462 -0.1519  0.5848
   44CHL1   C19 3222   0.667   5.160   3.627 -0.2412  0.1367  0.0548
   44CHL1  H19A 3223   0.687   5.161   3.518  1.0434  1.0295  0.2676
   44CHL1  H19B 3224   0.597   5.241   3.659 -1.6561 -1.0811  0.1602
   44CHL1  H19C 3225   0.761   5.158   3.686 -1.9799 -0.3196  2.9825
   44CHL1    C1 3226   0.692   4.901   3.603  0.4834  0.0602 -0.0603
   44CHL1   H1A 3227   0.798   4.921   3.628  1.2704 -0.8942 -2.3250
   44CHL1   H1B 3228   0.646   4.805   3.635 -3.2833  0.8070 -2.4771
   44CHL1    C2 3229   0.692   4.884   3.449  0.0036  0.4873  0.2678
   44CHL1   H2A 3230   0.748   4.789   3.436 -1.5618 -0.1548 -2.6485
   44CHL1   H2B 3231   0.755   4.965   3.409 -1.2591  1.5275  0.3076
   44CHL1   C20 3232   0.617   5.125   4.368  0.5259  0.1846 -0.3717
   44CHL1   H20 3233   0.629   5.235   4.356  0.6739  0.3403  1.0531
   44CHL1   C21 3234   0.755   5.056   4.375 -0.1409 -0.4109  0.2631
   44CHL1  H21A 3235   0.820   5.095   4.293  0.0684 -1.9939 -0.3605
   44CHL1  H21B 3236   0.747   4.946   4.360  0.7266 -0.5342  0.6451
   44CHL1  H21C 3237   0.808   5.078   4.470 -0.2689  1.3021 -0.0314
   44CHL1   C22 3238   0.538   5.100   4.503 -0.4293  0.2088  0.5017
   44CHL1  H22A 3239   0.439   5.150   4.493 -1.0303 -1.1420 -0.6475
   44CHL1  H22B 3240   0.516   4.991   4.501  0.8224 -0.0887 -2.3756
   44CHL1   C23 3241   0.603   5.160   4.628  0.3508  1.2133  0.0238
   44CHL1  H23A 3242   0.691   5.097   4.652 -1.9292 -1.5555  1.7907
   44CHL1  H23B 3243   0.637   5.266   4.619  0.6909  0.9909 -1.6975
   44CHL1   C24 3244   0.524   5.159   4.757  0.7402 -0.5172 -0.6774
   44CHL1  H24A 3245   0.454   5.245   4.745  0.1856 -0.8601  0.0813
   44CHL1  H24B 3246   0.454   5.073   4.759 -0.5508  0.5162  0.6446
   44CHL1   C25 3247   0.614   5.171   4.882  0.2515  0.0322 -0.6661
   44CHL1   H25 3248   0.663   5.073   4.899  1.7877  0.7959 -0.4783
   44CHL1   C26 3249   0.726   5.277   4.878  0.1294  0.7834  0.3573
   44CHL1  H26A 3250   0.800   5.264   4.796  1.0015  0.9693  1.1006
   44CHL1  H26B 3251   0.677   5.377   4.869  0.3937  1.2050  2.8958
   44CHL1  H26C 3252   0.787   5.270   4.970 -1.2581  1.0170  1.3172
   44CHL1   C27 3253   0.520   5.216   5.001 -0.1479 -0.4741 -0.0639
   44CHL1  H27A 3254   0.474   5.316   4.984 -0.8418 -1.0041 -1.4561
   44CHL1  H27B 3255   0.429   5.152   5.001 -2.5211  2.6000 -1.2110
   44CHL1  H27C 3256   0.576   5.228   5.096  0.0583  0.5767 -0.3049
   45CHL1    C3 3257   1.602   5.751   3.104  0.6803  0.2121 -0.3296
   45CHL1    H3 3258   1.548   5.654   3.109 -0.0636  0.6630  0.9220
   45CHL1    O3 3259   1.637   5.777   2.971  0.2713  0.4705 -0.0409
   45CHL1   H3' 3260   1.558   5.768   2.918  0.6032 -2.8490 -0.2420
   45CHL1    C4 3261   1.524   5.870   3.168  1.4832  0.1208  0.1659
   45CHL1   H4A 3262   1.577   5.967   3.155  1.4514  0.0790 -0.2909
   45CHL1   H4B 3263   1.439   5.883   3.098  1.6539  3.4869  0.4291
   45CHL1    C5 3264   1.487   5.857   3.310 -0.1429  0.1004 -0.8609
   45CHL1    C6 3265   1.359   5.863   3.356 -0.0813 -0.0255  0.5261
   45CHL1    H6 3266   1.279   5.896   3.287 -0.4892  2.7424  2.1641
   45CHL1    C7 3267   1.324   5.836   3.497  0.4419 -0.0959 -0.4057
   45CHL1   H7A 3268   1.252   5.910   3.537  0.6176 -0.3261  0.3614
   45CHL1   H7B 3269   1.277   5.735   3.494  2.1475 -0.9182 -1.3520
   45CHL1    C8 3270   1.445   5.844   3.594 -0.2095  0.0365  0.1646
   45CHL1    H8 3271   1.469   5.953   3.598 -0.9238  0.5471 -4.2672
   45CHL1   C14 3272   1.399   5.783   3.734  0.3722  1.0414  0.7621
   45CHL1   H14 3273   1.377   5.676   3.717  0.1389  0.7241  2.8111
   45CHL1   C15 3274   1.272   5.835   3.800  0.2703 -0.3164  0.7554
   45CHL1  H15A 3275   1.260   5.944   3.785  0.9296 -0.4303 -0.7778
   45CHL1  H15B 3276   1.192   5.785   3.742  2.9573  0.4524 -4.2098
   45CHL1   C16 3277   1.288   5.789   3.947  0.2348  0.3752  0.3253
   45CHL1  H16A 3278   1.287   5.883   4.005  0.1375  0.2660  0.5038
   45CHL1  H16B 3279   1.197   5.735   3.980 -0.0604 -2.0446 -3.7289
   45CHL1   C17 3280   1.431   5.724   3.961  0.2866  0.1521  0.0799
   45CHL1   H17 3281   1.418   5.618   3.930 -0.3105  0.6746 -1.5487
   45CHL1   C13 3282   1.509   5.777   3.837 -0.0689 -0.4143  0.5424
   45CHL1   C18 3283   1.558   5.924   3.859  0.0954 -0.6603 -0.2279
   45CHL1  H18A 3284   1.482   5.999   3.893  2.2448  1.7361 -0.3756
   45CHL1  H18B 3285   1.652   5.928   3.918 -0.8599 -1.9963  1.4708
   45CHL1  H18C 3286   1.593   5.962   3.761 -1.3346 -1.5247 -1.1237
   45CHL1   C12 3287   1.624   5.698   3.783  0.1398  0.3116 -0.3998
   45CHL1  H12A 3288   1.704   5.702   3.859 -1.1509 -0.6172  1.0592
   45CHL1  H12B 3289   1.583   5.595   3.778  0.8043  0.0488 -0.5249
   45CHL1   C11 3290   1.673   5.738   3.642  0.2647 -0.9600 -0.0205
   45CHL1  H11A 3291   1.716   5.836   3.672 -0.9503  0.5662 -2.8946
   45CHL1  H11B 3292   1.751   5.663   3.614  0.1267  0.2404 -4.2935
   45CHL1    C9 3293   1.562   5.762   3.537  0.4953  0.4719 -0.5705
   45CHL1    H9 3294   1.532   5.657   3.517  2.0322  0.3398 -2.4799
   45CHL1   C10 3295   1.611   5.815   3.405  0.8758 -0.3033  0.2723
   45CHL1   C19 3296   1.697   5.945   3.426  0.4383 -0.2024  0.1466
   45CHL1  H19A 3297   1.647   6.009   3.503 -2.2648 -1.3549 -0.5285
   45CHL1  H19B 3298   1.794   5.918   3.473 -0.9619 -0.5120  3.0815
   45CHL1  H19C 3299   1.718   6.001   3.333  0.9340 -1.1772 -0.3409
   45CHL1    C1 3300   1.700   5.709   3.330  0.3713  0.4752  0.2663
   45CHL1   H1A 3301   1.792   5.691   3.390  0.6181 -0.6997 -0.4404
   45CHL1   H1B 3302   1.635   5.620   3.316  0.3837  0.8056 -2.4399
   45CHL1    C2 3303   1.729   5.743   3.188  0.0213 -0.1283 -0.0201
   45CHL1   H2A 3304   1.791   5.665   3.137  0.5567 -0.0667  0.5229
   45CHL1   H2B 3305   1.790   5.836   3.192  1.2506 -0.9329  0.9439
   45CHL1   C20 3306   1.487   5.738   4.099 -0.1237 -0.0679 -0.6761
   45CHL1   H20 3307   1.594   5.722   4.077 -0.8916 -1.5269 -3.9874
   45CHL1   C21 3308   1.432   5.619   4.178 -0.2079  0.8161 -0.6386
   45CHL1  H21A 3309   1.487   5.618   4.274  0.4572 -0.6303 -1.0047
   45CHL1  H21B 3310   1.453   5.529   4.116  0.0472 -0.4618  1.2078
   45CHL1  H21C 3311   1.321   5.617   4.191 -0.0484  1.9175  1.1724
   45CHL1   C22 3312   1.468   5.867   4.183  0.0947  0.0067 -0.2182
   45CHL1  H22A 3313   1.486   5.950   4.111 -0.9938 -0.0026 -0.5112
   45CHL1  H22B 3314   1.364   5.872   4.220 -0.0290  0.5741 -0.6394
   45CHL1   C23 3315   1.574   5.876   4.294 -0.0681  0.3830  0.2089
   45CHL1  H23A 3316   1.563   5.782   4.351 -0.1787  0.6972  0.7105
   45CHL1  H23B 3317   1.673   5.876   4.243 -1.2896  1.4058 -2.3374
   45CHL1   C24 3318   1.554   5.995   4.400  0.4779 -0.4807  0.0538
   45CHL1  H24A 3319   1.450   5.979   4.436  0.0436  0.1770 -0.8795
   45CHL1  H24B 3320   1.622   5.990   4.489  0.8366  1.1810 -0.0896
   45CHL1   C25 3321   1.563   6.143   4.352 -0.2115 -0.0436  0.1867
   45CHL1   H25 3322   1.487   6.153   4.272  0.3103  0.1972 -0.2858
   45CHL1   C26 3323   1.538   6.239   4.475 -0.3954  0.4923 -0.4630
   45CHL1  H26A 3324   1.454   6.210   4.541  0.4875 -1.2744 -0.0477
   45CHL1  H26B 3325   1.639   6.234   4.522 -0.1951  0.6368 -0.8654
   45CHL1  H26C 3326   1.507   6.342   4.445  0.8300  1.2617  0.7787
   45CHL1   C27 3327   1.710   6.169   4.287  0.2591 -0.1365 -0.2748
   45CHL1  H27A 3328   1.708   6.277   4.263 -0.5888 -0.1400 -0.2389
   45CHL1  H27B 3329   1.799   6.143   4.349 -0.2406 -0.6963  0.2152
   45CHL1  H27C 3330   1.731   6.113   4.193  1.7212  0.9237 -0.6263
   46CHL1    C3 3331   5.774   6.032   3.412 -0.2999  0.4296  0.5517
   46CHL1    H3 3332   5.738   6.137   3.406  1.3353  1.1140  1.9015
   46CHL1    O3 3333   5.788   5.997   3.276  0.6709  0.2573  0.1815
   46CHL1   H3' 3334   5.871   6.038   3.252  1.5552  1.0375  3.9542
   46CHL1    C4 3335   5.909   6.055   3.486  0.3258 -0.2077  0.4056
   46CHL1   H4A 3336   5.960   5.958   3.467 -0.3181 -0.3757 -0.5572
   46CHL1   H4B 3337   5.962   6.131   3.424  2.6285 -0.4271  1.9826
   46CHL1    C5 3338   5.892   6.073   3.639  0.2481 -0.2286 -0.8114
   46CHL1    C6 3339   5.947   6.179   3.707 -0.5211 -0.0116 -0.2280
   46CHL1    H6 3340   6.015   6.247   3.653 -0.2583  0.9831  1.3035
   46CHL1    C7 3341   5.943   6.197   3.857 -0.2429  0.3971  0.1853
   46CHL1   H7A 3342   6.047   6.203   3.896  0.2581 -2.2198 -0.5190
   46CHL1   H7B 3343   5.876   6.283   3.878 -1.3155 -0.4782  0.4868
   46CHL1    C8 3344   5.877   6.077   3.930 -0.2822  0.0629 -0.7106
   46CHL1    H8 3345   5.958   6.001   3.934  0.0806  0.4754 -0.0622
   46CHL1   C14 3346   5.835   6.124   4.069  0.1277  0.3886 -0.6480
   46CHL1   H14 3347   5.754   6.198   4.051 -0.5076 -0.3600 -0.9030
   46CHL1   C15 3348   5.943   6.194   4.158  0.3818  0.3761  0.1010
   46CHL1  H15A 3349   6.032   6.129   4.159  0.6216  0.7108  0.8562
   46CHL1  H15B 3350   5.980   6.295   4.131  2.8470  0.6434  3.7929
   46CHL1   C16 3351   5.876   6.189   4.297  0.3244 -0.0859 -0.2167
   46CHL1  H16A 3352   5.949   6.154   4.373  1.2028 -0.9556 -1.4236
   46CHL1  H16B 3353   5.844   6.291   4.326  0.0541 -0.5448  1.1848
   46CHL1   C17 3354   5.749   6.097   4.287 -0.4521 -0.1561 -0.1357
   46CHL1   H17 3355   5.672   6.174   4.263  0.8044  0.7527 -1.4056
   46CHL1   C13 3356   5.763   6.019   4.158  0.6161  0.0866 -0.2477
   46CHL1   C18 3357   5.847   5.894   4.179  0.8707  0.4504  0.3585
   46CHL1  H18A 3358   5.867   5.850   4.079 -0.8923  2.3053 -0.9070
   46CHL1  H18B 3359   5.944   5.916   4.229  1.5224 -0.0508 -0.6499
   46CHL1  H18C 3360   5.795   5.823   4.247  1.1186  1.6433  1.8635
   46CHL1   C12 3361   5.629   5.970   4.084 -0.4693 -0.2139  0.3027
   46CHL1  H12A 3362   5.587   5.876   4.125  0.2034 -0.3671  0.6519
   46CHL1  H12B 3363   5.551   6.048   4.095  1.0913  1.4569 -0.0104
   46CHL1   C11 3364   5.660   5.929   3.940  0.4143  0.5592 -0.1826
   46CHL1  H11A 3365   5.701   5.826   3.929 -0.4581  0.3761 -2.2586
   46CHL1  H11B 3366   5.566   5.906   3.886  0.8238 -0.5748 -0.4343
   46CHL1    C9 3367   5.750   6.027   3.861  0.4192  0.4034 -0.3827
   46CHL1    H9 3368   5.685   6.113   3.835  0.3232  0.1765 -0.8909
   46CHL1   C10 3369   5.794   5.980   3.714 -0.3665  0.7123  0.5418
   46CHL1   C19 3370   5.865   5.831   3.732 -0.3832 -0.4135  0.6810
   46CHL1  H19A 3371   5.905   5.794   3.635 -0.2972  1.5662 -0.0884
   46CHL1  H19B 3372   5.950   5.855   3.799 -1.0134  0.4317  1.1888
   46CHL1  H19C 3373   5.808   5.746   3.773 -0.6218 -0.9067 -0.6230
   46CHL1    C1 3374   5.667   5.977   3.628 -0.0028  0.1739 -0.3696
   46CHL1   H1A 3375   5.612   5.896   3.679  1.5914 -1.3022 -0.8685
   46CHL1   H1B 3376   5.608   6.071   3.632 -0.0214  0.1271  0.8041
   46CHL1    C2 3377   5.680   5.934   3.483 -1.2798 -0.1294  0.4846
   46CHL1   H2A 3378   5.592   5.927   3.415 -0.6336 -1.0322 -0.2939
   46CHL1   H2B 3379   5.737   5.838   3.481 -0.4376  0.3621 -0.2598
   46CHL1   C20 3380   5.700   6.033   4.414  0.1335 -0.9288 -0.2183
   46CHL1   H20 3381   5.775   5.958   4.446  1.1394 -0.2653 -0.9852
   46CHL1   C21 3382   5.562   5.962   4.399 -0.0436 -0.1531  1.2889
   46CHL1  H21A 3383   5.520   5.923   4.494 -1.6736  1.2138  1.1856
   46CHL1  H21B 3384   5.554   5.881   4.324 -3.4540  1.6915 -0.6035
   46CHL1  H21C 3385   5.489   6.038   4.362  2.5616  2.1525  0.5683
   46CHL1   C22 3386   5.681   6.141   4.532 -0.0489  0.3158  0.6195
   46CHL1  H22A 3387   5.762   6.215   4.516 -2.2751  2.4824 -1.4662
   46CHL1  H22B 3388   5.584   6.194   4.521  0.0000  0.3876  0.5332
   46CHL1   C23 3389   5.693   6.072   4.666  1.0515  0.2331 -0.7168
   46CHL1  H23A 3390   5.615   5.995   4.687  0.4794  1.5447  2.4375
   46CHL1  H23B 3391   5.794   6.026   4.676  1.3380  1.1785  1.2409
   46CHL1   C24 3392   5.675   6.172   4.779  0.2238 -0.1216  1.2037
   46CHL1  H24A 3393   5.754   6.249   4.793 -0.9263  1.1676  0.7819
   46CHL1  H24B 3394   5.576   6.219   4.760  0.7655  0.4787 -0.3122
   46CHL1   C25 3395   5.660   6.102   4.917  0.0283 -0.2349  0.6123
   46CHL1   H25 3396   5.752   6.041   4.928 -0.6849 -2.1702 -2.7230
   46CHL1   C26 3397   5.669   6.210   5.034  0.1642  0.0100 -0.4496
   46CHL1  H26A 3398   5.577   6.271   5.045 -1.4495 -2.2352 -0.9123
   46CHL1  H26B 3399   5.683   6.159   5.131 -0.8242 -1.1181 -0.8793
   46CHL1  H26C 3400   5.751   6.280   5.005  1.4324 -0.8322  0.9686
   46CHL1   C27 3401   5.532   6.011   4.935 -0.1980 -0.1840  0.0507
   46CHL1  H27A 3402   5.534   5.934   4.856  0.5304  1.7458 -1.9082
   46CHL1  H27B 3403   5.537   5.964   5.036 -2.0988  2.2151  1.3765
   46CHL1  H27C 3404   5.442   6.076   4.925  1.5284  2.1658 -1.3311
   47CHL1    C3 3405   3.768   6.674   3.451  0.4744  0.5678 -0.4283
   47CHL1    H3 3406   3.716   6.768   3.427 -2.3952 -1.0437 -0.9641
   47CHL1    O3 3407   3.822   6.605   3.337  0.3924 -0.4621 -0.0774
   47CHL1   H3' 3408   3.849   6.515   3.357  2.0669 -0.1294 -0.6780
   47CHL1    C4 3409   3.874   6.676   3.568  0.8573  0.1579  0.0617
   47CHL1   H4A 3410   3.894   6.567   3.574  1.4443  0.3447  2.1547
   47CHL1   H4B 3411   3.965   6.734   3.543 -0.5731  2.4771 -0.1581
   47CHL1    C5 3412   3.817   6.713   3.702  0.2269 -0.1099  0.1040
   47CHL1    C6 3413   3.869   6.814   3.780  0.3911 -0.0930  0.3606
   47CHL1    H6 3414   3.949   6.878   3.740  1.1711  0.0758  2.0906
   47CHL1    C7 3415   3.807   6.860   3.914 -0.3421  0.2075  0.3678
   47CHL1   H7A 3416   3.895   6.884   3.978  0.2877 -3.3638  1.0354
   47CHL1   H7B 3417   3.741   6.949   3.902 -2.0209 -1.0727 -0.2808
   47CHL1    C8 3418   3.719   6.744   3.978 -0.0209 -0.2103 -0.3944
   47CHL1    H8 3419   3.787   6.668   4.021  0.6890  2.0123  2.8004
   47CHL1   C14 3420   3.630   6.795   4.091  0.5819 -0.2584 -0.2359
   47CHL1   H14 3421   3.563   6.864   4.035  2.1339 -0.6881 -2.7534
   47CHL1   C15 3422   3.696   6.874   4.203 -0.6869  0.1334  0.1367
   47CHL1  H15A 3423   3.799   6.837   4.220 -0.3413  0.6848 -0.6742
   47CHL1  H15B 3424   3.716   6.978   4.168 -1.9138 -0.0782 -1.3126
   47CHL1   C16 3425   3.613   6.859   4.326 -0.4246 -0.0626 -0.0896
   47CHL1  H16A 3426   3.675   6.811   4.405  2.6870  0.2057 -2.1643
   47CHL1  H16B 3427   3.591   6.957   4.374  3.2360  1.1893 -0.6032
   47CHL1   C17 3428   3.489   6.784   4.278 -0.3908  0.3152  0.2611
   47CHL1   H17 3429   3.420   6.848   4.218 -0.4593 -0.1325 -0.1414
   47CHL1   C13 3430   3.541   6.692   4.160 -0.5488 -0.2709  0.1560
   47CHL1   C18 3431   3.629   6.582   4.212 -0.4409 -0.8724 -0.4623
   47CHL1  H18A 3432   3.705   6.540   4.143  1.4178  1.0829  0.2617
   47CHL1  H18B 3433   3.676   6.629   4.302 -0.8499 -1.1130 -0.1222
   47CHL1  H18C 3434   3.574   6.493   4.249 -0.7881 -0.8953 -1.0299
   47CHL1   C12 3435   3.440   6.641   4.051  0.8825  0.2459 -0.2882
   47CHL1  H12A 3436   3.372   6.567   4.099 -0.1724  1.7719  0.6408
   47CHL1  H12B 3437   3.369   6.722   4.025  0.1161 -0.3224 -0.0309
   47CHL1   C11 3438   3.519   6.587   3.930  0.6197  0.1163  0.0860
   47CHL1  H11A 3439   3.555   6.486   3.960 -3.7494 -0.9380  2.6793
   47CHL1  H11B 3440   3.448   6.575   3.846  0.8187  1.4228 -0.2949
   47CHL1    C9 3441   3.623   6.681   3.875 -0.1745  0.3350 -0.6075
   47CHL1    H9 3442   3.564   6.770   3.844 -0.6105  1.0498  2.0692
   47CHL1   C10 3443   3.697   6.630   3.747 -0.0050 -0.5387  0.2502
   47CHL1   C19 3444   3.750   6.490   3.784 -0.1818 -0.6159  0.1527
   47CHL1  H19A 3445   3.817   6.512   3.869 -0.8807  0.1014  0.5298
   47CHL1  H19B 3446   3.671   6.420   3.819 -0.4001 -0.6151 -0.3351
   47CHL1  H19C 3447   3.804   6.434   3.705  2.0032  0.3424  0.8852
   47CHL1    C1 3448   3.592   6.616   3.633  0.2453  0.0535  0.0343
   47CHL1   H1A 3449   3.512   6.543   3.660  0.1997  0.6275  1.5661
   47CHL1   H1B 3450   3.558   6.722   3.634 -0.2780 -0.0999 -0.7090
   47CHL1    C2 3451   3.648   6.578   3.496 -0.7443  0.0589  0.0607
   47CHL1   H2A 3452   3.573   6.578   3.413  1.2764  0.6800 -1.8745
   47CHL1   H2B 3453   3.697   6.479   3.500 -0.4406  0.2054  0.0137
   47CHL1   C20 3454   3.430   6.712   4.393 -0.3240 -0.3538  0.4883
   47CHL1   H20 3455   3.499   6.640   4.443  0.3647 -0.0252  0.0210
   47CHL1   C21 3456   3.317   6.606   4.351  0.1244 -0.2234  0.5230
   47CHL1  H21A 3457   3.366   6.520   4.301  1.6210  0.5554  0.5762
   47CHL1  H21B 3458   3.244   6.650   4.280  0.2436 -1.5944 -0.4737
   47CHL1  H21C 3459   3.273   6.558   4.441  0.5415  0.1948  0.9611
   47CHL1   C22 3460   3.353   6.799   4.501 -0.1152  0.2654  0.6788
   47CHL1  H22A 3461   3.425   6.880   4.527  0.4643  0.6200 -1.7626
   47CHL1  H22B 3462   3.267   6.850   4.451  0.7123  0.3201 -0.7343
   47CHL1   C23 3463   3.308   6.730   4.637  0.2780 -0.6952  0.2190
   47CHL1  H23A 3464   3.233   6.651   4.614 -0.5275 -0.2093  1.1381
   47CHL1  H23B 3465   3.400   6.679   4.673  1.5898  0.1683 -1.7246
   47CHL1   C24 3466   3.251   6.827   4.737 -0.9467  0.1035 -0.1526
   47CHL1  H24A 3467   3.331   6.895   4.771 -0.0415 -0.6614 -0.6902
   47CHL1  H24B 3468   3.164   6.873   4.685  1.2304  1.4288 -2.8234
   47CHL1   C25 3469   3.200   6.761   4.867 -0.2465  0.5481 -0.5970
   47CHL1   H25 3470   3.127   6.686   4.831 -0.7403  0.9151 -0.3693
   47CHL1   C26 3471   3.302   6.669   4.937  0.0469 -0.9126 -0.6774
   47CHL1  H26A 3472   3.255   6.632   5.030 -0.2712 -3.2794 -1.7039
   47CHL1  H26B 3473   3.319   6.573   4.884  1.0099 -0.3563 -1.4242
   47CHL1  H26C 3474   3.403   6.714   4.952 -0.1967 -1.0591  1.9345
   47CHL1   C27 3475   3.137   6.868   4.964  0.0919  0.4098  0.3525
   47CHL1  H27A 3476   3.064   6.934   4.914 -0.5621 -1.5612 -1.4349
   47CHL1  H27B 3477   3.093   6.814   5.050  2.5469 -2.1887  0.1598
   47CHL1  H27C 3478   3.213   6.935   5.009 -0.6821  0.2542  1.9312
   48CHL1    C3 3479   1.284   3.951   3.582  0.0646 -0.2905 -0.1086
   48CHL1    H3 3480   1.231   3.853   3.590  0.5192 -0.4662  0.9727
   48CHL1    O3 3481   1.338   3.962   3.449  0.8140 -0.0587 -0.5205
   48CHL1   H3' 3482   1.271   4.012   3.401  0.0864  0.0139  0.5216
   48CHL1    C4 3483   1.178   4.056   3.623  0.7006  0.6521 -0.7513
   48CHL1   H4A 3484   1.218   4.160   3.617  0.8935  1.1628  4.5243
   48CHL1   H4B 3485   1.092   4.047   3.554  0.7568  2.4790 -1.1007
   48CHL1    C5 3486   1.134   4.039   3.767  0.1120  0.2220 -0.3936
   48CHL1    C6 3487   1.003   4.029   3.809 -0.3236 -0.1290  0.3684
   48CHL1    H6 3488   0.925   4.029   3.732  0.1522  0.0257 -0.1136
   48CHL1    C7 3489   0.954   4.009   3.944  0.0154 -0.0678 -0.1873
   48CHL1   H7A 3490   0.859   4.061   3.969 -0.3823 -1.6629  1.8175
   48CHL1   H7B 3491   0.934   3.901   3.957 -2.3707  0.1510 -1.5347
   48CHL1    C8 3492   1.055   4.042   4.052  0.0885 -0.2121  0.2097
   48CHL1    H8 3493   1.077   4.151   4.054 -0.6090 -0.0819  1.4676
   48CHL1   C14 3494   1.014   4.002   4.188  0.4665  0.2970  0.3233
   48CHL1   H14 3495   1.001   3.892   4.182  1.7062  0.1310  0.2848
   48CHL1   C15 3496   0.879   4.061   4.229  0.4016  0.0192 -0.5292
   48CHL1  H15A 3497   0.882   4.168   4.199  3.7742  0.3154  0.5471
   48CHL1  H15B 3498   0.792   4.007   4.186 -0.7565  0.3323  1.2926
   48CHL1   C16 3499   0.875   4.027   4.383 -0.4316 -0.5153  0.2130
   48CHL1  H16A 3500   0.848   4.118   4.440 -0.6222 -0.6851  0.3971
   48CHL1  H16B 3501   0.815   3.933   4.390  0.8096 -1.4492 -0.9610
   48CHL1   C17 3502   1.023   3.992   4.415  0.0785 -0.7062 -0.0102
   48CHL1   H17 3503   1.029   3.881   4.405  3.0334 -0.5782 -0.7905
   48CHL1   C13 3504   1.110   4.038   4.298 -0.3360  0.8506 -0.0375
   48CHL1   C18 3505   1.134   4.192   4.305 -0.7035 -0.1093  0.2678
   48CHL1  H18A 3506   1.197   4.222   4.392 -0.5879  0.6143 -0.0601
   48CHL1  H18B 3507   1.179   4.231   4.211 -0.3542  0.1717  0.5459
   48CHL1  H18C 3508   1.045   4.257   4.317 -0.4984  0.7243 -2.2596
   48CHL1   C12 3509   1.240   3.967   4.274 -0.2810  0.3531 -0.1709
   48CHL1  H12A 3510   1.320   3.978   4.351 -0.6983 -3.0951  0.9394
   48CHL1  H12B 3511   1.219   3.858   4.281 -0.6090  0.3732 -0.7572
   48CHL1   C11 3512   1.294   3.997   4.136  0.3078  0.5964  0.6537
   48CHL1  H11A 3513   1.324   4.103   4.136 -3.1880  1.7275  0.1515
   48CHL1  H11B 3514   1.381   3.930   4.122  0.4926  1.1651 -1.0369
   48CHL1    C9 3515   1.192   3.978   4.014  0.9277  0.0097 -0.5787
   48CHL1    H9 3516   1.179   3.868   4.015  0.5102  0.0402  1.9596
   48CHL1   C10 3517   1.240   4.027   3.877  0.0185 -0.0188  0.7484
   48CHL1   C19 3518   1.294   4.172   3.894 -0.4690  0.6563  0.2782
   48CHL1  H19A 3519   1.386   4.174   3.956  0.5941 -1.2069 -1.1772
   48CHL1  H19B 3520   1.332   4.206   3.796 -0.1165  0.2502  0.2741
   48CHL1  H19C 3521   1.212   4.244   3.918 -2.4465 -1.4736  0.2688
   48CHL1    C1 3522   1.353   3.934   3.824  0.4208  0.5586 -1.3548
   48CHL1   H1A 3523   1.450   3.941   3.878 -1.0172  0.4199  1.4022
   48CHL1   H1B 3524   1.320   3.828   3.822  1.0092  0.3695 -1.3779
   48CHL1    C2 3525   1.396   3.960   3.683 -0.2351  0.0027  0.1374
   48CHL1   H2A 3526   1.492   3.908   3.659  0.5537  1.5275 -0.1773
   48CHL1   H2B 3527   1.437   4.064   3.681  1.6577 -0.6877  0.5112
   48CHL1   C20 3528   1.080   4.028   4.553 -0.4681 -0.1815  0.4995
   48CHL1   H20 3529   1.190   4.015   4.550 -0.6039 -1.4008 -0.4228
   48CHL1   C21 3530   1.029   3.914   4.645  0.3647 -0.0302 -0.5674
   48CHL1  H21A 3531   0.927   3.943   4.678  0.4292 -0.2603 -0.1561
   48CHL1  H21B 3532   1.083   3.918   4.742  0.2611  0.3215 -0.5237
   48CHL1  H21C 3533   1.026   3.811   4.603  1.0133 -1.4759  2.5673
   48CHL1   C22 3534   1.040   4.159   4.616  0.6646  0.5310 -0.4006
   48CHL1  H22A 3535   1.053   4.241   4.543 -3.6323 -0.5682 -2.7037
   48CHL1  H22B 3536   0.934   4.149   4.649  0.6858 -1.7078 -0.8876
   48CHL1   C23 3537   1.128   4.189   4.742 -0.5569 -0.2248  0.3827
   48CHL1  H23A 3538   1.103   4.107   4.812  1.9122 -1.4275 -0.0353
   48CHL1  H23B 3539   1.237   4.183   4.723 -0.7077  0.8825 -0.9789
   48CHL1   C24 3540   1.104   4.320   4.813  0.0207 -0.5303  0.4863
   48CHL1  H24A 3541   1.000   4.330   4.850  0.1657  2.1370  0.3719
   48CHL1  H24B 3542   1.174   4.323   4.900  1.7591  1.5574 -0.8678
   48CHL1   C25 3543   1.135   4.455   4.740  0.6161  0.2912 -0.5927
   48CHL1   H25 3544   1.051   4.439   4.669 -0.6940 -0.5834  1.0541
   48CHL1   C26 3545   1.100   4.571   4.836  0.9884  0.5799 -0.4110
   48CHL1  H26A 3546   1.004   4.548   4.887  2.8311  1.7607  4.1237
   48CHL1  H26B 3547   1.172   4.586   4.919  0.4345 -2.2233  0.6901
   48CHL1  H26C 3548   1.092   4.671   4.790 -0.6289  0.3611 -0.6718
   48CHL1   C27 3549   1.279   4.457   4.692 -0.1408 -0.4517  0.6094
   48CHL1  H27A 3550   1.299   4.555   4.644 -0.2453 -0.5968  0.2713
   48CHL1  H27B 3551   1.354   4.439   4.772  1.2345 -0.7211 -0.6960
   48CHL1  H27C 3552   1.286   4.372   4.622  0.3935  0.2786 -0.2436
   49CHL1    C3 3553   1.089   6.736   3.324  0.4648 -0.2313 -0.2646
   49CHL1    H3 3554   0.982   6.766   3.325  0.7472  0.8008  0.5099
   49CHL1    O3 3555   1.112   6.682   3.196  0.0976  0.0511  0.1123
   49CHL1   H3' 3556   1.084   6.749   3.133  0.4375 -1.9532 -2.3469
   49CHL1    C4 3557   1.190   6.853   3.346  0.4394  0.1073 -0.1678
   49CHL1   H4A 3558   1.292   6.809   3.349 -0.7401 -2.7945  0.5420
   49CHL1   H4B 3559   1.173   6.914   3.255  0.6067 -1.8348 -1.5506
   49CHL1    C5 3560   1.143   6.914   3.480  0.0526  0.0490 -0.7529
   49CHL1    C6 3561   1.098   7.040   3.479 -0.4037  0.1264  0.4500
   49CHL1    H6 3562   1.089   7.099   3.387 -0.2842 -1.4500 -0.6178
   49CHL1    C7 3563   1.061   7.112   3.602  0.5865  0.3520  0.3024
   49CHL1   H7A 3564   1.103   7.215   3.601 -1.1057  1.1577 -3.3156
   49CHL1   H7B 3565   0.952   7.131   3.602  0.3242 -0.8894 -1.5766
   49CHL1    C8 3566   1.118   7.037   3.731 -0.0002 -0.2342 -0.1301
   49CHL1    H8 3567   1.226   7.057   3.749 -0.4367  0.2833  2.3242
   49CHL1   C14 3568   1.042   7.082   3.851  0.1289 -0.6978  0.2535
   49CHL1   H14 3569   0.938   7.052   3.825  0.4395 -1.4947 -0.0984
   49CHL1   C15 3570   1.024   7.235   3.885  0.0283  0.3315 -0.2099
   49CHL1  H15A 3571   1.116   7.297   3.888  1.7344 -2.0499 -0.3209
   49CHL1  H15B 3572   0.947   7.279   3.819 -0.2680  1.3408  0.7801
   49CHL1   C16 3573   0.965   7.240   4.022  0.1627 -0.1485  0.1900
   49CHL1  H16A 3574   1.029   7.300   4.090  1.8673 -1.7563  0.0767
   49CHL1  H16B 3575   0.864   7.286   4.026 -0.2905 -1.1765  0.7348
   49CHL1   C17 3576   0.971   7.093   4.081  0.6571 -0.1177 -0.3401
   49CHL1   H17 3577   0.874   7.042   4.063  0.6006 -0.1391  0.0318
   49CHL1   C13 3578   1.067   7.011   3.984  0.3628 -0.1957 -0.4468
   49CHL1   C18 3579   1.218   7.041   4.018 -0.5268 -0.0291  0.6737
   49CHL1  H18A 3580   1.290   7.021   3.935 -1.7402  1.4739 -0.7985
   49CHL1  H18B 3581   1.243   7.143   4.053  0.5089  0.4186 -1.2122
   49CHL1  H18C 3582   1.252   6.975   4.101  3.3607  1.3176  0.3287
   49CHL1   C12 3583   1.043   6.854   3.974 -0.0710 -0.1851 -0.4631
   49CHL1  H12A 3584   1.065   6.791   4.063 -1.9780 -1.6639 -0.9450
   49CHL1  H12B 3585   0.933   6.850   3.956 -0.3156  3.4389 -0.4441
   49CHL1   C11 3586   1.128   6.806   3.856  0.4291  0.3855 -0.2787
   49CHL1  H11A 3587   1.237   6.807   3.881  0.8912 -1.8763 -1.8772
   49CHL1  H11B 3588   1.091   6.702   3.842 -1.1941  0.4020  2.9120
   49CHL1    C9 3589   1.094   6.882   3.723  0.6362 -0.0809 -0.5012
   49CHL1    H9 3590   0.983   6.879   3.715  0.3266 -3.2057  2.6272
   49CHL1   C10 3591   1.151   6.815   3.601 -0.3521 -0.2132  0.1537
   49CHL1   C19 3592   1.302   6.796   3.632 -0.2869  0.5478  0.2043
   49CHL1  H19A 3593   1.338   6.882   3.692  0.7277 -2.1023  3.7422
   49CHL1  H19B 3594   1.305   6.708   3.699  2.3849 -0.6890 -1.3501
   49CHL1  H19C 3595   1.366   6.772   3.543 -1.1186 -2.0245  0.2293
   49CHL1    C1 3596   1.083   6.682   3.584  0.4378 -0.1569  0.2489
   49CHL1   H1A 3597   1.118   6.602   3.652  0.3898 -0.9093 -0.5915
   49CHL1   H1B 3598   0.974   6.694   3.602 -0.1449 -0.0023 -2.8167
   49CHL1    C2 3599   1.104   6.632   3.437 -0.7358  0.6522  0.0744
   49CHL1   H2A 3600   1.041   6.544   3.410  1.1001 -0.7489  0.1270
   49CHL1   H2B 3601   1.209   6.596   3.427 -0.8011  0.3712  0.3570
   49CHL1   C20 3602   1.000   7.092   4.232 -0.2267  0.2796  0.0542
   49CHL1   H20 3603   1.103   7.129   4.249 -0.7230  2.7186 -1.6255
   49CHL1   C21 3604   0.986   6.949   4.281  0.2985 -0.3837  0.0471
   49CHL1  H21A 3605   0.989   6.940   4.391 -0.6131  1.5986  0.2673
   49CHL1  H21B 3606   1.071   6.890   4.241  1.4058  2.4498 -2.0588
   49CHL1  H21C 3607   0.885   6.911   4.254 -0.4149  0.5654  1.2673
   49CHL1   C22 3608   0.906   7.178   4.323  0.3265 -0.5752 -0.3299
   49CHL1  H22A 3609   0.901   7.276   4.270  1.3411 -0.2974  0.0632
   49CHL1  H22B 3610   0.806   7.131   4.322  0.6263 -1.7042  3.9319
   49CHL1   C23 3611   0.954   7.189   4.466 -0.0424  0.1632 -0.5917
   49CHL1  H23A 3612   0.938   7.091   4.516  1.7785 -0.1621 -0.6026
   49CHL1  H23B 3613   1.060   7.219   4.481 -0.7793  2.0141  1.4936
   49CHL1   C24 3614   0.860   7.295   4.523  0.2555 -0.1711 -1.1353
   49CHL1  H24A 3615   0.852   7.377   4.449  1.3249  0.8808 -0.1388
   49CHL1  H24B 3616   0.762   7.246   4.540  0.8881 -1.6635 -1.6261
   49CHL1   C25 3617   0.907   7.345   4.663 -0.4848 -0.3454  0.1345
   49CHL1   H25 3618   0.911   7.253   4.726 -0.7053  0.8117  1.9179
   49CHL1   C26 3619   1.044   7.420   4.669 -0.1886 -0.4262  0.4814
   49CHL1  H26A 3620   1.021   7.519   4.623  1.1469 -1.1702 -1.9227
   49CHL1  H26B 3621   1.070   7.419   4.777 -0.2341 -3.6810  0.5385
   49CHL1  H26C 3622   1.119   7.365   4.609  0.7596  0.5641  0.7344
   49CHL1   C27 3623   0.795   7.431   4.729  0.0508 -0.2574  0.0602
   49CHL1  H27A 3624   0.832   7.512   4.796  0.8516 -0.9332  0.4754
   49CHL1  H27B 3625   0.725   7.475   4.656  0.2471 -0.2908 -0.1507
   49CHL1  H27C 3626   0.734   7.353   4.779  0.8505  0.0362  1.5781
   50CHL1    C3 3627   5.703   6.430   3.306  0.2101 -0.8280  0.3221
   50CHL1    H3 3628   5.720   6.321   3.322  0.3946 -0.9545 -0.7111
   50CHL1    O3 3629   5.715   6.459   3.171  0.2878  0.2285  0.5388
   50CHL1   H3' 3630   5.717   6.554   3.158  0.0664  0.0201 -1.2564
   50CHL1    C4 3631   5.568   6.473   3.358 -0.0425 -0.3929  0.2407
   50CHL1   H4A 3632   5.538   6.577   3.330  0.5697 -0.4830 -0.7902
   50CHL1   H4B 3633   5.493   6.408   3.309  1.6444 -1.5610 -0.8832
   50CHL1    C5 3634   5.552   6.449   3.507 -0.5439 -0.3117 -0.5029
   50CHL1    C6 3635   5.469   6.361   3.562  0.2117 -0.0793 -0.0355
   50CHL1    H6 3636   5.400   6.300   3.502 -1.5853  1.6054  0.2294
   50CHL1    C7 3637   5.449   6.338   3.705 -0.2102 -0.7309  0.0350
   50CHL1   H7A 3638   5.340   6.340   3.726 -0.5894 -0.7046 -1.8116
   50CHL1   H7B 3639   5.492   6.238   3.729  1.7547  0.2952  1.1177
   50CHL1    C8 3640   5.522   6.453   3.790  0.1822  0.3755 -0.2815
   50CHL1    H8 3641   5.456   6.541   3.778  1.6210  1.4686 -0.4366
   50CHL1   C14 3642   5.528   6.412   3.935 -0.1532 -0.3960  0.6382
   50CHL1   H14 3643   5.607   6.335   3.950  0.1122 -0.1862  0.3258
   50CHL1   C15 3644   5.398   6.355   3.995  0.0193  0.0670  0.3332
   50CHL1  H15A 3645   5.305   6.388   3.945  0.8442  1.8030 -0.1235
   50CHL1  H15B 3646   5.402   6.244   3.986  2.5205  0.1962 -1.0216
   50CHL1   C16 3647   5.399   6.397   4.145  0.0731 -0.4278  0.2677
   50CHL1  H16A 3648   5.320   6.469   4.175 -0.6301 -1.4865  1.0364
   50CHL1  H16B 3649   5.398   6.309   4.214  1.3440  0.0198  0.8943
   50CHL1   C17 3650   5.545   6.468   4.166 -0.4531  0.3796 -0.0150
   50CHL1   H17 3651   5.627   6.396   4.189 -1.0720 -0.1394  0.6188
   50CHL1   C13 3652   5.573   6.529   4.027  0.2226 -0.4084 -0.9750
   50CHL1   C18 3653   5.486   6.655   4.010 -0.5556 -0.8047 -0.4816
   50CHL1  H18A 3654   5.386   6.624   4.048  0.2467  0.0947  2.6360
   50CHL1  H18B 3655   5.514   6.739   4.077 -2.5682 -0.8735  0.5175
   50CHL1  H18C 3656   5.489   6.680   3.902 -0.6160 -4.8477 -1.5626
   50CHL1   C12 3657   5.722   6.555   3.993  0.1416 -0.0956  0.4905
   50CHL1  H12A 3658   5.775   6.629   4.057  0.9874 -1.7091  1.7297
   50CHL1  H12B 3659   5.768   6.457   4.019 -1.1078 -0.5681  1.0227
   50CHL1   C11 3660   5.733   6.585   3.838 -0.2599 -0.0429  0.4740
   50CHL1  H11A 3661   5.696   6.689   3.826 -0.3971 -0.2176 -0.7260
   50CHL1  H11B 3662   5.836   6.604   3.800 -0.1127  1.7801  1.6695
   50CHL1    C9 3663   5.658   6.487   3.742  0.0403  1.0573 -0.1074
   50CHL1    H9 3664   5.711   6.390   3.751 -0.3809  0.8778  0.4803
   50CHL1   C10 3665   5.656   6.526   3.592  0.2894  0.0673  0.5297
   50CHL1   C19 3666   5.621   6.679   3.582 -0.1133  0.3572  0.2696
   50CHL1  H19A 3667   5.586   6.719   3.485  1.6191  0.7059 -0.2530
   50CHL1  H19B 3668   5.540   6.695   3.657 -0.8033  1.3358 -0.6623
   50CHL1  H19C 3669   5.711   6.734   3.618  0.4093 -0.9866  1.0833
   50CHL1    C1 3670   5.794   6.501   3.532  0.4510  0.0171  0.0457
   50CHL1   H1A 3671   5.862   6.581   3.567  0.9057 -1.0834  1.8040
   50CHL1   H1B 3672   5.834   6.399   3.554  0.3620  0.1512  0.8468
   50CHL1    C2 3673   5.806   6.514   3.379  0.0343  0.2638  0.3517
   50CHL1   H2A 3674   5.907   6.485   3.343  0.0536 -0.3580  0.8919
   50CHL1   H2B 3675   5.777   6.617   3.347 -4.7510 -0.8871  0.2281
   50CHL1   C20 3676   5.544   6.569   4.285  0.3921  0.1188  1.0123
   50CHL1   H20 3677   5.457   6.635   4.270  0.2535 -0.3314 -0.2269
   50CHL1   C21 3678   5.662   6.663   4.297 -0.1805  0.6034  0.1197
   50CHL1  H21A 3679   5.754   6.601   4.308  0.6483  0.9790 -3.5916
   50CHL1  H21B 3680   5.648   6.727   4.387 -1.4893  0.1199  0.2879
   50CHL1  H21C 3681   5.680   6.733   4.213 -1.2819  0.8868  0.1005
   50CHL1   C22 3682   5.508   6.486   4.422  0.3076  1.0575 -0.1798
   50CHL1  H22A 3683   5.413   6.437   4.394  0.8159  0.1927 -0.4256
   50CHL1  H22B 3684   5.588   6.412   4.446  0.2028  1.5934  2.0220
   50CHL1   C23 3685   5.487   6.569   4.549 -0.9876 -0.0002 -0.7838
   50CHL1  H23A 3686   5.584   6.590   4.599 -0.3204 -3.2140 -0.5146
   50CHL1  H23B 3687   5.452   6.668   4.514  1.4437  1.0226 -0.5383
   50CHL1   C24 3688   5.404   6.498   4.657 -0.0894  0.8282  0.1143
   50CHL1  H24A 3689   5.306   6.467   4.617  0.0320 -1.0926  1.1649
   50CHL1  H24B 3690   5.458   6.405   4.686 -0.8507  0.1488 -0.6103
   50CHL1   C25 3691   5.382   6.580   4.789 -0.1540 -0.1194 -0.0692
   50CHL1   H25 3692   5.466   6.652   4.799 -2.3811  2.8955 -1.3611
   50CHL1   C26 3693   5.262   6.672   4.775  0.1029  0.1072 -0.3327
   50CHL1  H26A 3694   5.235   6.731   4.865 -1.0734 -1.0690  0.1289
   50CHL1  H26B 3695   5.282   6.743   4.693  3.0642 -0.0137  0.1565
   50CHL1  H26C 3696   5.171   6.613   4.753 -0.5986  1.0212  0.0621
   50CHL1   C27 3697   5.378   6.499   4.921  0.2056  0.5664  0.2771
   50CHL1  H27A 3698   5.386   6.576   5.001 -1.5325  0.2129  0.8446
   50CHL1  H27B 3699   5.276   6.455   4.933  0.0029  0.8561 -0.3835
   50CHL1  H27C 3700   5.469   6.436   4.931  1.2864  2.2985  1.9845
   51CHL1    C3 3701   2.302   5.704   3.240 -0.5704  0.1310  0.0668
   51CHL1    H3 3702   2.267   5.600   3.258 -0.9435  0.4922  1.5365
   51CHL1    O3 3703   2.319   5.731   3.105 -0.2171  0.1448 -0.0817
   51CHL1   H3' 3704   2.353   5.820   3.099 -1.6811  0.8928  1.7175
   51CHL1    C4 3705   2.200   5.804   3.279  0.2132  0.1412  0.5972
   51CHL1   H4A 3706   2.234   5.901   3.238 -1.8632  0.8947  0.5734
   51CHL1   H4B 3707   2.108   5.772   3.227 -0.6553  2.2721  0.7410
   51CHL1    C5 3708   2.182   5.837   3.425  0.5213  0.9884  0.2896
   51CHL1    C6 3709   2.056   5.827   3.476 -0.2169 -0.0143  0.2592
   51CHL1    H6 3710   1.968   5.799   3.416 -1.2399  0.8532  1.3140
   51CHL1    C7 3711   2.029   5.862   3.621 -0.0037  0.5787  0.2634
   51CHL1   H7A 3712   1.939   5.923   3.642  2.6960  4.2474  2.5455
   51CHL1   H7B 3713   2.022   5.767   3.677  1.9522  1.5466  2.3046
   51CHL1    C8 3714   2.149   5.930   3.697 -0.2953 -0.3810 -0.1202
   51CHL1    H8 3715   2.151   6.034   3.658 -0.5567 -0.0220  0.7958
   51CHL1   C14 3716   2.132   5.926   3.855  0.1572  0.2703 -0.4150
   51CHL1   H14 3717   2.139   5.820   3.888 -0.0803  0.8342  1.6010
   51CHL1   C15 3718   2.010   5.997   3.918 -0.3912 -0.1852  0.1860
   51CHL1  H15A 3719   1.996   6.100   3.879  0.9844  0.9970  2.5848
   51CHL1  H15B 3720   1.914   5.944   3.900 -0.6446  0.8640 -1.7417
   51CHL1   C16 3721   2.045   6.016   4.071 -0.2825 -0.0693  0.6570
   51CHL1  H16A 3722   2.009   6.117   4.098  2.0114  1.5555 -1.8460
   51CHL1  H16B 3723   2.003   5.938   4.138 -0.4976 -1.8520 -1.4457
   51CHL1   C17 3724   2.201   5.992   4.076 -0.1905 -0.7412  0.4780
   51CHL1   H17 3725   2.202   5.889   4.117 -1.8929 -0.3683  1.5442
   51CHL1   C13 3726   2.249   5.994   3.931  0.4756  0.2355  0.3320
   51CHL1   C18 3727   2.264   6.146   3.891 -0.1745  0.7915 -0.8514
   51CHL1  H18A 3728   2.274   6.161   3.781  0.0212  0.5311 -0.8708
   51CHL1  H18B 3729   2.173   6.204   3.918  0.4775  0.9659  1.1304
   51CHL1  H18C 3730   2.350   6.195   3.942 -2.9379  4.3510  0.8176
   51CHL1   C12 3731   2.374   5.913   3.887 -0.3341  0.1520 -0.1496
   51CHL1  H12A 3732   2.471   5.941   3.933 -0.2917  0.0969 -0.2050
   51CHL1  H12B 3733   2.350   5.813   3.930 -1.8041  0.8032  0.5926
   51CHL1   C11 3734   2.401   5.910   3.737 -0.0559 -0.3572  0.0052
   51CHL1  H11A 3735   2.419   6.014   3.703 -1.4938  0.1898  0.8146
   51CHL1  H11B 3736   2.498   5.859   3.722 -0.7116 -0.9777 -2.6186
   51CHL1    C9 3737   2.279   5.854   3.656  0.4532  0.2765 -0.2457
   51CHL1    H9 3738   2.273   5.745   3.678  3.2081 -0.4384 -2.4867
   51CHL1   C10 3739   2.307   5.861   3.506  0.1265  0.8111  0.2769
   51CHL1   C19 3740   2.361   6.007   3.466 -0.2093 -0.3239  0.1102
   51CHL1  H19A 3741   2.361   6.030   3.357 -0.3249 -0.4957  0.0746
   51CHL1  H19B 3742   2.311   6.092   3.518  0.3224  0.5692 -0.7960
   51CHL1  H19C 3743   2.467   6.014   3.501  0.1064  1.2006 -1.0065
   51CHL1    C1 3744   2.411   5.757   3.465 -0.2727  0.2133  0.4961
   51CHL1   H1A 3745   2.506   5.785   3.514  0.0164 -1.0069  0.6546
   51CHL1   H1B 3746   2.379   5.660   3.508 -2.4245  0.2347 -0.8816
   51CHL1    C2 3747   2.434   5.740   3.310 -0.2786 -1.0621  0.4360
   51CHL1   H2A 3748   2.522   5.673   3.298  0.3088 -0.1485 -0.5571
   51CHL1   H2B 3749   2.462   5.837   3.263 -0.5757 -1.5497 -0.7914
   51CHL1   C20 3750   2.266   6.081   4.178 -0.0174  0.5108 -0.4455
   51CHL1   H20 3751   2.248   6.188   4.152 -2.4800  0.9250  2.4313
   51CHL1   C21 3752   2.417   6.044   4.190  0.3309  0.0688 -0.4086
   51CHL1  H21A 3753   2.435   5.935   4.205 -2.1844 -0.6583 -2.0378
   51CHL1  H21B 3754   2.458   6.103   4.275  0.1215 -1.3282  0.7054
   51CHL1  H21C 3755   2.460   6.075   4.093 -0.9332  1.5864 -0.5275
   51CHL1   C22 3756   2.187   6.062   4.311 -0.1629 -0.5427 -0.3183
   51CHL1  H22A 3757   2.089   6.113   4.302  1.1675  2.6010  1.4513
   51CHL1  H22B 3758   2.171   5.955   4.337 -2.0984 -0.0875  0.6009
   51CHL1   C23 3759   2.252   6.131   4.435 -0.0492 -0.6762 -0.2394
   51CHL1  H23A 3760   2.354   6.091   4.449  0.1752 -0.0573 -0.0948
   51CHL1  H23B 3761   2.265   6.237   4.407 -0.5935 -1.4239 -3.8234
   51CHL1   C24 3762   2.170   6.117   4.563 -0.0039 -0.5006 -0.0127
   51CHL1  H24A 3763   2.066   6.095   4.532 -0.0518 -1.1901  0.6025
   51CHL1  H24B 3764   2.209   6.029   4.619 -2.3849 -1.2053  0.6416
   51CHL1   C25 3765   2.186   6.244   4.653 -0.0698  0.2113  0.0665
   51CHL1   H25 3766   2.167   6.336   4.593 -0.5691 -0.2534 -0.4859
   51CHL1   C26 3767   2.080   6.245   4.759 -0.0653 -0.1843  0.1383
   51CHL1  H26A 3768   2.080   6.150   4.817  0.9652 -0.8441 -0.9116
   51CHL1  H26B 3769   2.098   6.337   4.818 -0.3834  1.0560 -1.6277
   51CHL1  H26C 3770   1.980   6.242   4.712  0.1760 -2.3342 -0.3655
   51CHL1   C27 3771   2.326   6.256   4.714 -0.3534 -0.3079 -0.5990
   51CHL1  H27A 3772   2.396   6.238   4.630  0.6465 -2.8089  0.6564
   51CHL1  H27B 3773   2.348   6.356   4.757  0.4711 -1.2492  1.2469
   51CHL1  H27C 3774   2.347   6.175   4.787 -0.9922  0.1788  0.1315
   52CHL1    C3 3775   6.387   1.353   3.039 -0.1921 -0.0373 -0.6074
   52CHL1    H3 3776   6.494   1.354   3.071  0.1247  0.6292 -1.6536
   52CHL1    O3 3777   6.377   1.324   2.903  0.3185 -0.2428  0.0569
   52CHL1   H3' 3778   6.451   1.366   2.859 -0.3276 -1.7672 -2.6984
   52CHL1    C4 3779   6.314   1.238   3.115  0.2615 -0.4541 -0.3026
   52CHL1   H4A 3780   6.209   1.222   3.080 -0.2192  1.5709  0.0644
   52CHL1   H4B 3781   6.367   1.146   3.083 -1.3496 -0.8915 -1.8648
   52CHL1    C5 3782   6.300   1.265   3.265 -0.2942 -0.1327  0.7378
   52CHL1    C6 3783   6.354   1.178   3.350 -0.4000  0.6532 -0.1169
   52CHL1    H6 3784   6.423   1.101   3.312 -1.6408  0.6828 -2.5813
   52CHL1    C7 3785   6.344   1.200   3.496  0.0166 -0.2338 -0.1439
   52CHL1   H7A 3786   6.339   1.110   3.561 -2.3672  1.6301  2.5287
   52CHL1   H7B 3787   6.444   1.242   3.522  0.3860 -1.3692  0.3512
   52CHL1    C8 3788   6.238   1.305   3.543 -0.2032  0.2020  0.1249
   52CHL1    H8 3789   6.138   1.259   3.527  1.0124 -2.3116 -0.6447
   52CHL1   C14 3790   6.253   1.347   3.688  0.1077  0.5809  0.1498
   52CHL1   H14 3791   6.353   1.393   3.697  0.3164 -0.0363  1.1232
   52CHL1   C15 3792   6.257   1.241   3.796  0.5542 -0.1490 -0.0761
   52CHL1  H15A 3793   6.190   1.157   3.767  2.2674 -1.4201 -0.5502
   52CHL1  H15B 3794   6.358   1.195   3.799  0.2209 -0.8540  1.3979
   52CHL1   C16 3795   6.225   1.309   3.924 -0.1029 -0.1315  0.6757
   52CHL1  H16A 3796   6.135   1.267   3.973  0.2533  1.7018  3.1343
   52CHL1  H16B 3797   6.302   1.306   4.005  1.0876 -1.7746 -0.4603
   52CHL1   C17 3798   6.196   1.454   3.891 -0.6092  0.3047  0.4580
   52CHL1   H17 3799   6.290   1.514   3.892 -1.8105  2.2976  0.6601
   52CHL1   C13 3800   6.151   1.449   3.742  0.0251 -0.1699 -0.5943
   52CHL1   C18 3801   5.999   1.409   3.727  0.3167  0.1295  1.1184
   52CHL1  H18A 3802   5.974   1.370   3.626 -3.2502 -0.7805  2.1779
   52CHL1  H18B 3803   5.983   1.333   3.807  1.3598  0.4392  1.6330
   52CHL1  H18C 3804   5.933   1.496   3.749 -0.5092  0.6262 -2.6875
   52CHL1   C12 3805   6.189   1.569   3.652 -0.6823  0.1044  0.3287
   52CHL1  H12A 3806   6.139   1.657   3.698 -1.4757 -0.8207  1.2946
   52CHL1  H12B 3807   6.297   1.587   3.669 -0.7048 -0.1071  0.6972
   52CHL1   C11 3808   6.166   1.545   3.508  0.1234 -0.0944  0.4390
   52CHL1  H11A 3809   6.061   1.516   3.487  1.1357 -2.8666 -1.3017
   52CHL1  H11B 3810   6.195   1.631   3.445  3.1626 -0.0151  1.7733
   52CHL1    C9 3811   6.247   1.427   3.454 -0.2097 -0.0745 -0.5271
   52CHL1    H9 3812   6.355   1.447   3.474 -0.2651 -0.8963  0.6347
   52CHL1   C10 3813   6.226   1.397   3.302 -0.1233 -0.1428 -0.0444
   52CHL1   C19 3814   6.072   1.382   3.262 -0.1110  0.1542 -0.6953
   52CHL1  H19A 3815   6.028   1.334   3.352  0.7638  0.7255  0.0547
   52CHL1  H19B 3816   6.027   1.483   3.258 -0.2547  0.1193 -0.0586
   52CHL1  H19C 3817   6.063   1.322   3.169  3.7416 -0.4225 -0.8702
   52CHL1    C1 3818   6.294   1.507   3.220  0.5061  0.3749  0.0800
   52CHL1   H1A 3819   6.260   1.612   3.235 -0.8441  0.0964 -0.8615
   52CHL1   H1B 3820   6.403   1.516   3.239  0.3755  3.1579 -0.0657
   52CHL1    C2 3821   6.309   1.484   3.067  0.3244 -0.3201  0.1796
   52CHL1   H2A 3822   6.361   1.575   3.028  2.9679 -1.5812  0.5286
   52CHL1   H2B 3823   6.213   1.478   3.012  0.1140  4.4237 -0.4068
   52CHL1   C20 3824   6.105   1.528   4.003 -0.1875  0.0616 -0.3119
   52CHL1   H20 3825   6.001   1.492   3.995 -0.1292  0.1215 -1.5592
   52CHL1   C21 3826   6.104   1.681   3.973 -0.1780  0.2667  0.2489
   52CHL1  H21A 3827   6.074   1.745   4.060 -2.9150  0.7489 -0.9287
   52CHL1  H21B 3828   6.026   1.706   3.898 -0.6700  1.4720  1.1255
   52CHL1  H21C 3829   6.200   1.724   3.939  2.2247 -2.2370  3.2674
   52CHL1   C22 3830   6.147   1.497   4.150 -0.5361 -0.1120 -0.1128
   52CHL1  H22A 3831   6.068   1.543   4.212 -1.0587 -0.4050 -0.5466
   52CHL1  H22B 3832   6.121   1.389   4.156  0.0557 -0.3239 -1.0959
   52CHL1   C23 3833   6.285   1.528   4.202 -0.7456 -0.5831  0.0406
   52CHL1  H23A 3834   6.361   1.480   4.137 -1.3735 -1.1171 -0.3020
   52CHL1  H23B 3835   6.310   1.636   4.191  1.7911 -1.2002 -1.2151
   52CHL1   C24 3836   6.308   1.493   4.345 -0.2048 -0.0843 -0.1925
   52CHL1  H24A 3837   6.236   1.558   4.398 -1.5615 -0.1689 -1.8418
   52CHL1  H24B 3838   6.266   1.393   4.367 -1.2014 -0.2501 -2.5145
   52CHL1   C25 3839   6.454   1.512   4.391  0.2830 -0.2637 -0.8574
   52CHL1   H25 3840   6.489   1.605   4.341 -1.3225  0.0486 -1.4806
   52CHL1   C26 3841   6.474   1.520   4.544  0.1833 -0.9124 -0.0023
   52CHL1  H26A 3842   6.446   1.614   4.595  0.1184 -1.5113  1.1131
   52CHL1  H26B 3843   6.407   1.442   4.586 -0.2077 -1.7900 -2.1041
   52CHL1  H26C 3844   6.580   1.507   4.573  1.0033  0.0445 -2.3503
   52CHL1   C27 3845   6.543   1.404   4.342 -0.5183  0.0604 -0.7462
   52CHL1  H27A 3846   6.646   1.444   4.357 -1.4154  1.7390  1.5871
   52CHL1  H27B 3847   6.553   1.310   4.402  2.6770  1.8048  1.8176
   52CHL1  H27C 3848   6.538   1.388   4.232 -1.5085  4.1185 -1.4450
   53CHL1    C3 3849   5.211   4.976   3.418 -0.2356 -0.5418 -0.3477
   53CHL1    H3 3850   5.199   4.868   3.442 -0.5493 -0.4574 -0.1167
   53CHL1    O3 3851   5.225   4.990   3.276 -0.3695 -0.4980 -0.3086
   53CHL1   H3' 3852   5.138   4.979   3.237 -0.0588  1.1151 -1.5291
   53CHL1    C4 3853   5.088   5.057   3.467  0.2759  0.3132 -0.5836
   53CHL1   H4A 3854   5.102   5.164   3.439  0.9850 -0.0034 -1.4947
   53CHL1   H4B 3855   5.007   5.020   3.401 -0.0587 -0.0191  0.0153
   53CHL1    C5 3856   5.071   5.050   3.617 -0.5151  0.1571  0.6725
   53CHL1    C6 3857   4.956   5.016   3.672 -0.5249 -0.3111  0.0554
   53CHL1    H6 3858   4.866   5.006   3.611 -1.3599  2.2622  0.7283
   53CHL1    C7 3859   4.921   5.031   3.816  0.4202 -0.3272 -0.3841
   53CHL1   H7A 3860   4.817   5.069   3.819  0.2061 -0.9636  0.7194
   53CHL1   H7B 3861   4.918   4.925   3.848 -0.4417 -0.3443 -0.5220
   53CHL1    C8 3862   5.025   5.119   3.893  0.4380 -0.0723  0.0223
   53CHL1    H8 3863   5.025   5.226   3.865  2.6695 -0.3362 -1.1964
   53CHL1   C14 3864   5.018   5.104   4.044 -0.4269 -0.8122  0.4137
   53CHL1   H14 3865   5.049   4.999   4.066  1.5494 -0.1264  1.1308
   53CHL1   C15 3866   4.888   5.124   4.120 -0.2478 -0.0089  0.3239
   53CHL1  H15A 3867   4.830   5.212   4.086 -1.6738 -0.4383  1.5356
   53CHL1  H15B 3868   4.826   5.033   4.101  0.0377 -0.0063 -0.6913
   53CHL1   C16 3869   4.923   5.149   4.267 -0.4330 -0.2741 -0.5915
   53CHL1  H16A 3870   4.888   5.251   4.292  1.2324  0.0190  0.7072
   53CHL1  H16B 3871   4.875   5.074   4.334  0.8046 -0.3713  0.2328
   53CHL1   C17 3872   5.079   5.136   4.272 -0.0991 -0.4150  0.7452
   53CHL1   H17 3873   5.099   5.026   4.277 -1.3528 -0.6959  0.0342
   53CHL1   C13 3874   5.121   5.176   4.129 -0.1227  0.1095  0.2594
   53CHL1   C18 3875   5.118   5.333   4.110  0.1438 -0.7341 -0.1699
   53CHL1  H18A 3876   5.186   5.360   4.026 -0.7232  2.7034  0.0868
   53CHL1  H18B 3877   5.015   5.372   4.100 -1.1447 -4.0449 -1.0713
   53CHL1  H18C 3878   5.174   5.378   4.195  0.4962  0.5982 -1.0687
   53CHL1   C12 3879   5.258   5.126   4.082  0.4307 -0.6830  0.8184
   53CHL1  H12A 3880   5.337   5.168   4.149  1.1107 -0.2909 -0.2057
   53CHL1  H12B 3881   5.257   5.017   4.102 -2.1377 -0.7524  0.6597
   53CHL1   C11 3882   5.284   5.136   3.933  0.3886 -0.0981 -0.1132
   53CHL1  H11A 3883   5.298   5.242   3.904  2.2413  0.0813  1.2851
   53CHL1  H11B 3884   5.388   5.102   3.914  0.3967  0.3786 -0.9894
   53CHL1    C9 3885   5.167   5.078   3.845 -0.0909 -0.9644 -0.3431
   53CHL1    H9 3886   5.179   4.968   3.850 -0.7255 -0.9813  1.8694
   53CHL1   C10 3887   5.197   5.104   3.694  0.0829 -0.9358  0.5789
   53CHL1   C19 3888   5.201   5.258   3.660 -0.2596  0.3935 -0.8554
   53CHL1  H19A 3889   5.209   5.283   3.552 -0.0271  3.7055 -0.1833
   53CHL1  H19B 3890   5.109   5.312   3.692  0.2852  0.0713  1.4490
   53CHL1  H19C 3891   5.279   5.306   3.723 -1.0278 -0.8817  1.1708
   53CHL1    C1 3892   5.323   5.029   3.645 -0.1932  0.4593  1.1696
   53CHL1   H1A 3893   5.409   5.082   3.691  0.3132 -0.6551  1.5305
   53CHL1   H1B 3894   5.313   4.922   3.672 -1.1732  0.4296  0.7483
   53CHL1    C2 3895   5.343   5.026   3.489  0.3895  1.2690 -0.4715
   53CHL1   H2A 3896   5.425   4.955   3.463 -0.7655  0.5040 -2.2024
   53CHL1   H2B 3897   5.374   5.127   3.455  0.8040  1.5723  0.7740
   53CHL1   C20 3898   5.146   5.206   4.399  0.8792 -0.2016  0.2166
   53CHL1   H20 3899   5.158   5.312   4.366 -0.8888 -0.6525 -2.1767
   53CHL1   C21 3900   5.275   5.134   4.429 -0.3456 -0.6392 -0.7040
   53CHL1  H21A 3901   5.339   5.196   4.495 -0.0649 -0.2911 -1.2946
   53CHL1  H21B 3902   5.341   5.112   4.343 -0.6552 -2.3056 -0.5358
   53CHL1  H21C 3903   5.253   5.043   4.487 -0.0400  0.9041  1.9895
   53CHL1   C22 3904   5.054   5.210   4.528 -0.1807 -0.5362  0.2866
   53CHL1  H22A 3905   4.955   5.257   4.508 -1.2518 -2.2202  1.4516
   53CHL1  H22B 3906   5.028   5.106   4.556 -2.0476 -0.0077  0.6895
   53CHL1   C23 3907   5.123   5.292   4.641  0.6563  0.6436 -0.2863
   53CHL1  H23A 3908   5.224   5.252   4.665  0.0686 -1.8495 -1.5886
   53CHL1  H23B 3909   5.127   5.399   4.613  3.3820  0.7603  0.2869
   53CHL1   C24 3910   5.041   5.281   4.770 -0.2409  0.2017  0.6379
   53CHL1  H24A 3911   4.938   5.300   4.732 -0.5577 -3.6329 -0.8679
   53CHL1  H24B 3912   5.042   5.187   4.828  1.6241  1.1478  2.2411
   53CHL1   C25 3913   5.073   5.382   4.873 -1.0231 -0.1121 -0.4270
   53CHL1   H25 3914   5.072   5.481   4.822 -0.8109  0.5939  0.9001
   53CHL1   C26 3915   4.963   5.396   4.978  0.1962 -0.0847  0.0906
   53CHL1  H26A 3916   4.931   5.293   5.001  1.0417 -0.5403 -0.7012
   53CHL1  H26B 3917   4.997   5.455   5.066 -0.7408  0.1442  0.3154
   53CHL1  H26C 3918   4.878   5.440   4.921  0.8093  1.8430  0.5719
   53CHL1   C27 3919   5.218   5.372   4.930  0.4227 -1.2366 -0.2586
   53CHL1  H27A 3920   5.235   5.453   5.005 -1.4902  0.8746 -1.9644
   53CHL1  H27B 3921   5.221   5.274   4.982  0.2769 -0.8600  0.4907
   53CHL1  H27C 3922   5.291   5.376   4.846 -2.2591  0.2272 -2.6932
   54CHL1    C3 3923   2.603   6.389   3.364  0.0940  0.7418 -0.6693
   54CHL1    H3 3924   2.571   6.307   3.432 -0.4713  0.7221 -0.9601
   54CHL1    O3 3925   2.659   6.327   3.253 -0.3357 -0.0129  0.1730
   54CHL1   H3' 3926   2.754   6.337   3.266 -0.0780 -0.5140 -1.1724
   54CHL1    C4 3927   2.482   6.475   3.328 -0.0884 -0.1858 -0.4455
   54CHL1   H4A 3928   2.526   6.551   3.260  3.0661 -0.1687  1.3998
   54CHL1   H4B 3929   2.405   6.412   3.280  1.3481 -4.4257  2.1718
   54CHL1    C5 3930   2.432   6.555   3.452 -0.0506  0.2216  0.0070
   54CHL1    C6 3931   2.297   6.550   3.489 -0.7975 -0.1700 -0.3015
   54CHL1    H6 3932   2.233   6.484   3.428  0.0161 -1.9660  0.7182
   54CHL1    C7 3933   2.248   6.630   3.606 -0.1834 -0.1528 -0.3660
   54CHL1   H7A 3934   2.154   6.676   3.570 -0.5563 -0.0796  0.6805
   54CHL1   H7B 3935   2.227   6.560   3.689  0.0877  2.6256  2.2393
   54CHL1    C8 3936   2.343   6.740   3.663  0.0904 -0.0466 -0.3429
   54CHL1    H8 3937   2.343   6.823   3.589  1.0375  0.0289 -0.2644
   54CHL1   C14 3938   2.292   6.785   3.801  0.2616 -0.7032 -0.9440
   54CHL1   H14 3939   2.298   6.694   3.864  0.2885 -0.8523 -1.1599
   54CHL1   C15 3940   2.144   6.833   3.825 -0.6468  0.0448  0.3203
   54CHL1  H15A 3941   2.107   6.907   3.750 -0.8452 -0.8572 -0.4892
   54CHL1  H15B 3942   2.073   6.749   3.816 -0.9565  0.4438 -1.1361
   54CHL1   C16 3943   2.141   6.890   3.961  0.0720 -0.9814 -0.0171
   54CHL1  H16A 3944   2.109   6.996   3.951 -2.4233 -1.7060 -0.4647
   54CHL1  H16B 3945   2.067   6.843   4.029 -2.3158  1.2711 -0.8987
   54CHL1   C17 3946   2.295   6.879   4.014  0.1546 -0.3619 -0.0886
   54CHL1   H17 3947   2.294   6.777   4.057 -0.0004 -0.6118 -0.6852
   54CHL1   C13 3948   2.383   6.882   3.883  0.0812  0.0321  0.8645
   54CHL1   C18 3949   2.384   7.019   3.813 -0.4543  0.1395 -0.1386
   54CHL1  H18A 3950   2.472   7.075   3.852 -0.2340  0.1932 -0.7136
   54CHL1  H18B 3951   2.397   7.002   3.704  1.0434 -0.4285  0.1052
   54CHL1  H18C 3952   2.295   7.085   3.827 -0.3102  0.8795 -2.3588
   54CHL1   C12 3953   2.523   6.817   3.889  0.2366 -0.3255  0.5672
   54CHL1  H12A 3954   2.580   6.893   3.946 -1.5079 -0.1023  2.1220
   54CHL1  H12B 3955   2.517   6.727   3.954  2.1604  1.4667  3.4880
   54CHL1   C11 3956   2.577   6.783   3.750  0.2160  0.1361  0.7469
   54CHL1  H11A 3957   2.594   6.871   3.684 -1.0391 -0.8216 -0.9297
   54CHL1  H11B 3958   2.680   6.744   3.764  0.5293  1.4116  2.2954
   54CHL1    C9 3959   2.482   6.678   3.673  0.0477 -0.0994 -0.0279
   54CHL1    H9 3960   2.479   6.586   3.735  1.4685 -0.2671 -0.1663
   54CHL1   C10 3961   2.543   6.625   3.539 -0.0224  0.5650 -0.0204
   54CHL1   C19 3962   2.593   6.752   3.452  0.4002 -0.4238  0.2641
   54CHL1  H19A 3963   2.670   6.812   3.503 -0.0046 -1.1779  1.8084
   54CHL1  H19B 3964   2.637   6.726   3.353  0.2581  0.0322  0.0811
   54CHL1  H19C 3965   2.507   6.817   3.424  0.9438  0.9938  1.7426
   54CHL1    C1 3966   2.660   6.527   3.565 -0.2943 -0.4334  0.2003
   54CHL1   H1A 3967   2.733   6.586   3.625 -2.2771  3.1902 -0.6548
   54CHL1   H1B 3968   2.637   6.449   3.641 -0.4669  0.2164  0.8211
   54CHL1    C2 3969   2.711   6.469   3.435 -0.6943  0.4707  0.1167
   54CHL1   H2A 3970   2.801   6.408   3.458  0.3674  0.9594 -2.4001
   54CHL1   H2B 3971   2.744   6.546   3.362  0.3153  1.4091  1.5012
   54CHL1   C20 3972   2.332   6.978   4.124 -0.2081  0.0560 -0.2920
   54CHL1   H20 3973   2.353   7.075   4.074  3.3590 -0.6204 -0.3847
   54CHL1   C21 3974   2.464   6.940   4.185  0.3825 -0.4620 -0.3545
   54CHL1  H21A 3975   2.482   6.830   4.194 -0.5171 -0.4980  1.6246
   54CHL1  H21B 3976   2.455   6.976   4.290  0.5198  1.3513 -0.9453
   54CHL1  H21C 3977   2.551   6.981   4.131  1.6762 -1.1115  1.1445
   54CHL1   C22 3978   2.219   7.004   4.235 -0.6461  0.3894  0.3548
   54CHL1  H22A 3979   2.121   7.008   4.183  0.6408 -1.2828 -2.4433
   54CHL1  H22B 3980   2.221   6.916   4.303 -0.5800  0.4302  0.4054
   54CHL1   C23 3981   2.224   7.137   4.303 -0.4704 -0.4842 -0.4386
   54CHL1  H23A 3982   2.321   7.143   4.358  0.5877  1.6510 -2.3834
   54CHL1  H23B 3983   2.232   7.210   4.220  1.8741  1.1906  1.1302
   54CHL1   C24 3984   2.099   7.168   4.388  0.2664 -0.3656  0.0360
   54CHL1  H24A 3985   2.108   7.269   4.433  1.9029  0.0944 -1.2227
   54CHL1  H24B 3986   2.017   7.174   4.314 -0.2578  1.0173  0.6934
   54CHL1   C25 3987   2.062   7.054   4.485 -0.8448  0.3725 -0.2234
   54CHL1   H25 3988   2.039   6.958   4.433  0.8262 -0.0955 -0.1592
   54CHL1   C26 3989   2.179   7.016   4.586  0.5129  0.5232  0.7457
   54CHL1  H26A 3990   2.133   6.941   4.654 -1.4161  1.0497  0.0535
   54CHL1  H26B 3991   2.272   6.973   4.542 -0.2869 -1.6908  1.1042
   54CHL1  H26C 3992   2.200   7.111   4.641  0.9345 -0.5120  2.4456
   54CHL1   C27 3993   1.944   7.098   4.568  0.6125 -0.0829 -0.7439
   54CHL1  H27A 3994   1.977   7.179   4.636 -1.4778  0.3038 -0.1308
   54CHL1  H27B 3995   1.865   7.129   4.496  1.2656  0.3006 -1.3100
   54CHL1  H27C 3996   1.910   7.011   4.629 -1.4434  1.5033  0.5195
   55CHL1    C3 3997   4.643   0.963   3.253 -0.0304  0.5891  0.0846
   55CHL1    H3 3998   4.659   1.073   3.256 -0.9995  0.7570 -0.4262
   55CHL1    O3 3999   4.617   0.944   3.115  1.0147 -0.1285 -0.2920
   55CHL1   H3' 4000   4.657   0.857   3.104  1.7857 -0.1171  1.9322
   55CHL1    C4 4001   4.765   0.884   3.286  0.2975 -0.1271 -0.1446
   55CHL1   H4A 4002   4.741   0.777   3.303 -0.5329  0.3744  2.2607
   55CHL1   H4B 4003   4.841   0.907   3.208  1.2256  2.7806  1.4512
   55CHL1    C5 4004   4.802   0.920   3.428  0.2516  0.1160 -0.0249
   55CHL1    C6 4005   4.922   0.964   3.457 -0.1439  0.1687  0.1916
   55CHL1    H6 4006   4.998   0.954   3.378  1.6274 -1.1133  1.9432
   55CHL1    C7 4007   4.967   1.006   3.591  0.2999 -0.4619 -0.0342
   55CHL1   H7A 4008   5.063   0.960   3.623  1.0600  0.7976 -0.4327
   55CHL1   H7B 4009   4.993   1.114   3.598 -0.8442 -0.1566 -0.1377
   55CHL1    C8 4010   4.866   0.960   3.709 -0.3978 -0.1074  0.1233
   55CHL1    H8 4011   4.887   0.853   3.733 -0.8069 -0.1723  0.2075
   55CHL1   C14 4012   4.893   1.047   3.826 -0.0984 -0.2525 -0.3530
   55CHL1   H14 4013   4.870   1.151   3.794  2.5490  0.4559 -0.1883
   55CHL1   C15 4014   5.036   1.049   3.875 -0.8216  0.2340 -0.1190
   55CHL1  H15A 4015   5.067   0.947   3.904 -2.0665 -0.0597  0.2574
   55CHL1  H15B 4016   5.110   1.100   3.810 -1.9749  1.1468 -0.7702
   55CHL1   C16 4017   5.023   1.129   4.003 -0.0314  0.0699  0.3496
   55CHL1  H16A 4018   5.092   1.093   4.082  0.3178  2.6110  1.2989
   55CHL1  H16B 4019   5.058   1.232   3.980 -1.0312  0.2607 -0.3678
   55CHL1   C17 4020   4.872   1.118   4.046  0.2600  0.4980  0.3887
   55CHL1   H17 4021   4.824   1.215   4.019 -0.4366 -0.2596 -1.2454
   55CHL1   C13 4022   4.815   1.009   3.950  0.2320 -0.2920 -0.5869
   55CHL1   C18 4023   4.858   0.872   4.011 -0.6443  0.4166  0.3547
   55CHL1  H18A 4024   4.851   0.783   3.945  0.8746 -0.2423  1.0345
   55CHL1  H18B 4025   4.964   0.869   4.046 -0.1425 -0.6109 -1.1592
   55CHL1  H18C 4026   4.792   0.842   4.095  0.2295 -2.5780  0.0652
   55CHL1   C12 4027   4.662   1.011   3.924 -0.6600 -0.3818 -0.0611
   55CHL1  H12A 4028   4.595   0.976   4.006 -0.1603  1.6682  1.2917
   55CHL1  H12B 4029   4.632   1.117   3.911 -1.7831 -0.3234  2.3261
   55CHL1   C11 4030   4.628   0.935   3.794 -0.2562  0.5640 -0.5736
   55CHL1  H11A 4031   4.643   0.828   3.819 -0.9775  0.3336 -1.1210
   55CHL1  H11B 4032   4.519   0.935   3.772 -0.4554 -0.3442  0.3040
   55CHL1    C9 4033   4.721   0.967   3.670  0.8842 -0.4209  0.4534
   55CHL1    H9 4034   4.713   1.076   3.651 -0.1842 -0.6257 -0.3038
   55CHL1   C10 4035   4.690   0.896   3.537 -1.2835  0.0174  1.0590
   55CHL1   C19 4036   4.682   0.746   3.556 -0.3435 -0.1581  0.3811
   55CHL1  H19A 4037   4.625   0.710   3.644 -3.1006  1.3823 -0.6392
   55CHL1  H19B 4038   4.645   0.698   3.463 -0.4234 -1.1397  0.9065
   55CHL1  H19C 4039   4.785   0.707   3.572  0.8946  2.2181 -1.2468
   55CHL1    C1 4040   4.544   0.935   3.485 -0.3844  0.7063  0.1439
   55CHL1   H1A 4041   4.468   0.880   3.544 -1.0579  1.1070 -0.3323
   55CHL1   H1B 4042   4.540   1.042   3.514 -0.0450  0.6442  0.4299
   55CHL1    C2 4043   4.522   0.920   3.329 -0.8870  0.3298 -0.2497
   55CHL1   H2A 4044   4.421   0.953   3.297 -0.5678  0.3123 -1.3048
   55CHL1   H2B 4045   4.513   0.809   3.324 -0.4637  0.1989  1.4004
   55CHL1   C20 4046   4.854   1.113   4.197  0.2616 -0.5400  0.2214
   55CHL1   H20 4047   4.896   1.014   4.224  1.8329 -0.1108 -0.5570
   55CHL1   C21 4048   4.705   1.127   4.233 -0.0389 -0.4838 -0.6039
   55CHL1  H21A 4049   4.707   1.143   4.343 -1.0422 -0.2748 -0.6087
   55CHL1  H21B 4050   4.652   1.034   4.204  0.5499 -0.7794 -0.7368
   55CHL1  H21C 4051   4.649   1.209   4.183 -0.3002  0.0200  0.4712
   55CHL1   C22 4052   4.939   1.220   4.270  0.0290  0.4279 -0.2351
   55CHL1  H22A 4053   5.042   1.212   4.231 -0.1318 -1.9738 -0.3313
   55CHL1  H22B 4054   4.911   1.325   4.246 -0.6709 -0.0898 -1.7762
   55CHL1   C23 4055   4.933   1.200   4.419  0.1791 -0.6967  0.6076
   55CHL1  H23A 4056   4.838   1.246   4.451 -1.0807 -2.1344 -0.9126
   55CHL1  H23B 4057   4.936   1.089   4.432  2.9143 -1.2826 -3.1834
   55CHL1   C24 4058   5.056   1.255   4.496 -0.0532 -0.1237 -0.7726
   55CHL1  H24A 4059   5.142   1.187   4.478  0.7071  0.9060 -1.1361
   55CHL1  H24B 4060   5.102   1.343   4.445  3.6323 -0.1610  2.0596
   55CHL1   C25 4061   5.038   1.292   4.645  0.6714 -0.2533  0.2925
   55CHL1   H25 4062   4.953   1.359   4.670  0.9314  0.1231  0.1781
   55CHL1   C26 4063   5.032   1.163   4.718  0.1146  0.2745  0.6932
   55CHL1  H26A 4064   5.027   1.184   4.827 -0.3822 -0.3918  0.8075
   55CHL1  H26B 4065   4.951   1.091   4.690 -0.5430  1.0531  0.5544
   55CHL1  H26C 4066   5.122   1.102   4.696  1.0902  2.0090 -0.3486
   55CHL1   C27 4067   5.174   1.362   4.688 -0.2809 -0.6227  0.4458
   55CHL1  H27A 4068   5.171   1.465   4.646 -0.5564 -1.7058 -2.4326
   55CHL1  H27B 4069   5.184   1.365   4.799  0.2561  2.3578  0.4153
   55CHL1  H27C 4070   5.266   1.319   4.643 -0.7600 -1.2660  0.0671
   56CHL1    C3 4071   6.326   0.488   3.350 -0.5065 -0.5276  0.0575
   56CHL1    H3 4072   6.352   0.592   3.380  1.8456 -1.3834  1.2358
   56CHL1    O3 4073   6.318   0.473   3.208 -0.2593 -0.2807 -0.4401
   56CHL1   H3' 4074   6.229   0.499   3.183  0.4129  2.2441 -0.5189
   56CHL1    C4 4075   6.427   0.390   3.395 -0.1081  0.1614  0.0028
   56CHL1   H4A 4076   6.381   0.294   3.363 -0.8950  1.3079 -2.5810
   56CHL1   H4B 4077   6.517   0.417   3.335 -0.6250 -0.5170 -1.1095
   56CHL1    C5 4078   6.450   0.395   3.549 -0.1971  0.2356 -0.3124
   56CHL1    C6 4079   6.561   0.434   3.608 -1.1044  0.2913 -0.3118
   56CHL1    H6 4080   6.657   0.450   3.556 -0.7881 -0.0581  0.1624
   56CHL1    C7 4081   6.587   0.458   3.756  0.6687  0.4826  0.2958
   56CHL1   H7A 4082   6.679   0.401   3.782  1.6986  1.0157 -1.9500
   56CHL1   H7B 4083   6.607   0.565   3.779 -1.7395  1.3172 -1.0694
   56CHL1    C8 4084   6.465   0.406   3.842 -0.3534  0.0997 -0.2121
   56CHL1    H8 4085   6.481   0.299   3.868 -2.9300  0.2092  2.2365
   56CHL1   C14 4086   6.462   0.491   3.968  0.3548 -0.6354 -0.1846
   56CHL1   H14 4087   6.420   0.590   3.937  1.0905 -0.4091 -0.4843
   56CHL1   C15 4088   6.596   0.514   4.047  0.3920 -0.6657 -1.1057
   56CHL1  H15A 4089   6.653   0.418   4.038  1.1427 -0.2041 -1.3621
   56CHL1  H15B 4090   6.657   0.589   3.993  0.6800  0.5246  0.8023
   56CHL1   C16 4091   6.547   0.543   4.190 -0.3114  0.1797 -0.0614
   56CHL1  H16A 4092   6.592   0.475   4.266  1.9183  3.4453  1.7610
   56CHL1  H16B 4093   6.585   0.644   4.214 -1.7730  1.1524 -1.5984
   56CHL1   C17 4094   6.390   0.541   4.193  0.5180  0.4337 -0.0892
   56CHL1   H17 4095   6.354   0.636   4.147 -0.0114 -0.0640 -0.7182
   56CHL1   C13 4096   6.360   0.447   4.072 -0.4499 -0.4021 -0.7706
   56CHL1   C18 4097   6.388   0.300   4.120  0.0801  0.7232  0.7973
   56CHL1  H18A 4098   6.381   0.222   4.041 -3.1229 -2.1632  3.5876
   56CHL1  H18B 4099   6.489   0.297   4.166  1.9934 -1.0459 -3.0145
   56CHL1  H18C 4100   6.311   0.269   4.194  1.4650  2.2711  3.0174
   56CHL1   C12 4101   6.226   0.465   4.010  0.5817  0.2952 -0.3167
   56CHL1  H12A 4102   6.153   0.435   4.089  1.4129 -1.2478 -0.0998
   56CHL1  H12B 4103   6.215   0.568   3.972 -2.0180 -0.4680 -1.8398
   56CHL1   C11 4104   6.219   0.380   3.883 -0.0809  0.0622  0.1058
   56CHL1  H11A 4105   6.234   0.272   3.905 -2.2233 -0.1482  0.7942
   56CHL1  H11B 4106   6.116   0.396   3.844 -1.6865 -0.0542  3.8268
   56CHL1    C9 4107   6.331   0.422   3.779 -0.9701 -0.0338 -0.3315
   56CHL1    H9 4108   6.317   0.531   3.763 -0.7144  0.4028  2.0194
   56CHL1   C10 4109   6.325   0.363   3.629  0.3491 -0.3024  0.2943
   56CHL1   C19 4110   6.307   0.211   3.630  0.1426 -0.0744  0.3625
   56CHL1  H19A 4111   6.212   0.189   3.683 -0.1068 -1.1087 -0.4808
   56CHL1  H19B 4112   6.284   0.173   3.529 -1.0041 -2.9994  1.6370
   56CHL1  H19C 4113   6.402   0.168   3.667  1.9730  0.9183 -2.8309
   56CHL1    C1 4114   6.205   0.434   3.567 -0.3832 -0.0431 -0.9784
   56CHL1   H1A 4115   6.112   0.388   3.608  1.6397 -1.8090  1.9663
   56CHL1   H1B 4116   6.204   0.541   3.599  0.5136  0.3155 -2.0922
   56CHL1    C2 4117   6.193   0.442   3.415 -0.4296 -0.0664 -0.0457
   56CHL1   H2A 4118   6.116   0.517   3.389  0.4403  1.0980  0.6436
   56CHL1   H2B 4119   6.162   0.342   3.378  0.8513 -0.9166  1.0944
   56CHL1   C20 4120   6.318   0.506   4.331 -0.5396 -0.6369 -0.5197
   56CHL1   H20 4121   6.276   0.403   4.326 -0.8916 -0.6791  1.9251
   56CHL1   C21 4122   6.187   0.593   4.334  0.0576  0.4835 -0.1104
   56CHL1  H21A 4123   6.157   0.608   4.229  1.0304 -2.2512 -0.8834
   56CHL1  H21B 4124   6.207   0.694   4.375  1.5261 -0.0653  0.6495
   56CHL1  H21C 4125   6.103   0.549   4.392 -1.5580  0.9143 -2.0392
   56CHL1   C22 4126   6.403   0.526   4.459 -0.2934  0.2662  0.4172
   56CHL1  H22A 4127   6.482   0.449   4.444 -0.3533  0.1167  0.8466
   56CHL1  H22B 4128   6.444   0.628   4.448 -0.1519  0.1890  0.2185
   56CHL1   C23 4129   6.323   0.524   4.594 -0.1518 -0.9050  0.8251
   56CHL1  H23A 4130   6.273   0.622   4.610  0.5518 -0.3128 -0.4743
   56CHL1  H23B 4131   6.259   0.434   4.590  1.0688 -1.7581 -0.4546
   56CHL1   C24 4132   6.405   0.510   4.722 -0.0529  0.1776  0.2948
   56CHL1  H24A 4133   6.432   0.403   4.739  0.5137  0.6190  2.4075
   56CHL1  H24B 4134   6.497   0.565   4.691  0.0041 -1.3400 -2.6761
   56CHL1   C25 4135   6.357   0.583   4.844  0.0187 -0.3143 -0.4195
   56CHL1   H25 4136   6.346   0.689   4.813  0.7840 -0.6584 -1.9831
   56CHL1   C26 4137   6.226   0.528   4.903 -0.1393  0.0929 -0.4310
   56CHL1  H26A 4138   6.147   0.516   4.826  0.9527 -1.5184 -1.3455
   56CHL1  H26B 4139   6.239   0.429   4.951  0.5560  1.4038  2.2776
   56CHL1  H26C 4140   6.195   0.593   4.988  1.7669  0.2872  0.1617
   56CHL1   C27 4141   6.444   0.589   4.973 -0.1984  0.2678 -0.0185
   56CHL1  H27A 4142   6.542   0.639   4.955 -0.3946 -0.2382 -3.0072
   56CHL1  H27B 4143   6.392   0.657   5.043 -0.9350  2.0319 -2.1706
   56CHL1  H27C 4144   6.460   0.493   5.026  0.1508 -0.7930 -1.9482
   57SAPC     N 4145   1.411   6.734   7.671  0.4989 -0.6681  0.0668
   57SAPC   C12 4146   1.476   6.798   7.555  0.5207  0.3287 -0.2371
   57SAPC  H12A 4147   1.440   6.744   7.469  0.4501 -2.0827  1.1901
   57SAPC  H12B 4148   1.581   6.771   7.552  0.3930 -0.0738 -2.1830
   57SAPC   C13 4149   1.262   6.716   7.632  0.5415  0.4925  0.1026
   57SAPC  H13A 4150   1.244   6.667   7.538 -0.0373 -2.3898  1.6280
   57SAPC  H13B 4151   1.206   6.669   7.711  1.4934 -0.3666  0.2848
   57SAPC  H13C 4152   1.222   6.816   7.622 -0.3546  0.0690 -0.8040
   57SAPC   C14 4153   1.461   6.592   7.692 -0.5531  0.2611  0.9149
   57SAPC  H14A 4154   1.410   6.548   7.776  1.4074 -1.7187  1.1462
   57SAPC  H14B 4155   1.435   6.525   7.612 -0.2546  0.9023  0.2640
   57SAPC  H14C 4156   1.569   6.584   7.700 -0.0698  2.6948 -1.6065
   57SAPC   C15 4157   1.419   6.811   7.800  0.3052 -0.2780  0.1486
   57SAPC  H15A 4158   1.524   6.808   7.823 -0.0897  0.8220  2.3705
   57SAPC  H15B 4159   1.382   6.912   7.808 -2.6540 -1.2147 -0.4591
   57SAPC  H15C 4160   1.382   6.751   7.882 -0.1355  0.5570  0.5729
   57SAPC   C11 4161   1.452   6.945   7.540 -0.0426  0.0485 -0.8151
   57SAPC  H11A 4162   1.541   6.985   7.486  0.2446  2.1481  1.0579
   57SAPC  H11B 4163   1.466   7.007   7.631 -0.7799 -0.7519 -0.1365
   57SAPC     P 4164   1.299   7.000   7.326 -0.2171  0.3667 -0.1416
   57SAPC   O13 4165   1.284   6.867   7.261  0.3666  0.3979  0.1513
   57SAPC   O14 4166   1.184   7.088   7.319 -0.2722  0.3801  0.7744
   57SAPC   O12 4167   1.333   6.976   7.475 -0.0799  0.9688 -0.1845
   57SAPC   O11 4168   1.428   7.065   7.266 -0.4846 -0.0931 -0.0203
   57SAPC    C1 4169   1.452   7.196   7.212 -0.0647  0.9446  0.1484
   57SAPC    HA 4170   1.426   7.280   7.281 -1.5716 -0.0093  0.7972
   57SAPC    HB 4171   1.559   7.211   7.186  0.2138 -1.8097 -0.5306
   57SAPC    C2 4172   1.366   7.201   7.076 -0.5449  0.2785 -0.2640
   57SAPC    HS 4173   1.260   7.176   7.101 -0.5149 -0.0486 -0.4508
   57SAPC   O21 4174   1.422   7.097   6.992 -0.3191 -1.1629  0.0359
   57SAPC   C21 4175   1.340   7.033   6.918 -0.0377  0.6276 -0.3077
   57SAPC   O22 4176   1.218   7.035   6.922  0.1575  0.2501 -0.2232
   57SAPC   C22 4177   1.418   6.934   6.832  0.5267  0.0759 -0.3634
   57SAPC   H2R 4178   1.468   6.863   6.901 -1.7651 -1.7232 -0.4392
   57SAPC   H2S 4179   1.338   6.891   6.768  1.6869  1.6018 -3.0000
   57SAPC    C3 4180   1.372   7.340   7.005 -0.5452  0.4472  0.2545
   57SAPC    HX 4181   1.474   7.352   6.961 -1.2107  0.2560 -1.4060
   57SAPC    HY 4182   1.351   7.428   7.070 -2.6738  1.5188 -1.7391
   57SAPC   O31 4183   1.286   7.334   6.890  0.5576  0.6300 -0.0397
   57SAPC   C31 4184   1.161   7.351   6.907  0.3627  0.0464 -0.2356
   57SAPC   O32 4185   1.099   7.374   7.011 -0.0163  0.0538 -0.6654
   57SAPC   C32 4186   1.090   7.336   6.771  0.4846  0.2705 -0.2728
   57SAPC   H2X 4187   0.996   7.395   6.781  0.4085 -0.1776  2.2630
   57SAPC   H2Y 4188   1.061   7.229   6.769  2.4695 -0.3896  2.0399
   57SAPC   C23 4189   1.520   6.993   6.739 -0.3231 -0.6784  0.0819
   57SAPC   H3R 4190   1.574   6.908   6.693 -1.1694 -0.9538 -0.4077
   57SAPC   H3S 4191   1.600   7.049   6.792 -0.8337  1.0383 -0.8786
   57SAPC   C24 4192   1.467   7.086   6.623  0.4460  0.2266 -0.5210
   57SAPC   H4R 4193   1.431   7.182   6.666 -2.3910  0.2446 -2.6178
   57SAPC   H4S 4194   1.387   7.034   6.565  0.1435 -0.3575  0.3906
   57SAPC   C25 4195   1.591   7.127   6.543  0.1210  0.3346  0.1734
   57SAPC   H5R 4196   1.682   7.145   6.602  1.5396 -2.0768 -1.0881
   57SAPC   C26 4197   1.613   7.147   6.414 -0.1830  0.7739 -0.5171
   57SAPC   H6R 4198   1.709   7.186   6.379  0.2722 -0.8135 -1.1007
   57SAPC   C27 4199   1.512   7.119   6.310 -0.2449  0.2232 -0.4943
   57SAPC   H7R 4200   1.509   7.203   6.237 -3.5544  0.2203 -0.4957
   57SAPC   H7S 4201   1.413   7.124   6.360  0.3734 -2.2186  1.1847
   57SAPC   C28 4202   1.536   6.979   6.267 -0.0196  0.0286  0.1220
   57SAPC   H8R 4203   1.519   6.898   6.339 -0.2959  0.0370  0.0703
   57SAPC   C29 4204   1.569   6.939   6.140  0.7376 -0.4606  0.2606
   57SAPC   H9R 4205   1.549   6.832   6.128  2.2971 -0.7577  0.1560
   57SAPC  C210 4206   1.609   7.021   6.015 -0.2663  0.6508  0.3254
   57SAPC  H10R 4207   1.697   6.974   5.966 -2.2583 -1.7056 -1.2734
   57SAPC  H10S 4208   1.639   7.125   6.040 -3.4947  1.3682  1.6892
   57SAPC  C211 4209   1.488   7.023   5.920 -0.9529 -0.1427 -0.1695
   57SAPC  H11R 4210   1.388   7.032   5.965 -0.2756  2.5798  1.0373
   57SAPC  C212 4211   1.493   7.032   5.786  0.2727 -0.1393 -0.4272
   57SAPC  H12R 4212   1.402   7.006   5.730 -0.8393 -1.0105  1.6855
   57SAPC  C213 4213   1.616   7.035   5.702 -0.5533  0.3198 -0.2088
   57SAPC  H13R 4214   1.700   7.054   5.772 -1.8136 -0.5811  1.6577
   57SAPC  H13S 4215   1.616   7.120   5.631 -1.6550  1.4600  1.0906
   57SAPC  C214 4216   1.621   6.911   5.617  0.1021 -0.2236 -0.4444
   57SAPC  H14R 4217   1.584   6.819   5.664 -1.0170  1.1112  1.4234
   57SAPC  C215 4218   1.665   6.894   5.494  0.3430  0.6907 -0.7132
   57SAPC  H15R 4219   1.645   6.795   5.452  0.1087 -0.0915  1.1547
   57SAPC  C216 4220   1.718   7.000   5.400  0.2964 -0.4402  0.4429
   57SAPC  H16R 4221   1.698   7.102   5.440  2.1826  0.3868 -0.5961
   57SAPC  H16S 4222   1.659   6.980   5.308 -1.4070  0.0118  1.4041
   57SAPC  C217 4223   1.864   6.979   5.369 -0.4574 -0.1491  0.2031
   57SAPC  H17R 4224   1.886   6.871   5.353 -1.7438 -0.4791  0.5339
   57SAPC  H17S 4225   1.911   7.009   5.465  1.1459 -0.2144 -0.5416
   57SAPC  C218 4226   1.928   7.069   5.265  0.1719 -0.4254  0.1306
   57SAPC  H18R 4227   1.862   7.158   5.254 -0.6963 -0.8141  1.8115
   57SAPC  H18S 4228   1.940   7.019   5.167  0.8682  3.3524 -1.8779
   57SAPC  C219 4229   2.075   7.103   5.287  0.1016 -0.1521  0.2949
   57SAPC  H19R 4230   2.128   7.010   5.319  0.1484 -0.2611 -0.1029
   57SAPC  H19S 4231   2.070   7.173   5.374 -2.3737  1.0191 -0.6952
   57SAPC  C220 4232   2.147   7.171   5.169  0.1423  0.0858  0.3543
   57SAPC  H20R 4233   2.239   7.225   5.200  0.2635 -1.0664  2.1252
   57SAPC  H20S 4234   2.070   7.225   5.110 -2.4211 -2.0247  1.5384
   57SAPC  H20T 4235   2.182   7.091   5.100  3.8074 -1.3177  3.4514
   57SAPC   C33 4236   1.168   7.382   6.650 -0.2789  0.5104 -0.2159
   57SAPC   H3X 4237   1.210   7.300   6.588 -1.3841  1.3230 -2.1491
   57SAPC   H3Y 4238   1.256   7.442   6.680  0.3958 -0.3869 -0.3622
   57SAPC   C34 4239   1.085   7.468   6.556  0.0115  0.3565  0.8593
   57SAPC   H4X 4240   1.036   7.554   6.607 -0.7558 -0.5322  1.6503
   57SAPC   H4Y 4241   1.003   7.403   6.518 -0.0040  0.7581  0.1881
   57SAPC   C35 4242   1.174   7.517   6.440 -0.0680 -0.7313  0.3127
   57SAPC   H5X 4243   1.272   7.465   6.445 -0.2293 -1.0400  0.3215
   57SAPC   H5Y 4244   1.192   7.625   6.456  2.6154 -1.0242 -0.2514
   57SAPC   C36 4245   1.096   7.496   6.307  0.6706  0.6113  0.3254
   57SAPC   H6X 4246   1.017   7.572   6.294  1.1371  1.3577  1.7318
   57SAPC   H6Y 4247   1.042   7.399   6.308  1.6528  0.0218 -0.8294
   57SAPC   C37 4248   1.193   7.502   6.186  0.8393  0.1833  0.2119
   57SAPC   H7X 4249   1.295   7.478   6.223  0.5801 -0.3209  0.6191
   57SAPC   H7Y 4250   1.196   7.604   6.143  0.4049 -0.3025 -0.9973
   57SAPC   C38 4251   1.147   7.402   6.078 -0.1944  0.2037  0.1527
   57SAPC   H8X 4252   1.044   7.432   6.050  0.3813  0.6847 -1.5562
   57SAPC   H8Y 4253   1.139   7.306   6.132 -3.5879  0.3278  0.0946
   57SAPC   C39 4254   1.243   7.407   5.952 -0.4701 -0.1538 -0.7762
   57SAPC   H9X 4255   1.261   7.298   5.940 -0.0603 -0.4769  2.0525
   57SAPC   H9Y 4256   1.336   7.464   5.976 -1.3311  1.4594 -1.1764
   57SAPC  C310 4257   1.189   7.467   5.830 -0.2301 -0.1057 -0.2719
   57SAPC  H10X 4258   1.165   7.576   5.836 -0.6409 -0.2311  0.4025
   57SAPC  H10Y 4259   1.099   7.421   5.784 -2.0637  1.2309  1.7637
   57SAPC  C311 4260   1.295   7.453   5.716 -0.3677  0.3283  0.3875
   57SAPC  H11X 4261   1.397   7.483   5.750 -0.9163  1.4451  1.1059
   57SAPC  H11Y 4262   1.266   7.518   5.631  3.3554  3.3598  1.1280
   57SAPC  C312 4263   1.311   7.317   5.667 -0.2236  0.3103  0.7342
   57SAPC  H12X 4264   1.218   7.266   5.637 -0.5083  0.2990  1.6071
   57SAPC  H12Y 4265   1.349   7.243   5.740 -1.7138 -0.5824  0.6383
   57SAPC  C313 4266   1.420   7.310   5.550 -0.6745  0.0525  0.5352
   57SAPC  H13X 4267   1.430   7.204   5.518 -1.5046  0.6107 -1.7668
   57SAPC  H13Y 4268   1.508   7.368   5.584 -1.1056  0.6580  0.6511
   57SAPC  C314 4269   1.363   7.389   5.423 -0.4699 -0.3791  0.4086
   57SAPC  H14X 4270   1.311   7.477   5.466 -0.7607 -0.0753 -0.5394
   57SAPC  H14Y 4271   1.295   7.316   5.374  1.1107 -0.7061 -1.4252
   57SAPC  C315 4272   1.473   7.419   5.321  0.2499  0.0384  0.2332
   57SAPC  H15X 4273   1.413   7.432   5.228 -0.9518 -3.5601  0.3361
   57SAPC  H15Y 4274   1.538   7.332   5.293  0.8059  0.6620 -0.4607
   57SAPC  C316 4275   1.562   7.546   5.349 -0.4992  0.3469  0.4692
   57SAPC  H16X 4276   1.500   7.636   5.367  1.0792  1.0254  3.1388
   57SAPC  H16Y 4277   1.620   7.565   5.256 -2.8534  1.1806 -0.8974
   57SAPC  C317 4278   1.650   7.522   5.469 -0.7226  0.0534 -0.7505
   57SAPC  H17X 4279   1.677   7.414   5.472  3.0961  0.9033  0.6121
   57SAPC  H17Y 4280   1.589   7.542   5.561  0.4036 -1.1707  0.3026
   57SAPC  C318 4281   1.782   7.604   5.466 -0.0044  0.2546  0.5830
   57SAPC  H18X 4282   1.753   7.707   5.494 -0.6558  0.1650  0.2765
   57SAPC  H18Y 4283   1.828   7.595   5.365 -0.0344  0.0982  0.5818
   57SAPC  H18Z 4284   1.843   7.568   5.552 -1.4503  0.9047  1.9205
   58SAPC     N 4285   4.270   5.849   7.626 -0.0902  0.1172  0.3884
   58SAPC   C12 4286   4.181   5.920   7.525 -0.1892 -0.0836  0.5043
   58SAPC  H12A 4287   4.169   6.020   7.562 -2.1360  0.1651 -0.6608
   58SAPC  H12B 4288   4.082   5.877   7.530 -0.5245  0.3469 -1.4424
   58SAPC   C13 4289   4.328   5.722   7.574 -0.2670  0.3352 -0.2358
   58SAPC  H13A 4290   4.356   5.656   7.655  3.1721 -1.0116 -2.2658
   58SAPC  H13B 4291   4.246   5.668   7.530  0.0884 -0.7675  0.4191
   58SAPC  H13C 4292   4.414   5.748   7.513  0.0570  1.5268  0.6850
   58SAPC   C14 4293   4.387   5.936   7.655  0.2455 -0.2020 -0.0519
   58SAPC  H14A 4294   4.447   5.947   7.565  0.4638 -0.2510  0.0865
   58SAPC  H14B 4295   4.348   6.033   7.679  0.4793 -0.0474 -0.2967
   58SAPC  H14C 4296   4.438   5.902   7.744 -1.1463  0.2309  0.9391
   58SAPC   C15 4297   4.195   5.812   7.754  0.0212  0.3582  0.5797
   58SAPC  H15A 4298   4.269   5.807   7.833 -0.6065  4.0616  1.5975
   58SAPC  H15B 4299   4.117   5.884   7.774  0.9475  1.1999  1.2693
   58SAPC  H15C 4300   4.140   5.721   7.737  0.9555 -0.0439 -0.3832
   58SAPC   C11 4301   4.229   5.928   7.374  0.0299 -0.5556  0.7946
   58SAPC  H11A 4302   4.150   5.978   7.314  1.2740 -1.1529 -1.4322
   58SAPC  H11B 4303   4.216   5.826   7.333 -1.6486 -0.2570  0.4815
   58SAPC     P 4304   4.363   6.152   7.371 -0.1505  0.1212 -0.0822
   58SAPC   O13 4305   4.234   6.201   7.423 -0.4451  0.3470 -0.4356
   58SAPC   O14 4306   4.486   6.173   7.441  0.1149  0.7578  0.7006
   58SAPC   O12 4307   4.357   5.994   7.348 -0.1703  0.0881 -0.6986
   58SAPC   O11 4308   4.392   6.214   7.226 -0.6244 -0.1809  0.1761
   58SAPC    C1 4309   4.454   6.339   7.202  0.6652  0.5439 -0.4396
   58SAPC    HA 4310   4.401   6.417   7.261 -1.5047 -0.3091 -1.1435
   58SAPC    HB 4311   4.557   6.328   7.241  0.7532 -1.8682 -1.1648
   58SAPC    C2 4312   4.460   6.379   7.052 -0.2945  0.3124  0.0010
   58SAPC    HS 4313   4.509   6.479   7.048  0.0560  0.1156 -0.9933
   58SAPC   O21 4314   4.321   6.376   7.013  0.1456 -0.3991 -0.6317
   58SAPC   C21 4315   4.248   6.481   7.049 -0.9580  0.1972  0.0050
   58SAPC   O22 4316   4.289   6.569   7.120 -0.3121  0.3412 -0.6238
   58SAPC   C22 4317   4.104   6.477   7.005 -0.7924  0.4885 -0.0223
   58SAPC   H2R 4318   4.103   6.399   6.926 -0.3455 -1.5176  1.8570
   58SAPC   H2S 4319   4.040   6.443   7.089  2.0991 -0.0616  2.1208
   58SAPC    C3 4320   4.534   6.263   6.969  0.1621  0.1091 -0.1404
   58SAPC    HX 4321   4.493   6.169   7.010 -2.0210  1.8290  1.9346
   58SAPC    HY 4322   4.641   6.262   6.998 -0.7861  0.0897  3.9751
   58SAPC   O31 4323   4.512   6.277   6.826 -0.4095  0.3386  0.4381
   58SAPC   C31 4324   4.612   6.350   6.764 -0.4007 -0.2956 -0.2786
   58SAPC   O32 4325   4.702   6.405   6.824 -0.1286 -0.0849 -0.0594
   58SAPC   C32 4326   4.606   6.317   6.621  0.5594  0.2433  0.0321
   58SAPC   H2X 4327   4.512   6.261   6.601 -1.0280  2.6966  0.2226
   58SAPC   H2Y 4328   4.693   6.249   6.606  2.5169  2.7443 -0.7257
   58SAPC   C23 4329   4.048   6.611   6.962  0.7501 -0.2464 -0.7417
   58SAPC   H3R 4330   4.072   6.699   7.025 -0.1410  0.5150 -1.4337
   58SAPC   H3S 4331   3.940   6.588   6.968  0.6259  0.6232  1.0225
   58SAPC   C24 4332   4.070   6.633   6.814 -0.3891 -0.6713  1.1910
   58SAPC   H4R 4333   4.011   6.723   6.787  0.3130 -0.4105  0.4460
   58SAPC   H4S 4334   4.034   6.547   6.754 -0.1563  1.0908 -1.6825
   58SAPC   C25 4335   4.215   6.661   6.790 -0.3049 -0.3399  0.1311
   58SAPC   H5R 4336   4.259   6.707   6.880 -0.8728 -0.5241  0.5061
   58SAPC   C26 4337   4.283   6.662   6.677  0.4049 -0.4147  0.2108
   58SAPC   H6R 4338   4.393   6.671   6.676  0.5054 -1.5122 -0.6270
   58SAPC   C27 4339   4.215   6.629   6.544 -0.4327 -0.0185  0.0167
   58SAPC   H7R 4340   4.266   6.701   6.477  0.6643  0.5233  1.3857
   58SAPC   H7S 4341   4.106   6.650   6.544 -0.8932 -1.9121  2.3420
   58SAPC   C28 4342   4.256   6.491   6.502  0.3916  0.1377 -0.2359
   58SAPC   H8R 4343   4.294   6.427   6.583 -0.2251  0.0015 -0.0447
   58SAPC   C29 4344   4.263   6.443   6.373 -0.3852 -0.7848  0.9847
   58SAPC   H9R 4345   4.284   6.336   6.362  0.4417 -0.4899 -0.4485
   58SAPC  C210 4346   4.253   6.523   6.245  0.2817 -0.5052  0.1686
   58SAPC  H10R 4347   4.340   6.485   6.188 -0.7105 -0.3237 -1.5484
   58SAPC  H10S 4348   4.281   6.628   6.268 -0.3075 -0.5574  1.1604
   58SAPC  C211 4349   4.115   6.530   6.188  0.5648 -0.1070  0.4819
   58SAPC  H11R 4350   4.042   6.554   6.266 -0.9616  0.7057 -1.1199
   58SAPC  C212 4351   4.077   6.507   6.061 -0.2284  0.3659  0.6472
   58SAPC  H12R 4352   3.972   6.526   6.037 -0.0736 -0.2811 -0.5988
   58SAPC  C213 4353   4.167   6.468   5.940  0.0807 -0.2021 -0.6690
   58SAPC  H13R 4354   4.272   6.445   5.968 -0.3702 -1.4862  0.0771
   58SAPC  H13S 4355   4.171   6.567   5.890 -2.7535 -0.6093 -1.8973
   58SAPC  C214 4356   4.103   6.369   5.852 -0.1659  0.5238  0.2449
   58SAPC  H14R 4357   4.100   6.265   5.888  0.5802 -0.0339 -1.2576
   58SAPC  C215 4358   4.045   6.404   5.733  0.1262 -0.4333  0.3626
   58SAPC  H15R 4359   3.979   6.339   5.674 -0.3612  0.4791 -0.1139
   58SAPC  C216 4360   4.021   6.543   5.675 -0.3712 -0.1552  0.3723
   58SAPC  H16R 4361   4.109   6.607   5.697 -0.7693  0.4653  0.2002
   58SAPC  H16S 4362   3.941   6.590   5.737 -0.1052  2.2319 -0.9735
   58SAPC  C217 4363   3.974   6.558   5.533  0.0470 -0.1870 -0.0278
   58SAPC  H17R 4364   3.863   6.548   5.528  0.1546 -0.8564 -3.1308
   58SAPC  H17S 4365   4.017   6.478   5.468 -0.2629 -0.8407  0.5569
   58SAPC  C218 4366   3.997   6.698   5.474 -0.0950 -0.1199 -0.3350
   58SAPC  H18R 4367   4.107   6.717   5.482  0.0750 -1.8052  4.1682
   58SAPC  H18S 4368   3.958   6.775   5.544 -0.0759  2.2163 -2.7194
   58SAPC  C219 4369   3.930   6.719   5.337  0.7671 -0.1349 -0.1899
   58SAPC  H19R 4370   3.914   6.827   5.321 -1.9519 -0.1306  1.8271
   58SAPC  H19S 4371   3.827   6.680   5.356  0.2673  0.3590 -1.7251
   58SAPC  C220 4372   3.994   6.638   5.223 -0.3473  0.4084  0.7140
   58SAPC  H20R 4373   4.105   6.638   5.228 -0.2800 -0.9735 -0.2976
   58SAPC  H20S 4374   3.961   6.680   5.125  0.2986 -2.0851 -0.6363
   58SAPC  H20T 4375   3.947   6.538   5.224 -1.3254  0.8529  0.9658
   58SAPC   C33 4376   4.620   6.436   6.513  0.0937 -0.0595 -0.7694
   58SAPC   H3X 4377   4.709   6.497   6.541  1.4515 -2.7104  1.2285
   58SAPC   H3Y 4378   4.526   6.495   6.519 -0.7574 -1.4023 -0.5033
   58SAPC   C34 4379   4.652   6.388   6.375 -0.4182  0.2743 -0.6642
   58SAPC   H4X 4380   4.583   6.305   6.347 -1.3672  1.3244 -1.5457
   58SAPC   H4Y 4381   4.754   6.344   6.380 -0.5614 -0.0281  3.2933
   58SAPC   C35 4382   4.649   6.504   6.274  0.4401  0.5270 -1.0859
   58SAPC   H5X 4383   4.715   6.587   6.309  2.0128 -0.6355 -1.2130
   58SAPC   H5Y 4384   4.555   6.562   6.271 -0.6036 -0.9535  0.8694
   58SAPC   C36 4385   4.692   6.455   6.137  0.1900  0.3427 -0.1817
   58SAPC   H6X 4386   4.737   6.356   6.160 -0.8465 -0.9245 -3.1534
   58SAPC   H6Y 4387   4.770   6.516   6.087  0.4859 -0.5799 -0.8776
   58SAPC   C37 4388   4.575   6.430   6.042  1.0803  0.3647  0.3882
   58SAPC   H7X 4389   4.533   6.531   6.024 -1.7342 -0.8674 -0.4308
   58SAPC   H7Y 4390   4.505   6.362   6.096  1.5412 -1.7571 -1.5546
   58SAPC   C38 4391   4.596   6.359   5.902  0.3300 -0.2490 -0.2929
   58SAPC   H8X 4392   4.499   6.333   5.854  0.1801 -0.5587  0.1751
   58SAPC   H8Y 4393   4.660   6.269   5.905  0.3907 -0.1999 -0.1203
   58SAPC   C39 4394   4.691   6.442   5.796  0.9700 -0.2913 -0.7747
   58SAPC   H9X 4395   4.797   6.413   5.810  0.7480 -0.8678 -0.2270
   58SAPC   H9Y 4396   4.671   6.551   5.808  0.4848 -0.3081 -1.4313
   58SAPC  C310 4397   4.644   6.411   5.649 -0.5709 -0.0767  0.3275
   58SAPC  H10X 4398   4.731   6.434   5.584 -1.0900  1.2174  0.0436
   58SAPC  H10Y 4399   4.572   6.489   5.616  0.3086  1.9249  2.7845
   58SAPC  C311 4400   4.605   6.264   5.604 -1.2080 -0.1772  0.3104
   58SAPC  H11X 4401   4.527   6.223   5.672 -0.7374 -3.2065 -0.8205
   58SAPC  H11Y 4402   4.679   6.182   5.620 -0.1463  1.1439  2.6338
   58SAPC  C312 4403   4.552   6.259   5.454  0.4714  0.4889  0.8217
   58SAPC  H12X 4404   4.545   6.152   5.425  0.4090 -0.0121  2.5491
   58SAPC  H12Y 4405   4.639   6.305   5.404  0.9732 -0.6121  0.6585
   58SAPC  C313 4406   4.423   6.337   5.420 -0.3138 -0.5953  0.0401
   58SAPC  H13X 4407   4.442   6.437   5.464  2.3626 -1.8228  1.9666
   58SAPC  H13Y 4408   4.332   6.294   5.466  0.7629 -2.4557  0.5120
   58SAPC  C314 4409   4.420   6.372   5.270 -0.3507  0.0325 -0.0962
   58SAPC  H14X 4410   4.449   6.284   5.209  1.3197  0.2734  0.2973
   58SAPC  H14Y 4411   4.490   6.457   5.257  1.7144 -1.7278 -1.0553
   58SAPC  C315 4412   4.283   6.422   5.211 -0.0408  0.3061  0.4805
   58SAPC  H15X 4413   4.223   6.464   5.295  0.4308  0.0033  0.9773
   58SAPC  H15Y 4414   4.223   6.339   5.169 -1.2662  1.2380  0.3218
   58SAPC  C316 4415   4.303   6.527   5.098  0.4353  0.2008  0.1164
   58SAPC  H16X 4416   4.342   6.624   5.136 -2.2815  1.0041  1.1167
   58SAPC  H16Y 4417   4.207   6.551   5.048  0.4203 -0.2219 -0.0601
   58SAPC  C317 4418   4.409   6.484   4.998  0.2641  0.3380  0.4760
   58SAPC  H17X 4419   4.510   6.498   5.041  0.4471 -0.6769  0.3937
   58SAPC  H17Y 4420   4.399   6.553   4.911 -0.6327 -1.4346 -0.8904
   58SAPC  C318 4421   4.389   6.346   4.939  0.6372 -0.1273  0.2036
   58SAPC  H18X 4422   4.427   6.267   5.008  0.9014 -0.6493 -0.5302
   58SAPC  H18Y 4423   4.445   6.342   4.843 -0.3053  1.0395 -0.4257
   58SAPC  H18Z 4424   4.284   6.315   4.921  0.6294  0.3933 -0.7055
   59SAPC     N 4425   4.803   1.102   7.037 -0.4994  0.6543 -0.2164
   59SAPC   C12 4426   4.690   1.134   7.136 -0.1791 -0.4495  0.5476
   59SAPC  H12A 4427   4.722   1.093   7.230  0.7429 -0.2542  0.3356
   59SAPC  H12B 4428   4.597   1.085   7.111 -0.3580 -0.3204  0.9528
   59SAPC   C13 4429   4.925   1.179   7.073 -0.4819  0.7054 -0.6564
   59SAPC  H13A 4430   5.016   1.138   7.033 -0.5332 -0.9599  0.8080
   59SAPC  H13B 4431   4.918   1.285   7.054  0.9659  1.1559  1.1222
   59SAPC  H13C 4432   4.942   1.170   7.179 -0.4870  1.9162 -0.5455
   59SAPC   C14 4433   4.836   0.952   7.049  0.1553 -0.4892  0.3860
   59SAPC  H14A 4434   4.747   0.891   7.039  0.9972 -1.8542  0.8846
   59SAPC  H14B 4435   4.903   0.928   6.968 -0.9022  0.6345 -0.8544
   59SAPC  H14C 4436   4.888   0.932   7.142  3.1617 -0.0664 -1.0847
   59SAPC   C15 4437   4.771   1.135   6.894  0.4177  0.0463 -0.1361
   59SAPC  H15A 4438   4.766   1.242   6.883  2.7318  0.5011  2.2764
   59SAPC  H15B 4439   4.852   1.103   6.830 -0.0494  0.0104 -0.7145
   59SAPC  H15C 4440   4.685   1.083   6.854 -0.2102  0.0331  1.1876
   59SAPC   C11 4441   4.661   1.285   7.155  0.2224  0.0379 -0.1351
   59SAPC  H11A 4442   4.564   1.287   7.210  0.6099 -2.6926  0.8014
   59SAPC  H11B 4443   4.658   1.330   7.053  1.0820 -0.1008 -0.2236
   59SAPC     P 4444   4.749   1.506   7.270 -0.0482 -0.1732  0.3912
   59SAPC   O13 4445   4.611   1.551   7.304 -0.1519  1.2903  0.1962
   59SAPC   O14 4446   4.854   1.536   7.372  0.3439  0.5612  0.7891
   59SAPC   O12 4447   4.758   1.349   7.239 -0.0328 -0.3977 -0.1341
   59SAPC   O11 4448   4.782   1.575   7.138 -0.5030 -0.3280  0.1182
   59SAPC    C1 4449   4.892   1.548   7.047 -0.6340  0.4521 -0.3500
   59SAPC    HA 4450   4.950   1.459   7.078 -1.8192 -0.5293 -0.8813
   59SAPC    HB 4451   4.857   1.512   6.948 -1.0682  0.9688 -0.3890
   59SAPC    C2 4452   4.992   1.669   7.038 -0.4882 -0.0407  0.0702
   59SAPC    HS 4453   5.001   1.707   7.142 -1.8568 -3.1007  1.4444
   59SAPC   O21 4454   4.924   1.768   6.956 -0.1482  0.3124  0.0517
   59SAPC   C21 4455   4.979   1.886   6.965  0.4801 -0.6871  0.3994
   59SAPC   O22 4456   5.069   1.919   7.039 -0.0844 -0.0855  0.5132
   59SAPC   C22 4457   4.912   1.977   6.865 -0.2864  0.3590 -0.3718
   59SAPC   H2R 4458   4.961   1.968   6.765 -1.2769  1.5524 -0.9955
   59SAPC   H2S 4459   4.807   1.950   6.839  0.0700  0.1177 -1.6600
   59SAPC    C3 4460   5.138   1.632   6.986  0.0727  0.2396  0.0286
   59SAPC    HX 4461   5.193   1.560   7.050  0.0921 -0.3724 -0.6592
   59SAPC    HY 4462   5.200   1.724   6.979  1.7210 -0.7811  0.6932
   59SAPC   O31 4463   5.118   1.571   6.854 -0.3276 -0.3752  0.5533
   59SAPC   C31 4464   5.150   1.646   6.739 -0.1117  0.4981  0.3903
   59SAPC   O32 4465   5.205   1.754   6.751 -0.4916 -0.3712  0.1120
   59SAPC   C32 4466   5.134   1.574   6.615  0.1828  0.5670  0.1362
   59SAPC   H2X 4467   5.027   1.543   6.607  0.1649  0.5174  0.5924
   59SAPC   H2Y 4468   5.200   1.485   6.620  0.3598  0.5407 -1.7757
   59SAPC   C23 4469   4.918   2.125   6.918 -0.6161  0.1786  0.4389
   59SAPC   H3R 4470   5.021   2.165   6.925 -1.2256  1.9470 -0.2051
   59SAPC   H3S 4471   4.872   2.111   7.018 -1.5114 -2.3631 -0.2359
   59SAPC   C24 4472   4.829   2.225   6.838  0.2687  0.0260  0.7796
   59SAPC   H4R 4473   4.809   2.313   6.903  2.3593  0.2556  1.1883
   59SAPC   H4S 4474   4.736   2.168   6.816 -1.0967  2.0353  1.1326
   59SAPC   C25 4475   4.882   2.266   6.702  0.3415 -0.2580 -0.2088
   59SAPC   H5R 4476   4.944   2.186   6.658  1.8913  1.2994 -0.9792
   59SAPC   C26 4477   4.851   2.369   6.626 -0.7456  0.3456 -0.1437
   59SAPC   H6R 4478   4.906   2.375   6.531  0.7974  2.7477  0.8149
   59SAPC   C27 4479   4.769   2.486   6.658 -0.3603 -0.5412  0.9947
   59SAPC   H7R 4480   4.754   2.487   6.769 -0.0391 -0.0270  1.0378
   59SAPC   H7S 4481   4.665   2.479   6.618  0.7773  0.2187 -2.3428
   59SAPC   C28 4482   4.844   2.612   6.606 -0.0999  0.4972 -0.5151
   59SAPC   H8R 4483   4.905   2.661   6.684 -1.7536  1.4697  0.2182
   59SAPC   C29 4484   4.850   2.658   6.481 -0.7020  0.8121 -0.4056
   59SAPC   H9R 4485   4.902   2.754   6.468  4.0290 -1.1939  1.3420
   59SAPC  C210 4486   4.781   2.590   6.358  0.3959  0.2125 -0.3306
   59SAPC  H10R 4487   4.690   2.543   6.400 -0.7332  2.7781  0.3044
   59SAPC  H10S 4488   4.845   2.515   6.307  3.6306  1.5551  1.4122
   59SAPC  C211 4489   4.746   2.699   6.264  0.2052 -0.5246  0.1664
   59SAPC  H11R 4490   4.744   2.804   6.296 -0.2247 -0.3025 -0.5772
   59SAPC  C212 4491   4.732   2.682   6.132  0.4551  0.5033 -0.1421
   59SAPC  H12R 4492   4.705   2.773   6.076 -0.7395  0.5473  0.4530
   59SAPC  C213 4493   4.745   2.553   6.060 -0.0573 -0.3212  0.4159
   59SAPC  H13R 4494   4.644   2.520   6.028  0.0314 -2.2078  1.8756
   59SAPC  H13S 4495   4.782   2.467   6.120  2.1626 -0.4972 -1.0918
   59SAPC  C214 4496   4.849   2.556   5.946 -0.3781 -0.0267 -0.0343
   59SAPC  H14R 4497   4.947   2.534   5.990 -0.5088  0.4340  0.5048
   59SAPC  C215 4498   4.842   2.574   5.812  1.0528  0.3954  0.5164
   59SAPC  H15R 4499   4.929   2.577   5.744  0.8599  0.5224  0.2723
   59SAPC  C216 4500   4.707   2.616   5.743 -0.2090 -0.5920 -0.3816
   59SAPC  H16R 4501   4.626   2.642   5.815  0.0008 -0.2802 -0.2544
   59SAPC  H16S 4502   4.672   2.529   5.684  1.9986 -1.0356 -1.1037
   59SAPC  C217 4503   4.711   2.744   5.655  0.1723  0.6251 -0.0153
   59SAPC  H17R 4504   4.739   2.832   5.716  0.7480 -0.8079  1.8872
   59SAPC  H17S 4505   4.610   2.765   5.614 -2.3384 -2.7336  3.6678
   59SAPC  C218 4506   4.820   2.741   5.543 -0.1355 -0.3487 -0.7158
   59SAPC  H18R 4507   4.809   2.648   5.482  1.2135  0.6538 -2.5965
   59SAPC  H18S 4508   4.919   2.733   5.593  0.2997  2.9151 -0.8460
   59SAPC  C219 4509   4.808   2.867   5.451 -0.8370  0.3611  0.1500
   59SAPC  H19R 4510   4.795   2.945   5.529  1.0814 -1.2917  2.2701
   59SAPC  H19S 4511   4.718   2.861   5.386 -0.8891 -1.2063  0.3402
   59SAPC  C220 4512   4.930   2.896   5.366 -0.2942 -0.1699 -0.1867
   59SAPC  H20R 4513   4.930   2.831   5.276 -1.7569 -1.6168  0.8026
   59SAPC  H20S 4514   5.027   2.889   5.420  0.6695 -0.7822 -1.9085
   59SAPC  H20T 4515   4.918   3.002   5.337  0.9118  0.8052  2.5391
   59SAPC   C33 4516   5.163   1.668   6.495 -0.4589  0.2618 -0.0319
   59SAPC   H3X 4517   5.271   1.678   6.473 -0.2553 -1.9338 -0.2982
   59SAPC   H3Y 4518   5.124   1.769   6.518  0.8050  0.4662  1.3761
   59SAPC   C34 4519   5.086   1.628   6.367  0.2128 -0.3213 -0.0224
   59SAPC   H4X 4520   4.978   1.617   6.391 -0.5796  0.5920 -2.8249
   59SAPC   H4Y 4521   5.134   1.532   6.337  1.4942  0.9024 -2.1565
   59SAPC   C35 4522   5.104   1.724   6.254  1.1529 -0.5326  0.4095
   59SAPC   H5X 4523   5.212   1.747   6.240  0.6623  1.0016 -1.2582
   59SAPC   H5Y 4524   5.057   1.822   6.275  1.3270 -0.4974  0.6450
   59SAPC   C36 4525   5.062   1.676   6.118  0.0371  0.3266  0.1220
   59SAPC   H6X 4526   4.951   1.675   6.112  0.0690  1.9994 -2.4162
   59SAPC   H6Y 4527   5.107   1.576   6.103  1.4459  0.5280  2.5748
   59SAPC   C37 4528   5.104   1.760   5.996  0.1235 -0.1174 -0.1814
   59SAPC   H7X 4529   5.215   1.761   5.998  0.1740  0.3577  3.1130
   59SAPC   H7Y 4530   5.057   1.859   6.014  0.2910  0.2231 -1.4965
   59SAPC   C38 4531   5.037   1.694   5.871 -0.0546 -0.5883 -0.1327
   59SAPC   H8X 4532   4.927   1.695   5.883 -0.0238  0.0030  0.1698
   59SAPC   H8Y 4533   5.077   1.592   5.853 -0.6488 -0.3932 -2.8904
   59SAPC   C39 4534   5.068   1.768   5.740  0.9091  0.0671  0.0061
   59SAPC   H9X 4535   5.164   1.738   5.693  0.8349 -2.9652  1.5555
   59SAPC   H9Y 4536   5.082   1.872   5.776  2.2615 -0.2571  0.4787
   59SAPC  C310 4537   4.950   1.762   5.642 -0.1734  0.1281 -0.5868
   59SAPC  H10X 4538   4.848   1.777   5.684 -0.8429 -0.9485 -1.7447
   59SAPC  H10Y 4539   4.941   1.656   5.607  3.2221 -0.9941  1.4523
   59SAPC  C311 4540   4.972   1.847   5.516 -0.6218  0.7383  0.1058
   59SAPC  H11X 4541   5.045   1.798   5.448 -0.3336  0.6493  0.4734
   59SAPC  H11Y 4542   5.023   1.941   5.546 -0.3312  0.7603 -0.4465
   59SAPC  C312 4543   4.847   1.885   5.439 -0.4959  0.0446 -0.3029
   59SAPC  H12X 4544   4.779   1.800   5.420  0.2775 -0.6468 -0.0395
   59SAPC  H12Y 4545   4.869   1.933   5.342 -0.3058 -0.6964 -0.6355
   59SAPC  C313 4546   4.780   2.003   5.503  0.5220  0.1083  0.2294
   59SAPC  H13X 4547   4.850   2.086   5.529  0.0752  1.0935 -1.5768
   59SAPC  H13Y 4548   4.731   1.972   5.598  0.3736 -1.1961 -0.2547
   59SAPC  C314 4549   4.665   2.069   5.424 -0.2386 -0.8852  0.4939
   59SAPC  H14X 4550   4.597   2.125   5.492  1.1179  0.1666  1.0359
   59SAPC  H14Y 4551   4.618   1.982   5.372  1.2927  0.1659 -2.9518
   59SAPC  C315 4552   4.721   2.170   5.310 -0.2529 -0.7990  0.2520
   59SAPC  H15X 4553   4.619   2.194   5.274 -1.0074 -0.2298  2.6051
   59SAPC  H15Y 4554   4.775   2.114   5.230  2.1831 -0.5728  1.6263
   59SAPC  C316 4555   4.802   2.287   5.356 -0.3564 -0.5643 -0.2072
   59SAPC  H16X 4556   4.888   2.250   5.417 -0.0830  2.8083  1.7669
   59SAPC  H16Y 4557   4.746   2.356   5.423 -1.9450  0.8427 -2.8423
   59SAPC  C317 4558   4.856   2.375   5.243 -0.2545  0.4342  0.1359
   59SAPC  H17X 4559   4.902   2.307   5.169 -0.9040 -0.3929  0.4645
   59SAPC  H17Y 4560   4.941   2.434   5.283 -1.5484  3.5107 -1.3593
   59SAPC  C318 4561   4.761   2.466   5.171 -0.0497 -0.5030 -0.4248
   59SAPC  H18X 4562   4.817   2.547   5.119  0.6329  0.0334  1.0763
   59SAPC  H18Y 4563   4.686   2.508   5.242 -0.0375 -0.0101 -0.6935
   59SAPC  H18Z 4564   4.716   2.408   5.088  0.0180  0.2413 -0.9903
   60SAPC     N 4565   3.855   4.044   7.472 -0.3365 -0.0957  0.2153
   60SAPC   C12 4566   3.773   3.930   7.530  0.2327 -0.6817  0.2223
   60SAPC  H12A 4567   3.836   3.892   7.610 -1.1723 -0.5995  1.4066
   60SAPC  H12B 4568   3.781   3.849   7.459 -1.1931 -0.3996 -0.2733
   60SAPC   C13 4569   3.801   4.080   7.338 -0.5126  0.3753  0.2709
   60SAPC  H13A 4570   3.815   4.182   7.308  1.4571 -0.3703 -1.6344
   60SAPC  H13B 4571   3.838   4.007   7.267 -2.4766 -0.8496  0.4223
   60SAPC  H13C 4572   3.694   4.068   7.344 -0.5599  0.6696  0.0027
   60SAPC   C14 4573   3.846   4.168   7.563  0.4901  0.2913 -0.2115
   60SAPC  H14A 4574   3.919   4.243   7.535  0.3198  0.0031 -1.4529
   60SAPC  H14B 4575   3.746   4.209   7.565 -0.6146 -2.2640  0.2804
   60SAPC  H14C 4576   3.859   4.144   7.668  0.5465 -2.4664 -0.7936
   60SAPC   C15 4577   4.000   3.995   7.466  0.5881 -0.3133 -0.0257
   60SAPC  H15A 4578   4.049   4.073   7.409 -0.2523  0.5476  0.4053
   60SAPC  H15B 4579   4.050   3.996   7.562 -0.2642  0.6273  0.4299
   60SAPC  H15C 4580   4.017   3.901   7.416  2.9319 -0.0222  0.1228
   60SAPC   C11 4581   3.632   3.962   7.586  0.4026 -0.3568  0.1647
   60SAPC  H11A 4582   3.652   4.031   7.670  0.3591 -0.0594 -0.0689
   60SAPC  H11B 4583   3.595   3.871   7.638  0.4102  0.5056  1.7436
   60SAPC     P 4584   3.463   3.931   7.404 -0.9183 -0.0685  0.2240
   60SAPC   O13 4585   3.485   3.785   7.426 -0.5325 -0.4829  0.3831
   60SAPC   O14 4586   3.317   3.971   7.408  0.1843  0.6523  0.0942
   60SAPC   O12 4587   3.536   4.025   7.501 -0.4028  0.1226  0.0767
   60SAPC   O11 4588   3.527   3.971   7.266 -0.2385 -0.2287  0.2871
   60SAPC    C1 4589   3.473   4.062   7.171  0.9904  0.4824 -0.1591
   60SAPC    HA 4590   3.437   4.156   7.218 -0.8873 -1.0494  1.7197
   60SAPC    HB 4591   3.549   4.084   7.093 -1.2061  0.8792 -2.3102
   60SAPC    C2 4592   3.356   4.000   7.089  0.3747 -0.0727 -0.5018
   60SAPC    HS 4593   3.281   3.959   7.159  0.1128 -1.2082 -1.4131
   60SAPC   O21 4594   3.419   3.904   7.005 -0.1861  0.2450 -0.2064
   60SAPC   C21 4595   3.352   3.795   6.965  0.7285 -0.4027  0.0514
   60SAPC   O22 4596   3.244   3.765   7.009  0.1051 -0.2074  0.0081
   60SAPC   C22 4597   3.417   3.726   6.840  0.1460 -0.4400 -0.6409
   60SAPC   H2R 4598   3.498   3.791   6.800 -1.7400  2.2919 -0.3142
   60SAPC   H2S 4599   3.455   3.632   6.885  1.5755 -0.1298 -1.1612
   60SAPC    C3 4600   3.287   4.115   7.000 -0.9593  0.8430 -0.2344
   60SAPC    HX 4601   3.365   4.137   6.925  0.4331 -2.4211  0.0818
   60SAPC    HY 4602   3.261   4.204   7.061 -1.0169  0.4594  0.3143
   60SAPC   O31 4603   3.171   4.067   6.929 -0.3694  0.5143  0.2935
   60SAPC   C31 4604   3.055   4.059   7.000 -0.7122  0.1096 -0.1191
   60SAPC   O32 4605   3.048   4.094   7.118  0.6229  0.4192 -0.2038
   60SAPC   C32 4606   2.938   4.023   6.911 -0.3416  0.0751 -0.2306
   60SAPC   H2X 4607   2.927   4.097   6.828 -0.2667  0.6739  0.2879
   60SAPC   H2Y 4608   2.848   4.035   6.974 -0.7206 -0.7406 -0.5963
   60SAPC   C23 4609   3.317   3.713   6.731 -0.5146 -0.7631 -0.5879
   60SAPC   H3R 4610   3.219   3.670   6.761 -1.7936  0.7000 -2.4398
   60SAPC   H3S 4611   3.355   3.639   6.658  3.5322  0.4729  0.0267
   60SAPC   C24 4612   3.292   3.845   6.662 -0.9643 -0.3978  0.0132
   60SAPC   H4R 4613   3.389   3.883   6.624 -0.8118 -1.2621 -0.4870
   60SAPC   H4S 4614   3.257   3.919   6.738 -2.7919 -0.5282 -0.6506
   60SAPC   C25 4615   3.196   3.832   6.546  0.2059  0.1758  0.3876
   60SAPC   H5R 4616   3.091   3.857   6.567  0.0673 -1.2170  1.5566
   60SAPC   C26 4617   3.221   3.807   6.417  0.8089 -0.8027  0.3320
   60SAPC   H6R 4618   3.136   3.813   6.348  2.3436  0.6353 -1.5464
   60SAPC   C27 4619   3.346   3.774   6.340  0.7416  0.4009  0.0532
   60SAPC   H7R 4620   3.342   3.665   6.318  0.5194  1.0907 -4.2822
   60SAPC   H7S 4621   3.427   3.802   6.411 -0.9079 -0.8629  2.5806
   60SAPC   C28 4622   3.381   3.839   6.217  0.2324  0.5312 -0.0147
   60SAPC   H8R 4623   3.319   3.926   6.192 -0.9651 -0.2137  0.2396
   60SAPC   C29 4624   3.470   3.788   6.121  0.4659 -0.1043 -0.4577
   60SAPC   H9R 4625   3.482   3.846   6.029 -3.1501  1.2980 -0.1971
   60SAPC  C210 4626   3.555   3.669   6.140  0.7807  0.1946  0.5272
   60SAPC  H10R 4627   3.609   3.674   6.236 -0.5035  0.8770  1.2346
   60SAPC  H10S 4628   3.638   3.682   6.067 -0.4323  1.6078 -0.6867
   60SAPC  C211 4629   3.479   3.542   6.131 -0.2159  0.8253 -0.2345
   60SAPC  H11R 4630   3.412   3.522   6.216 -2.1837  3.2588 -1.0609
   60SAPC  C212 4631   3.482   3.441   6.043 -0.0180 -0.0083 -0.1882
   60SAPC  H12R 4632   3.418   3.355   6.068  0.7476 -0.1684  1.3216
   60SAPC  C213 4633   3.551   3.431   5.909 -0.8507  0.8775  0.1609
   60SAPC  H13R 4634   3.610   3.526   5.904  0.0602  0.4696  2.1276
   60SAPC  H13S 4635   3.467   3.427   5.837  0.2289  1.1046 -1.1383
   60SAPC  C214 4636   3.655   3.314   5.908 -0.2369  0.2057 -0.7451
   60SAPC  H14R 4637   3.708   3.305   6.004 -1.5376 -0.1528 -0.0329
   60SAPC  C215 4638   3.683   3.228   5.809  0.4607 -0.3447 -1.2890
   60SAPC  H15R 4639   3.753   3.146   5.831  1.3419  0.0427 -2.5453
   60SAPC  C216 4640   3.619   3.218   5.673  0.0124  0.1729  0.4536
   60SAPC  H16R 4641   3.696   3.238   5.595  0.5190 -0.7540  0.6978
   60SAPC  H16S 4642   3.532   3.286   5.666  0.6418  0.8809 -0.9242
   60SAPC  C217 4643   3.546   3.085   5.651  0.4445 -0.1917  0.1248
   60SAPC  H17R 4644   3.601   2.991   5.674 -2.2258 -1.6309  0.9576
   60SAPC  H17S 4645   3.526   3.085   5.541 -3.8512  2.1301  0.6933
   60SAPC  C218 4646   3.404   3.079   5.716  0.1438  0.1415 -0.4515
   60SAPC  H18R 4647   3.341   3.160   5.674  1.4893  1.7378  0.4606
   60SAPC  H18S 4648   3.412   3.103   5.824  1.6508 -0.0928 -0.4895
   60SAPC  C219 4649   3.336   2.941   5.704  0.2678  0.1930 -0.0498
   60SAPC  H19R 4650   3.408   2.877   5.760  1.1425  1.5692  0.4602
   60SAPC  H19S 4651   3.331   2.914   5.596  0.0419  0.5008 -0.1168
   60SAPC  C220 4652   3.201   2.958   5.770  0.5666 -0.8228  0.5398
   60SAPC  H20R 4653   3.205   2.983   5.878  0.3053  1.9237  0.0014
   60SAPC  H20S 4654   3.144   2.863   5.766  2.3214 -1.9168  0.3933
   60SAPC  H20T 4655   3.142   3.039   5.721  0.5452 -1.6650 -0.8634
   60SAPC   C33 4656   2.941   3.880   6.851 -0.2788 -0.3701 -0.2750
   60SAPC   H3X 4657   2.937   3.811   6.938 -2.0134  0.6285  0.4913
   60SAPC   H3Y 4658   3.029   3.870   6.784  1.0111  2.6212  0.8049
   60SAPC   C34 4659   2.811   3.850   6.767  0.1509 -0.7991 -0.1447
   60SAPC   H4X 4660   2.804   3.913   6.675 -0.6977 -1.1809 -0.3512
   60SAPC   H4Y 4661   2.723   3.882   6.826 -0.7362 -3.2774 -0.0144
   60SAPC   C35 4662   2.784   3.702   6.728 -0.3063  0.8579  0.4854
   60SAPC   H5X 4663   2.680   3.678   6.697 -0.0458 -1.3602  1.1553
   60SAPC   H5Y 4664   2.800   3.636   6.816  0.4068  1.8269  1.0990
   60SAPC   C36 4665   2.872   3.664   6.606 -0.1782  0.5572  0.0371
   60SAPC   H6X 4666   2.976   3.656   6.644 -0.4636  1.4926  1.0649
   60SAPC   H6Y 4667   2.867   3.742   6.527 -0.4273  1.9763  1.3938
   60SAPC   C37 4668   2.839   3.529   6.548 -0.7441  0.2581  0.6026
   60SAPC   H7X 4669   2.735   3.527   6.509 -1.4983  0.7295  2.4518
   60SAPC   H7Y 4670   2.828   3.459   6.635  2.7341 -3.3816 -1.5519
   60SAPC   C38 4671   2.943   3.475   6.448  0.7368  0.3247  0.6775
   60SAPC   H8X 4672   2.908   3.369   6.450 -1.6755  1.0402  0.3588
   60SAPC   H8Y 4673   3.045   3.489   6.490  0.7641 -1.1604  1.1746
   60SAPC   C39 4674   2.927   3.528   6.306 -0.0719  0.3934  0.4314
   60SAPC   H9X 4675   2.927   3.639   6.299 -1.5771  0.3519 -0.6751
   60SAPC   H9Y 4676   2.833   3.496   6.256  0.1108  0.9313 -0.2715
   60SAPC  C310 4677   3.041   3.474   6.218  0.1288 -0.5262  0.5912
   60SAPC  H10X 4678   3.036   3.364   6.230 -0.5243 -0.6170 -0.3804
   60SAPC  H10Y 4679   3.144   3.501   6.251  0.4603  0.3319 -1.0362
   60SAPC  C311 4680   3.031   3.515   6.070 -0.8997 -0.3468 -0.3795
   60SAPC  H11X 4681   3.129   3.540   6.024 -2.0495 -1.5392 -3.7489
   60SAPC  H11Y 4682   2.967   3.606   6.067  0.3514  0.5587 -0.3924
   60SAPC  C312 4683   2.976   3.408   5.975  0.3744 -0.3659  0.4546
   60SAPC  H12X 4684   2.895   3.356   6.031  0.3962  0.3524  1.1802
   60SAPC  H12Y 4685   3.058   3.339   5.949  2.7576  2.5723 -0.4446
   60SAPC  C313 4686   2.908   3.475   5.861  0.9108  0.4973 -0.1657
   60SAPC  H13X 4687   2.985   3.535   5.807  2.3407 -1.0854  0.0036
   60SAPC  H13Y 4688   2.832   3.541   5.906  0.7709 -0.8888  1.7726
   60SAPC  C314 4689   2.843   3.372   5.774  0.3657  0.1764 -0.1516
   60SAPC  H14X 4690   2.797   3.289   5.831 -1.0233  2.1436  1.7232
   60SAPC  H14Y 4691   2.915   3.312   5.714  2.5117  0.7391  1.7248
   60SAPC  C315 4692   2.748   3.424   5.669  1.1641  0.3748  0.6196
   60SAPC  H15X 4693   2.813   3.458   5.586  0.2073  0.2232 -0.1955
   60SAPC  H15Y 4694   2.690   3.507   5.714  2.5214  1.6628  0.0616
   60SAPC  C316 4695   2.655   3.319   5.606  0.7270  0.4318 -0.5503
   60SAPC  H16X 4696   2.596   3.280   5.692  1.4799  2.0201  0.7451
   60SAPC  H16Y 4697   2.709   3.236   5.555  0.0453  0.3880 -1.2120
   60SAPC  C317 4698   2.558   3.397   5.510  0.1311 -0.0935  1.4946
   60SAPC  H17X 4699   2.503   3.479   5.562 -0.5519  0.2038  0.3382
   60SAPC  H17Y 4700   2.479   3.329   5.472  0.3178  0.4845  0.0370
   60SAPC  C318 4701   2.621   3.478   5.387  0.1077  0.2894 -1.1320
   60SAPC  H18X 4702   2.540   3.531   5.334 -2.3305 -0.9372  1.1165
   60SAPC  H18Y 4703   2.666   3.418   5.305  0.8368  1.0590 -1.3103
   60SAPC  H18Z 4704   2.690   3.558   5.423  0.2512 -0.2679 -0.1077
   61SAPC     N 4705   1.284   2.442   7.435 -0.0203  0.3075  0.4946
   61SAPC   C12 4706   1.385   2.325   7.414  0.4067  0.2192  0.1461
   61SAPC  H12A 4707   1.433   2.344   7.319  0.9957 -0.9375  0.1899
   61SAPC  H12B 4708   1.325   2.235   7.418 -0.5694  0.8966  2.0750
   61SAPC   C13 4709   1.351   2.573   7.425  0.4672 -0.4877  0.5490
   61SAPC  H13A 4710   1.390   2.595   7.327 -1.0617  2.7230  0.5361
   61SAPC  H13B 4711   1.285   2.655   7.451 -1.1388 -1.1063 -1.3257
   61SAPC  H13C 4712   1.434   2.568   7.493  1.0045  1.9126  0.1426
   61SAPC   C14 4713   1.175   2.439   7.333 -0.0328  0.0594  0.2784
   61SAPC  H14A 4714   1.219   2.460   7.237  0.0109  0.1313  0.3134
   61SAPC  H14B 4715   1.124   2.344   7.336 -0.2239  0.1664  0.4408
   61SAPC  H14C 4716   1.108   2.523   7.344  0.5824  0.3938  1.8361
   61SAPC   C15 4717   1.226   2.439   7.569  0.4164  0.0058 -0.3562
   61SAPC  H15A 4718   1.299   2.419   7.646  0.3533 -0.5633 -0.4344
   61SAPC  H15B 4719   1.154   2.518   7.584  1.9011  1.9303 -2.6469
   61SAPC  H15C 4720   1.168   2.348   7.574 -1.0042  0.9461  3.3882
   61SAPC   C11 4721   1.515   2.316   7.491 -0.0163  0.1399  0.3745
   61SAPC  H11A 4722   1.562   2.219   7.468  1.2793  0.7238  0.4767
   61SAPC  H11B 4723   1.508   2.331   7.601  1.2376  2.6859  0.1855
   61SAPC     P 4724   1.665   2.391   7.289  0.2089  0.5016  0.1401
   61SAPC   O13 4725   1.785   2.471   7.261 -0.2254  0.4352 -0.7257
   61SAPC   O14 4726   1.696   2.248   7.279  0.6045  0.1886  0.1713
   61SAPC   O12 4727   1.594   2.426   7.434  0.5065  0.6419  0.2174
   61SAPC   O11 4728   1.555   2.436   7.186 -0.4120 -0.1766 -0.2078
   61SAPC    C1 4729   1.536   2.380   7.061 -0.3832  0.3136  0.3812
   61SAPC    HA 4730   1.539   2.269   7.069 -3.5073  0.0774 -0.3910
   61SAPC    HB 4731   1.432   2.406   7.031 -0.2046  1.4731  0.7175
   61SAPC    C2 4732   1.645   2.423   6.952 -0.5420  0.1157 -0.1441
   61SAPC    HS 4733   1.742   2.375   6.977 -0.2787  1.1455  0.9297
   61SAPC   O21 4734   1.660   2.564   6.959 -0.1634 -0.2055 -0.4168
   61SAPC   C21 4735   1.771   2.611   6.900  0.8493  0.4398 -1.0849
   61SAPC   O22 4736   1.870   2.550   6.880  0.2543  0.2639 -0.1554
   61SAPC   C22 4737   1.750   2.760   6.849  0.8457  0.6877  0.6052
   61SAPC   H2R 4738   1.683   2.749   6.761  2.2198 -2.4505 -0.1725
   61SAPC   H2S 4739   1.699   2.820   6.928 -1.3409 -2.0712  1.4353
   61SAPC    C3 4740   1.599   2.383   6.809  0.6944 -0.0916  0.1968
   61SAPC    HX 4741   1.653   2.452   6.739 -0.4012  1.7134  1.0724
   61SAPC    HY 4742   1.491   2.403   6.792  0.3088 -0.5488  1.9369
   61SAPC   O31 4743   1.636   2.245   6.775  0.0372  0.1069 -0.6239
   61SAPC   C31 4744   1.540   2.162   6.768  0.0198  0.5149  0.3567
   61SAPC   O32 4745   1.422   2.178   6.769  0.4415  0.2530 -0.4429
   61SAPC   C32 4746   1.613   2.024   6.756 -0.1944  0.1412 -0.9461
   61SAPC   H2X 4747   1.541   1.940   6.747  1.1581 -1.1566 -0.0716
   61SAPC   H2Y 4748   1.667   2.038   6.852 -2.1889  5.1074 -0.2398
   61SAPC   C23 4749   1.882   2.830   6.788 -0.3196  0.5467 -0.9101
   61SAPC   H3R 4750   1.926   2.770   6.705  2.3381  2.2919 -0.8953
   61SAPC   H3S 4751   1.960   2.831   6.867 -1.0381  0.6916 -0.1841
   61SAPC   C24 4752   1.850   2.975   6.731  0.6943  0.2606  0.2230
   61SAPC   H4R 4753   1.812   3.032   6.819 -1.3978 -3.6752  2.1425
   61SAPC   H4S 4754   1.770   2.966   6.655  1.2855 -0.9703 -0.2632
   61SAPC   C25 4755   1.976   3.034   6.676  0.1098 -0.0540 -0.5443
   61SAPC   H5R 4756   2.035   3.066   6.763 -2.0009  0.0435  0.9162
   61SAPC   C26 4757   2.008   3.073   6.554 -0.2776  0.4234  0.0319
   61SAPC   H6R 4758   2.100   3.133   6.543 -0.1543  0.0192 -1.3789
   61SAPC   C27 4759   1.942   3.036   6.418  0.4376  0.5123 -0.0569
   61SAPC   H7R 4760   1.877   2.946   6.429  0.5307  0.5135  0.5516
   61SAPC   H7S 4761   2.021   2.999   6.349 -0.1525  2.1798 -1.6740
   61SAPC   C28 4762   1.868   3.149   6.351 -0.0435 -0.6647 -0.0263
   61SAPC   H8R 4763   1.836   3.230   6.418 -0.0619  0.7530 -1.7011
   61SAPC   C29 4764   1.824   3.154   6.228 -0.6461 -0.3789  0.6956
   61SAPC   H9R 4765   1.768   3.242   6.192  0.9163  0.6010  0.5644
   61SAPC  C210 4766   1.855   3.045   6.124  0.0665  0.2093  0.6181
   61SAPC  H10R 4767   1.757   3.013   6.080 -0.0382  1.0754  0.1923
   61SAPC  H10S 4768   1.904   2.952   6.160  1.0047  0.1825 -0.6546
   61SAPC  C211 4769   1.946   3.110   6.024 -0.4007 -0.2182 -0.7167
   61SAPC  H11R 4770   2.047   3.124   6.065 -0.9296 -0.9564  0.9137
   61SAPC  C212 4771   1.919   3.131   5.900  0.5450 -0.4135 -0.5082
   61SAPC  H12R 4772   2.000   3.176   5.840  1.0058 -0.6116 -0.0428
   61SAPC  C213 4773   1.787   3.105   5.833  0.7519  0.4492  0.5224
   61SAPC  H13R 4774   1.724   3.194   5.852 -1.5387 -0.0446 -3.5746
   61SAPC  H13S 4775   1.748   3.016   5.887  0.9418  0.4731  0.6995
   61SAPC  C214 4776   1.806   3.099   5.688 -0.3514  1.1149  0.4527
   61SAPC  H14R 4777   1.885   3.166   5.650 -0.3131  1.0393  0.4001
   61SAPC  C215 4778   1.727   3.030   5.600 -0.4423 -0.6494  0.2527
   61SAPC  H15R 4779   1.763   3.021   5.496  3.3503 -1.3637  1.4856
   61SAPC  C216 4780   1.609   2.945   5.642 -0.4024  0.4400  0.4589
   61SAPC  H16R 4781   1.630   2.913   5.746  1.5817 -1.4758 -0.4550
   61SAPC  H16S 4782   1.608   2.850   5.585  3.6616 -0.5106  1.6577
   61SAPC  C217 4783   1.475   3.016   5.611 -0.2554 -0.6859 -0.0701
   61SAPC  H17R 4784   1.459   3.096   5.687 -3.3708 -0.9250 -0.3259
   61SAPC  H17S 4785   1.391   2.947   5.634  0.7182 -2.0061 -0.3432
   61SAPC  C218 4786   1.450   3.069   5.467 -0.1663 -0.3319  0.4117
   61SAPC  H18R 4787   1.544   3.121   5.441 -0.5182 -0.0053 -0.2058
   61SAPC  H18S 4788   1.372   3.148   5.471 -1.4689 -1.4735 -1.2963
   61SAPC  C219 4789   1.387   2.967   5.367  1.1401 -0.3425 -0.0281
   61SAPC  H19R 4790   1.353   3.029   5.282  1.4217  1.2601  0.9667
   61SAPC  H19S 4791   1.304   2.911   5.415 -1.3337  0.5185 -2.9993
   61SAPC  C220 4792   1.483   2.868   5.307  0.6234  0.6066 -0.0339
   61SAPC  H20R 4793   1.438   2.814   5.220  0.4878  0.9738 -0.1922
   61SAPC  H20S 4794   1.522   2.801   5.386 -3.0638  0.7644  2.0968
   61SAPC  H20T 4795   1.569   2.927   5.267  2.7222 -1.9736  0.3462
   61SAPC   C33 4796   1.711   2.006   6.641  0.4344 -0.1783  0.0036
   61SAPC   H3X 4797   1.788   1.929   6.663  1.5668  1.0977  0.6833
   61SAPC   H3Y 4798   1.768   2.100   6.626 -1.5208  1.0637 -0.1051
   61SAPC   C34 4799   1.647   1.987   6.503 -0.4553  0.3481 -0.1167
   61SAPC   H4X 4800   1.572   2.067   6.483 -2.3617 -1.8666 -2.4876
   61SAPC   H4Y 4801   1.590   1.892   6.499  1.7691 -1.0850  0.2301
   61SAPC   C35 4802   1.750   1.985   6.388 -0.0028 -0.0164 -0.1584
   61SAPC   H5X 4803   1.833   1.913   6.406 -0.2695 -0.5760 -1.1025
   61SAPC   H5Y 4804   1.800   2.084   6.380  2.4162 -1.3191 -2.7713
   61SAPC   C36 4805   1.675   1.961   6.254 -0.2026 -0.5944  0.0567
   61SAPC   H6X 4806   1.606   2.046   6.238 -1.5829 -1.9927 -1.9272
   61SAPC   H6Y 4807   1.617   1.868   6.270 -0.9188  0.1849  2.3988
   61SAPC   C37 4808   1.781   1.940   6.143  0.5527 -0.5186 -0.2189
   61SAPC   H7X 4809   1.864   1.872   6.173  0.2958 -2.2083 -3.0076
   61SAPC   H7Y 4810   1.831   2.035   6.114 -1.0547 -0.0674 -1.7215
   61SAPC   C38 4811   1.710   1.878   6.017  0.0899  0.1370  0.0517
   61SAPC   H8X 4812   1.678   1.778   6.054  0.1447  0.6000  1.4192
   61SAPC   H8Y 4813   1.794   1.868   5.946  0.9192 -1.8558  1.2254
   61SAPC   C39 4814   1.590   1.953   5.958  0.0891 -0.1497  0.1946
   61SAPC   H9X 4815   1.518   1.957   6.043 -0.7404 -0.7980 -0.4666
   61SAPC   H9Y 4816   1.533   1.899   5.879 -1.1499  0.9940  0.2784
   61SAPC  C310 4817   1.627   2.093   5.900  0.5528  0.3267 -0.3206
   61SAPC  H10X 4818   1.670   2.160   5.977 -0.9202 -0.4850  1.2574
   61SAPC  H10Y 4819   1.528   2.138   5.877  0.7455  0.3265 -1.2189
   61SAPC  C311 4820   1.708   2.090   5.773 -0.1653  0.2112  0.4001
   61SAPC  H11X 4821   1.647   2.060   5.685  1.8695 -0.7771 -0.7490
   61SAPC  H11Y 4822   1.778   2.003   5.773  0.4805  0.4918 -4.0411
   61SAPC  C312 4823   1.782   2.222   5.749  0.0656 -0.0894 -0.1294
   61SAPC  H12X 4824   1.867   2.221   5.819 -0.4064 -3.0706  0.5455
   61SAPC  H12Y 4825   1.716   2.310   5.764 -0.5737 -1.1053  4.3447
   61SAPC  C313 4826   1.837   2.234   5.605  0.8872  0.8194  0.3621
   61SAPC  H13X 4827   1.899   2.143   5.591  0.1635  0.4399 -0.4733
   61SAPC  H13Y 4828   1.903   2.323   5.601 -0.2225  1.6562 -0.0801
   61SAPC  C314 4829   1.725   2.266   5.494  0.2756 -0.1215  0.2530
   61SAPC  H14X 4830   1.652   2.323   5.556 -0.3632 -0.9272  0.2669
   61SAPC  H14Y 4831   1.678   2.169   5.466  0.8779 -0.3158 -0.0902
   61SAPC  C315 4832   1.786   2.342   5.379  0.4740 -0.0389  0.7116
   61SAPC  H15X 4833   1.835   2.267   5.313  2.2431  0.0875  1.8051
   61SAPC  H15Y 4834   1.860   2.415   5.419  0.5272  0.6631 -0.6175
   61SAPC  C316 4835   1.685   2.397   5.279  0.2045 -0.0545 -0.6039
   61SAPC  H16X 4836   1.644   2.492   5.320  1.2157  0.1823 -0.0976
   61SAPC  H16Y 4837   1.605   2.322   5.264 -1.5648  1.4764  0.7275
   61SAPC  C317 4838   1.746   2.429   5.142  0.3470 -0.8823  0.5500
   61SAPC  H17X 4839   1.808   2.348   5.096  0.4955 -0.5836  0.2154
   61SAPC  H17Y 4840   1.814   2.517   5.141 -1.0855  0.3430  3.1082
   61SAPC  C318 4841   1.632   2.477   5.044  0.3512  0.5036 -0.4131
   61SAPC  H18X 4842   1.560   2.392   5.041 -1.2128  1.7069  0.9243
   61SAPC  H18Y 4843   1.665   2.503   4.941  1.5934 -0.5158 -0.3045
   61SAPC  H18Z 4844   1.570   2.559   5.086 -1.2156 -2.1316  2.8382
   62SAPC     N 4845   3.619   0.360   7.552 -0.8074  0.3278  0.4867
   62SAPC   C12 4846   3.621   0.305   7.407  0.5881  0.7656 -0.6314
   62SAPC  H12A 4847   3.523   0.261   7.391  0.8075  0.8932 -2.6179
   62SAPC  H12B 4848   3.696   0.228   7.399 -0.3127  0.0166 -2.5458
   62SAPC   C13 4849   3.584   0.253   7.645 -0.0523 -0.2754 -0.0199
   62SAPC  H13A 4850   3.660   0.176   7.640 -0.2731 -0.8002  2.8812
   62SAPC  H13B 4851   3.578   0.287   7.748  0.4170 -1.0644  0.2755
   62SAPC  H13C 4852   3.487   0.211   7.622 -0.2473  0.1390  0.0386
   62SAPC   C14 4853   3.764   0.406   7.579  0.1032 -1.0532  0.3698
   62SAPC  H14A 4854   3.765   0.459   7.673 -2.8374  1.2077 -0.6969
   62SAPC  H14B 4855   3.839   0.329   7.582  1.4484  0.2177  0.6574
   62SAPC  H14C 4856   3.785   0.494   7.520 -0.2812  1.3701  3.5569
   62SAPC   C15 4857   3.525   0.478   7.560  0.5356  0.0375  0.6829
   62SAPC  H15A 4858   3.515   0.514   7.661 -0.6547  0.6334  0.3692
   62SAPC  H15B 4859   3.548   0.564   7.499  0.8788 -1.0978 -0.8525
   62SAPC  H15C 4860   3.423   0.451   7.536  0.5940  0.0092  0.4634
   62SAPC   C11 4861   3.648   0.396   7.289 -0.7648 -0.5203  0.3318
   62SAPC  H11A 4862   3.585   0.488   7.291  0.1084  0.1697  4.2632
   62SAPC  H11B 4863   3.614   0.339   7.200  0.2762 -0.6008 -0.0333
   62SAPC     P 4864   3.889   0.329   7.225 -0.2932  0.1871  0.4670
   62SAPC   O13 4865   4.023   0.392   7.219  0.4729 -0.0530 -0.2365
   62SAPC   O14 4866   3.874   0.200   7.288  0.1258 -0.2352 -0.5391
   62SAPC   O12 4867   3.783   0.428   7.283  0.0597 -0.1262  0.4277
   62SAPC   O11 4868   3.837   0.313   7.072  0.1769 -0.2412  0.8447
   62SAPC    C1 4869   3.830   0.422   6.986 -0.2062 -0.6389  0.7803
   62SAPC    HA 4870   3.725   0.458   6.974  0.6127  2.1985  1.4888
   62SAPC    HB 4871   3.888   0.508   7.026 -0.1889  0.3528 -1.2294
   62SAPC    C2 4872   3.878   0.381   6.840  0.9540  0.7342  0.2955
   62SAPC    HS 4873   3.983   0.414   6.827  2.7893 -3.6155  2.1229
   62SAPC   O21 4874   3.794   0.442   6.730  0.4772 -0.1535 -0.4207
   62SAPC   C21 4875   3.821   0.563   6.694  0.1186  0.0003  0.8686
   62SAPC   O22 4876   3.919   0.633   6.729 -0.1676  0.4437 -1.0151
   62SAPC   C22 4877   3.719   0.609   6.592  0.1685 -0.1057 -0.6651
   62SAPC   H2R 4878   3.742   0.552   6.500 -0.6963 -1.2239 -0.2128
   62SAPC   H2S 4879   3.617   0.576   6.622 -1.1018  1.9295 -2.3414
   62SAPC    C3 4880   3.874   0.229   6.817  0.1436 -0.2622 -0.3175
   62SAPC    HX 4881   3.767   0.200   6.817  0.0963 -0.0920 -0.1128
   62SAPC    HY 4882   3.923   0.176   6.901  0.5715  1.2427  0.4128
   62SAPC   O31 4883   3.902   0.190   6.687 -0.2146 -0.2998 -0.6000
   62SAPC   C31 4884   4.035   0.177   6.672  1.1060  0.6388 -0.0437
   62SAPC   O32 4885   4.119   0.194   6.759 -0.0239 -0.7196  0.4473
   62SAPC   C32 4886   4.068   0.150   6.530  0.0843 -0.3832 -0.5701
   62SAPC   H2X 4887   4.179   0.147   6.522  0.3016  3.9760 -1.6124
   62SAPC   H2Y 4888   4.066   0.250   6.482  1.0774 -0.5584 -0.9853
   62SAPC   C23 4889   3.728   0.764   6.561  0.1763  0.1555 -0.0772
   62SAPC   H3R 4890   3.819   0.795   6.506 -0.3714 -0.2458 -1.2571
   62SAPC   H3S 4891   3.724   0.811   6.661  0.4378  0.4352 -0.1979
   62SAPC   C24 4892   3.607   0.818   6.476  1.0071 -0.0034 -1.3842
   62SAPC   H4R 4893   3.603   0.924   6.444  3.5077  0.4173 -0.5437
   62SAPC   H4S 4894   3.521   0.805   6.545  2.9918 -1.2439  1.0471
   62SAPC   C25 4895   3.608   0.741   6.341  0.2199 -0.4378 -0.6202
   62SAPC   H5R 4896   3.572   0.638   6.352 -1.4275  0.3558  2.5177
   62SAPC   C26 4897   3.653   0.791   6.232 -0.4277  0.0330  0.1203
   62SAPC   H6R 4898   3.632   0.728   6.144 -1.6840 -0.3845  0.7008
   62SAPC   C27 4899   3.708   0.927   6.203 -1.0242  0.5480  0.2976
   62SAPC   H7R 4900   3.660   1.007   6.263  2.8081  1.0608  3.0526
   62SAPC   H7S 4901   3.711   0.945   6.093 -1.1700  1.8949  0.5079
   62SAPC   C28 4902   3.852   0.930   6.246 -0.3106 -0.5822  0.4184
   62SAPC   H8R 4903   3.893   0.864   6.324  0.9833  0.1628  0.4085
   62SAPC   C29 4904   3.951   1.011   6.191  0.2775  0.4403  0.4127
   62SAPC   H9R 4905   4.051   1.009   6.238  0.1635 -0.1426  0.6507
   62SAPC  C210 4906   3.931   1.111   6.078  0.0170 -0.0147 -0.4611
   62SAPC  H10R 4907   3.975   1.199   6.130  1.3855 -0.8131 -0.2408
   62SAPC  H10S 4908   3.823   1.136   6.063 -0.4277 -0.9988  1.0070
   62SAPC  C211 4909   4.010   1.088   5.954  0.1421 -0.2535 -0.5830
   62SAPC  H11R 4910   3.954   1.030   5.879  0.4209 -0.5613 -0.5578
   62SAPC  C212 4911   4.140   1.128   5.934  0.6443  0.5240  0.2590
   62SAPC  H12R 4912   4.194   1.090   5.845 -0.1940 -0.4066  0.1335
   62SAPC  C213 4913   4.230   1.213   6.022  0.8121  0.0576  0.6054
   62SAPC  H13R 4914   4.229   1.154   6.116  0.1197 -1.7603 -0.5031
   62SAPC  H13S 4915   4.190   1.316   6.039 -0.0086 -0.1296 -0.1172
   62SAPC  C214 4916   4.379   1.223   5.984 -0.0341 -0.0368 -0.0100
   62SAPC  H14R 4917   4.395   1.201   5.878  0.5875 -1.3746  0.3416
   62SAPC  C215 4918   4.482   1.256   6.068  0.6195 -0.2584 -0.9334
   62SAPC  H15R 4919   4.587   1.260   6.036  1.6827 -0.2223  2.1998
   62SAPC  C216 4920   4.466   1.301   6.210 -0.0370 -0.2338 -0.6645
   62SAPC  H16R 4921   4.543   1.251   6.273 -0.3696  0.0229 -0.0485
   62SAPC  H16S 4922   4.373   1.272   6.263  0.3482  0.1538  0.2442
   62SAPC  C217 4923   4.485   1.454   6.228 -0.1707 -0.3398 -0.5952
   62SAPC  H17R 4924   4.586   1.492   6.204 -0.1788  0.6756  0.8760
   62SAPC  H17S 4925   4.488   1.470   6.338  1.4341  1.0376 -0.7935
   62SAPC  C218 4926   4.374   1.533   6.163 -0.1482 -0.3827  0.4202
   62SAPC  H18R 4927   4.275   1.483   6.172 -0.6279  0.1239 -1.5038
   62SAPC  H18S 4928   4.383   1.536   6.052 -2.0234 -2.5954  0.1441
   62SAPC  C219 4929   4.354   1.670   6.232 -0.0407  0.1054 -0.4338
   62SAPC  H19R 4930   4.352   1.655   6.342 -2.3328 -0.7921 -0.5419
   62SAPC  H19S 4931   4.261   1.713   6.190 -0.0182 -1.8697 -2.7584
   62SAPC  C220 4932   4.467   1.773   6.196 -0.8624  0.8623 -0.3769
   62SAPC  H20R 4933   4.453   1.789   6.087 -2.8549  0.4337 -0.2256
   62SAPC  H20S 4934   4.570   1.738   6.216 -1.3763 -1.1893 -1.0758
   62SAPC  H20T 4935   4.447   1.862   6.259 -1.3707 -0.5119  1.5095
   62SAPC   C33 4936   3.989   0.036   6.452 -0.0170 -0.2676  1.3228
   62SAPC   H3X 4937   3.884   0.072   6.443  0.0807 -0.3824 -0.6942
   62SAPC   H3Y 4938   3.998  -0.056   6.514 -2.6165 -2.1756 -0.9268
   62SAPC   C34 4939   4.037   0.007   6.306  0.0057 -0.0633 -0.0597
   62SAPC   H4X 4940   4.010  -0.096   6.275 -0.7924 -0.0423  0.5479
   62SAPC   H4Y 4941   4.148   0.001   6.306 -0.0261 -0.7892 -1.0014
   62SAPC   C35 4942   3.986   0.103   6.192 -0.0269  0.3913 -0.0763
   62SAPC   H5X 4943   4.023   0.204   6.219 -0.7705  0.0897  2.2913
   62SAPC   H5Y 4944   3.875   0.107   6.193 -0.0492  0.9617 -1.8552
   62SAPC   C36 4945   4.043   0.068   6.051  0.1359 -0.0386 -0.9646
   62SAPC   H6X 4946   4.032  -0.039   6.025 -1.0175  0.3807 -2.3466
   62SAPC   H6Y 4947   4.154   0.082   6.056  0.0054  0.7776  0.4768
   62SAPC   C37 4948   3.990   0.148   5.933  0.4896  0.4073  0.7522
   62SAPC   H7X 4949   3.994   0.258   5.951 -0.6959  0.3985  1.1527
   62SAPC   H7Y 4950   3.885   0.116   5.922  1.7245 -3.4622 -1.9761
   62SAPC   C38 4951   4.051   0.105   5.799  0.1307  0.9635 -0.4612
   62SAPC   H8X 4952   4.026  -0.003   5.787 -3.2932  1.6624 -0.5071
   62SAPC   H8Y 4953   4.162   0.113   5.804  0.4931 -2.7679  1.7391
   62SAPC   C39 4954   4.028   0.185   5.673  0.5245 -0.3376  0.0610
   62SAPC   H9X 4955   4.110   0.151   5.606 -0.0795 -0.5960 -0.5562
   62SAPC   H9Y 4956   4.045   0.293   5.689  1.8646 -0.8131  2.3312
   62SAPC  C310 4957   3.892   0.162   5.614  0.1280  0.2686 -0.3203
   62SAPC  H10X 4958   3.823   0.207   5.689  0.4013  0.1508  0.0024
   62SAPC  H10Y 4959   3.867   0.054   5.607 -1.0015  0.6085 -2.0655
   62SAPC  C311 4960   3.866   0.233   5.481 -0.4944  0.2797  0.7160
   62SAPC  H11X 4961   3.758   0.237   5.454 -0.5166  0.7101  0.8516
   62SAPC  H11Y 4962   3.912   0.171   5.401 -0.5013 -1.5970  2.1250
   62SAPC  C312 4963   3.916   0.373   5.491  0.0069 -0.8091 -0.3812
   62SAPC  H12X 4964   4.027   0.378   5.491  0.0055 -0.2500  1.1473
   62SAPC  H12Y 4965   3.871   0.413   5.585 -1.8876  2.3342 -2.4565
   62SAPC  C313 4966   3.885   0.463   5.367 -0.0175  0.1642  0.6344
   62SAPC  H13X 4967   3.813   0.538   5.405 -0.2815 -0.3785  1.2295
   62SAPC  H13Y 4968   3.830   0.394   5.298  1.0926 -2.6344  2.3714
   62SAPC  C314 4969   4.000   0.540   5.296  0.3616  0.5330 -0.2728
   62SAPC  H14X 4970   4.081   0.466   5.276  0.1150 -0.5385  2.2585
   62SAPC  H14Y 4971   4.036   0.611   5.373  2.2075 -0.6863  0.0394
   62SAPC  C315 4972   3.964   0.617   5.167  0.4993  0.0114 -0.5383
   62SAPC  H15X 4973   3.950   0.725   5.190 -2.0554 -0.5901  0.9782
   62SAPC  H15Y 4974   3.865   0.592   5.124 -0.4519  1.4346  0.7131
   62SAPC  C316 4975   4.071   0.598   5.049 -0.2462 -0.5278 -0.1024
   62SAPC  H16X 4976   4.061   0.492   5.018 -2.0888 -0.0130 -1.4070
   62SAPC  H16Y 4977   4.175   0.625   5.078  0.5933 -1.5236 -2.0199
   62SAPC  C317 4978   4.036   0.695   4.939  0.4017  0.2762 -0.1889
   62SAPC  H17X 4979   4.032   0.800   4.974  0.0702 -0.1822  1.1774
   62SAPC  H17Y 4980   3.939   0.671   4.890  0.4225  0.4667 -0.3280
   62SAPC  C318 4981   4.133   0.678   4.814  0.0253  0.1772 -0.1544
   62SAPC  H18X 4982   4.109   0.764   4.747 -0.4899  0.9857  1.0352
   62SAPC  H18Y 4983   4.115   0.582   4.760  0.1849 -0.4125  0.8285
   62SAPC  H18Z 4984   4.238   0.676   4.848  0.0695 -0.9437 -0.3042
   63SAPC     N 4985   3.642   3.346   7.599 -0.1934  0.0675 -0.6525
   63SAPC   C12 4986   3.695   3.339   7.460  0.2969 -0.6755 -0.1548
   63SAPC  H12A 4987   3.645   3.413   7.399 -0.2571  1.6076  2.8863
   63SAPC  H12B 4988   3.675   3.236   7.433 -2.6150  0.1955 -1.7081
   63SAPC   C13 4989   3.661   3.482   7.646  0.3372 -0.0759 -0.3248
   63SAPC  H13A 4990   3.583   3.543   7.604 -0.1704 -0.7142 -0.3125
   63SAPC  H13B 4991   3.663   3.489   7.754 -1.4431 -0.5237 -0.2402
   63SAPC  H13C 4992   3.746   3.536   7.605 -0.1692  1.9223  1.0753
   63SAPC   C14 4993   3.493   3.320   7.608 -0.3103  0.0492  0.3042
   63SAPC  H14A 4994   3.476   3.216   7.583  1.6733 -0.0560 -0.8275
   63SAPC  H14B 4995   3.466   3.348   7.709 -0.5882 -0.5918  0.4119
   63SAPC  H14C 4996   3.434   3.382   7.543 -0.5141 -1.4842 -1.0463
   63SAPC   C15 4997   3.708   3.251   7.692 -0.0921  0.2494 -0.4849
   63SAPC  H15A 4998   3.816   3.250   7.691 -0.0403 -0.0911  1.3585
   63SAPC  H15B 4999   3.670   3.265   7.792 -1.0698 -0.4418 -0.7389
   63SAPC  H15C 5000   3.692   3.147   7.668  0.7068  0.4200 -1.8920
   63SAPC   C11 5001   3.849   3.368   7.438 -0.2187  0.3259  0.8098
   63SAPC  H11A 5002   3.888   3.317   7.348 -0.6861  1.6768 -0.1876
   63SAPC  H11B 5003   3.908   3.333   7.526 -0.2976  2.5497  1.8027
   63SAPC     P 5004   3.886   3.599   7.311  0.0399  0.3125 -0.2485
   63SAPC   O13 5005   3.755   3.604   7.242  0.3227  0.4366  0.2244
   63SAPC   O14 5006   3.923   3.724   7.363 -0.4474 -0.0212 -0.1230
   63SAPC   O12 5007   3.874   3.508   7.439 -0.1365  0.3249  0.3963
   63SAPC   O11 5008   3.996   3.532   7.214  0.2553 -0.5407 -1.0592
   63SAPC    C1 5009   4.125   3.528   7.275 -0.2696 -0.1059  0.7537
   63SAPC    HA 5010   4.155   3.624   7.322 -0.7212  0.2150  0.3922
   63SAPC    HB 5011   4.105   3.454   7.355 -1.8568 -0.2866  0.2163
   63SAPC    C2 5012   4.235   3.487   7.169  0.6902  0.1068 -0.3861
   63SAPC    HS 5013   4.336   3.486   7.215 -0.5388 -1.1001  2.5595
   63SAPC   O21 5014   4.229   3.577   7.059  0.4085  0.2067 -0.0020
   63SAPC   C21 5015   4.283   3.691   7.077 -0.1987 -0.8742 -0.3055
   63SAPC   O22 5016   4.345   3.730   7.173 -0.7714  0.1832 -0.1173
   63SAPC   C22 5017   4.279   3.772   6.942 -0.2587 -0.1701  0.0879
   63SAPC   H2R 5018   4.275   3.699   6.859 -0.6338  1.4702 -1.4038
   63SAPC   H2S 5019   4.184   3.830   6.950 -0.1005  0.7752 -3.3232
   63SAPC    C3 5020   4.202   3.341   7.115  0.0071 -0.3659  0.1205
   63SAPC    HX 5021   4.093   3.343   7.099  0.0664  0.3554 -0.2160
   63SAPC    HY 5022   4.214   3.265   7.196 -2.6399 -0.0577  0.8705
   63SAPC   O31 5023   4.269   3.316   6.989  0.3541  1.1753 -0.1285
   63SAPC   C31 5024   4.378   3.242   7.000 -0.3414 -0.1220  1.1202
   63SAPC   O32 5025   4.424   3.205   7.103  0.4714 -0.2564  0.2699
   63SAPC   C32 5026   4.422   3.198   6.861  0.4237  0.0202  0.0184
   63SAPC   H2X 5027   4.356   3.260   6.797 -1.3626 -0.7325  1.0388
   63SAPC   H2Y 5028   4.401   3.089   6.854 -3.4572  0.6137  0.4131
   63SAPC   C23 5029   4.410   3.861   6.924  0.2550  0.1639  0.1590
   63SAPC   H3R 5030   4.420   3.940   7.002  3.1214  0.3411 -0.3096
   63SAPC   H3S 5031   4.379   3.909   6.829 -0.9682  0.8402  0.8644
   63SAPC   C24 5032   4.536   3.774   6.908  0.6339  0.5716  0.0173
   63SAPC   H4R 5033   4.518   3.677   6.857  2.2935  1.7713 -3.1373
   63SAPC   H4S 5034   4.571   3.745   7.009  0.7912 -1.3779 -0.5652
   63SAPC   C25 5035   4.639   3.844   6.820 -0.2586  0.0548  0.1756
   63SAPC   H5R 5036   4.710   3.909   6.873  1.2611 -1.6287  0.2539
   63SAPC   C26 5037   4.653   3.815   6.690 -0.1089  0.1385  0.1597
   63SAPC   H6R 5038   4.743   3.857   6.643  1.6371 -1.2208  2.1392
   63SAPC   C27 5039   4.569   3.720   6.607 -0.4209  0.1443 -0.7507
   63SAPC   H7R 5040   4.529   3.635   6.667 -0.6039  1.2055  0.6757
   63SAPC   H7S 5041   4.636   3.670   6.534  0.4706 -0.7679  0.6447
   63SAPC   C28 5042   4.450   3.792   6.546 -0.4796 -0.9542 -0.3049
   63SAPC   H8R 5043   4.423   3.881   6.606 -0.4893 -1.2068  0.0706
   63SAPC   C29 5044   4.411   3.795   6.415 -0.7687 -0.1498 -0.4572
   63SAPC   H9R 5045   4.332   3.866   6.386 -0.5437  1.4665  2.4530
   63SAPC  C210 5046   4.452   3.694   6.314  0.2065 -0.5506 -0.0982
   63SAPC  H10R 5047   4.359   3.669   6.259 -0.4288 -1.1372  1.1918
   63SAPC  H10S 5048   4.493   3.608   6.370 -0.3093  0.2459  1.5817
   63SAPC  C211 5049   4.542   3.770   6.223  0.3652  0.1622  0.2361
   63SAPC  H11R 5050   4.611   3.830   6.283 -0.2659  0.3892  0.7453
   63SAPC  C212 5051   4.556   3.765   6.088 -0.1319 -1.0041 -0.4191
   63SAPC  H12R 5052   4.622   3.843   6.047 -0.3034  0.0259  1.1756
   63SAPC  C213 5053   4.482   3.673   5.990 -0.1946 -0.5334 -0.3127
   63SAPC  H13R 5054   4.408   3.604   6.037  0.1569 -0.5948  0.1623
   63SAPC  H13S 5055   4.566   3.615   5.947  1.3737  1.6173 -0.2695
   63SAPC  C214 5056   4.404   3.744   5.884  0.3645 -1.0093 -0.2441
   63SAPC  H14R 5057   4.309   3.798   5.901  0.0485 -1.4576 -0.5375
   63SAPC  C215 5058   4.440   3.730   5.752  0.0137 -0.0105 -0.0974
   63SAPC  H15R 5059   4.380   3.768   5.668  0.5992 -2.0489 -1.4986
   63SAPC  C216 5060   4.559   3.652   5.702 -0.1555  0.2597 -0.0660
   63SAPC  H16R 5061   4.562   3.541   5.695 -1.2591  0.2472 -0.5081
   63SAPC  H16S 5062   4.644   3.684   5.766 -1.1125 -0.2823  1.5162
   63SAPC  C217 5063   4.591   3.689   5.555 -0.2170 -0.6738 -0.0895
   63SAPC  H17R 5064   4.693   3.657   5.525 -0.8199 -2.3289 -0.4295
   63SAPC  H17S 5065   4.598   3.797   5.528  2.8487 -1.2659 -2.0991
   63SAPC  C218 5066   4.487   3.622   5.462 -0.1184 -0.7342  0.1865
   63SAPC  H18R 5067   4.384   3.661   5.478 -0.2779 -0.3116 -1.6063
   63SAPC  H18S 5068   4.489   3.515   5.491  2.1597 -0.5431  0.8825
   63SAPC  C219 5069   4.502   3.648   5.309 -0.1647 -0.1335 -0.2961
   63SAPC  H19R 5070   4.601   3.615   5.271 -0.4124  0.3354 -1.3850
   63SAPC  H19S 5071   4.508   3.755   5.280  4.3243 -0.2159 -0.3994
   63SAPC  C220 5072   4.394   3.590   5.219 -0.5688  0.2323 -1.0178
   63SAPC  H20R 5073   4.290   3.616   5.247 -0.1413  3.0762 -1.7823
   63SAPC  H20S 5074   4.400   3.479   5.229  2.6999  0.4020 -0.0756
   63SAPC  H20T 5075   4.408   3.617   5.112 -1.2977 -1.6457 -1.6470
   63SAPC   C33 5076   4.574   3.235   6.826  0.0260 -0.0669 -0.2127
   63SAPC   H3X 5077   4.630   3.180   6.904  1.4776  0.6644 -0.7078
   63SAPC   H3Y 5078   4.606   3.341   6.824  0.0889 -0.0961 -1.0322
   63SAPC   C34 5079   4.608   3.180   6.681 -0.1711 -0.2938  0.2622
   63SAPC   H4X 5080   4.563   3.078   6.676 -1.4527  0.2163  0.8357
   63SAPC   H4Y 5081   4.717   3.168   6.665  0.5200  3.6497  1.0712
   63SAPC   C35 5082   4.549   3.269   6.569 -0.2218  0.6365  0.1712
   63SAPC   H5X 5083   4.583   3.373   6.585 -1.3535  1.0368  0.1070
   63SAPC   H5Y 5084   4.438   3.269   6.560 -0.2328 -0.0168  0.2395
   63SAPC   C36 5085   4.606   3.235   6.428  0.5909 -0.4089  0.2680
   63SAPC   H6X 5086   4.716   3.221   6.427  0.5126 -1.2982 -2.4068
   63SAPC   H6Y 5087   4.590   3.322   6.362 -0.4628 -2.7735 -2.8129
   63SAPC   C37 5088   4.519   3.125   6.363  0.1436  0.2065  0.2875
   63SAPC   H7X 5089   4.415   3.164   6.353  0.8543  2.3298  0.5192
   63SAPC   H7Y 5090   4.524   3.037   6.430 -0.1878  1.3483  1.8800
   63SAPC   C38 5091   4.566   3.097   6.217  0.3351  0.1460  0.6695
   63SAPC   H8X 5092   4.503   3.009   6.190  2.0025 -1.0876  0.6739
   63SAPC   H8Y 5093   4.674   3.073   6.227  0.4676  0.8161  0.9184
   63SAPC   C39 5094   4.556   3.214   6.117 -0.4770 -0.0110  0.0452
   63SAPC   H9X 5095   4.616   3.299   6.154 -0.4912 -1.2177  3.1399
   63SAPC   H9Y 5096   4.450   3.249   6.111 -0.6291 -0.6842 -1.6951
   63SAPC  C310 5097   4.590   3.179   5.971 -0.2493 -0.2090 -0.6733
   63SAPC  H10X 5098   4.690   3.134   5.961  0.0047  0.3524 -0.7274
   63SAPC  H10Y 5099   4.604   3.274   5.915 -0.0694  1.7896  2.4574
   63SAPC  C311 5100   4.501   3.073   5.903  0.1386 -0.4264 -0.7211
   63SAPC  H11X 5101   4.393   3.090   5.923  0.7105  0.7379  1.7915
   63SAPC  H11Y 5102   4.532   2.974   5.942  0.3060 -0.6032 -1.2972
   63SAPC  C312 5103   4.524   3.083   5.747  0.7950 -0.4302 -0.6490
   63SAPC  H12X 5104   4.460   3.002   5.705  1.3959  0.0128 -2.4817
   63SAPC  H12Y 5105   4.628   3.049   5.732  0.8522 -1.3363  1.4638
   63SAPC  C313 5106   4.493   3.217   5.675 -0.2750  0.8424 -0.4513
   63SAPC  H13X 5107   4.517   3.311   5.728  3.9029  1.8782 -3.7250
   63SAPC  H13Y 5108   4.383   3.219   5.657 -0.5905 -0.9672  0.9633
   63SAPC  C314 5109   4.552   3.223   5.528 -0.3710 -0.1505 -0.4483
   63SAPC  H14X 5110   4.663   3.226   5.536 -0.4430  1.9579  0.2956
   63SAPC  H14Y 5111   4.522   3.320   5.483 -0.9518  1.3755  2.9086
   63SAPC  C315 5112   4.517   3.108   5.436 -0.2189 -0.8223 -0.3835
   63SAPC  H15X 5113   4.408   3.087   5.434 -0.6546  1.1984 -2.2335
   63SAPC  H15Y 5114   4.569   3.020   5.478  2.7339 -0.3104 -2.6046
   63SAPC  C316 5115   4.578   3.135   5.302  0.6594 -0.8672  0.4267
   63SAPC  H16X 5116   4.685   3.107   5.294  0.9830  0.2224  0.6805
   63SAPC  H16Y 5117   4.559   3.242   5.276  1.6064 -1.2293 -2.0040
   63SAPC  C317 5118   4.510   3.064   5.182  0.9104  0.7334 -0.2190
   63SAPC  H17X 5119   4.562   3.080   5.086  1.3202 -0.9563 -0.3106
   63SAPC  H17Y 5120   4.414   3.113   5.155  0.7665 -0.6020 -2.2943
   63SAPC  C318 5121   4.487   2.910   5.191 -0.3095 -0.7393  0.1135
   63SAPC  H18X 5122   4.508   2.864   5.092  1.5311 -0.5452  0.3782
   63SAPC  H18Y 5123   4.383   2.887   5.223 -0.2625 -0.7778  0.2396
   63SAPC  H18Z 5124   4.567   2.871   5.258  1.5595  2.9249  0.2464
   64SAPC     N 5125   3.522   6.016   7.727 -0.0300 -0.2749 -0.4336
   64SAPC   C12 5126   3.605   6.009   7.598 -0.5712 -0.1950  0.1224
   64SAPC  H12A 5127   3.708   6.040   7.607 -0.4529 -0.3103 -0.7501
   64SAPC  H12B 5128   3.559   6.091   7.543 -2.8733 -0.9676  0.7609
   64SAPC   C13 5129   3.379   5.988   7.702  0.0996  0.0095 -0.2607
   64SAPC  H13A 5130   3.333   6.073   7.654  2.4342  0.9523 -0.9926
   64SAPC  H13B 5131   3.365   5.913   7.626 -1.6507  0.8020 -0.7809
   64SAPC  H13C 5132   3.326   5.966   7.793  2.9698 -1.3687  1.2103
   64SAPC   C14 5133   3.552   5.906   7.817 -0.3577 -0.6240 -0.0796
   64SAPC  H14A 5134   3.507   5.919   7.914  1.1031 -1.8498  0.8081
   64SAPC  H14B 5135   3.528   5.810   7.773  1.4229 -1.6043  0.9595
   64SAPC  H14C 5136   3.657   5.900   7.840 -0.4690 -1.0971  0.3245
   64SAPC   C15 5137   3.540   6.145   7.803  1.0323 -0.1841 -0.2104
   64SAPC  H15A 5138   3.525   6.232   7.741  1.9883 -0.4604 -0.8640
   64SAPC  H15B 5139   3.474   6.139   7.888 -0.2823 -1.2320 -1.2781
   64SAPC  H15C 5140   3.643   6.148   7.835  0.6002 -1.4446  1.4571
   64SAPC   C11 5141   3.611   5.877   7.528 -0.3375  0.2929 -0.1068
   64SAPC  H11A 5142   3.509   5.861   7.488 -0.4160 -1.2824  0.6694
   64SAPC  H11B 5143   3.636   5.791   7.594  0.7376 -0.6979 -1.7161
   64SAPC     P 5144   3.847   5.835   7.438  0.1142 -0.0103  0.1744
   64SAPC   O13 5145   3.899   5.918   7.546  0.1536  0.1965 -0.7327
   64SAPC   O14 5146   3.862   5.689   7.446 -0.2269 -0.2016  0.2732
   64SAPC   O12 5147   3.701   5.880   7.417 -0.7395  0.0792 -0.4391
   64SAPC   O11 5148   3.920   5.890   7.318  0.3900 -0.1573 -0.0596
   64SAPC    C1 5149   3.854   5.943   7.199 -0.0983  0.1643 -0.1295
   64SAPC    HA 5150   3.787   6.028   7.225 -0.7181 -0.2645 -0.2948
   64SAPC    HB 5151   3.932   5.988   7.134  1.5633 -3.4678 -0.9242
   64SAPC    C2 5152   3.769   5.843   7.116  0.3158 -0.3362 -0.5876
   64SAPC    HS 5153   3.737   5.755   7.177  0.2534  0.0319 -0.0808
   64SAPC   O21 5154   3.851   5.793   7.009  0.2493 -0.4205 -1.2392
   64SAPC   C21 5155   3.799   5.698   6.937 -0.1660 -0.6725  0.9912
   64SAPC   O22 5156   3.701   5.630   6.973 -0.6714  0.1026  0.4596
   64SAPC   C22 5157   3.885   5.674   6.811 -0.0495  0.3188 -0.4800
   64SAPC   H2R 5158   3.911   5.770   6.761  3.4112 -1.7418 -3.0644
   64SAPC   H2S 5159   3.978   5.621   6.839 -0.5257 -1.3316 -1.8733
   64SAPC    C3 5160   3.647   5.922   7.055  0.0059  0.2843 -0.5318
   64SAPC    HX 5161   3.594   5.956   7.146  2.2048 -2.3527  1.8867
   64SAPC    HY 5162   3.578   5.857   6.996  1.0207 -0.8436 -0.5261
   64SAPC   O31 5163   3.696   6.041   6.981  0.1295  0.3245  0.4442
   64SAPC   C31 5164   3.716   6.021   6.854  1.1109  0.3189  0.1564
   64SAPC   O32 5165   3.679   5.922   6.788 -0.4040 -0.4336 -0.3988
   64SAPC   C32 5166   3.780   6.147   6.781 -0.6485  0.9270 -0.0186
   64SAPC   H2X 5167   3.780   6.238   6.845  0.3723  0.7809  0.1991
   64SAPC   H2Y 5168   3.720   6.170   6.691  0.7518  1.9783 -0.7154
   64SAPC   C23 5169   3.816   5.590   6.699 -0.1507  0.7214  0.0491
   64SAPC   H3R 5170   3.707   5.603   6.709 -0.4882 -1.6173  0.0364
   64SAPC   H3S 5171   3.828   5.482   6.726  1.9729  1.7601  4.1715
   64SAPC   C24 5172   3.871   5.597   6.555  0.3873  0.5702  0.0109
   64SAPC   H4R 5173   3.813   5.518   6.501 -1.8956  1.5366  0.9130
   64SAPC   H4S 5174   3.980   5.580   6.546 -0.0206 -2.0631 -0.7593
   64SAPC   C25 5175   3.825   5.734   6.503 -0.0556 -0.1383  0.5218
   64SAPC   H5R 5176   3.832   5.822   6.568 -0.1179 -0.6150  1.1858
   64SAPC   C26 5177   3.790   5.761   6.373 -0.1263 -0.2339 -0.1997
   64SAPC   H6R 5178   3.755   5.859   6.340  1.4422  0.3879 -0.0840
   64SAPC   C27 5179   3.778   5.652   6.262  0.4710  0.1329 -0.1200
   64SAPC   H7R 5180   3.674   5.650   6.222 -1.1080 -0.9523  3.6358
   64SAPC   H7S 5181   3.792   5.553   6.310  1.4371  0.8451  1.1360
   64SAPC   C28 5182   3.887   5.665   6.161  0.2027 -0.1292  0.5545
   64SAPC   H8R 5183   3.986   5.650   6.205 -0.1393 -1.0555  1.0230
   64SAPC   C29 5184   3.878   5.689   6.028  0.0084 -0.1689 -0.1386
   64SAPC   H9R 5185   3.970   5.698   5.968  0.4922 -0.8520  0.4731
   64SAPC  C210 5186   3.752   5.719   5.948  0.1045  0.4304  0.8111
   64SAPC  H10R 5187   3.790   5.806   5.890  3.5043 -0.7925  0.9668
   64SAPC  H10S 5188   3.668   5.757   6.010  0.0595  0.3841  0.7784
   64SAPC  C211 5189   3.708   5.610   5.856  1.1590  0.5665 -0.1972
   64SAPC  H11R 5190   3.738   5.511   5.893  0.4898  0.7881  0.9798
   64SAPC  C212 5191   3.624   5.620   5.746  0.1313 -0.3372  0.1066
   64SAPC  H12R 5192   3.599   5.527   5.693 -0.2199  0.1292 -0.5567
   64SAPC  C213 5193   3.601   5.754   5.675  0.2562  0.0822  0.0382
   64SAPC  H13R 5194   3.598   5.840   5.745  1.2918  0.2446 -0.0991
   64SAPC  H13S 5195   3.500   5.750   5.629 -0.2459 -1.4711  1.2184
   64SAPC  C214 5196   3.711   5.789   5.581 -0.0148 -0.0435  0.2890
   64SAPC  H14R 5197   3.791   5.849   5.627 -1.0481 -0.7425  3.2353
   64SAPC  C215 5198   3.718   5.744   5.450 -0.5726  0.3967 -0.6538
   64SAPC  H15R 5199   3.809   5.773   5.396  1.8230 -0.1400  2.7306
   64SAPC  C216 5200   3.618   5.660   5.380 -0.3161 -0.4182 -0.4540
   64SAPC  H16R 5201   3.550   5.618   5.456 -2.4365  1.7436 -1.0207
   64SAPC  H16S 5202   3.663   5.576   5.324  0.6383 -0.0042 -0.3259
   64SAPC  C217 5203   3.536   5.749   5.290  0.4622  0.1981  0.4935
   64SAPC  H17R 5204   3.512   5.841   5.347 -0.1499 -2.1296  4.3559
   64SAPC  H17S 5205   3.438   5.698   5.280  1.6403 -1.9151 -1.0995
   64SAPC  C218 5206   3.592   5.774   5.149  0.7861  0.2660  0.8782
   64SAPC  H18R 5207   3.701   5.789   5.156  0.8320  1.3935 -1.3934
   64SAPC  H18S 5208   3.546   5.865   5.105  1.7945  0.3216 -0.0786
   64SAPC  C219 5209   3.553   5.664   5.049  0.5342  0.5114  0.1999
   64SAPC  H19R 5210   3.575   5.563   5.090 -0.0765 -0.0188 -0.7422
   64SAPC  H19S 5211   3.602   5.671   4.950 -2.1376 -0.6162 -1.3194
   64SAPC  C220 5212   3.409   5.671   5.013  0.1891  0.5243 -0.4951
   64SAPC  H20R 5213   3.395   5.596   4.933 -1.9908 -0.3182  0.6139
   64SAPC  H20S 5214   3.399   5.770   4.963  1.3165  1.1615  0.4928
   64SAPC  H20T 5215   3.329   5.658   5.089 -1.3826 -1.8322 -2.4291
   64SAPC   C33 5216   3.924   6.111   6.732 -0.7464 -0.1637  0.4277
   64SAPC   H3X 5217   3.943   6.021   6.669  0.6029  0.3213  0.1054
   64SAPC   H3Y 5218   3.977   6.099   6.829  0.6373 -0.5430 -0.3419
   64SAPC   C34 5219   3.988   6.245   6.666 -0.3944 -0.6843 -0.6054
   64SAPC   H4X 5220   4.093   6.223   6.638 -0.8431 -2.8218 -0.8048
   64SAPC   H4Y 5221   3.978   6.318   6.749 -0.1630  0.7857 -1.8218
   64SAPC   C35 5222   3.921   6.298   6.543 -0.0317  0.6277  0.2889
   64SAPC   H5X 5223   3.988   6.373   6.496  1.4073 -0.5837  0.3616
   64SAPC   H5Y 5224   3.824   6.345   6.570 -0.6092  0.1992 -0.9551
   64SAPC   C36 5225   3.885   6.196   6.421 -0.0733  0.0483  0.3464
   64SAPC   H6X 5226   3.809   6.126   6.460 -0.9571  1.3080  0.9667
   64SAPC   H6Y 5227   3.974   6.134   6.399  0.0164  0.3557 -0.1527
   64SAPC   C37 5228   3.841   6.263   6.293 -0.3573 -0.0882  0.5070
   64SAPC   H7X 5229   3.904   6.353   6.279 -2.9465  1.6660 -0.5626
   64SAPC   H7Y 5230   3.739   6.306   6.307  0.5083  2.1018  0.4453
   64SAPC   C38 5231   3.835   6.163   6.177  0.3474 -0.3646  0.8860
   64SAPC   H8X 5232   3.768   6.076   6.195  0.5649 -1.0398 -1.2654
   64SAPC   H8Y 5233   3.931   6.113   6.152  1.7081  1.1129  2.8434
   64SAPC   C39 5234   3.786   6.237   6.053  1.1012  0.0489  0.6504
   64SAPC   H9X 5235   3.871   6.295   6.014  1.1380 -0.3777  0.0956
   64SAPC   H9Y 5236   3.700   6.303   6.080 -0.5688 -1.8479  0.2185
   64SAPC  C310 5237   3.742   6.153   5.934  0.3517 -0.5399 -0.5172
   64SAPC  H10X 5238   3.661   6.085   5.968 -0.6043  0.1298 -1.3733
   64SAPC  H10Y 5239   3.824   6.089   5.895  2.1087  0.6022  1.1513
   64SAPC  C311 5240   3.691   6.238   5.820 -0.2020 -0.2886  0.4335
   64SAPC  H11X 5241   3.781   6.297   5.794  1.0492 -1.9188  0.8704
   64SAPC  H11Y 5242   3.602   6.299   5.847  0.1171  0.2067  0.3673
   64SAPC  C312 5243   3.660   6.170   5.689 -0.5318  0.2167 -1.0238
   64SAPC  H12X 5244   3.570   6.106   5.700 -0.2292 -0.2100 -1.0191
   64SAPC  H12Y 5245   3.741   6.097   5.669 -0.7591 -0.3630  0.0982
   64SAPC  C313 5246   3.656   6.261   5.567  0.3164 -0.0181  0.7118
   64SAPC  H13X 5247   3.758   6.302   5.551  0.2850  0.1455  0.9262
   64SAPC  H13Y 5248   3.582   6.343   5.579  1.0955  0.5467  1.8444
   64SAPC  C314 5249   3.622   6.183   5.443  0.1560  0.2456 -0.0344
   64SAPC  H14X 5250   3.670   6.084   5.460  0.2471  0.1369 -0.9234
   64SAPC  H14Y 5251   3.659   6.240   5.356  0.6916  0.7301  0.5030
   64SAPC  C315 5252   3.473   6.161   5.414  0.2862  0.8317 -0.0610
   64SAPC  H15X 5253   3.425   6.129   5.509  0.5395  0.3317 -0.1009
   64SAPC  H15Y 5254   3.469   6.079   5.339 -1.6501 -0.9900  1.9116
   64SAPC  C316 5255   3.393   6.285   5.360  0.3740  0.0495 -0.3572
   64SAPC  H16X 5256   3.455   6.322   5.276  1.2806 -1.9519 -0.6191
   64SAPC  H16Y 5257   3.392   6.361   5.441  1.4773 -1.4041  1.1037
   64SAPC  C317 5258   3.246   6.265   5.306 -0.1653 -0.7523  0.4894
   64SAPC  H17X 5259   3.224   6.373   5.291  1.2568 -0.4980  0.0730
   64SAPC  H17Y 5260   3.178   6.218   5.381 -2.5659 -0.3984 -1.3228
   64SAPC  C318 5261   3.226   6.179   5.180 -0.8543 -0.6779  1.0715
   64SAPC  H18X 5262   3.260   6.229   5.086  0.4843 -2.3497  0.6190
   64SAPC  H18Y 5263   3.118   6.164   5.160 -0.9974 -0.2854  1.5247
   64SAPC  H18Z 5264   3.264   6.076   5.194  0.7535 -0.3704 -0.5759
   65SAPC     N 5265   2.535   6.332   2.828 -0.2153  0.1794 -0.3990
   65SAPC   C12 5266   2.418   6.391   2.752 -0.1091 -0.3931  0.1545
   65SAPC  H12A 5267   2.442   6.382   2.648 -2.3866 -0.0687 -0.4595
   65SAPC  H12B 5268   2.420   6.492   2.791 -0.4320  0.6844 -2.4267
   65SAPC   C13 5269   2.582   6.209   2.757  0.2579 -0.7437  0.3528
   65SAPC  H13A 5270   2.515   6.125   2.769  1.7517 -1.8653  1.2098
   65SAPC  H13B 5271   2.608   6.232   2.655 -1.5802  2.3377  0.4690
   65SAPC  H13C 5272   2.679   6.184   2.797  0.2984  0.4587  1.0271
   65SAPC   C14 5273   2.645   6.432   2.842 -0.0530  0.2556  0.5785
   65SAPC  H14A 5274   2.621   6.508   2.915  0.6693  1.1600 -0.1105
   65SAPC  H14B 5275   2.737   6.388   2.878  1.4831  0.0311 -3.1304
   65SAPC  H14C 5276   2.659   6.492   2.753 -0.5721  0.0105  0.3232
   65SAPC   C15 5277   2.510   6.299   2.974  0.4304 -0.4729 -0.1100
   65SAPC  H15A 5278   2.460   6.371   3.037  1.5513 -1.1781  1.6499
   65SAPC  H15B 5279   2.434   6.222   2.980 -0.1411 -0.0932 -1.7150
   65SAPC  H15C 5280   2.596   6.272   3.033  0.1291  1.6830  1.4630
   65SAPC   C11 5281   2.273   6.337   2.755  0.5821 -0.0167  0.9806
   65SAPC  H11A 5282   2.209   6.403   2.692 -0.9255 -0.6825  1.7392
   65SAPC  H11B 5283   2.239   6.342   2.861 -2.4839  1.5288  0.0687
   65SAPC     P 5284   2.224   6.073   2.746 -0.3102 -0.0486  0.0584
   65SAPC   O13 5285   2.136   6.017   2.638 -0.4614 -0.4549 -0.3176
   65SAPC   O14 5286   2.339   5.997   2.785  0.0437  0.6684 -0.2552
   65SAPC   O12 5287   2.280   6.212   2.693  0.3744  0.3769  0.2329
   65SAPC   O11 5288   2.144   6.118   2.869  0.0686 -0.0327 -0.2832
   65SAPC    C1 5289   2.004   6.153   2.847 -0.3394  0.0299 -0.0680
   65SAPC    HA 5290   1.996   6.233   2.770 -3.1298  0.7931  0.8751
   65SAPC    HB 5291   1.940   6.065   2.825 -0.0335  0.2910 -2.1549
   65SAPC    C2 5292   1.929   6.207   2.977  0.4738 -0.2187  0.6546
   65SAPC    HS 5293   1.828   6.237   2.939  1.2143  0.8538 -0.5508
   65SAPC   O21 5294   1.997   6.317   3.034 -0.1367  0.1078  0.0545
   65SAPC   C21 5295   1.978   6.432   2.973 -0.5307  0.0105  0.2713
   65SAPC   O22 5296   1.903   6.452   2.879 -0.1120 -0.1917 -0.0725
   65SAPC   C22 5297   2.090   6.530   3.019  0.1032  0.1647  0.8396
   65SAPC   H2R 5298   2.139   6.489   3.109 -0.4289 -0.5442  0.8113
   65SAPC   H2S 5299   2.169   6.534   2.941 -0.4954 -0.8593  0.1539
   65SAPC    C3 5300   1.927   6.095   3.088 -0.3135  0.0623 -0.3658
   65SAPC    HX 5301   2.023   6.045   3.109 -0.2387  0.3043 -0.1295
   65SAPC    HY 5302   1.864   6.014   3.045 -1.1567 -0.7398  2.2341
   65SAPC   O31 5303   1.861   6.147   3.205 -0.1088 -0.0984  0.1294
   65SAPC   C31 5304   1.933   6.202   3.305  0.0401  0.2224  0.1867
   65SAPC   O32 5305   2.054   6.187   3.324  0.0432 -0.2525 -0.0327
   65SAPC   C32 5306   1.846   6.294   3.394  0.4463  0.3390  0.1525
   65SAPC   H2X 5307   1.743   6.254   3.406  0.8912 -1.3403 -1.1811
   65SAPC   H2Y 5308   1.840   6.381   3.325  1.8885 -0.3037 -0.8152
   65SAPC   C23 5309   2.032   6.667   3.032 -0.3767 -0.1302  0.7896
   65SAPC   H3R 5310   1.956   6.667   3.113  1.0167 -1.2132  2.1585
   65SAPC   H3S 5311   1.974   6.694   2.941 -0.1350  0.6794  0.8658
   65SAPC   C24 5312   2.138   6.782   3.050  0.5798 -0.4806 -0.5739
   65SAPC   H4R 5313   2.084   6.879   3.047  1.0411 -0.1897  0.2664
   65SAPC   H4S 5314   2.216   6.775   2.971  1.4330  0.3950  0.1686
   65SAPC   C25 5315   2.223   6.774   3.176  0.6141  0.6919  0.1102
   65SAPC   H5R 5316   2.320   6.722   3.172  0.2604  0.0305  0.0557
   65SAPC   C26 5317   2.187   6.818   3.296  0.4807  0.0326 -0.0943
   65SAPC   H6R 5318   2.267   6.809   3.371  2.2730  1.5644 -1.7078
   65SAPC   C27 5319   2.063   6.892   3.325  0.4639 -0.1542 -0.7240
   65SAPC   H7R 5320   2.054   6.892   3.435 -1.3570 -2.1220 -0.7994
   65SAPC   H7S 5321   1.975   6.839   3.281 -0.6634  1.4104 -0.4252
   65SAPC   C28 5322   2.061   7.036   3.280  0.1592 -0.2614  0.3045
   65SAPC   H8R 5323   1.992   7.056   3.196  0.0203 -0.2102  0.4310
   65SAPC   C29 5324   2.131   7.139   3.327 -0.5823 -0.3791  0.3378
   65SAPC   H9R 5325   2.120   7.241   3.287  1.9289 -1.2792 -3.1107
   65SAPC  C210 5326   2.219   7.136   3.452  0.4691  0.0439 -0.1487
   65SAPC  H10R 5327   2.234   7.030   3.483 -2.3034 -0.4302 -0.2026
   65SAPC  H10S 5328   2.170   7.178   3.542  0.7733 -3.6071  1.8940
   65SAPC  C211 5329   2.355   7.194   3.431  0.0642  0.6563 -0.0004
   65SAPC  H11R 5330   2.401   7.160   3.337 -0.6197 -1.2127  0.2924
   65SAPC  C212 5331   2.422   7.278   3.518  0.5279 -0.3416 -0.1919
   65SAPC  H12R 5332   2.524   7.309   3.491  1.9520 -5.2148 -1.5701
   65SAPC  C213 5333   2.374   7.332   3.648  0.1006  0.9489  0.1077
   65SAPC  H13R 5334   2.313   7.255   3.700  1.1965  1.2665  1.9415
   65SAPC  H13S 5335   2.308   7.419   3.628 -0.2060  0.3526 -1.6600
   65SAPC  C214 5336   2.482   7.372   3.746  0.1127  0.4164  0.1205
   65SAPC  H14R 5337   2.581   7.392   3.702  0.4676 -0.8255  0.3221
   65SAPC  C215 5338   2.464   7.393   3.879 -0.4886  0.2925  0.7794
   65SAPC  H15R 5339   2.557   7.407   3.935  0.1365 -3.3616  0.9487
   65SAPC  C216 5340   2.338   7.366   3.959 -0.6529 -0.5086 -0.3902
   65SAPC  H16R 5341   2.361   7.302   4.047 -5.6108 -1.3393  0.5861
   65SAPC  H16S 5342   2.268   7.308   3.895 -0.7731 -0.5977 -0.1763
   65SAPC  C217 5343   2.272   7.492   4.016  0.9065  1.0070 -0.0848
   65SAPC  H17R 5344   2.349   7.556   4.064  0.3236  1.9484 -0.3671
   65SAPC  H17S 5345   2.200   7.458   4.092  1.2067 -0.7661 -0.5427
   65SAPC  C218 5346   2.185   7.575   3.922 -0.5351 -0.3947  0.5898
   65SAPC  H18R 5347   2.108   7.512   3.871 -1.4202  1.6818 -0.7431
   65SAPC  H18S 5348   2.247   7.617   3.840  0.3112 -1.4496  0.6701
   65SAPC  C219 5349   2.111   7.684   3.993 -0.0816 -0.2672 -0.6763
   65SAPC  H19R 5350   2.175   7.745   4.061 -2.4142  0.6553  0.8224
   65SAPC  H19S 5351   2.032   7.629   4.048  1.4372  0.3025  2.2224
   65SAPC  C220 5352   2.015   7.770   3.910 -0.2462  0.0467 -0.5365
   65SAPC  H20R 5353   2.064   7.805   3.817 -3.3436  3.7762 -1.0254
   65SAPC  H20S 5354   1.986   7.865   3.961 -1.2320 -1.2064  1.3736
   65SAPC  H20T 5355   1.920   7.716   3.892 -0.7174  1.3374 -2.1484
   65SAPC   C33 5356   1.913   6.327   3.531 -0.5582 -0.7737  0.0041
   65SAPC   H3X 5357   2.024   6.330   3.519 -0.5374  1.1681  0.4348
   65SAPC   H3Y 5358   1.875   6.252   3.604 -1.0994 -1.4500 -0.9442
   65SAPC   C34 5359   1.862   6.469   3.578  0.6212 -0.2806  0.3808
   65SAPC   H4X 5360   1.752   6.467   3.591  0.3419 -2.4367 -1.6920
   65SAPC   H4Y 5361   1.886   6.537   3.494  2.5628  0.3210  1.3578
   65SAPC   C35 5362   1.931   6.518   3.700 -0.2209  0.1024 -0.7109
   65SAPC   H5X 5363   1.942   6.629   3.708  2.2455 -0.1048 -0.5028
   65SAPC   H5Y 5364   2.036   6.485   3.710 -0.8230 -1.2287  2.1265
   65SAPC   C36 5365   1.878   6.467   3.835 -1.0315 -0.1961  0.2265
   65SAPC   H6X 5366   1.875   6.356   3.832  0.9150 -0.2743 -3.0766
   65SAPC   H6Y 5367   1.771   6.497   3.837 -1.3981 -1.4249  2.5737
   65SAPC   C37 5368   1.963   6.499   3.956 -0.0806  1.0848  0.0089
   65SAPC   H7X 5369   1.977   6.609   3.965  0.3379  0.9391  1.4683
   65SAPC   H7Y 5370   2.068   6.465   3.945 -0.7053 -0.6844 -0.7980
   65SAPC   C38 5371   1.913   6.448   4.092 -0.5426 -0.0564 -0.2827
   65SAPC   H8X 5372   1.890   6.340   4.079  0.9802 -0.2426 -1.7212
   65SAPC   H8Y 5373   1.831   6.511   4.132 -0.1224  0.5049 -0.2933
   65SAPC   C39 5374   2.035   6.475   4.187  0.1370 -0.3599 -0.0211
   65SAPC   H9X 5375   2.061   6.583   4.178 -0.0168 -0.3258 -0.0708
   65SAPC   H9Y 5376   2.123   6.414   4.156 -0.0104 -0.3176 -0.5231
   65SAPC  C310 5377   2.005   6.428   4.332  0.1949 -0.3125 -0.3861
   65SAPC  H10X 5378   2.091   6.453   4.398 -0.1464 -0.3898  0.0975
   65SAPC  H10Y 5379   1.988   6.318   4.329 -1.8458 -0.0195 -1.8221
   65SAPC  C311 5380   1.884   6.491   4.403  0.0485 -0.4181  0.2779
   65SAPC  H11X 5381   1.805   6.474   4.327  1.6658 -3.1990 -0.9297
   65SAPC  H11Y 5382   1.896   6.601   4.414 -0.0988 -0.5202  1.7440
   65SAPC  C312 5383   1.863   6.435   4.541 -0.2046 -0.2351  0.3095
   65SAPC  H12X 5384   1.956   6.452   4.599  0.0031  1.0544 -0.3617
   65SAPC  H12Y 5385   1.853   6.325   4.538  2.9620 -0.5982 -1.3218
   65SAPC  C313 5386   1.747   6.496   4.615 -0.0543  0.8068 -0.3412
   65SAPC  H13X 5387   1.657   6.462   4.560  0.8145 -0.8351 -0.8267
   65SAPC  H13Y 5388   1.753   6.606   4.608 -1.0132  1.0854  2.2084
   65SAPC  C314 5389   1.745   6.473   4.767  0.3353  0.1696 -0.6401
   65SAPC  H14X 5390   1.770   6.368   4.793 -0.4178  0.8867  3.9132
   65SAPC  H14Y 5391   1.638   6.488   4.791 -0.3395 -0.2462 -3.1200
   65SAPC  C315 5392   1.835   6.554   4.856  0.2962  0.1597  0.2323
   65SAPC  H15X 5393   1.935   6.539   4.811 -1.0550 -2.2621 -2.2691
   65SAPC  H15Y 5394   1.825   6.511   4.958 -3.1747 -2.0112 -0.8620
   65SAPC  C316 5395   1.803   6.711   4.863  0.9141  0.0201  0.1434
   65SAPC  H16X 5396   1.723   6.731   4.789  0.5670 -1.1241  0.1913
   65SAPC  H16Y 5397   1.897   6.764   4.839  0.4681 -0.1433 -2.1502
   65SAPC  C317 5398   1.735   6.759   4.995  0.4267  0.5966 -0.1072
   65SAPC  H17X 5399   1.700   6.864   4.982  1.2582  1.0755  1.3480
   65SAPC  H17Y 5400   1.806   6.766   5.080 -2.2849  0.1640  2.3449
   65SAPC  C318 5401   1.617   6.672   5.027 -0.3322  0.5389  0.6625
   65SAPC  H18X 5402   1.559   6.646   4.936  0.6844  0.9926 -0.1289
   65SAPC  H18Y 5403   1.551   6.722   5.102 -1.0446  0.3780  0.1581
   65SAPC  H18Z 5404   1.644   6.577   5.079  0.8838  1.3953  1.6670
   66SAPC     N 5405   6.351   1.911   2.224  0.4175 -0.5780 -0.1568
   66SAPC   C12 5406   6.250   1.963   2.130 -0.5359  0.2859  0.6904
   66SAPC  H12A 5407   6.153   1.958   2.176  0.0403 -0.8769  1.8414
   66SAPC  H12B 5408   6.235   1.894   2.048 -0.0393  1.2313 -0.2201
   66SAPC   C13 5409   6.303   1.776   2.272 -0.3177 -0.0290  0.3024
   66SAPC  H13A 5410   6.378   1.729   2.334  0.3685 -0.3609 -0.7377
   66SAPC  H13B 5411   6.216   1.791   2.334 -1.4037  1.5800 -1.5240
   66SAPC  H13C 5412   6.288   1.723   2.179  0.6656 -0.7519  0.5264
   66SAPC   C14 5413   6.477   1.893   2.156  0.3607  0.3879 -0.2896
   66SAPC  H14A 5414   6.490   1.794   2.116  0.2416  0.5549 -0.7478
   66SAPC  H14B 5415   6.504   1.972   2.087  2.1339 -0.3804 -0.5314
   66SAPC  H14C 5416   6.555   1.902   2.230  0.3417  1.2898 -0.3608
   66SAPC   C15 5417   6.372   1.991   2.344  0.0439 -0.1510  0.0205
   66SAPC  H15A 5418   6.443   1.944   2.410  0.5720 -0.4023 -0.7198
   66SAPC  H15B 5419   6.400   2.092   2.315 -0.7807 -0.0778 -0.5690
   66SAPC  H15C 5420   6.273   2.004   2.387 -0.6766 -1.2619 -1.2275
   66SAPC   C11 5421   6.265   2.110   2.081  0.0600  0.5321  0.7588
   66SAPC  H11A 5422   6.205   2.105   1.988 -1.6974  0.0551  1.8531
   66SAPC  H11B 5423   6.363   2.136   2.037  0.4711 -0.0194  1.3273
   66SAPC     P 5424   6.068   2.250   2.174 -0.2720  0.1343 -0.1329
   66SAPC   O13 5425   6.050   2.362   2.081 -0.2243  0.1594  0.4265
   66SAPC   O14 5426   5.975   2.140   2.146 -0.0205  0.0814  0.1333
   66SAPC   O12 5427   6.217   2.208   2.171 -0.4789  0.4576  0.4286
   66SAPC   O11 5428   6.045   2.297   2.325 -0.8524 -0.0346  0.1353
   66SAPC    C1 5429   6.117   2.408   2.375 -0.7503 -0.6288 -0.1683
   66SAPC    HA 5430   6.227   2.401   2.366 -0.6225 -0.1198  0.8319
   66SAPC    HB 5431   6.087   2.504   2.330  3.4350 -0.0315 -2.1796
   66SAPC    C2 5432   6.092   2.436   2.531  0.1741  0.1425 -0.0197
   66SAPC    HS 5433   6.135   2.538   2.540 -1.8349  0.9885  0.3166
   66SAPC   O21 5434   6.161   2.337   2.605 -0.7455  0.3236  0.2254
   66SAPC   C21 5435   6.208   2.383   2.723 -0.6215 -0.0719  0.2315
   66SAPC   O22 5436   6.194   2.493   2.767 -0.4586 -0.6374 -0.7111
   66SAPC   C22 5437   6.284   2.262   2.779  1.2428  0.4144 -0.3322
   66SAPC   H2R 5438   6.362   2.256   2.700  1.0379  2.8633 -0.7976
   66SAPC   H2S 5439   6.343   2.293   2.869  1.0087 -1.0182  0.3386
   66SAPC    C3 5440   5.936   2.443   2.561  0.5174  0.1354  0.7187
   66SAPC    HX 5441   5.888   2.343   2.554  2.6040 -0.8778  0.0848
   66SAPC    HY 5442   5.886   2.511   2.489 -0.6516 -0.8795  0.5287
   66SAPC   O31 5443   5.924   2.491   2.698 -0.3480 -0.2618 -0.0531
   66SAPC   C31 5444   5.925   2.620   2.719 -0.2955 -0.5888 -0.0824
   66SAPC   O32 5445   5.952   2.710   2.639  0.2717 -0.0128 -0.0648
   66SAPC   C32 5446   5.878   2.644   2.864 -0.3133 -0.2580 -0.0539
   66SAPC   H2X 5447   5.785   2.583   2.867 -0.0552 -0.8348 -2.0518
   66SAPC   H2Y 5448   5.841   2.748   2.877  1.4368  0.7825 -2.6317
   66SAPC   C23 5449   6.218   2.131   2.810 -0.3116  0.6039  0.5161
   66SAPC   H3R 5450   6.289   2.058   2.855 -2.4475 -1.0251  1.4223
   66SAPC   H3S 5451   6.184   2.081   2.717  0.1322 -0.7581  1.0613
   66SAPC   C24 5452   6.094   2.129   2.897 -0.7282  0.6466 -0.6975
   66SAPC   H4R 5453   6.038   2.034   2.899  1.0251 -0.5695 -3.5426
   66SAPC   H4S 5454   6.023   2.197   2.844 -3.4220 -1.3979  0.0812
   66SAPC   C25 5455   6.122   2.187   3.036  1.0984  0.8266  0.3086
   66SAPC   H5R 5456   6.090   2.291   3.048 -1.7125  0.3012 -1.6651
   66SAPC   C26 5457   6.172   2.128   3.143 -0.3570 -0.4999  0.9813
   66SAPC   H6R 5458   6.194   2.187   3.232  3.6654 -1.7940  1.0403
   66SAPC   C27 5459   6.209   1.984   3.157  0.0550  0.1768 -0.0894
   66SAPC   H7R 5460   6.319   1.967   3.164 -0.1437 -0.5861  1.8527
   66SAPC   H7S 5461   6.192   1.949   3.053 -2.8637  1.8538 -0.2870
   66SAPC   C28 5462   6.123   1.914   3.261 -0.0896  0.1556  0.6610
   66SAPC   H8R 5463   6.039   1.858   3.218  0.0013 -0.1102  0.8203
   66SAPC   C29 5464   6.151   1.904   3.395  0.1184 -0.2015 -0.1574
   66SAPC   H9R 5465   6.073   1.861   3.460  0.1177  0.4118  0.2591
   66SAPC  C210 5466   6.254   1.967   3.476 -0.2165 -0.7102 -0.4644
   66SAPC  H10R 5467   6.203   2.043   3.538 -1.1334  0.2403 -2.2885
   66SAPC  H10S 5468   6.318   2.030   3.411 -2.4598  0.2095 -1.9032
   66SAPC  C211 5469   6.340   1.875   3.564 -0.5539  0.3308 -0.0114
   66SAPC  H11R 5470   6.370   1.780   3.517  1.9385  1.3599 -0.6985
   66SAPC  C212 5471   6.388   1.894   3.684 -0.6200 -0.1282 -0.2258
   66SAPC  H12R 5472   6.433   1.805   3.730 -0.6171 -0.1947 -0.3585
   66SAPC  C213 5473   6.397   2.026   3.765  0.3466  0.6444  0.3331
   66SAPC  H13R 5474   6.323   2.019   3.848 -1.4367  0.6356 -1.2034
   66SAPC  H13S 5475   6.354   2.112   3.709  0.0631 -0.3871 -1.0544
   66SAPC  C214 5476   6.528   2.056   3.830 -0.2177  0.4667 -0.6372
   66SAPC  H14R 5477   6.597   2.108   3.762 -0.0868 -1.0215 -1.7083
   66SAPC  C215 5478   6.574   2.007   3.944 -0.4620 -0.0676  0.5047
   66SAPC  H15R 5479   6.681   2.022   3.966  0.0059 -1.5615 -0.5984
   66SAPC  C216 5480   6.501   1.932   4.052  0.3187  0.0481  0.2783
   66SAPC  H16R 5481   6.511   1.823   4.033 -3.2587 -0.4416  0.5952
   66SAPC  H16S 5482   6.391   1.940   4.041  0.1525 -2.0622 -0.0205
   66SAPC  C217 5483   6.522   1.974   4.200 -0.6978  0.4507 -0.4925
   66SAPC  H17R 5484   6.506   2.084   4.195 -1.3861  0.4079  0.5257
   66SAPC  H17S 5485   6.628   1.963   4.229 -0.8462 -1.4200 -0.5867
   66SAPC  C218 5486   6.427   1.906   4.286  0.1045  0.5281 -0.8488
   66SAPC  H18R 5487   6.448   1.798   4.274 -1.5163  0.4292 -3.5124
   66SAPC  H18S 5488   6.325   1.927   4.247  0.0652  2.3725  0.1257
   66SAPC  C219 5489   6.433   1.953   4.432  0.3400  0.3985  0.4010
   66SAPC  H19R 5490   6.543   1.959   4.449  0.2288 -0.3489  1.4643
   66SAPC  H19S 5491   6.379   1.877   4.490 -2.3901 -0.6567 -3.1570
   66SAPC  C220 5492   6.361   2.090   4.447 -0.2920  0.3448 -0.4885
   66SAPC  H20R 5493   6.382   2.155   4.359 -0.4447  0.6354 -0.3128
   66SAPC  H20S 5494   6.374   2.153   4.537  2.0854 -0.5913 -0.1243
   66SAPC  H20T 5495   6.251   2.070   4.446  0.1519 -2.9684  1.7027
   66SAPC   C33 5496   5.964   2.591   2.982 -0.5432 -0.0390  0.1262
   66SAPC   H3X 5497   6.066   2.634   2.972 -0.8715  0.4360 -1.4040
   66SAPC   H3Y 5498   5.978   2.481   2.973 -0.9091 -0.1167  0.4583
   66SAPC   C34 5499   5.904   2.609   3.118 -0.2961 -0.3523  0.1673
   66SAPC   H4X 5500   5.801   2.568   3.113  0.0384 -1.2056  0.0793
   66SAPC   H4Y 5501   5.910   2.717   3.144 -0.5864 -0.8233  2.3205
   66SAPC   C35 5502   5.991   2.546   3.228 -0.5615 -0.3690 -0.9117
   66SAPC   H5X 5503   6.094   2.588   3.224 -1.9434  3.3524 -2.7993
   66SAPC   H5Y 5504   5.976   2.438   3.207 -1.3202  0.1178 -3.0686
   66SAPC   C36 5505   5.935   2.580   3.365  0.4244  0.0319  0.7723
   66SAPC   H6X 5506   5.830   2.542   3.366  0.7182 -0.7883  0.5805
   66SAPC   H6Y 5507   5.929   2.691   3.368 -0.5407  0.0576 -0.9119
   66SAPC   C37 5508   6.021   2.521   3.483 -0.2784  0.0380  0.3367
   66SAPC   H7X 5509   6.121   2.564   3.460 -0.5051  0.8644  0.8452
   66SAPC   H7Y 5510   6.024   2.410   3.489 -0.2245  0.0701  0.9640
   66SAPC   C38 5511   5.962   2.561   3.617  0.2660  0.0320 -0.2795
   66SAPC   H8X 5512   5.881   2.487   3.637 -0.1405 -0.0137 -1.9059
   66SAPC   H8Y 5513   5.920   2.663   3.624  1.5743  0.6277 -0.7949
   66SAPC   C39 5514   6.076   2.550   3.718 -0.5507 -0.2651 -0.0594
   66SAPC   H9X 5515   6.143   2.638   3.724 -2.1690  0.9230  1.6121
   66SAPC   H9Y 5516   6.128   2.456   3.690 -0.9305 -0.9344  1.3888
   66SAPC  C310 5517   6.032   2.531   3.864  0.7125 -0.1929 -0.5394
   66SAPC  H10X 5518   5.967   2.440   3.869  0.5261 -0.1356 -1.6108
   66SAPC  H10Y 5519   5.967   2.617   3.890 -1.1967 -2.2256  1.8970
   66SAPC  C311 5520   6.143   2.504   3.969  0.4966 -0.0075 -0.3838
   66SAPC  H11X 5521   6.230   2.571   3.952  0.7551 -0.7043 -1.9884
   66SAPC  H11Y 5522   6.184   2.403   3.949  1.9035  0.7255 -1.4528
   66SAPC  C312 5523   6.105   2.508   4.118  0.0283  0.1365 -0.3151
   66SAPC  H12X 5524   6.012   2.450   4.137 -0.2571  0.5223 -0.5208
   66SAPC  H12Y 5525   6.080   2.611   4.150 -0.4670 -0.6424  2.0081
   66SAPC  C313 5526   6.209   2.449   4.211 -0.7173 -0.0134  0.1211
   66SAPC  H13X 5527   6.310   2.480   4.178 -0.9001 -1.2564 -1.8077
   66SAPC  H13Y 5528   6.194   2.339   4.206 -2.7447  0.0670  2.4717
   66SAPC  C314 5529   6.203   2.482   4.363 -0.0058 -0.0973  0.7738
   66SAPC  H14X 5530   6.208   2.593   4.366 -1.6768 -0.0149  2.3866
   66SAPC  H14Y 5531   6.293   2.446   4.417  1.1233  0.8096 -0.4492
   66SAPC  C315 5532   6.073   2.438   4.430 -0.5817  0.7583 -0.0388
   66SAPC  H15X 5533   6.041   2.337   4.397  1.6861  0.9274 -3.1338
   66SAPC  H15Y 5534   5.997   2.496   4.373 -2.1418 -0.5660  0.6084
   66SAPC  C316 5535   6.064   2.458   4.582  0.2282 -0.4875 -0.5074
   66SAPC  H16X 5536   5.960   2.448   4.622  0.8939 -1.0324  1.1616
   66SAPC  H16Y 5537   6.101   2.561   4.600  1.0362 -1.0377  1.0828
   66SAPC  C317 5538   6.154   2.346   4.656  0.0793 -0.5847  0.4842
   66SAPC  H17X 5539   6.259   2.348   4.619  0.0441  1.9805  0.3388
   66SAPC  H17Y 5540   6.105   2.255   4.617  1.1022 -1.3311  0.9091
   66SAPC  C318 5541   6.158   2.353   4.811 -0.8763  0.0393  0.3513
   66SAPC  H18X 5542   6.188   2.456   4.839  3.0320 -0.3664 -1.6408
   66SAPC  H18Y 5543   6.231   2.282   4.855 -0.2519  0.6481  0.3299
   66SAPC  H18Z 5544   6.067   2.328   4.870 -0.5649  0.1302  0.8791
   67SAPC     N 5545   3.284   2.413   2.752 -0.2037 -0.1865  0.1265
   67SAPC   C12 5546   3.205   2.307   2.828 -0.0771 -0.4359  0.3345
   67SAPC  H12A 5547   3.218   2.216   2.770  0.6348 -1.0296  1.3884
   67SAPC  H12B 5548   3.102   2.337   2.823  0.3111  0.8329 -3.0059
   67SAPC   C13 5549   3.257   2.549   2.808 -0.5792 -0.7999  0.3050
   67SAPC  H13A 5550   3.154   2.581   2.819 -0.3761  1.6133 -3.3030
   67SAPC  H13B 5551   3.307   2.550   2.904 -0.8420 -0.7766  0.4451
   67SAPC  H13C 5552   3.309   2.625   2.752 -3.3141  0.1472 -1.1274
   67SAPC   C14 5553   3.431   2.385   2.762  0.2272 -0.6796  0.1562
   67SAPC  H14A 5554   3.460   2.288   2.725 -2.5085 -1.7189  0.5051
   67SAPC  H14B 5555   3.486   2.464   2.713 -1.1827  1.8681  2.3914
   67SAPC  H14C 5556   3.461   2.386   2.866 -1.0601  1.1619  0.5659
   67SAPC   C15 5557   3.243   2.413   2.605 -0.0810  0.0102 -0.4378
   67SAPC  H15A 5558   3.141   2.380   2.590 -0.5140  2.0261 -2.5011
   67SAPC  H15B 5559   3.259   2.508   2.556  0.6242  0.0399 -0.1551
   67SAPC  H15C 5560   3.302   2.341   2.549 -0.1832 -0.0961 -0.4089
   67SAPC   C11 5561   3.249   2.255   2.969  0.0472  0.1986  0.0511
   67SAPC  H11A 5562   3.347   2.206   2.951  0.7761  2.0850 -1.5257
   67SAPC  H11B 5563   3.172   2.179   2.992  0.2460 -0.2112 -0.5980
   67SAPC     P 5564   3.141   2.413   3.130  0.4768  0.0851  0.1952
   67SAPC   O13 5565   3.158   2.558   3.128  0.4684 -0.0958 -0.1564
   67SAPC   O14 5566   3.018   2.356   3.065  0.1476  0.4002 -0.7042
   67SAPC   O12 5567   3.271   2.353   3.066  0.3104 -0.6090 -0.0008
   67SAPC   O11 5568   3.150   2.355   3.279 -0.4780 -0.4108  0.4572
   67SAPC    C1 5569   3.266   2.349   3.364 -0.0516 -0.5446 -0.3284
   67SAPC    HA 5570   3.330   2.261   3.342  0.0847 -0.5863  0.2114
   67SAPC    HB 5571   3.330   2.439   3.358 -1.0182  0.2099  0.3451
   67SAPC    C2 5572   3.233   2.318   3.514  0.4631 -0.4500  0.2820
   67SAPC    HS 5573   3.329   2.302   3.567  0.6421 -0.8857 -0.1688
   67SAPC   O21 5574   3.156   2.196   3.524  0.0261 -0.3888 -0.0038
   67SAPC   C21 5575   3.150   2.132   3.634 -0.5973  0.0299 -0.5193
   67SAPC   O22 5576   3.206   2.162   3.740 -0.3070  0.2033 -0.3831
   67SAPC   C22 5577   3.047   2.021   3.623  0.1782  0.5112 -0.3401
   67SAPC   H2R 5578   3.096   1.947   3.556  2.5609  0.3790  1.4277
   67SAPC   H2S 5579   3.026   1.982   3.725 -2.5150 -1.0844 -1.3965
   67SAPC    C3 5580   3.158   2.442   3.568  0.9058  0.3841  0.2597
   67SAPC    HX 5581   3.055   2.436   3.526  0.8230 -1.4240  0.6271
   67SAPC    HY 5582   3.200   2.534   3.523  0.5968 -0.0821 -1.0439
   67SAPC   O31 5583   3.149   2.453   3.709  0.2107  0.2495 -0.1804
   67SAPC   C31 5584   3.255   2.494   3.776 -0.4515 -0.0526  0.1212
   67SAPC   O32 5585   3.356   2.538   3.719 -0.5573 -0.5624 -0.1123
   67SAPC   C32 5586   3.242   2.463   3.926 -0.1118  0.5502 -0.6923
   67SAPC   H2X 5587   3.238   2.353   3.939 -1.8473  0.6887  0.2699
   67SAPC   H2Y 5588   3.149   2.512   3.964 -1.0411  0.0360 -2.2527
   67SAPC   C23 5589   2.928   2.063   3.549  0.6664  0.4534  0.4024
   67SAPC   H3R 5590   2.880   1.965   3.525  1.2172  0.1194  0.6419
   67SAPC   H3S 5591   2.943   2.118   3.454 -0.1957  0.5130  0.2935
   67SAPC   C24 5592   2.812   2.128   3.629  0.3489  0.1599  0.9041
   67SAPC   H4R 5593   2.734   2.133   3.550  1.0179  1.3799  0.2993
   67SAPC   H4S 5594   2.841   2.233   3.647 -0.8912  0.2606  2.6262
   67SAPC   C25 5595   2.765   2.047   3.744  0.6200  0.0677  0.7670
   67SAPC   H5R 5596   2.735   1.945   3.715  1.1840  0.2392 -0.4894
   67SAPC   C26 5597   2.754   2.094   3.872  0.9888  0.0518  0.6633
   67SAPC   H6R 5598   2.708   2.027   3.947  1.4708 -1.4043 -0.2849
   67SAPC   C27 5599   2.799   2.221   3.922  0.0373  0.0039  0.0120
   67SAPC   H7R 5600   2.744   2.259   4.011 -0.9558 -1.7797  0.1973
   67SAPC   H7S 5601   2.769   2.293   3.843 -2.5097 -2.4407 -1.4539
   67SAPC   C28 5602   2.946   2.237   3.962  0.1976  0.1434  0.7360
   67SAPC   H8R 5603   3.019   2.275   3.890 -0.7581 -0.4184 -0.5693
   67SAPC   C29 5604   3.003   2.189   4.074  0.6890 -0.1821 -0.0165
   67SAPC   H9R 5605   3.110   2.214   4.084  0.4082  0.4792  1.6735
   67SAPC  C210 5606   2.942   2.104   4.185  0.6431  0.4343  0.1857
   67SAPC  H10R 5607   3.016   2.047   4.245  0.4821 -0.4603 -0.4409
   67SAPC  H10S 5608   2.876   2.024   4.145 -0.4344  1.7839 -0.8392
   67SAPC  C211 5609   2.848   2.193   4.273  0.1089  0.0389  0.5179
   67SAPC  H11R 5610   2.748   2.211   4.232 -0.4806 -1.6346  1.1375
   67SAPC  C212 5611   2.882   2.241   4.392 -0.5664 -0.4346  0.0030
   67SAPC  H12R 5612   2.820   2.316   4.441 -0.2876  0.6441 -1.2478
   67SAPC  C213 5613   3.016   2.221   4.447 -0.4641  0.8780  0.5130
   67SAPC  H13R 5614   3.075   2.149   4.386  0.7302  1.5050  0.8996
   67SAPC  H13S 5615   2.991   2.174   4.544 -1.6691 -0.3607 -0.3588
   67SAPC  C214 5616   3.100   2.345   4.463  0.5449  0.8270 -0.1624
   67SAPC  H14R 5617   3.103   2.409   4.373 -2.0872  0.2559 -0.7319
   67SAPC  C215 5618   3.159   2.374   4.578  0.2240 -0.1384  0.0997
   67SAPC  H15R 5619   3.226   2.460   4.567 -0.4132  0.4619  0.8025
   67SAPC  C216 5620   3.160   2.300   4.714 -0.2262  0.1630  0.4395
   67SAPC  H16R 5621   3.261   2.303   4.760  0.4386 -1.6741 -0.8037
   67SAPC  H16S 5622   3.149   2.192   4.693  0.1568  0.1050  0.5378
   67SAPC  C217 5623   3.053   2.352   4.817 -0.0229  0.0471 -0.8285
   67SAPC  H17R 5624   2.961   2.345   4.756 -0.0198 -0.5240 -0.7720
   67SAPC  H17S 5625   3.070   2.460   4.839  2.7840 -0.3501 -0.6674
   67SAPC  C218 5626   3.040   2.276   4.943  0.0757 -0.0596 -0.7348
   67SAPC  H18R 5627   3.100   2.322   5.025 -1.2606  1.5292 -0.6008
   67SAPC  H18S 5628   3.077   2.172   4.933 -1.5907 -0.8026  0.3586
   67SAPC  C219 5629   2.901   2.280   4.999 -0.4380  0.2572  0.7478
   67SAPC  H19R 5630   2.903   2.239   5.103 -1.1841 -0.3816  0.5221
   67SAPC  H19S 5631   2.837   2.214   4.936  1.3398 -1.0977  0.2976
   67SAPC  C220 5632   2.830   2.416   5.021  0.2413 -1.1639 -0.2304
   67SAPC  H20R 5633   2.812   2.465   4.923  2.3364  0.8784  0.3146
   67SAPC  H20S 5634   2.896   2.479   5.084 -0.4752 -1.2513  0.6259
   67SAPC  H20T 5635   2.728   2.407   5.065 -0.4126  1.2648 -1.1094
   67SAPC   C33 5636   3.361   2.525   4.017  0.0123 -0.0401 -0.0838
   67SAPC   H3X 5637   3.399   2.622   3.977 -0.7652  0.0348 -0.6585
   67SAPC   H3Y 5638   3.450   2.459   4.007 -0.7735 -0.9481 -1.4936
   67SAPC   C34 5639   3.305   2.539   4.158 -0.2952 -0.2161 -0.1890
   67SAPC   H4X 5640   3.274   2.444   4.207  1.3841 -0.9925 -0.5663
   67SAPC   H4Y 5641   3.213   2.598   4.139 -0.7899  0.8996  4.5230
   67SAPC   C35 5642   3.401   2.625   4.242  0.5134  0.1518 -0.2709
   67SAPC   H5X 5643   3.414   2.721   4.188 -1.3150  1.4197  1.4021
   67SAPC   H5Y 5644   3.499   2.578   4.263  0.9660  1.6987  1.3354
   67SAPC   C36 5645   3.344   2.658   4.380  0.7310 -0.0430 -0.4189
   67SAPC   H6X 5646   3.337   2.555   4.422 -2.7718 -1.0742 -2.9590
   67SAPC   H6Y 5647   3.244   2.707   4.375  1.2661  1.5036  2.2142
   67SAPC   C37 5648   3.425   2.755   4.455 -0.7003  0.0206 -0.3153
   67SAPC   H7X 5649   3.398   2.860   4.432 -0.6744  0.0146 -0.3743
   67SAPC   H7Y 5650   3.532   2.737   4.429  0.1657 -1.2213  3.5147
   67SAPC   C38 5651   3.422   2.734   4.607 -0.4275 -0.2763 -0.4172
   67SAPC   H8X 5652   3.491   2.809   4.653 -1.9847  0.7469  0.3330
   67SAPC   H8Y 5653   3.469   2.636   4.631  0.7673  0.3661 -0.0272
   67SAPC   C39 5654   3.279   2.747   4.670 -0.1626 -0.2456 -0.2732
   67SAPC   H9X 5655   3.220   2.656   4.645 -1.5416  0.0403  1.7166
   67SAPC   H9Y 5656   3.214   2.833   4.647  0.2864  0.0228 -0.5443
   67SAPC  C310 5657   3.296   2.742   4.826 -0.1264  0.5195  0.5055
   67SAPC  H10X 5658   3.195   2.723   4.869 -0.6155  2.0138  0.0604
   67SAPC  H10Y 5659   3.329   2.842   4.860 -0.0827  0.6733  0.0024
   67SAPC  C311 5660   3.388   2.631   4.889 -0.4651  0.6585 -0.9384
   67SAPC  H11X 5661   3.490   2.645   4.846  0.4656 -1.8714  0.2415
   67SAPC  H11Y 5662   3.351   2.531   4.855  0.0837 -0.2932  1.0859
   67SAPC  C312 5663   3.402   2.627   5.046 -0.3991  0.2837  0.4145
   67SAPC  H12X 5664   3.432   2.723   5.094 -0.4158  0.4783  0.0456
   67SAPC  H12Y 5665   3.471   2.549   5.083 -0.4274 -0.0238 -0.1643
   67SAPC  C313 5666   3.267   2.588   5.115  0.5378  0.2503  0.0933
   67SAPC  H13X 5667   3.215   2.516   5.048  1.8201 -0.5190 -0.1128
   67SAPC  H13Y 5668   3.196   2.674   5.110 -0.9391 -0.8983  0.6175
   67SAPC  C314 5669   3.287   2.533   5.257 -0.0910  0.1931 -0.2929
   67SAPC  H14X 5670   3.340   2.439   5.234 -0.8660  0.0124 -1.4562
   67SAPC  H14Y 5671   3.192   2.503   5.305  0.8171 -1.7150  0.3796
   67SAPC  C315 5672   3.374   2.617   5.355 -0.3300  0.6949  0.0517
   67SAPC  H15X 5673   3.313   2.695   5.404 -0.3200 -0.8839  2.7764
   67SAPC  H15Y 5674   3.461   2.654   5.296  1.2060  0.4972  2.0743
   67SAPC  C316 5675   3.426   2.535   5.477  0.1330  0.3975  0.0059
   67SAPC  H16X 5676   3.514   2.475   5.444 -0.1758  0.5565 -1.1714
   67SAPC  H16Y 5677   3.346   2.463   5.504 -0.5526  0.9137 -0.6063
   67SAPC  C317 5678   3.456   2.623   5.602 -0.0397 -0.8160 -0.5918
   67SAPC  H17X 5679   3.356   2.647   5.646 -0.0414  1.6755 -1.7879
   67SAPC  H17Y 5680   3.495   2.720   5.564  0.3335 -1.3640 -1.6249
   67SAPC  C318 5681   3.549   2.572   5.712 -0.1334 -0.0030 -0.0040
   67SAPC  H18X 5682   3.642   2.531   5.666  0.7901 -0.9155  2.4818
   67SAPC  H18Y 5683   3.504   2.486   5.765  0.3148  0.2901  0.8738
   67SAPC  H18Z 5684   3.581   2.651   5.784 -0.8907  0.0153  0.3151
   68SAPC     N 5685   3.677   1.392   2.499  0.0057 -0.2157  0.0972
   68SAPC   C12 5686   3.663   1.309   2.625 -0.7360 -0.9942 -0.2024
   68SAPC  H12A 5687   3.713   1.215   2.606  0.9566 -0.1596 -0.0753
   68SAPC  H12B 5688   3.561   1.276   2.639 -0.4841 -1.4996  0.4878
   68SAPC   C13 5689   3.819   1.406   2.443  1.0654  0.1088  0.4902
   68SAPC  H13A 5690   3.821   1.496   2.382  0.5030 -1.0482 -1.3120
   68SAPC  H13B 5691   3.890   1.405   2.524  2.0562  0.0795 -0.3601
   68SAPC  H13C 5692   3.849   1.319   2.387  0.2458 -2.1368  3.3014
   68SAPC   C14 5693   3.588   1.340   2.386 -0.4526  0.3810  0.4057
   68SAPC  H14A 5694   3.487   1.331   2.421 -0.4937 -0.5276  0.0833
   68SAPC  H14B 5695   3.599   1.404   2.300 -0.7012 -0.8963 -0.5988
   68SAPC  H14C 5696   3.613   1.238   2.362  0.5709  0.0427  2.6039
   68SAPC   C15 5697   3.626   1.530   2.532 -0.0213 -0.4503 -0.2163
   68SAPC  H15A 5698   3.697   1.580   2.596  0.0515  0.1143 -0.7220
   68SAPC  H15B 5699   3.623   1.591   2.443  0.3216  1.2572  0.8885
   68SAPC  H15C 5700   3.530   1.531   2.582 -0.5536 -1.6780 -1.1526
   68SAPC   C11 5701   3.720   1.377   2.752  0.7135  0.4749  0.3989
   68SAPC  H11A 5702   3.697   1.311   2.837 -1.5497 -1.3737 -1.5025
   68SAPC  H11B 5703   3.673   1.474   2.779  0.2673  1.2506 -2.7206
   68SAPC     P 5704   3.951   1.257   2.786  0.1229  0.0418  0.3469
   68SAPC   O13 5705   3.884   1.132   2.745  0.3532  0.2337 -0.6607
   68SAPC   O14 5706   4.089   1.273   2.731 -0.2358 -0.1154 -0.2031
   68SAPC   O12 5707   3.860   1.386   2.740 -0.4840  0.4914 -0.3412
   68SAPC   O11 5708   3.962   1.263   2.943  0.5069 -0.5306 -0.6553
   68SAPC    C1 5709   4.007   1.377   3.015 -0.6148  0.5000 -0.7481
   68SAPC    HA 5710   4.050   1.451   2.945  2.1199 -1.6275 -1.5193
   68SAPC    HB 5711   3.917   1.423   3.061 -0.2050  2.4442 -1.7934
   68SAPC    C2 5712   4.118   1.337   3.107  0.2720  0.0935 -0.3522
   68SAPC    HS 5713   4.191   1.276   3.048  0.1255 -0.5544  0.1184
   68SAPC   O21 5714   4.062   1.255   3.213  0.2913 -0.0649  0.3037
   68SAPC   C21 5715   4.120   1.136   3.247 -1.1662 -0.1599 -0.2399
   68SAPC   O22 5716   4.230   1.099   3.204  0.6874 -0.7191 -0.6466
   68SAPC   C22 5717   4.030   1.067   3.350 -1.1436  0.7510 -0.1443
   68SAPC   H2R 5718   3.949   1.020   3.291  0.4862 -1.1807 -0.9809
   68SAPC   H2S 5719   4.086   0.983   3.397  0.5806  2.2489  0.5804
   68SAPC    C3 5720   4.178   1.461   3.176  0.4150  0.1726  0.5660
   68SAPC    HX 5721   4.098   1.516   3.231  0.3561  3.2877 -2.3430
   68SAPC    HY 5722   4.210   1.531   3.096 -0.8208 -0.3428 -0.4112
   68SAPC   O31 5723   4.278   1.431   3.269 -0.0092 -0.4495 -1.1357
   68SAPC   C31 5724   4.400   1.407   3.233 -0.1442 -0.2301 -0.8108
   68SAPC   O32 5725   4.448   1.411   3.125  0.3370  0.0200 -0.0358
   68SAPC   C32 5726   4.486   1.358   3.354  0.3703 -0.3168  0.5262
   68SAPC   H2X 5727   4.484   1.248   3.364  1.6972 -0.3428  0.6531
   68SAPC   H2Y 5728   4.455   1.406   3.450 -0.8489 -1.4079  0.7073
   68SAPC   C23 5729   4.000   1.152   3.478  0.3853 -0.2926 -0.2946
   68SAPC   H3R 5730   3.965   1.080   3.555 -0.1907 -1.7429 -1.8428
   68SAPC   H3S 5731   3.907   1.208   3.456 -0.0460 -1.2616 -1.0180
   68SAPC   C24 5732   4.106   1.251   3.526 -0.4464 -0.6578 -0.1596
   68SAPC   H4R 5733   4.058   1.305   3.611  0.4767 -0.7134  0.4112
   68SAPC   H4S 5734   4.126   1.325   3.445  0.7856 -1.7570 -0.9005
   68SAPC   C25 5735   4.240   1.204   3.577  0.5430 -0.0289 -0.3123
   68SAPC   H5R 5736   4.252   1.101   3.542 -3.2649 -0.2897 -1.3950
   68SAPC   C26 5737   4.332   1.267   3.660  0.5508 -0.1957 -0.0579
   68SAPC   H6R 5738   4.428   1.222   3.690 -0.0951 -1.4417  0.1923
   68SAPC   C27 5739   4.307   1.404   3.714 -0.2820  0.1115 -0.4265
   68SAPC   H7R 5740   4.267   1.458   3.625  0.4770  0.8278 -0.3437
   68SAPC   H7S 5741   4.403   1.458   3.727 -0.3861 -0.0498  1.1888
   68SAPC   C28 5742   4.212   1.421   3.829  0.2838  1.2501 -0.3681
   68SAPC   H8R 5743   4.123   1.481   3.810 -0.0634  1.9230  2.8623
   68SAPC   C29 5744   4.243   1.370   3.952  0.2222 -0.6270  0.4051
   68SAPC   H9R 5745   4.179   1.402   4.035 -0.6496 -0.7147 -0.2130
   68SAPC  C210 5746   4.368   1.308   4.009  0.9684 -0.5083 -0.3498
   68SAPC  H10R 5747   4.410   1.390   4.071  0.3816 -0.5990  0.1777
   68SAPC  H10S 5748   4.428   1.296   3.917 -0.8334 -0.8166 -1.5191
   68SAPC  C211 5749   4.361   1.174   4.076 -0.0736  0.0758 -0.1434
   68SAPC  H11R 5750   4.410   1.090   4.024 -0.5785 -1.2012  1.3402
   68SAPC  C212 5751   4.291   1.145   4.188 -0.0047 -0.2552  0.1406
   68SAPC  H12R 5752   4.293   1.043   4.229 -0.7556  0.3481  1.7680
   68SAPC  C213 5753   4.198   1.236   4.273 -0.8683 -0.7780 -0.5560
   68SAPC  H13R 5754   4.165   1.185   4.367 -3.3496  5.0041  2.2538
   68SAPC  H13S 5755   4.102   1.253   4.219  0.3518  0.3812 -2.4945
   68SAPC  C214 5756   4.253   1.369   4.317  0.1270 -0.1003  0.3542
   68SAPC  H14R 5757   4.254   1.443   4.235 -0.7094 -0.9925 -0.4887
   68SAPC  C215 5758   4.282   1.419   4.440 -0.2857 -0.4507  0.3997
   68SAPC  H15R 5759   4.315   1.524   4.449 -1.3328 -0.1356  0.7403
   68SAPC  C216 5760   4.296   1.344   4.573  0.1727 -0.2200  0.0823
   68SAPC  H16R 5761   4.237   1.250   4.573 -1.0733  0.5157 -1.1908
   68SAPC  H16S 5762   4.267   1.409   4.658  3.2252  0.2760  0.8565
   68SAPC  C217 5763   4.440   1.298   4.583  0.1076 -0.5235  0.7508
   68SAPC  H17R 5764   4.515   1.372   4.547 -0.0575 -0.4701  0.5112
   68SAPC  H17S 5765   4.453   1.209   4.519 -2.2757  0.1918 -0.8903
   68SAPC  C218 5766   4.485   1.262   4.723 -0.2494 -0.4976  0.2919
   68SAPC  H18R 5767   4.430   1.170   4.754  0.7525 -0.5975  1.8801
   68SAPC  H18S 5768   4.468   1.346   4.794 -0.9792 -0.3997  0.0092
   68SAPC  C219 5769   4.645   1.228   4.731  0.4894 -0.3942 -0.0375
   68SAPC  H19R 5770   4.696   1.283   4.649  1.1080  0.8112  1.1118
   68SAPC  H19S 5771   4.672   1.121   4.713 -0.1251 -0.6827  0.7026
   68SAPC  C220 5772   4.705   1.273   4.864 -0.1486 -0.0420 -0.0674
   68SAPC  H20R 5773   4.667   1.374   4.888  0.4782  0.2261 -0.1656
   68SAPC  H20S 5774   4.813   1.288   4.842 -0.5077  1.5127 -0.9315
   68SAPC  H20T 5775   4.688   1.194   4.940 -0.1056  0.8124  0.8624
   68SAPC   C33 5776   4.634   1.402   3.341  0.7594 -0.1346  0.6024
   68SAPC   H3X 5777   4.640   1.505   3.299 -0.6189 -0.8528 -1.4954
   68SAPC   H3Y 5778   4.688   1.333   3.274  0.6213 -0.8867  1.2515
   68SAPC   C34 5779   4.710   1.389   3.473  0.1406  0.1735  0.1754
   68SAPC   H4X 5780   4.813   1.415   3.442  0.8352 -1.4335  1.0191
   68SAPC   H4Y 5781   4.701   1.279   3.491 -1.7739 -0.0403 -1.6632
   68SAPC   C35 5782   4.683   1.484   3.589 -0.5099 -0.5626 -0.5300
   68SAPC   H5X 5783   4.573   1.471   3.600 -0.3102 -2.5577 -0.5117
   68SAPC   H5Y 5784   4.710   1.587   3.558 -1.7117 -0.8689 -2.8526
   68SAPC   C36 5785   4.755   1.435   3.713 -0.4672 -0.1957 -0.6763
   68SAPC   H6X 5786   4.865   1.420   3.708 -0.1202  1.9743 -0.7664
   68SAPC   H6Y 5787   4.713   1.338   3.746 -1.8466  0.6596  0.2228
   68SAPC   C37 5788   4.730   1.541   3.819  0.2012  0.2808 -0.9180
   68SAPC   H7X 5789   4.629   1.578   3.791 -1.2916 -3.0568 -0.4255
   68SAPC   H7Y 5790   4.806   1.623   3.821  0.4416  0.0642  1.0474
   68SAPC   C38 5791   4.727   1.476   3.961  0.4588 -0.3040 -0.9391
   68SAPC   H8X 5792   4.831   1.446   3.984  0.0078 -0.5653  0.9722
   68SAPC   H8Y 5793   4.659   1.388   3.965 -1.1588  0.9024 -0.3716
   68SAPC   C39 5794   4.686   1.581   4.069  0.6757  0.2926 -0.3102
   68SAPC   H9X 5795   4.575   1.572   4.071  0.8237 -1.9254  0.3414
   68SAPC   H9Y 5796   4.699   1.686   4.037  1.6003 -0.0022 -0.9548
   68SAPC  C310 5797   4.727   1.546   4.212  0.3203  0.1281 -0.6036
   68SAPC  H10X 5798   4.836   1.531   4.222  0.1700 -1.4178 -1.1138
   68SAPC  H10Y 5799   4.678   1.448   4.228 -1.2050  0.5609 -2.2503
   68SAPC  C311 5800   4.671   1.655   4.310 -0.6605  1.2181 -0.0048
   68SAPC  H11X 5801   4.563   1.670   4.290 -0.2142  1.9241 -2.0782
   68SAPC  H11Y 5802   4.728   1.749   4.295  1.0183  0.5816  1.9501
   68SAPC  C312 5803   4.678   1.600   4.450 -0.0494 -0.4447  0.2024
   68SAPC  H12X 5804   4.778   1.616   4.496 -0.1944  1.2656  0.0098
   68SAPC  H12Y 5805   4.646   1.494   4.456  1.0564 -0.7121  2.7602
   68SAPC  C313 5806   4.585   1.679   4.551 -0.4262  0.2333 -0.0265
   68SAPC  H13X 5807   4.483   1.676   4.506  0.2586  0.0102 -1.6149
   68SAPC  H13Y 5808   4.623   1.783   4.555  0.4227 -0.0677 -0.1065
   68SAPC  C314 5809   4.592   1.623   4.695  0.6759 -0.3215  0.0348
   68SAPC  H14X 5810   4.695   1.596   4.725  0.4101 -0.1130  1.1783
   68SAPC  H14Y 5811   4.523   1.536   4.698 -0.8906  0.8721  0.1506
   68SAPC  C315 5812   4.538   1.713   4.801 -0.5340 -0.2183  0.3231
   68SAPC  H15X 5813   4.434   1.743   4.780  0.0762  2.7189  1.1555
   68SAPC  H15Y 5814   4.593   1.809   4.807  0.4717 -0.6684 -0.9820
   68SAPC  C316 5815   4.550   1.632   4.933 -0.4922  0.3134  0.7047
   68SAPC  H16X 5816   4.653   1.595   4.950 -0.6407  0.3829  1.8171
   68SAPC  H16Y 5817   4.488   1.544   4.904  0.1444 -0.0304  0.3612
   68SAPC  C317 5818   4.510   1.714   5.058 -0.0245  0.2032  0.4519
   68SAPC  H17X 5819   4.399   1.715   5.070 -0.1596 -1.3478 -0.3690
   68SAPC  H17Y 5820   4.556   1.815   5.060 -0.2437  0.3652  4.3936
   68SAPC  C318 5821   4.552   1.652   5.191 -0.3104  0.0886 -0.6624
   68SAPC  H18X 5822   4.524   1.546   5.211 -0.3317  0.3268  0.6535
   68SAPC  H18Y 5823   4.509   1.713   5.273 -1.8238 -0.6764 -0.8395
   68SAPC  H18Z 5824   4.662   1.662   5.188 -0.1292 -0.2517  2.2850
   69SAPC     N 5825   5.281   5.754   2.695  0.4806  0.6821  0.0127
   69SAPC   C12 5826   5.349   5.756   2.830 -0.2835 -0.7233 -0.5453
   69SAPC  H12A 5827   5.402   5.662   2.830  1.2738  0.1114 -0.8351
   69SAPC  H12B 5828   5.276   5.757   2.909 -0.1811  5.1422 -0.0417
   69SAPC   C13 5829   5.370   5.816   2.584 -0.1579  0.4839  0.3752
   69SAPC  H13A 5830   5.450   5.748   2.562 -0.6897  0.3326 -1.2587
   69SAPC  H13B 5831   5.308   5.820   2.495  0.0976  0.5516  0.2005
   69SAPC  H13C 5832   5.409   5.912   2.615 -1.0875  0.3376  2.1592
   69SAPC   C14 5833   5.234   5.615   2.647  0.3287 -0.0285  0.2896
   69SAPC  H14A 5834   5.155   5.637   2.577  0.0715  2.3081  1.2263
   69SAPC  H14B 5835   5.309   5.554   2.598 -0.4206  0.7081 -1.9180
   69SAPC  H14C 5836   5.190   5.564   2.731  0.5808 -0.7264  0.0049
   69SAPC   C15 5837   5.155   5.843   2.708 -0.3794 -0.1080 -0.2815
   69SAPC  H15A 5838   5.088   5.769   2.748  1.3130 -1.2990  0.4303
   69SAPC  H15B 5839   5.164   5.923   2.780 -2.7370 -0.9142  1.0111
   69SAPC  H15C 5840   5.116   5.878   2.613 -1.1071 -0.1317  0.0037
   69SAPC   C11 5841   5.455   5.868   2.859 -0.5012 -0.4098 -1.3212
   69SAPC  H11A 5842   5.531   5.861   2.778  0.1321 -0.6201 -0.7247
   69SAPC  H11B 5843   5.503   5.840   2.955 -1.1885 -1.0898 -1.1622
   69SAPC     P 5844   5.400   6.124   2.794  0.2450 -0.1495  0.5259
   69SAPC   O13 5845   5.486   6.109   2.679 -0.3966  0.8910 -0.0640
   69SAPC   O14 5846   5.263   6.166   2.755 -0.3080  0.5080 -0.4941
   69SAPC   O12 5847   5.399   5.989   2.880 -0.0950  0.3963  0.6461
   69SAPC   O11 5848   5.460   6.230   2.895 -0.6109  0.4053  0.0671
   69SAPC    C1 5849   5.514   6.198   3.020  0.5730  0.4636 -0.1239
   69SAPC    HA 5850   5.564   6.099   3.019  0.6599  0.5019 -1.2803
   69SAPC    HB 5851   5.587   6.274   3.055  0.9385 -0.6932  1.7840
   69SAPC    C2 5852   5.400   6.224   3.126 -0.6853 -0.2408  0.2914
   69SAPC    HS 5853   5.448   6.213   3.226  2.9127  0.6314 -1.1850
   69SAPC   O21 5854   5.286   6.128   3.133 -0.4874 -0.1363 -0.0492
   69SAPC   C21 5855   5.324   6.005   3.168  0.6719 -0.6927  0.8758
   69SAPC   O22 5856   5.424   5.967   3.221  0.1291  0.2725  0.8586
   69SAPC   C22 5857   5.199   5.917   3.138  0.5436 -0.1374 -0.5216
   69SAPC   H2R 5858   5.110   5.983   3.145  0.8902  0.6858 -3.0756
   69SAPC   H2S 5859   5.205   5.877   3.035  3.3481 -0.6804 -0.2292
   69SAPC    C3 5860   5.351   6.364   3.106  0.5016  0.0803 -0.0250
   69SAPC    HX 5861   5.294   6.373   3.010  0.9925 -1.1209 -0.4429
   69SAPC    HY 5862   5.441   6.429   3.099 -1.0664  2.3919 -0.1008
   69SAPC   O31 5863   5.269   6.402   3.222 -0.0063 -0.3709  0.1811
   69SAPC   C31 5864   5.228   6.525   3.225 -0.4489 -0.2312  0.2688
   69SAPC   O32 5865   5.267   6.608   3.144  0.1600  0.1555  0.5215
   69SAPC   C32 5866   5.129   6.547   3.326 -0.7440 -0.4642  0.4453
   69SAPC   H2X 5867   5.075   6.456   3.359 -1.7696  0.0262  0.1557
   69SAPC   H2Y 5868   5.048   6.602   3.274 -0.2178  0.7306  0.8605
   69SAPC   C23 5869   5.178   5.788   3.224 -0.5438  0.5368  0.3740
   69SAPC   H3R 5870   5.272   5.734   3.250 -1.1866  0.0753  1.8980
   69SAPC   H3S 5871   5.113   5.719   3.167 -0.1892 -1.7202  2.5262
   69SAPC   C24 5872   5.106   5.821   3.364  0.1034 -0.0933 -0.6724
   69SAPC   H4R 5873   5.020   5.890   3.346  1.1369  1.6044  0.6195
   69SAPC   H4S 5874   5.179   5.857   3.439 -0.3689 -2.5736  1.0962
   69SAPC   C25 5875   5.039   5.695   3.415 -0.1506  0.8909  0.1881
   69SAPC   H5R 5876   4.977   5.643   3.340 -0.0597 -1.3385  1.5491
   69SAPC   C26 5877   5.038   5.641   3.539 -0.5267 -0.0100  0.0030
   69SAPC   H6R 5878   4.995   5.542   3.561 -0.9910  0.5285  1.6704
   69SAPC   C27 5879   5.112   5.708   3.653  0.2251 -1.3067  0.3501
   69SAPC   H7R 5880   5.074   5.812   3.661 -2.0200 -1.9526 -0.9513
   69SAPC   H7S 5881   5.218   5.719   3.621 -0.0055 -2.4304 -0.8907
   69SAPC   C28 5882   5.110   5.632   3.784 -0.5411  0.2398 -0.6641
   69SAPC   H8R 5883   5.123   5.525   3.764  1.6041 -0.3078  2.8753
   69SAPC   C29 5884   5.116   5.677   3.910  0.2231 -0.1596 -0.3820
   69SAPC   H9R 5885   5.109   5.602   3.990 -1.6799  1.4038  1.0581
   69SAPC  C210 5886   5.113   5.818   3.955  0.4389  0.9501  0.5857
   69SAPC  H10R 5887   5.012   5.843   3.993 -0.2499  2.4271 -1.9953
   69SAPC  H10S 5888   5.110   5.888   3.870 -2.8292 -0.4294 -0.5865
   69SAPC  C211 5889   5.223   5.856   4.049 -0.6499  0.1962 -0.7597
   69SAPC  H11R 5890   5.320   5.806   4.036 -1.6194 -2.7646  1.8763
   69SAPC  C212 5891   5.207   5.920   4.166  0.4893 -0.4513 -0.4605
   69SAPC  H12R 5892   5.294   5.936   4.232 -0.2412  2.3851 -0.0462
   69SAPC  C213 5893   5.074   5.976   4.216  1.4517 -0.5010 -0.7615
   69SAPC  H13R 5894   5.046   5.907   4.299  1.5968  0.7233  0.3331
   69SAPC  H13S 5895   4.994   5.977   4.139 -0.6171 -3.1501  1.1500
   69SAPC  C214 5896   5.076   6.114   4.277 -0.0603  0.6620 -0.0594
   69SAPC  H14R 5897   5.057   6.199   4.210  4.7925  0.3192 -2.3452
   69SAPC  C215 5898   5.124   6.146   4.400 -0.0544 -0.1129 -0.1605
   69SAPC  H15R 5899   5.116   6.249   4.439 -2.7629 -0.2387 -0.1757
   69SAPC  C216 5900   5.179   6.045   4.496 -0.4494 -0.7118  0.1742
   69SAPC  H16R 5901   5.289   6.059   4.497 -0.3181 -1.3334 -1.7611
   69SAPC  H16S 5902   5.157   5.939   4.472 -0.2160 -0.7689  0.2109
   69SAPC  C217 5903   5.120   6.073   4.636 -0.6801 -0.7094 -0.1155
   69SAPC  H17R 5904   5.009   6.071   4.644 -0.7918 -2.9065 -1.3114
   69SAPC  H17S 5905   5.150   6.177   4.661  0.7437 -0.9155 -0.8724
   69SAPC  C218 5906   5.192   5.992   4.752 -0.6658  0.7762 -0.0652
   69SAPC  H18R 5907   5.188   6.042   4.851 -3.8506 -0.1009  0.3776
   69SAPC  H18S 5908   5.297   5.966   4.727 -0.7897  2.0557 -2.1386
   69SAPC  C219 5909   5.123   5.854   4.787 -0.1106 -0.4890  0.6766
   69SAPC  H19R 5910   5.112   5.804   4.689 -2.2626  1.6001 -0.2541
   69SAPC  H19S 5911   5.017   5.872   4.815 -0.2316  1.9055 -0.9485
   69SAPC  C220 5912   5.191   5.780   4.902 -0.5624 -0.9836 -0.3883
   69SAPC  H20R 5913   5.117   5.712   4.948 -0.0614 -1.9059 -0.9192
   69SAPC  H20S 5914   5.226   5.852   4.980  2.2295 -0.8686 -1.6131
   69SAPC  H20T 5915   5.287   5.731   4.875 -0.5024 -0.4790 -1.1140
   69SAPC   C33 5916   5.192   6.632   3.441  0.0957  0.5451 -0.1930
   69SAPC   H3X 5917   5.261   6.715   3.420 -1.1567  1.7522  0.3047
   69SAPC   H3Y 5918   5.251   6.558   3.499 -0.4829 -0.6175 -1.0173
   69SAPC   C34 5919   5.084   6.679   3.547 -0.0755  0.5228  0.1086
   69SAPC   H4X 5920   5.026   6.586   3.566 -0.7323  1.6465  4.7416
   69SAPC   H4Y 5921   5.022   6.756   3.496 -0.2469  1.1006  1.1731
   69SAPC   C35 5922   5.151   6.738   3.666 -0.4045  0.3502 -0.3160
   69SAPC   H5X 5923   5.180   6.844   3.646  1.1504  0.2694  1.2223
   69SAPC   H5Y 5924   5.237   6.679   3.702 -1.1944 -0.0635  0.9667
   69SAPC   C36 5925   5.061   6.772   3.786 -0.1324  0.1815  0.7255
   69SAPC   H6X 5926   4.994   6.685   3.796 -0.5919 -0.2267 -3.8460
   69SAPC   H6Y 5927   5.001   6.862   3.761 -1.4124 -1.2714 -1.9130
   69SAPC   C37 5928   5.133   6.789   3.916 -0.1559 -0.1660  0.3944
   69SAPC   H7X 5929   5.220   6.858   3.913  0.9570 -1.5507 -1.7649
   69SAPC   H7Y 5930   5.177   6.691   3.943  0.8487  0.3568  0.7090
   69SAPC   C38 5931   5.047   6.829   4.037 -0.2473 -0.4078 -0.2054
   69SAPC   H8X 5932   4.966   6.752   4.034  1.2327 -2.0235 -0.6446
   69SAPC   H8Y 5933   5.003   6.927   4.011  2.8295  0.9126 -0.8564
   69SAPC   C39 5934   5.116   6.829   4.173 -0.1248  0.7073 -0.2253
   69SAPC   H9X 5935   5.213   6.884   4.179  0.6967 -0.6817 -0.2748
   69SAPC   H9Y 5936   5.148   6.723   4.185 -2.4778 -0.0447 -0.2484
   69SAPC  C310 5937   5.023   6.867   4.287 -0.2495 -0.1549  0.4307
   69SAPC  H10X 5938   4.941   6.794   4.304  0.3509 -1.3469 -1.4057
   69SAPC  H10Y 5939   4.986   6.971   4.273  0.9772  0.1235 -1.0960
   69SAPC  C311 5940   5.100   6.875   4.421  0.0612 -0.4279 -0.4767
   69SAPC  H11X 5941   5.178   6.951   4.403  0.8343 -1.9188 -4.1773
   69SAPC  H11Y 5942   5.152   6.779   4.441  1.1467  0.6132  2.1498
   69SAPC  C312 5943   5.012   6.899   4.542  0.1872 -0.4382  0.5712
   69SAPC  H12X 5944   5.061   6.872   4.638  0.5258  0.4596  0.6666
   69SAPC  H12Y 5945   4.910   6.856   4.539 -1.8891  3.8903 -0.3986
   69SAPC  C313 5946   4.997   7.054   4.553 -0.5773 -0.5418  0.4457
   69SAPC  H13X 5947   4.982   7.100   4.454 -1.6484 -0.8369  0.4567
   69SAPC  H13Y 5948   5.098   7.086   4.586  0.8148 -0.1031 -3.7058
   69SAPC  C314 5949   4.886   7.095   4.646 -0.4962  0.2117  0.0564
   69SAPC  H14X 5950   4.863   7.005   4.708 -2.2028  0.3499 -0.3178
   69SAPC  H14Y 5951   4.789   7.113   4.596 -0.4135 -0.2605 -0.2816
   69SAPC  C315 5952   4.921   7.214   4.739  0.7348 -0.2813 -0.3593
   69SAPC  H15X 5953   4.830   7.267   4.773  1.2512 -1.9380  4.5335
   69SAPC  H15Y 5954   4.988   7.281   4.680  0.9558 -0.1133  0.0748
   69SAPC  C316 5955   4.965   7.166   4.872 -0.3792 -0.1788 -0.2870
   69SAPC  H16X 5956   5.051   7.097   4.860 -2.1754 -2.9864  1.6775
   69SAPC  H16Y 5957   4.890   7.096   4.916  0.7813  0.1058  2.3013
   69SAPC  C317 5958   4.993   7.278   4.972 -0.2606 -0.8892  0.0768
   69SAPC  H17X 5959   4.917   7.359   4.973  2.2434  1.6191 -0.3299
   69SAPC  H17Y 5960   5.087   7.336   4.956  0.0221 -1.1526  0.7345
   69SAPC  C318 5961   5.009   7.224   5.123  0.5779  0.2950 -0.2275
   69SAPC  H18X 5962   5.052   7.122   5.116 -1.8164 -0.6506 -4.1589
   69SAPC  H18Y 5963   4.911   7.207   5.172 -0.3764 -0.1297 -2.1908
   69SAPC  H18Z 5964   5.063   7.293   5.192  0.6191  0.0336  0.0012
   70SAPC     N 5965   0.496   4.322   2.826  0.1220 -0.0608 -0.0355
   70SAPC   C12 5966   0.550   4.173   2.802 -0.2038 -0.3223  0.1583
   70SAPC  H12A 5967   0.642   4.177   2.746  0.2090  1.5380  0.8672
   70SAPC  H12B 5968   0.478   4.115   2.747 -0.4784 -0.6781  0.8901
   70SAPC   C13 5969   0.605   4.414   2.885 -0.1653 -0.2118 -0.4392
   70SAPC  H13A 5970   0.622   4.381   2.986 -3.2902 -1.2736 -0.1310
   70SAPC  H13B 5971   0.694   4.395   2.826 -1.8101 -1.5694 -2.6629
   70SAPC  H13C 5972   0.580   4.519   2.884  0.4974 -0.0324  0.6482
   70SAPC   C14 5973   0.443   4.384   2.689 -0.6042  0.1961 -0.3788
   70SAPC  H14A 5974   0.526   4.397   2.621 -0.5804 -1.0080 -0.6119
   70SAPC  H14B 5975   0.371   4.314   2.649  0.8688 -1.5494 -0.1120
   70SAPC  H14C 5976   0.403   4.482   2.711 -0.7746  0.7128 -2.7757
   70SAPC   C15 5977   0.382   4.327   2.922  0.4955 -0.0725 -0.0031
   70SAPC  H15A 5978   0.418   4.280   3.012  0.6521 -2.6926 -1.3304
   70SAPC  H15B 5979   0.365   4.431   2.945 -0.1903  0.1994 -1.6367
   70SAPC  H15C 5980   0.296   4.276   2.879  0.3229  0.3342 -0.1423
   70SAPC   C11 5981   0.593   4.095   2.937  0.3419  0.3007  0.3458
   70SAPC  H11A 5982   0.688   4.148   2.961 -0.2628  2.3356 -1.4296
   70SAPC  H11B 5983   0.628   3.993   2.910  2.1229  1.0187 -0.1641
   70SAPC     P 5984   0.556   4.008   3.172 -0.2578 -0.2333 -0.2136
   70SAPC   O13 5985   0.439   3.980   3.255  0.7416 -0.4699 -0.7104
   70SAPC   O14 5986   0.638   3.890   3.133  0.0350  0.3717  0.5363
   70SAPC   O12 5987   0.504   4.083   3.047  0.7953  0.6282 -0.1334
   70SAPC   O11 5988   0.652   4.121   3.239  0.2254  0.2843 -0.1754
   70SAPC    C1 5989   0.601   4.253   3.261  0.4088 -0.6067  0.4035
   70SAPC    HA 5990   0.664   4.326   3.205 -0.7017  1.7217  1.9973
   70SAPC    HB 5991   0.495   4.266   3.230  0.6396 -1.2399 -0.7047
   70SAPC    C2 5992   0.608   4.299   3.413 -0.2173  0.1961 -0.2869
   70SAPC    HS 5993   0.573   4.404   3.425  1.3153  0.6516  0.3425
   70SAPC   O21 5994   0.741   4.281   3.469 -0.0858 -0.0871  0.2608
   70SAPC   C21 5995   0.819   4.375   3.433 -0.3967  0.5869  0.2967
   70SAPC   O22 5996   0.789   4.462   3.352 -0.1989  0.1908  0.1276
   70SAPC   C22 5997   0.967   4.363   3.496 -0.2920  0.7350  0.3542
   70SAPC   H2R 5998   0.964   4.272   3.559  1.3190  1.3594  1.4056
   70SAPC   H2S 5999   1.029   4.336   3.408  0.9683  1.3784  1.0223
   70SAPC    C3 6000   0.503   4.222   3.496  0.7178  0.7649  0.4274
   70SAPC    HX 6001   0.526   4.114   3.509 -0.0005  0.6225  0.5688
   70SAPC    HY 6002   0.408   4.226   3.440  0.8372 -1.6850 -0.0486
   70SAPC   O31 6003   0.482   4.282   3.628  0.2733  0.2672 -0.0482
   70SAPC   C31 6004   0.550   4.221   3.735 -0.4028  0.3928 -0.6067
   70SAPC   O32 6005   0.630   4.129   3.715 -0.5205 -0.3804  0.1130
   70SAPC   C32 6006   0.502   4.284   3.867 -0.2637 -0.3500  0.1715
   70SAPC   H2X 6007   0.397   4.317   3.852 -0.2059  0.8686  2.1302
   70SAPC   H2Y 6008   0.566   4.375   3.875  0.7698 -0.6126 -3.3166
   70SAPC   C23 6009   1.007   4.489   3.569 -0.7336 -0.1616  0.0805
   70SAPC   H3R 6010   1.007   4.580   3.506 -3.5281 -1.7467 -2.4309
   70SAPC   H3S 6011   1.113   4.486   3.602 -1.2632  0.7606  2.0353
   70SAPC   C24 6012   0.916   4.507   3.702 -0.8509 -0.0968  1.0639
   70SAPC   H4R 6013   0.817   4.549   3.673  0.2007  1.8874  0.1496
   70SAPC   H4S 6014   0.974   4.583   3.759  1.0293  0.0143 -0.8722
   70SAPC   C25 6015   0.875   4.382   3.774 -0.1332  0.0411  0.2251
   70SAPC   H5R 6016   0.850   4.291   3.717  1.4819 -1.2243  1.4295
   70SAPC   C26 6017   0.889   4.374   3.905  0.2781  0.5802 -0.1648
   70SAPC   H6R 6018   0.849   4.277   3.940  0.3308 -0.1868 -2.0850
   70SAPC   C27 6019   0.939   4.465   4.012  1.0882 -0.7671 -0.3822
   70SAPC   H7R 6020   1.016   4.534   3.971  1.7595  0.7867  3.0950
   70SAPC   H7S 6021   0.991   4.407   4.092  1.5270  0.4149  0.2254
   70SAPC   C28 6022   0.829   4.566   4.057  0.6200  0.0876 -0.6042
   70SAPC   H8R 6023   0.786   4.623   3.973 -2.1575 -1.9417 -0.6910
   70SAPC   C29 6024   0.772   4.575   4.175  0.3991 -0.3183 -0.6268
   70SAPC   H9R 6025   0.692   4.649   4.192 -0.1377 -0.2956 -2.9801
   70SAPC  C210 6026   0.799   4.509   4.304 -0.0425  0.0171 -0.6084
   70SAPC  H10R 6027   0.852   4.412   4.298 -0.2037 -0.1838  0.7748
   70SAPC  H10S 6028   0.708   4.474   4.358  0.5860 -0.3426  0.2240
   70SAPC  C211 6029   0.884   4.602   4.383  0.4309  0.3583 -0.3637
   70SAPC  H11R 6030   0.980   4.616   4.331  0.6540 -2.2491 -0.7941
   70SAPC  C212 6031   0.857   4.648   4.506  1.0960 -0.6201  0.0153
   70SAPC  H12R 6032   0.933   4.718   4.543 -0.5586  2.2630 -1.7222
   70SAPC  C213 6033   0.733   4.630   4.588  0.3082  0.1119 -0.5127
   70SAPC  H13R 6034   0.762   4.556   4.666  2.4658  1.3199 -0.0971
   70SAPC  H13S 6035   0.655   4.574   4.531  0.8645 -0.3810 -0.8094
   70SAPC  C214 6036   0.683   4.761   4.646 -0.6448 -0.7016 -0.0030
   70SAPC  H14R 6037   0.621   4.816   4.573  0.1953  0.5288  0.1848
   70SAPC  C215 6038   0.699   4.815   4.766 -0.4311  0.8400 -0.8135
   70SAPC  H15R 6039   0.644   4.908   4.784 -0.4007  0.9029 -1.0444
   70SAPC  C216 6040   0.779   4.757   4.893  0.1751 -0.1850 -0.8923
   70SAPC  H16R 6041   0.856   4.827   4.932 -0.7646  0.5134 -0.2566
   70SAPC  H16S 6042   0.824   4.658   4.869  2.7597  0.7604 -0.3086
   70SAPC  C217 6043   0.684   4.728   5.010  0.5012  1.1233 -0.2295
   70SAPC  H17R 6044   0.604   4.804   5.023 -0.0283  0.7075 -0.9668
   70SAPC  H17S 6045   0.736   4.730   5.108 -2.1852  2.3516  1.3007
   70SAPC  C218 6046   0.625   4.585   5.020 -0.3062  0.3442 -0.1195
   70SAPC  H18R 6047   0.708   4.514   4.997 -2.3500 -1.5932 -1.9832
   70SAPC  H18S 6048   0.559   4.572   4.932 -3.1491 -0.9640  2.0514
   70SAPC  C219 6049   0.548   4.552   5.145 -0.3409  0.2820 -0.0333
   70SAPC  H19R 6050   0.452   4.608   5.153  0.2601  1.4639 -0.8756
   70SAPC  H19S 6051   0.599   4.581   5.239 -0.6012  0.8931 -0.0742
   70SAPC  C220 6052   0.522   4.400   5.159  0.0273  0.2302 -0.1740
   70SAPC  H20R 6053   0.455   4.392   5.247 -0.9568  0.8607 -0.8429
   70SAPC  H20S 6054   0.624   4.360   5.178  0.0857 -0.0473 -1.0120
   70SAPC  H20T 6055   0.480   4.348   5.070 -1.3269 -1.0573  1.1790
   70SAPC   C33 6056   0.519   4.202   4.001 -0.1337  0.4803 -0.2190
   70SAPC   H3X 6057   0.626   4.198   4.032  0.8046  0.9492 -3.0703
   70SAPC   H3Y 6058   0.497   4.094   3.991 -1.7429  0.6337  1.2010
   70SAPC   C34 6059   0.436   4.263   4.120  0.3663 -0.2186  1.1725
   70SAPC   H4X 6060   0.337   4.213   4.110  0.6911 -0.5656 -0.6019
   70SAPC   H4Y 6061   0.413   4.370   4.098 -2.0846 -0.5219  1.9781
   70SAPC   C35 6062   0.494   4.234   4.258 -0.1197 -0.0212 -0.3888
   70SAPC   H5X 6063   0.574   4.307   4.283  0.1125 -0.6053  0.6674
   70SAPC   H5Y 6064   0.545   4.136   4.249 -1.1710 -0.4311 -2.4629
   70SAPC   C36 6065   0.392   4.217   4.362  0.2419  0.2891 -0.4932
   70SAPC   H6X 6066   0.337   4.130   4.321 -1.3560  0.6001  0.8855
   70SAPC   H6Y 6067   0.327   4.307   4.357  2.9213  2.3095 -1.5769
   70SAPC   C37 6068   0.438   4.197   4.503  0.4578 -0.6814  0.4896
   70SAPC   H7X 6069   0.361   4.208   4.582  1.0035 -0.7285  1.0438
   70SAPC   H7Y 6070   0.474   4.092   4.508 -1.0706 -1.1821  1.5331
   70SAPC   C38 6071   0.563   4.275   4.549 -0.3527  0.1343 -0.0975
   70SAPC   H8X 6072   0.545   4.382   4.528 -0.7321  0.0728 -0.0875
   70SAPC   H8Y 6073   0.649   4.247   4.484 -0.9442  1.1023 -1.3546
   70SAPC   C39 6074   0.588   4.270   4.700  0.3015  0.1558  0.3392
   70SAPC   H9X 6075   0.488   4.278   4.748  0.7333 -0.4013  1.3553
   70SAPC   H9Y 6076   0.652   4.353   4.736  2.7969 -0.8546 -1.4899
   70SAPC  C310 6077   0.643   4.138   4.749 -0.0387 -0.5181  0.1488
   70SAPC  H10X 6078   0.712   4.087   4.678  0.2806 -0.5645  0.4882
   70SAPC  H10Y 6079   0.556   4.071   4.768  0.2420 -1.1705 -0.7978
   70SAPC  C311 6080   0.706   4.152   4.885 -0.0796 -0.9289 -0.3543
   70SAPC  H11X 6081   0.626   4.190   4.953 -0.3814 -0.9371 -0.6997
   70SAPC  H11Y 6082   0.792   4.220   4.868 -1.0894  0.1521 -1.3837
   70SAPC  C312 6083   0.745   4.019   4.948 -0.2501  0.0093  0.3239
   70SAPC  H12X 6084   0.762   3.943   4.869  0.9225  0.2076  0.3590
   70SAPC  H12Y 6085   0.657   3.984   5.006 -0.5025 -0.4080 -0.3033
   70SAPC  C313 6086   0.858   4.040   5.045  0.4988 -0.3967  0.2679
   70SAPC  H13X 6087   0.850   4.141   5.090 -0.8926 -0.7004  0.7876
   70SAPC  H13Y 6088   0.950   4.051   4.985 -0.2147  3.6145 -0.3692
   70SAPC  C314 6089   0.871   3.929   5.151  0.1778 -0.0703  0.5266
   70SAPC  H14X 6090   0.769   3.918   5.195 -0.6901 -4.2413 -2.0064
   70SAPC  H14Y 6091   0.943   3.954   5.231  0.4395 -1.5295  0.7770
   70SAPC  C315 6092   0.913   3.799   5.083  0.3502  0.0777 -0.2015
   70SAPC  H15X 6093   0.995   3.804   5.009  2.8106 -1.1435  2.2434
   70SAPC  H15Y 6094   0.829   3.748   5.032  0.4095  0.8193 -1.0736
   70SAPC  C316 6095   0.979   3.714   5.198 -0.3181  0.1404 -0.3383
   70SAPC  H16X 6096   0.916   3.705   5.288  1.0783  1.4711  0.8347
   70SAPC  H16Y 6097   1.078   3.757   5.226  0.6564 -2.4234  0.4867
   70SAPC  C317 6098   1.014   3.572   5.144 -0.0330  0.5217 -0.0228
   70SAPC  H17X 6099   0.929   3.518   5.097 -0.4807 -0.5354  1.8541
   70SAPC  H17Y 6100   1.053   3.514   5.231 -0.5691 -0.0788 -0.1733
   70SAPC  C318 6101   1.137   3.585   5.058  0.3457 -0.0947 -0.7216
   70SAPC  H18X 6102   1.107   3.640   4.967 -0.9094 -1.2557 -1.0469
   70SAPC  H18Y 6103   1.179   3.488   5.023 -1.1726 -0.7722 -0.7531
   70SAPC  H18Z 6104   1.216   3.638   5.114 -0.0571  0.1222 -0.3521
   71SAPC     N 6105   6.780   2.596   2.256 -0.3279 -0.1770 -0.3777
   71SAPC   C12 6106   6.732   2.521   2.382 -0.1224 -0.4099  0.6704
   71SAPC  H12A 6107   6.637   2.474   2.361 -0.7440  1.2468 -0.4260
   71SAPC  H12B 6108   6.714   2.593   2.460  2.4119  1.0320  0.0430
   71SAPC   C13 6109   6.664   2.684   2.216 -0.3048  0.6030 -0.5573
   71SAPC  H13A 6110   6.577   2.627   2.187 -0.3523 -0.5532  1.6701
   71SAPC  H13B 6111   6.633   2.740   2.304  1.7143 -0.8725  1.1960
   71SAPC  H13C 6112   6.696   2.764   2.151  0.5751 -0.4390 -1.4430
   71SAPC   C14 6113   6.895   2.686   2.280 -1.1411 -0.5415 -0.4694
   71SAPC  H14A 6114   6.941   2.725   2.190 -0.0107  1.1953  0.8028
   71SAPC  H14B 6115   6.872   2.771   2.342 -0.2299  0.4718 -1.4793
   71SAPC  H14C 6116   6.974   2.634   2.333  0.6116  2.1683 -0.2321
   71SAPC   C15 6117   6.813   2.512   2.138  0.1621 -0.0651 -1.1686
   71SAPC  H15A 6118   6.732   2.439   2.135 -1.4951  1.4114  2.2228
   71SAPC  H15B 6119   6.816   2.578   2.053 -0.5625 -1.2037 -2.1063
   71SAPC  H15C 6120   6.905   2.456   2.150  1.3232  1.6130 -2.0049
   71SAPC   C11 6121   6.826   2.402   2.435 -0.1886  0.0242 -0.2685
   71SAPC  H11A 6122   6.816   2.326   2.354 -0.8955  0.5323 -0.6723
   71SAPC  H11B 6123   6.775   2.369   2.527 -1.3993  0.8276 -0.6316
   71SAPC     P 6124   7.054   2.332   2.533  0.4399 -0.1819 -0.4584
   71SAPC   O13 6125   6.984   2.201   2.555  0.0708 -0.1522  0.3670
   71SAPC   O14 6126   7.186   2.339   2.467  0.8196 -0.6238  0.3082
   71SAPC   O12 6127   6.959   2.437   2.464  0.7382  0.1363  0.0733
   71SAPC   O11 6128   7.072   2.399   2.681 -0.4206 -0.8724 -0.3756
   71SAPC    C1 6129   7.074   2.543   2.700 -0.7688  0.3375  0.4057
   71SAPC    HA 6130   7.177   2.576   2.729 -1.4610  3.4301 -0.3460
   71SAPC    HB 6131   7.051   2.592   2.603 -0.7515  0.4664  0.4672
   71SAPC    C2 6132   6.972   2.602   2.807 -0.0522  0.0460  0.1390
   71SAPC    HS 6133   6.991   2.712   2.802  2.9526 -0.4358 -1.1806
   71SAPC   O21 6134   6.994   2.546   2.938 -0.0091  0.2402 -0.1405
   71SAPC   C21 6135   7.103   2.598   2.991 -0.1791 -0.3199 -0.7543
   71SAPC   O22 6136   7.172   2.688   2.945 -0.3832 -0.1141 -0.0130
   71SAPC   C22 6137   7.140   2.516   3.112 -0.0550  0.4077  1.1677
   71SAPC   H2R 6138   7.131   2.408   3.087  0.1098  0.8669 -1.0407
   71SAPC   H2S 6139   7.249   2.530   3.131 -0.2972  1.5685  1.7652
   71SAPC    C3 6140   6.832   2.570   2.765 -0.7459  0.4030 -0.0814
   71SAPC    HX 6141   6.827   2.460   2.754 -1.0989  0.2040  1.7384
   71SAPC    HY 6142   6.825   2.616   2.664  2.6053  0.5469 -0.3425
   71SAPC   O31 6143   6.732   2.614   2.859  0.1234  0.1420  0.1749
   71SAPC   C31 6144   6.611   2.592   2.815 -0.1876  0.1283 -0.1224
   71SAPC   O32 6145   6.575   2.539   2.716 -0.2053 -0.2285 -0.1390
   71SAPC   C32 6146   6.519   2.629   2.923 -0.1512 -0.1041 -0.9038
   71SAPC   H2X 6147   6.416   2.624   2.882 -0.5496  0.8550 -0.0682
   71SAPC   H2Y 6148   6.510   2.736   2.950 -2.9410  0.1209 -2.3199
   71SAPC   C23 6149   7.053   2.553   3.237 -0.3909  0.2576 -0.0714
   71SAPC   H3R 6150   7.033   2.662   3.245  0.0113  0.2736  0.8352
   71SAPC   H3S 6151   7.111   2.521   3.326 -0.6838  1.3746  0.5339
   71SAPC   C24 6152   6.911   2.486   3.250  0.0143  0.2195 -0.5165
   71SAPC   H4R 6153   6.845   2.524   3.170  0.4390 -1.1196 -1.5482
   71SAPC   H4S 6154   6.864   2.516   3.345 -0.4460 -0.8060 -0.4054
   71SAPC   C25 6155   6.913   2.337   3.242  0.4383 -0.8136  0.2957
   71SAPC   H5R 6156   6.923   2.314   3.135 -1.8927 -1.9848  0.2480
   71SAPC   C26 6157   6.916   2.247   3.338  1.1006 -0.7559 -0.4847
   71SAPC   H6R 6158   6.922   2.144   3.302  2.1455 -1.1702  0.7682
   71SAPC   C27 6159   6.907   2.265   3.488 -0.2221 -0.2049 -0.1118
   71SAPC   H7R 6160   6.823   2.208   3.531  0.4674 -1.4467 -0.3768
   71SAPC   H7S 6161   6.883   2.373   3.496  1.0305  0.1858 -1.1048
   71SAPC   C28 6162   7.046   2.231   3.536 -0.3459  0.3433  0.1423
   71SAPC   H8R 6163   7.131   2.280   3.487  2.5925 -3.0197  1.3765
   71SAPC   C29 6164   7.073   2.154   3.646 -0.1554  0.1691  0.1207
   71SAPC   H9R 6165   7.179   2.148   3.676  0.3249 -0.0962 -1.5412
   71SAPC  C210 6166   6.976   2.071   3.737 -0.2207 -1.2466  0.2753
   71SAPC  H10R 6167   6.877   2.122   3.733  1.3786  2.3134  1.6975
   71SAPC  H10S 6168   7.013   2.084   3.841  0.2732  1.7208 -0.1564
   71SAPC  C211 6169   6.957   1.936   3.695  0.1857 -0.5831  0.1039
   71SAPC  H11R 6170   6.937   1.926   3.587  0.7441  0.3894 -0.1012
   71SAPC  C212 6171   6.959   1.827   3.776 -0.0485  0.0806  0.2379
   71SAPC  H12R 6172   6.921   1.732   3.735  2.0538 -0.1727 -1.3376
   71SAPC  C213 6173   6.982   1.811   3.925 -0.0196 -0.5925 -1.0131
   71SAPC  H13R 6174   7.019   1.904   3.973  0.8470 -2.0078  1.2246
   71SAPC  H13S 6175   7.078   1.757   3.936  0.5363  0.7263  1.3558
   71SAPC  C214 6176   6.865   1.756   4.002 -0.6572  0.1883 -0.2336
   71SAPC  H14R 6177   6.778   1.749   3.935  0.8183 -1.9254 -2.0741
   71SAPC  C215 6178   6.850   1.719   4.131  0.6480  0.3755  0.0099
   71SAPC  H15R 6179   6.756   1.666   4.154  0.9177 -0.1737 -0.1129
   71SAPC  C216 6180   6.946   1.713   4.250  0.7366 -0.0407  0.3854
   71SAPC  H16R 6181   7.045   1.744   4.211  0.2178  0.3797 -0.6427
   71SAPC  H16S 6182   6.945   1.607   4.283  0.7042  0.6481  2.8122
   71SAPC  C217 6183   6.908   1.809   4.368 -0.2964 -0.4075 -0.2896
   71SAPC  H17R 6184   6.802   1.806   4.402  0.1950  4.3611  2.5302
   71SAPC  H17S 6185   6.919   1.911   4.326 -1.4528 -1.0434 -2.3167
   71SAPC  C218 6186   7.002   1.815   4.492  0.3177  0.7266 -0.0466
   71SAPC  H18R 6187   6.958   1.897   4.552 -0.8931  0.1526 -0.1048
   71SAPC  H18S 6188   7.104   1.840   4.457 -0.3600  3.3923 -0.3323
   71SAPC  C219 6189   7.007   1.689   4.583  0.0241  0.4686 -0.2823
   71SAPC  H19R 6190   7.078   1.720   4.663  0.0179 -0.0319 -0.0843
   71SAPC  H19S 6191   7.051   1.601   4.531  4.4382  2.2584 -0.0518
   71SAPC  C220 6192   6.871   1.647   4.629 -0.0558 -0.6524  0.0432
   71SAPC  H20R 6193   6.812   1.734   4.662 -0.0614 -0.1240 -1.2928
   71SAPC  H20S 6194   6.870   1.582   4.719 -1.2125 -0.1590  0.3995
   71SAPC  H20T 6195   6.815   1.602   4.545 -0.6326  2.0717 -1.1086
   71SAPC   C33 6196   6.517   2.531   3.041  0.7722 -0.0971 -0.2906
   71SAPC   H3X 6197   6.591   2.552   3.121 -0.9516  0.5412  1.2188
   71SAPC   H3Y 6198   6.558   2.434   3.005 -0.6273 -0.4524 -1.0260
   71SAPC   C34 6199   6.375   2.503   3.102 -0.6070  0.4508 -0.3233
   71SAPC   H4X 6200   6.322   2.447   3.022  1.2318  0.7076 -1.7847
   71SAPC   H4Y 6201   6.328   2.603   3.115 -0.9878  0.1776  0.5128
   71SAPC   C35 6202   6.394   2.425   3.227  0.2087  0.0124  0.2751
   71SAPC   H5X 6203   6.449   2.328   3.224 -2.6215 -1.8050  2.1047
   71SAPC   H5Y 6204   6.289   2.401   3.252 -0.4313  2.4346  0.1507
   71SAPC   C36 6205   6.441   2.502   3.356 -0.4375 -0.1352  0.3758
   71SAPC   H6X 6206   6.391   2.601   3.357 -0.9198 -0.3720  0.7655
   71SAPC   H6Y 6207   6.550   2.521   3.347 -0.1959  0.4325  3.4844
   71SAPC   C37 6208   6.413   2.431   3.492  0.4303 -0.6275 -0.1735
   71SAPC   H7X 6209   6.456   2.329   3.483 -0.1150 -0.7221 -2.3018
   71SAPC   H7Y 6210   6.303   2.444   3.501  0.6413  4.8888 -1.8062
   71SAPC   C38 6211   6.483   2.506   3.605  0.2977 -0.6712 -0.7447
   71SAPC   H8X 6212   6.452   2.612   3.618 -0.0630 -0.8925  0.3021
   71SAPC   H8Y 6213   6.592   2.497   3.587  0.3020 -2.4217 -0.0434
   71SAPC   C39 6214   6.468   2.435   3.736  0.0990 -0.8164 -0.7293
   71SAPC   H9X 6215   6.506   2.331   3.730  1.3315 -0.3299 -1.9026
   71SAPC   H9Y 6216   6.362   2.428   3.770  0.3441 -1.4639 -0.0636
   71SAPC  C310 6217   6.549   2.504   3.846 -0.6835 -0.0812  0.1266
   71SAPC  H10X 6218   6.504   2.601   3.878  0.3319  0.3197  0.3830
   71SAPC  H10Y 6219   6.655   2.522   3.819 -0.4643 -1.1980  0.2093
   71SAPC  C311 6220   6.549   2.417   3.975  0.5949  0.8675  0.0542
   71SAPC  H11X 6221   6.570   2.313   3.942 -1.9572  0.8724 -1.9192
   71SAPC  H11Y 6222   6.448   2.407   4.020  0.7322  0.2234  0.2297
   71SAPC  C312 6223   6.657   2.464   4.081  0.0152 -0.0113  0.1725
   71SAPC  H12X 6224   6.628   2.562   4.124  2.8653  1.4270 -0.9382
   71SAPC  H12Y 6225   6.750   2.485   4.023  0.7001  2.3054  1.9563
   71SAPC  C313 6226   6.672   2.359   4.196  0.2087  1.0038  0.1427
   71SAPC  H13X 6227   6.706   2.274   4.132  1.8966  0.9560  1.0541
   71SAPC  H13Y 6228   6.571   2.343   4.241  0.5900  4.5391  2.6452
   71SAPC  C314 6229   6.775   2.406   4.301  0.3517  0.2467  0.9564
   71SAPC  H14X 6230   6.737   2.502   4.342 -0.8162  1.3288 -2.3668
   71SAPC  H14Y 6231   6.865   2.425   4.240 -0.2696 -2.2844 -0.9050
   71SAPC  C315 6232   6.791   2.295   4.396 -0.2517 -0.1017  0.3393
   71SAPC  H15X 6233   6.817   2.197   4.351 -3.0491 -0.7292 -0.0327
   71SAPC  H15Y 6234   6.702   2.280   4.460  0.0414 -1.6340  0.4237
   71SAPC  C316 6235   6.896   2.327   4.506  0.4891  0.4675  0.4974
   71SAPC  H16X 6236   6.880   2.254   4.588 -1.3785  1.2279  0.8447
   71SAPC  H16Y 6237   6.864   2.425   4.547  0.7413 -0.0867  2.0951
   71SAPC  C317 6238   7.051   2.335   4.464  0.2259  0.6862  0.8178
   71SAPC  H17X 6239   7.047   2.418   4.390 -1.3136  2.1061  2.3901
   71SAPC  H17Y 6240   7.069   2.239   4.412  0.3647  0.0146  2.0723
   71SAPC  C318 6241   7.148   2.380   4.577 -0.5311 -1.1520 -0.0106
   71SAPC  H18X 6242   7.254   2.369   4.548 -1.1370  0.8875 -3.6098
   71SAPC  H18Y 6243   7.132   2.320   4.669  2.3623 -1.8196  0.1564
   71SAPC  H18Z 6244   7.122   2.486   4.598 -1.6218 -1.6368  1.2342
   72SAPC     N 6245   5.670   1.601   2.420  0.6702 -0.2711  0.2274
   72SAPC   C12 6246   5.556   1.511   2.392 -0.0289 -0.2968 -0.4550
   72SAPC  H12A 6247   5.525   1.532   2.291 -2.1654 -4.0923 -0.7515
   72SAPC  H12B 6248   5.471   1.543   2.451  0.8654  1.9317 -0.2500
   72SAPC   C13 6249   5.641   1.752   2.392 -0.0117 -0.1881 -0.2189
   72SAPC  H13A 6250   5.586   1.791   2.476  1.1858  0.7224  0.1795
   72SAPC  H13B 6251   5.733   1.807   2.380  0.1316 -0.3381  0.1850
   72SAPC  H13C 6252   5.581   1.767   2.304  0.8224 -0.9157 -0.9359
   72SAPC   C14 6253   5.718   1.586   2.561 -0.2533  0.6168 -0.4851
   72SAPC  H14A 6254   5.648   1.640   2.623  0.8091  2.5473 -0.8793
   72SAPC  H14B 6255   5.726   1.483   2.593  0.2980  0.6541 -0.4833
   72SAPC  H14C 6256   5.817   1.630   2.566 -0.1531  0.7607 -2.8455
   72SAPC   C15 6257   5.784   1.566   2.334 -0.6337  0.5411  0.3740
   72SAPC  H15A 6258   5.793   1.458   2.330 -0.6514  0.4824  1.4236
   72SAPC  H15B 6259   5.777   1.600   2.232 -2.1081 -1.3819 -0.2414
   72SAPC  H15C 6260   5.877   1.598   2.378  0.7946 -1.7735 -0.7973
   72SAPC   C11 6261   5.577   1.366   2.413  0.5089  0.0693 -0.1089
   72SAPC  H11A 6262   5.679   1.335   2.384  0.6104  0.1237  0.1781
   72SAPC  H11B 6263   5.499   1.310   2.358 -0.4836 -0.2336  1.5162
   72SAPC     P 6264   5.600   1.190   2.602  0.1096  0.0233 -0.2393
   72SAPC   O13 6265   5.494   1.095   2.560  1.0128 -0.2695  0.5011
   72SAPC   O14 6266   5.739   1.162   2.564 -0.3224 -0.3241  0.9506
   72SAPC   O12 6267   5.560   1.335   2.557 -0.2877 -1.0131 -0.1047
   72SAPC   O11 6268   5.587   1.204   2.758 -0.6833 -0.1278  0.2213
   72SAPC    C1 6269   5.607   1.330   2.825  0.2449  0.6251 -0.4049
   72SAPC    HA 6270   5.714   1.349   2.800  0.4563 -0.3324 -0.2965
   72SAPC    HB 6271   5.533   1.405   2.793 -0.2929 -0.2465 -1.2727
   72SAPC    C2 6272   5.590   1.308   2.972  0.0836 -0.2009 -0.1170
   72SAPC    HS 6273   5.627   1.395   3.032  0.6803 -1.4753  1.4411
   72SAPC   O21 6274   5.655   1.187   3.024  0.0993 -0.0461 -0.1637
   72SAPC   C21 6275   5.779   1.185   3.008 -0.6266 -0.2438  0.1567
   72SAPC   O22 6276   5.853   1.270   2.962  0.2183  1.0528  0.3245
   72SAPC   C22 6277   5.822   1.047   3.051 -0.3984  1.2243 -0.7397
   72SAPC   H2R 6278   5.780   1.032   3.153  0.9953 -1.1121 -0.4562
   72SAPC   H2S 6279   5.779   0.971   2.984 -3.5731  1.5017  0.7879
   72SAPC    C3 6280   5.445   1.285   3.025 -0.5862  0.1218 -0.0544
   72SAPC    HX 6281   5.400   1.197   2.975 -1.1117  0.2252  0.2270
   72SAPC    HY 6282   5.386   1.376   2.998 -1.1093 -0.4036 -0.7022
   72SAPC   O31 6283   5.439   1.288   3.169  0.5952 -0.1241  0.1298
   72SAPC   C31 6284   5.427   1.170   3.230  0.2328  0.0623 -0.0829
   72SAPC   O32 6285   5.414   1.061   3.175  0.4600 -0.7986  0.4501
   72SAPC   C32 6286   5.441   1.182   3.381  0.5797 -0.3009  0.2891
   72SAPC   H2X 6287   5.339   1.192   3.425 -0.0136 -0.3289 -1.0464
   72SAPC   H2Y 6288   5.506   1.267   3.410  0.3797 -0.1508  0.3011
   72SAPC   C23 6289   5.971   1.037   3.082 -0.7360  0.1896  0.0449
   72SAPC   H3R 6290   5.999   1.106   3.164  1.2416  0.1716 -0.5421
   72SAPC   H3S 6291   6.030   1.066   2.992 -1.5264 -1.4072 -1.0425
   72SAPC   C24 6292   6.005   0.892   3.112  0.0645  0.0337  0.4587
   72SAPC   H4R 6293   5.979   0.830   3.023  0.0218 -1.0849  1.2269
   72SAPC   H4S 6294   5.942   0.842   3.188 -2.1096  3.4463  1.1032
   72SAPC   C25 6295   6.150   0.878   3.142  0.3307  0.7214 -0.1737
   72SAPC   H5R 6296   6.218   0.895   3.058  0.0169  0.2764 -0.5255
   72SAPC   C26 6297   6.209   0.837   3.259 -0.7335 -0.3828 -0.3596
   72SAPC   H6R 6298   6.319   0.836   3.260 -0.6594 -2.6921 -2.5885
   72SAPC   C27 6299   6.144   0.815   3.389 -0.4350  0.5824 -0.1497
   72SAPC   H7R 6300   6.212   0.758   3.455  0.3041  0.2077 -1.2124
   72SAPC   H7S 6301   6.045   0.767   3.376  1.0450 -2.4116 -1.2274
   72SAPC   C28 6302   6.112   0.940   3.478  0.3623  0.2226 -0.2768
   72SAPC   H8R 6303   6.147   1.037   3.439 -2.3213  1.7378  0.7926
   72SAPC   C29 6304   6.036   0.946   3.584  0.2246  0.2167 -0.6339
   72SAPC   H9R 6305   6.001   1.044   3.618  0.9298  0.0728  0.5773
   72SAPC  C210 6306   5.969   0.828   3.646 -0.5645 -0.4394 -0.1516
   72SAPC  H10R 6307   5.960   0.735   3.585 -0.3046 -1.4584  1.3188
   72SAPC  H10S 6308   5.867   0.861   3.675  0.2469  0.8692  1.3779
   72SAPC  C211 6309   6.031   0.777   3.775 -0.8207  0.0127  0.1362
   72SAPC  H11R 6310   6.111   0.704   3.754 -0.6350  0.7487 -1.9803
   72SAPC  C212 6311   6.003   0.810   3.899 -0.0825  0.6565  1.0424
   72SAPC  H12R 6312   6.055   0.753   3.977  1.4232  0.6201  0.0549
   72SAPC  C213 6313   5.892   0.903   3.937  0.1782 -0.3394  0.3927
   72SAPC  H13R 6314   5.806   0.849   3.983 -0.5479  0.1225 -0.3784
   72SAPC  H13S 6315   5.839   0.949   3.851 -0.9832 -0.2634  1.1253
   72SAPC  C214 6316   5.951   0.999   4.038 -0.6270 -0.1570  0.2256
   72SAPC  H14R 6317   6.002   1.086   3.994  1.9653 -2.2398 -1.2173
   72SAPC  C215 6318   5.949   0.977   4.169 -0.1682  0.2179 -0.0991
   72SAPC  H15R 6319   5.996   1.048   4.238 -2.7951  0.0588  2.0180
   72SAPC  C216 6320   5.888   0.859   4.234 -0.8098 -0.2918 -0.2561
   72SAPC  H16R 6321   5.952   0.768   4.240  0.4017  0.6344  2.4745
   72SAPC  H16S 6322   5.788   0.831   4.194 -0.7564 -1.1559  0.1779
   72SAPC  C217 6323   5.859   0.890   4.380 -0.3849 -0.7196  0.1653
   72SAPC  H17R 6324   5.956   0.930   4.416 -0.9554  1.9982 -1.0921
   72SAPC  H17S 6325   5.835   0.798   4.439 -0.8934  0.2761  1.5563
   72SAPC  C218 6326   5.749   0.999   4.397  0.3948 -0.1270 -0.7287
   72SAPC  H18R 6327   5.650   0.961   4.364 -1.2859  1.8420  1.6988
   72SAPC  H18S 6328   5.774   1.086   4.332 -0.1530 -0.2805 -1.1517
   72SAPC  C219 6329   5.732   1.033   4.549  0.0848  0.1872 -0.0315
   72SAPC  H19R 6330   5.825   1.078   4.590 -0.5916  1.3469  0.2802
   72SAPC  H19S 6331   5.728   0.937   4.606 -0.1450 -0.0991 -0.5260
   72SAPC  C220 6332   5.610   1.116   4.581  0.0335 -0.0649  0.0326
   72SAPC  H20R 6333   5.597   1.127   4.691  2.6268  0.5544  0.3299
   72SAPC  H20S 6334   5.516   1.082   4.532 -1.0765  1.2748  1.1387
   72SAPC  H20T 6335   5.623   1.219   4.542 -0.6634 -0.0083 -0.0704
   72SAPC   C33 6336   5.511   1.051   3.432  0.7229  0.5158  0.2434
   72SAPC   H3X 6337   5.590   1.020   3.361 -0.2568 -1.7677  0.0566
   72SAPC   H3Y 6338   5.440   0.966   3.421  3.0696 -1.3538 -1.4435
   72SAPC   C34 6339   5.568   1.060   3.570 -0.0075  0.1818 -0.5428
   72SAPC   H4X 6340   5.647   1.136   3.550 -0.1993  0.3510 -0.6664
   72SAPC   H4Y 6341   5.611   0.962   3.600 -1.6405 -0.4379 -0.1230
   72SAPC   C35 6342   5.471   1.113   3.675 -0.4535  0.9036  0.0708
   72SAPC   H5X 6343   5.387   1.040   3.674  0.0633  0.2617 -1.7150
   72SAPC   H5Y 6344   5.436   1.217   3.664  0.8772  1.4847  1.0819
   72SAPC   C36 6345   5.528   1.113   3.820  0.1930 -0.8380  0.3652
   72SAPC   H6X 6346   5.618   1.178   3.821 -0.2479 -0.0439 -2.2643
   72SAPC   H6Y 6347   5.558   1.011   3.855  0.0305 -0.6184  1.1610
   72SAPC   C37 6348   5.436   1.176   3.921  0.4442 -0.4177  0.1902
   72SAPC   H7X 6349   5.349   1.107   3.928 -0.1204  0.1842 -0.6618
   72SAPC   H7Y 6350   5.400   1.275   3.886  0.8332 -0.4645 -0.3415
   72SAPC   C38 6351   5.504   1.216   4.057 -0.6163  0.4098 -0.2378
   72SAPC   H8X 6352   5.603   1.261   4.032 -0.5145  0.8701  0.9426
   72SAPC   H8Y 6353   5.523   1.120   4.109  1.7951  1.2031  0.4787
   72SAPC   C39 6354   5.430   1.324   4.139  0.0311 -0.0761  0.1766
   72SAPC   H9X 6355   5.320   1.310   4.147 -0.1211  1.6343  1.8866
   72SAPC   H9Y 6356   5.443   1.420   4.086  1.4134 -0.8236 -0.8921
   72SAPC  C310 6357   5.485   1.330   4.276 -0.3470 -0.3033 -0.8291
   72SAPC  H10X 6358   5.595   1.339   4.280 -0.4600  0.8312  1.3609
   72SAPC  H10Y 6359   5.445   1.237   4.321  0.7263 -0.4606 -0.1815
   72SAPC  C311 6360   5.435   1.449   4.366 -0.1966 -0.3746 -0.5040
   72SAPC  H11X 6361   5.324   1.437   4.366 -0.1496 -1.0772  0.8977
   72SAPC  H11Y 6362   5.464   1.544   4.316  0.8335 -0.1756  0.4488
   72SAPC  C312 6363   5.495   1.463   4.507  0.0361 -0.3118 -0.0812
   72SAPC  H12X 6364   5.605   1.449   4.504 -0.0400 -0.8745 -2.2310
   72SAPC  H12Y 6365   5.464   1.382   4.576 -4.8774  1.0740 -0.2865
   72SAPC  C313 6366   5.463   1.604   4.565  0.2813 -0.6523  0.4968
   72SAPC  H13X 6367   5.353   1.619   4.576  0.1675 -0.8651 -0.2317
   72SAPC  H13Y 6368   5.491   1.682   4.491  0.4139 -1.5799 -0.4723
   72SAPC  C314 6369   5.530   1.634   4.703 -0.3074  0.7645  0.5135
   72SAPC  H14X 6370   5.626   1.686   4.682 -0.8816  0.8115 -2.3407
   72SAPC  H14Y 6371   5.554   1.534   4.746  1.0121  0.5292 -0.6834
   72SAPC  C315 6372   5.439   1.702   4.807 -0.6624 -0.0997 -0.0578
   72SAPC  H15X 6373   5.386   1.629   4.872 -1.5044 -0.9452 -1.6346
   72SAPC  H15Y 6374   5.365   1.758   4.747  2.0456  3.0759 -0.7204
   72SAPC  C316 6375   5.509   1.816   4.889 -0.3680 -0.1178 -0.4870
   72SAPC  H16X 6376   5.439   1.878   4.948  1.7542  0.4956  1.5261
   72SAPC  H16Y 6377   5.566   1.885   4.823 -0.4921 -0.2290 -0.7135
   72SAPC  C317 6378   5.616   1.757   4.987  0.1192 -0.4050 -0.0444
   72SAPC  H17X 6379   5.688   1.686   4.940  0.5570 -0.0974  0.1464
   72SAPC  H17Y 6380   5.563   1.699   5.066  0.4964 -1.1308 -0.3135
   72SAPC  C318 6381   5.697   1.867   5.059  0.6407  0.4822 -0.3532
   72SAPC  H18X 6382   5.638   1.934   5.125  1.4469  0.6303  0.2226
   72SAPC  H18Y 6383   5.762   1.924   4.990  1.4076  1.2788  0.9874
   72SAPC  H18Z 6384   5.772   1.806   5.114  1.8762  2.8939  0.7615
   73SLPC     N 6385   0.399   3.155   7.096  0.0215  0.2256  0.2781
   73SLPC   C13 6386   0.451   3.033   7.015  0.2337 -0.0945  0.0926
   73SLPC  H13A 6387   0.406   3.028   6.917 -1.1555  1.6593  0.5759
   73SLPC  H13B 6388   0.558   3.024   7.020  0.2312  0.1399  0.5924
   73SLPC  H13C 6389   0.414   2.944   7.063 -0.8906 -0.2912 -1.0708
   73SLPC   C14 6390   0.444   3.152   7.237 -0.7733  0.1281  0.0223
   73SLPC  H14A 6391   0.417   3.065   7.294 -1.2718  0.6584  0.6138
   73SLPC  H14B 6392   0.552   3.153   7.241 -0.5796 -1.0129 -2.8503
   73SLPC  H14C 6393   0.411   3.246   7.280  0.6705  1.9807 -2.6592
   73SLPC   C15 6394   0.250   3.169   7.110 -0.1530 -0.2956  0.2570
   73SLPC  H15A 6395   0.235   3.267   7.152  1.3689  0.1343 -0.1630
   73SLPC  H15B 6396   0.205   3.172   7.011 -0.0385 -2.2922  0.1135
   73SLPC  H15C 6397   0.208   3.087   7.167 -0.6470 -0.6358 -0.5684
   73SLPC   C12 6398   0.451   3.282   7.031  0.6681 -0.1163  0.1165
   73SLPC  H12A 6399   0.556   3.279   7.005  0.8996 -1.2784  1.0533
   73SLPC  H12B 6400   0.447   3.360   7.106 -0.3424  0.4379 -0.5049
   73SLPC   C11 6401   0.371   3.334   6.912 -0.2055 -0.3400  0.2513
   73SLPC  H11A 6402   0.353   3.251   6.841  0.4572 -0.0942 -0.2096
   73SLPC  H11B 6403   0.434   3.410   6.861 -0.0799  0.0743  1.0097
   73SLPC     P 6404   0.241   3.528   7.021 -0.0368 -0.3747  0.3695
   73SLPC   O13 6405   0.290   3.513   7.159 -0.1755 -0.4145 -0.3272
   73SLPC   O14 6406   0.314   3.625   6.940 -0.4391  0.4435 -0.2442
   73SLPC   O12 6407   0.247   3.388   6.951 -0.3859 -0.2619  0.4775
   73SLPC   O11 6408   0.095   3.575   7.038 -0.5595 -0.4789  0.1684
   73SLPC    C1 6409  -0.004   3.479   7.062  0.3941 -0.0110 -0.3850
   73SLPC    HA 6410   0.035   3.375   7.062 -0.9622 -0.5451  0.3888
   73SLPC    HB 6411  -0.049   3.499   7.162  0.4560 -1.5768 -0.0237
   73SLPC    C2 6412  -0.115   3.475   6.949  0.2774 -0.3860 -0.5529
   73SLPC    HS 6413  -0.193   3.399   6.970 -0.4947  0.8381  1.3073
   73SLPC   O21 6414  -0.055   3.454   6.822 -0.1399 -0.3233 -0.1679
   73SLPC   C21 6415  -0.034   3.317   6.786  0.5111 -0.2805  0.0558
   73SLPC   O22 6416  -0.075   3.225   6.855 -0.2772  0.0211 -0.2192
   73SLPC   C22 6417   0.056   3.305   6.660  0.8524  0.9570  0.3796
   73SLPC   H2R 6418   0.143   3.252   6.704  0.0157 -0.6232  0.2023
   73SLPC   H2S 6419  -0.005   3.242   6.592  1.6633  0.5673  0.0058
   73SLPC    C3 6420  -0.191   3.612   6.954 -0.2075 -0.2742 -0.0963
   73SLPC    HX 6421  -0.127   3.702   6.961 -2.5564  1.3898  1.9749
   73SLPC    HY 6422  -0.243   3.599   7.052 -0.6555  0.1210 -0.2798
   73SLPC   O31 6423  -0.282   3.615   6.851  0.1696 -0.0493  0.0549
   73SLPC   C31 6424  -0.399   3.681   6.873  0.7261  0.3358  0.0125
   73SLPC   O32 6425  -0.430   3.745   6.975  0.3676 -0.5005  0.3152
   73SLPC   C32 6426  -0.477   3.669   6.736 -0.4422  0.1754 -0.1619
   73SLPC   H2X 6427  -0.480   3.561   6.711 -1.8656 -0.5561  2.7042
   73SLPC   H2Y 6428  -0.412   3.725   6.666  1.9968 -0.0588  1.7648
   73SLPC   C23 6429   0.103   3.433   6.592  0.2832 -0.1301  0.4226
   73SLPC   H3R 6430   0.193   3.417   6.529  0.3805  1.3703  0.1508
   73SLPC   H3S 6431   0.139   3.503   6.670  1.8349 -2.3809  1.8469
   73SLPC   C24 6432  -0.010   3.495   6.508  0.1147  0.0615 -0.4330
   73SLPC   H4R 6433  -0.098   3.529   6.566  0.2855 -1.1119  0.5402
   73SLPC   H4S 6434  -0.063   3.418   6.449 -0.4106  1.3121 -1.6773
   73SLPC   C25 6435   0.030   3.623   6.431 -0.0482  0.6340 -0.2436
   73SLPC   H5R 6436   0.085   3.695   6.496  0.2089  0.4603 -0.2668
   73SLPC   H5S 6437  -0.057   3.671   6.382 -0.2018  0.5366 -0.0663
   73SLPC   C26 6438   0.123   3.604   6.315  0.0773  0.2008  0.3672
   73SLPC   H6R 6439   0.071   3.538   6.242 -0.6991  2.8522 -1.6474
   73SLPC   H6S 6440   0.218   3.551   6.338  0.1347 -0.6358 -1.5552
   73SLPC   C27 6441   0.150   3.731   6.237  0.1373 -0.4907  0.7584
   73SLPC   H7R 6442   0.217   3.801   6.292  1.4279  0.0214 -1.3550
   73SLPC   H7S 6443   0.050   3.777   6.224 -0.9664 -2.9125  0.2156
   73SLPC   C28 6444   0.217   3.719   6.103  0.0987  0.1636  0.2914
   73SLPC   H8R 6445   0.315   3.671   6.121 -0.6097 -0.8305  1.6262
   73SLPC   H8S 6446   0.223   3.819   6.054 -0.8577 -0.7521 -1.8555
   73SLPC   C29 6447   0.132   3.639   6.005 -0.4304  0.9781 -0.3589
   73SLPC   H9R 6448   0.031   3.624   6.045  0.7395  1.2350  3.0245
   73SLPC  C210 6449   0.185   3.594   5.895  1.0187  0.6834  0.3123
   73SLPC  H10R 6450   0.129   3.519   5.836 -0.2210  0.8779  1.2122
   73SLPC  C211 6451   0.314   3.629   5.835  0.4508 -0.3630  0.0104
   73SLPC  H11R 6452   0.373   3.535   5.837 -1.0710 -1.3519  1.6033
   73SLPC  H11S 6453   0.375   3.691   5.904 -0.6731 -0.6224  1.2845
   73SLPC  C212 6454   0.301   3.691   5.697  0.7276 -0.0347 -0.0798
   73SLPC  H12R 6455   0.205   3.744   5.688 -0.9649 -2.6816  1.2180
   73SLPC  C213 6456   0.383   3.682   5.595  0.5482  0.6287 -0.3906
   73SLPC  H13R 6457   0.344   3.725   5.502  0.1379 -0.4292 -0.7193
   73SLPC  C214 6458   0.510   3.600   5.582  0.5308 -0.6206  0.1952
   73SLPC  H14R 6459   0.498   3.489   5.578 -0.4149 -0.5004 -0.8104
   73SLPC  H14S 6460   0.582   3.611   5.666  2.6922  1.2035 -1.7875
   73SLPC  C215 6461   0.596   3.658   5.474 -0.2542 -0.4567  0.0830
   73SLPC  H15R 6462   0.693   3.607   5.493  1.0317  1.1599 -1.7618
   73SLPC  H15S 6463   0.618   3.764   5.498 -1.2551  0.0331 -1.0280
   73SLPC  C216 6464   0.553   3.638   5.326 -0.5703 -0.2548 -0.2503
   73SLPC  H16R 6465   0.636   3.657   5.255 -0.7582 -4.8042 -2.0505
   73SLPC  H16S 6466   0.467   3.698   5.291 -0.5160  0.8342  1.3797
   73SLPC  C217 6467   0.511   3.494   5.290 -0.2767 -0.1633 -0.2996
   73SLPC  H17R 6468   0.467   3.507   5.189  0.3020  0.7974 -0.4339
   73SLPC  H17S 6469   0.425   3.467   5.356  0.2877 -0.0411  0.4947
   73SLPC  C218 6470   0.618   3.388   5.294 -0.3708  0.3640 -0.6713
   73SLPC  H18R 6471   0.667   3.384   5.394  0.4624 -1.9023 -1.1118
   73SLPC  H18S 6472   0.696   3.406   5.217  1.5919  0.9239  1.3633
   73SLPC  H18T 6473   0.586   3.284   5.269  2.9717 -1.8119  2.9131
   73SLPC   C33 6474  -0.617   3.715   6.757  0.2484 -0.4364  0.3999
   73SLPC   H3X 6475  -0.624   3.800   6.828 -1.5970 -0.5406  0.3881
   73SLPC   H3Y 6476  -0.672   3.630   6.803 -0.0216 -0.7281 -0.4357
   73SLPC   C34 6477  -0.694   3.757   6.625  0.7062 -0.1935  0.8669
   73SLPC   H4X 6478  -0.803   3.741   6.640  0.5318 -0.7177 -0.7173
   73SLPC   H4Y 6479  -0.656   3.689   6.546  0.2644 -1.4255  1.6893
   73SLPC   C35 6480  -0.678   3.905   6.599 -0.2603  0.1750 -0.8064
   73SLPC   H5X 6481  -0.574   3.939   6.576 -0.4502  2.0917  0.8256
   73SLPC   H5Y 6482  -0.716   3.958   6.689 -1.1947  0.1053 -1.1560
   73SLPC   C36 6483  -0.756   3.955   6.474 -0.4902 -0.8927  0.6437
   73SLPC   H6X 6484  -0.733   4.064   6.469  2.2057 -1.4370  0.0011
   73SLPC   H6Y 6485  -0.866   3.940   6.482 -1.0077  2.4916  1.7412
   73SLPC   C37 6486  -0.708   3.892   6.348  0.0865 -0.9189  0.0036
   73SLPC   H7X 6487  -0.749   3.789   6.355 -0.7198 -0.5765  0.3833
   73SLPC   H7Y 6488  -0.597   3.889   6.353  0.1063  0.5763  0.7740
   73SLPC   C38 6489  -0.747   3.950   6.216  0.8442  0.0656  0.3411
   73SLPC   H8X 6490  -0.725   4.059   6.216  1.1543  0.0026  0.1109
   73SLPC   H8Y 6491  -0.857   3.934   6.213  0.7908  0.3396  0.8038
   73SLPC   C39 6492  -0.687   3.875   6.096  0.4821 -0.2823  0.4971
   73SLPC   H9X 6493  -0.709   3.766   6.098  1.1021 -0.4777 -1.6597
   73SLPC   H9Y 6494  -0.576   3.878   6.093  0.5468 -1.6993  0.5264
   73SLPC  C310 6495  -0.727   3.939   5.963 -0.0107  0.6247  0.1213
   73SLPC  H10X 6496  -0.718   4.049   5.972 -1.3507  0.6982  0.8117
   73SLPC  H10Y 6497  -0.831   3.903   5.947  0.3062  0.2919 -1.3873
   73SLPC  C311 6498  -0.644   3.889   5.840  0.0167  0.5631  1.1113
   73SLPC  H11X 6499  -0.673   3.785   5.813  1.9971  0.5269 -1.2718
   73SLPC  H11Y 6500  -0.533   3.887   5.846  0.3590  1.2813 -2.4831
   73SLPC  C312 6501  -0.674   3.977   5.717  0.1052 -0.7767 -0.6900
   73SLPC  H12X 6502  -0.656   4.081   5.751  1.8681 -1.3637  0.2992
   73SLPC  H12Y 6503  -0.782   3.962   5.694 -0.6056  1.0064  1.1544
   73SLPC  C313 6504  -0.600   3.933   5.591 -0.1126 -0.0397  0.6382
   73SLPC  H13X 6505  -0.658   3.965   5.502 -0.3686 -1.5537  0.2387
   73SLPC  H13Y 6506  -0.558   3.831   5.580 -3.4224 -1.3346 -1.7555
   73SLPC  C314 6507  -0.482   4.027   5.581 -0.5214 -0.3823 -0.6371
   73SLPC  H14X 6508  -0.422   4.011   5.673 -1.4301  2.0818  0.4784
   73SLPC  H14Y 6509  -0.502   4.134   5.600  1.6668 -0.0096 -0.1269
   73SLPC  C315 6510  -0.395   4.009   5.461 -0.3906  0.4798  0.2568
   73SLPC  H15X 6511  -0.456   4.027   5.370  0.8250  0.2448 -0.6148
   73SLPC  H15Y 6512  -0.354   3.906   5.450 -1.0439  0.2922 -0.5286
   73SLPC  C316 6513  -0.278   4.104   5.453 -0.2449  0.6855  0.0728
   73SLPC  H16X 6514  -0.211   4.051   5.381 -2.3586 -2.1928  0.0555
   73SLPC  H16Y 6515  -0.218   4.115   5.546  2.2844 -0.0404 -1.3507
   73SLPC  C317 6516  -0.318   4.248   5.414 -0.5252  0.0696  0.1162
   73SLPC  H17X 6517  -0.226   4.309   5.433  0.7365 -2.1974  1.7341
   73SLPC  H17Y 6518  -0.391   4.288   5.487 -0.8123  3.6487 -1.8930
   73SLPC  C318 6519  -0.353   4.261   5.264  0.3614  0.5108  0.6533
   73SLPC  H18X 6520  -0.357   4.365   5.226  2.2282 -0.4734 -2.6750
   73SLPC  H18Y 6521  -0.447   4.212   5.232  0.9667 -0.8564  0.8868
   73SLPC  H18Z 6522  -0.272   4.209   5.209 -0.1818 -1.3382  1.5303
   74SLPC     N 6523   4.947   1.126   7.882  0.4541  0.0586  0.1823
   74SLPC   C13 6524   4.998   1.241   7.963 -0.3205  1.2123 -0.4796
   74SLPC  H13A 6525   5.103   1.233   7.985 -0.3431 -1.6693 -0.9838
   74SLPC  H13B 6526   4.970   1.342   7.937  1.2559  1.5621 -0.9059
   74SLPC  H13C 6527   4.938   1.235   8.052 -1.6121 -0.5091 -1.3928
   74SLPC   C14 6528   4.802   1.118   7.902  0.8465  0.2577 -0.1813
   74SLPC  H14A 6529   4.755   1.201   7.852 -0.6452 -1.5991 -2.0664
   74SLPC  H14B 6530   4.754   1.033   7.854  1.6599 -1.4461  1.8423
   74SLPC  H14C 6531   4.773   1.107   8.005  2.5419  2.1968  0.5786
   74SLPC   C15 6532   5.001   1.001   7.943 -0.1203  1.1529  0.8933
   74SLPC  H15A 6533   4.962   0.914   7.892 -0.7758  1.1436  1.3877
   74SLPC  H15B 6534   5.109   1.000   7.945 -0.0553  0.0378 -1.1457
   74SLPC  H15C 6535   4.974   0.991   8.048  0.9853  3.3022  1.4448
   74SLPC   C12 6536   4.977   1.136   7.734 -0.4820 -0.6149  0.0625
   74SLPC  H12A 6537   4.921   1.217   7.689  2.5625  2.3759  1.2333
   74SLPC  H12B 6538   4.955   1.043   7.684 -1.8079  0.2418 -1.0707
   74SLPC   C11 6539   5.123   1.157   7.697 -1.0777  0.2804  0.1411
   74SLPC  H11A 6540   5.179   1.240   7.745 -0.6175  1.4680 -2.2854
   74SLPC  H11B 6541   5.113   1.182   7.589 -1.0488  0.5980  0.2123
   74SLPC     P 6542   5.184   0.907   7.625  0.1438  0.2096 -0.1151
   74SLPC   O13 6543   5.254   0.790   7.686  0.3130 -0.1560 -0.4584
   74SLPC   O14 6544   5.046   0.888   7.590 -0.4629 -0.3358  0.1208
   74SLPC   O12 6545   5.205   1.040   7.714  0.1276 -0.5458  0.3646
   74SLPC   O11 6546   5.270   0.941   7.494 -0.2232 -0.2051 -0.2816
   74SLPC    C1 6547   5.226   1.043   7.395  0.2645  0.5034 -0.2695
   74SLPC    HA 6548   5.117   1.062   7.403 -0.1827 -1.8279  0.1198
   74SLPC    HB 6549   5.280   1.138   7.413 -1.8396  1.7337 -0.1528
   74SLPC    C2 6550   5.245   1.002   7.256 -0.0092 -0.0226  0.3279
   74SLPC    HS 6551   5.199   1.090   7.206 -1.7046 -0.2717  1.3612
   74SLPC   O21 6552   5.175   0.878   7.233 -0.9259 -0.2491 -0.1003
   74SLPC   C21 6553   5.131   0.858   7.114 -0.1788 -0.4628 -0.7755
   74SLPC   O22 6554   5.138   0.938   7.023  0.3899 -0.3764  0.0293
   74SLPC   C22 6555   5.097   0.713   7.102 -0.0943  0.6254  0.0830
   74SLPC   H2R 6556   5.185   0.656   7.137  0.0273  0.9088  0.2466
   74SLPC   H2S 6557   5.006   0.705   7.166  0.1561 -0.7067  0.2903
   74SLPC    C3 6558   5.400   1.001   7.217 -0.7653 -0.2432 -0.0124
   74SLPC    HX 6559   5.439   0.919   7.281 -2.8386 -2.3884 -1.3428
   74SLPC    HY 6560   5.443   1.097   7.254 -1.5256  1.6569 -3.5941
   74SLPC   O31 6561   5.451   0.988   7.080 -0.4310  0.0044  0.1953
   74SLPC   C31 6562   5.468   0.869   7.030  1.0151 -0.2273 -0.2438
   74SLPC   O32 6563   5.443   0.770   7.095  0.4530 -0.1587  0.5246
   74SLPC   C32 6564   5.502   0.873   6.878 -1.0786  0.0312  0.4530
   74SLPC   H2X 6565   5.613   0.875   6.876 -1.0729  1.9384  0.4943
   74SLPC   H2Y 6566   5.462   0.960   6.821  0.8038  0.2316 -0.6533
   74SLPC   C23 6567   5.049   0.659   6.964  0.3665 -0.3899 -0.4431
   74SLPC   H3R 6568   5.109   0.702   6.881  1.4330  2.4322  1.6516
   74SLPC   H3S 6569   4.945   0.695   6.950  0.3215 -0.7313 -1.0085
   74SLPC   C24 6570   5.050   0.505   6.948 -0.0466 -0.4132  0.0164
   74SLPC   H4R 6571   4.987   0.464   7.030  1.1255  2.0859  2.3249
   74SLPC   H4S 6572   5.152   0.464   6.964 -0.0353 -0.2534  0.3534
   74SLPC   C25 6573   4.997   0.457   6.812  0.3569 -0.6716 -0.2304
   74SLPC   H5R 6574   4.899   0.507   6.793  1.1613  1.5343  1.0403
   74SLPC   H5S 6575   4.968   0.350   6.818 -2.5205  0.0812  2.0510
   74SLPC   C26 6576   5.092   0.469   6.695 -0.1119 -0.0913 -0.5488
   74SLPC   H6R 6577   5.188   0.415   6.713 -0.3331 -0.3169 -0.0361
   74SLPC   H6S 6578   5.118   0.576   6.678  0.4160 -0.2085 -0.5164
   74SLPC   C27 6579   5.037   0.418   6.562  0.0277  0.5501  0.1693
   74SLPC   H7R 6580   4.934   0.453   6.538  0.0912  1.1296  0.7050
   74SLPC   H7S 6581   5.028   0.308   6.572  2.2689  0.2579 -0.4274
   74SLPC   C28 6582   5.130   0.431   6.438  0.3519 -0.2085  0.1147
   74SLPC   H8R 6583   5.227   0.388   6.472  0.7788  1.1985  0.7592
   74SLPC   H8S 6584   5.138   0.542   6.442 -0.5915 -0.0951 -0.6544
   74SLPC   C29 6585   5.093   0.386   6.300 -0.2462 -0.3062 -0.3421
   74SLPC   H9R 6586   5.122   0.280   6.284 -1.2629 -0.3398 -2.2732
   74SLPC  C210 6587   5.044   0.462   6.198 -0.6850  0.3335 -0.4272
   74SLPC  H10R 6588   5.023   0.403   6.107 -0.5115 -2.3836  1.1833
   74SLPC  C211 6589   5.021   0.614   6.207  0.6395 -0.0181 -0.4297
   74SLPC  H11R 6590   4.967   0.631   6.302  3.7706  0.7775  1.3418
   74SLPC  H11S 6591   4.952   0.656   6.130 -1.0040  0.3997  1.2082
   74SLPC  C212 6592   5.151   0.686   6.203  0.3031  0.2907  0.3118
   74SLPC  H12R 6593   5.213   0.681   6.295  0.2498  1.7137  0.4524
   74SLPC  C213 6594   5.201   0.760   6.102  0.1556 -0.7280 -0.0770
   74SLPC  H13R 6595   5.300   0.807   6.113  0.0117 -0.2097 -0.9149
   74SLPC  C214 6596   5.147   0.788   5.967  0.1431  0.1501  0.2403
   74SLPC  H14R 6597   5.234   0.800   5.899  0.3212 -2.4779 -0.1284
   74SLPC  H14S 6598   5.085   0.880   5.967 -2.1805 -1.3144 -0.8251
   74SLPC  C215 6599   5.071   0.674   5.900  0.0184  0.3426 -0.3048
   74SLPC  H15R 6600   4.964   0.692   5.924  0.0507 -0.5407  0.5846
   74SLPC  H15S 6601   5.098   0.573   5.938 -1.7614 -0.8839 -2.0918
   74SLPC  C216 6602   5.084   0.662   5.747 -0.2696  0.8807  0.6497
   74SLPC  H16R 6603   5.189   0.648   5.715 -0.3556 -0.5880  0.9582
   74SLPC  H16S 6604   5.043   0.750   5.692  0.1660  0.3033 -0.6426
   74SLPC  C217 6605   5.014   0.530   5.700  0.2134 -0.4471  0.7063
   74SLPC  H17R 6606   5.054   0.438   5.749  2.0514  1.6879  3.5856
   74SLPC  H17S 6607   5.035   0.516   5.592  2.5463  0.0436  1.0493
   74SLPC  C218 6608   4.864   0.521   5.719 -0.3718  0.0293 -0.2806
   74SLPC  H18R 6609   4.823   0.426   5.678  1.1948 -0.7626 -0.0920
   74SLPC  H18S 6610   4.814   0.603   5.663  0.2035  0.7382  0.2383
   74SLPC  H18T 6611   4.844   0.518   5.828  0.2157  1.4336 -0.1184
   74SLPC   C33 6612   5.465   0.753   6.803  0.0350  0.5181 -0.0459
   74SLPC   H3X 6613   5.358   0.766   6.774 -0.0149 -1.0080 -0.5956
   74SLPC   H3Y 6614   5.470   0.665   6.869  0.8344  0.1577 -0.5739
   74SLPC   C34 6615   5.556   0.718   6.686 -0.1440  0.3118  0.0772
   74SLPC   H4X 6616   5.661   0.708   6.721 -0.5452  0.1154  1.2856
   74SLPC   H4Y 6617   5.544   0.805   6.618 -0.0762  1.2167  1.1730
   74SLPC   C35 6618   5.527   0.585   6.609 -0.0677 -0.3079  0.1714
   74SLPC   H5X 6619   5.419   0.566   6.590 -1.0611  0.8524  3.8107
   74SLPC   H5Y 6620   5.553   0.502   6.678 -1.7080 -0.3269  0.8313
   74SLPC   C36 6621   5.602   0.581   6.478 -0.5166 -1.3794  0.1460
   74SLPC   H6X 6622   5.635   0.475   6.471  2.6026 -0.5432  0.7371
   74SLPC   H6Y 6623   5.695   0.641   6.487 -1.5751  0.1534  1.6410
   74SLPC   C37 6624   5.519   0.625   6.357 -0.0019  0.5719 -0.4593
   74SLPC   H7X 6625   5.444   0.704   6.379  0.1893  0.4760  0.5750
   74SLPC   H7Y 6626   5.461   0.537   6.324  0.7006  0.1858 -0.6905
   74SLPC   C38 6627   5.603   0.681   6.243 -0.3330 -0.5162  0.7605
   74SLPC   H8X 6628   5.576   0.657   6.138  1.7914  0.2922 -0.0205
   74SLPC   H8Y 6629   5.707   0.642   6.252 -0.4526 -0.6425  1.7222
   74SLPC   C39 6630   5.613   0.840   6.255 -0.6213  0.0487  0.5713
   74SLPC   H9X 6631   5.666   0.855   6.351 -0.5126  2.9239  0.1472
   74SLPC   H9Y 6632   5.507   0.874   6.255 -1.1510 -1.3271 -2.3191
   74SLPC  C310 6633   5.697   0.891   6.142  0.0916  0.6524  0.8031
   74SLPC  H10X 6634   5.635   0.889   6.050  0.8029  0.6187  0.3196
   74SLPC  H10Y 6635   5.771   0.810   6.124 -2.9770 -2.5743  1.6789
   74SLPC  C311 6636   5.767   1.027   6.154  0.2468 -0.0964  0.9317
   74SLPC  H11X 6637   5.821   1.034   6.251 -0.6710  1.5684  1.3667
   74SLPC  H11Y 6638   5.686   1.102   6.142 -0.8639 -1.1422  1.5786
   74SLPC  C312 6639   5.880   1.038   6.050  0.0695  0.5276 -0.6943
   74SLPC  H12X 6640   5.925   0.936   6.052  0.6649  0.7090 -2.8036
   74SLPC  H12Y 6641   5.963   1.102   6.087 -2.2669  2.2380  2.0354
   74SLPC  C313 6642   5.836   1.075   5.906  0.2899  0.0288 -0.2579
   74SLPC  H13X 6643   5.776   1.167   5.920  0.7893  0.3998 -0.5543
   74SLPC  H13Y 6644   5.773   0.989   5.875 -0.3747  0.6608 -0.6971
   74SLPC  C314 6645   5.955   1.090   5.812 -0.4157  0.3058  0.1905
   74SLPC  H14X 6646   6.004   0.990   5.812  0.1919  0.4775  3.5273
   74SLPC  H14Y 6647   6.027   1.170   5.838  0.5225  0.2000 -1.8727
   74SLPC  C315 6648   5.909   1.132   5.673  0.6764  0.0003  0.9822
   74SLPC  H15X 6649   5.994   1.158   5.606  1.0876 -0.1467  1.4419
   74SLPC  H15Y 6650   5.845   1.223   5.677  0.3007 -0.1151 -1.1354
   74SLPC  C316 6651   5.821   1.031   5.595  0.0317  0.8406  1.1723
   74SLPC  H16X 6652   5.729   1.028   5.658 -1.5100  2.8068 -0.8637
   74SLPC  H16Y 6653   5.867   0.931   5.581  0.8437  0.8707  3.1850
   74SLPC  C317 6654   5.767   1.083   5.460  0.0488 -0.0155  1.0413
   74SLPC  H17X 6655   5.846   1.142   5.409 -0.1553 -1.8066 -1.5645
   74SLPC  H17Y 6656   5.696   1.168   5.466 -0.7837 -0.5170 -0.8466
   74SLPC  C318 6657   5.713   0.966   5.371  0.2885  0.0153 -0.5949
   74SLPC  H18X 6658   5.688   1.005   5.270 -4.2328 -2.0322 -0.5012
   74SLPC  H18Y 6659   5.624   0.919   5.418  0.0317  1.8030  0.8152
   74SLPC  H18Z 6660   5.801   0.900   5.357  1.4763  1.8763 -2.4813
   75SLPC     N 6661   1.044   1.112   7.380 -0.2166 -0.0077 -0.1759
   75SLPC   C13 6662   1.191   1.129   7.381 -0.1625 -0.4633  0.0094
   75SLPC  H13A 6663   1.227   1.029   7.361  1.5951 -0.3240  2.1260
   75SLPC  H13B 6664   1.223   1.204   7.310 -0.4044 -0.1832  0.1940
   75SLPC  H13C 6665   1.224   1.158   7.479  0.8621  2.0421 -0.9752
   75SLPC   C14 6666   1.009   0.982   7.449  0.3668 -0.1524  0.1442
   75SLPC  H14A 6667   1.045   0.987   7.551  1.3057 -1.2286 -0.1134
   75SLPC  H14B 6668   0.903   0.971   7.462  0.4781  0.9086  2.5630
   75SLPC  H14C 6669   1.046   0.894   7.398 -1.1872 -1.5091  1.2656
   75SLPC   C15 6670   1.013   1.101   7.237  0.0676  0.0442 -0.2638
   75SLPC  H15A 6671   0.906   1.096   7.221  0.1327 -1.3327 -0.3860
   75SLPC  H15B 6672   1.048   1.193   7.192  1.3755  0.8626  2.1976
   75SLPC  H15C 6673   1.053   1.012   7.192 -1.0709 -0.2664 -0.7142
   75SLPC   C12 6674   0.972   1.239   7.437 -0.0522  0.4430 -0.1472
   75SLPC  H12A 6675   1.016   1.330   7.398  0.7674 -0.2201 -0.7943
   75SLPC  H12B 6676   0.993   1.238   7.543  0.2966 -1.3894 -0.2142
   75SLPC   C11 6677   0.823   1.255   7.425  0.5328 -0.3788 -0.3127
   75SLPC  H11A 6678   0.795   1.343   7.487 -1.1812 -0.9111 -0.3009
   75SLPC  H11B 6679   0.785   1.167   7.481  0.1490 -0.9958 -1.5261
   75SLPC     P 6680   0.818   1.420   7.225  0.3778 -0.4622 -0.0464
   75SLPC   O13 6681   0.692   1.482   7.175 -0.3511  0.1932 -0.3429
   75SLPC   O14 6682   0.898   1.497   7.325 -0.2742  0.3592 -0.2992
   75SLPC   O12 6683   0.776   1.277   7.292 -0.0980  0.0796  0.1860
   75SLPC   O11 6684   0.905   1.361   7.107  0.5867  0.7263 -0.3779
   75SLPC    C1 6685   0.850   1.262   7.015  0.1360  0.4941 -0.0549
   75SLPC    HA 6686   0.942   1.234   6.961  1.8306  1.8287  2.0009
   75SLPC    HB 6687   0.813   1.174   7.073  0.3682  1.2323  1.2426
   75SLPC    C2 6688   0.746   1.320   6.921 -0.0048 -0.3663 -0.1933
   75SLPC    HS 6689   0.657   1.352   6.980 -0.1011  0.6870 -0.8830
   75SLPC   O21 6690   0.693   1.218   6.834 -0.0788 -0.5768  0.2068
   75SLPC   C21 6691   0.594   1.255   6.753 -0.3669 -0.4640  0.3507
   75SLPC   O22 6692   0.526   1.352   6.772  0.0208 -0.1825 -0.2823
   75SLPC   C22 6693   0.572   1.158   6.638 -0.2851 -0.3566 -1.0210
   75SLPC   H2R 6694   0.646   1.187   6.561 -0.6346  2.0173 -0.5351
   75SLPC   H2S 6695   0.595   1.059   6.682  0.8974  0.5939  0.6194
   75SLPC    C3 6696   0.801   1.449   6.855  0.1790  0.7014 -0.1183
   75SLPC    HX 6697   0.816   1.511   6.945  0.9286  4.4193 -2.5656
   75SLPC    HY 6698   0.736   1.521   6.801  0.0121  0.5823 -0.0806
   75SLPC   O31 6699   0.930   1.427   6.801 -0.1653  0.1150  0.1243
   75SLPC   C31 6700   0.930   1.441   6.665  0.0062 -0.4912 -0.4586
   75SLPC   O32 6701   0.830   1.476   6.604 -0.3168 -0.1208  0.6400
   75SLPC   C32 6702   1.074   1.448   6.613 -0.1361  0.2268 -0.2166
   75SLPC   H2X 6703   1.113   1.344   6.612  0.6644  0.4660  1.7318
   75SLPC   H2Y 6704   1.127   1.510   6.688 -0.0372  1.5325 -1.3277
   75SLPC   C23 6705   0.431   1.181   6.588 -0.1963  0.1824  0.3119
   75SLPC   H3R 6706   0.432   1.283   6.544  0.3094 -0.2895 -0.8321
   75SLPC   H3S 6707   0.359   1.189   6.672 -4.2441  0.9205 -2.8916
   75SLPC   C24 6708   0.385   1.069   6.498 -0.1122 -0.4060  0.5505
   75SLPC   H4R 6709   0.276   1.058   6.486 -0.2650  1.6721 -0.3601
   75SLPC   H4S 6710   0.421   0.973   6.539  1.1054 -0.1120  0.2368
   75SLPC   C25 6711   0.444   1.087   6.350 -0.3454  0.0582 -0.6967
   75SLPC   H5R 6712   0.553   1.109   6.358 -0.5595  0.5246  2.1955
   75SLPC   H5S 6713   0.401   1.182   6.311  2.4509  1.1617 -1.3375
   75SLPC   C26 6714   0.415   0.972   6.253  1.0857  0.1216  1.0095
   75SLPC   H6R 6715   0.315   0.928   6.275  1.5170 -0.5216  1.7506
   75SLPC   H6S 6716   0.493   0.895   6.274  2.4461  1.6950  1.8865
   75SLPC   C27 6717   0.426   1.016   6.111 -0.3709 -1.0084 -0.7059
   75SLPC   H7R 6718   0.524   1.068   6.110 -0.7644 -0.2589 -0.3044
   75SLPC   H7S 6719   0.351   1.090   6.078 -0.9042 -1.1111  0.2413
   75SLPC   C28 6720   0.436   0.912   6.001  0.2564  0.3078 -0.1027
   75SLPC   H8R 6721   0.507   0.833   6.035 -0.3824 -1.0135 -1.6620
   75SLPC   H8S 6722   0.478   0.960   5.910 -0.5091  0.6918 -0.2640
   75SLPC   C29 6723   0.296   0.862   5.978 -0.2434 -0.0668  0.1063
   75SLPC   H9R 6724   0.226   0.889   6.058  0.6869  0.3012  0.8203
   75SLPC  C210 6725   0.250   0.820   5.859 -1.1714  0.7111  0.0453
   75SLPC  H10R 6726   0.153   0.769   5.861  0.8478 -3.6220  1.4471
   75SLPC  C211 6727   0.335   0.800   5.730 -0.2191 -0.2573 -0.7018
   75SLPC  H11R 6728   0.302   0.716   5.667 -0.4020  0.2439 -1.2817
   75SLPC  H11S 6729   0.444   0.799   5.752 -0.0065  3.9590 -0.7499
   75SLPC  C212 6730   0.328   0.922   5.644 -0.1988 -0.1109 -0.4766
   75SLPC  H12R 6731   0.377   1.011   5.686 -1.9478  0.1846  1.0453
   75SLPC  C213 6732   0.271   0.929   5.523  0.3958  0.6251  0.3323
   75SLPC  H13R 6733   0.287   1.013   5.454  0.3063  0.4895  0.1451
   75SLPC  C214 6734   0.193   0.823   5.456  0.5512 -1.2558  0.6985
   75SLPC  H14R 6735   0.090   0.863   5.440  0.2405 -2.4144 -0.3650
   75SLPC  H14S 6736   0.195   0.724   5.507  3.0885 -1.7187 -0.1559
   75SLPC  C215 6737   0.259   0.790   5.325  0.2065 -0.5654  1.2464
   75SLPC  H15R 6738   0.366   0.774   5.350  1.1197  1.1723 -1.1639
   75SLPC  H15S 6739   0.236   0.877   5.260 -0.8205  2.9633  5.8174
   75SLPC  C216 6740   0.212   0.667   5.256  0.5271 -0.4513  0.1320
   75SLPC  H16R 6741   0.111   0.681   5.212  0.1992 -1.3060  0.5845
   75SLPC  H16S 6742   0.208   0.570   5.311 -1.0671  0.6229  2.0077
   75SLPC  C217 6743   0.301   0.632   5.140  0.0358 -0.2822  0.1285
   75SLPC  H17R 6744   0.388   0.572   5.172 -1.3800 -2.0041  0.9211
   75SLPC  H17S 6745   0.340   0.718   5.082  1.0443 -1.7216 -1.4108
   75SLPC  C218 6746   0.228   0.535   5.044 -0.4990 -0.3782  0.5726
   75SLPC  H18R 6747   0.298   0.484   4.974 -1.2243 -1.1178  0.3601
   75SLPC  H18S 6748   0.161   0.593   4.976  1.8613  0.2569 -1.3738
   75SLPC  H18T 6749   0.166   0.456   5.091  1.3424 -1.0354  1.9715
   75SLPC   C33 6750   1.098   1.508   6.468 -0.2618  0.5277  0.5106
   75SLPC   H3X 6751   1.206   1.535   6.461  0.0543 -1.0640 -3.2017
   75SLPC   H3Y 6752   1.038   1.601   6.458 -0.3740  0.4276  0.2463
   75SLPC   C34 6753   1.072   1.405   6.354 -0.3327 -0.4648  1.1314
   75SLPC   H4X 6754   0.964   1.379   6.351 -0.3498 -0.2908 -0.4238
   75SLPC   H4Y 6755   1.133   1.314   6.371  1.4912 -0.2693 -3.1431
   75SLPC   C35 6756   1.098   1.447   6.209 -0.6307  0.0970  0.6117
   75SLPC   H5X 6757   1.207   1.463   6.194 -1.0248  2.1482 -0.5780
   75SLPC   H5Y 6758   1.044   1.544   6.194 -3.3037 -1.6296 -2.0624
   75SLPC   C36 6759   1.043   1.347   6.103 -0.6791  0.1208  0.2202
   75SLPC   H6X 6760   0.936   1.330   6.127 -0.4875 -0.0837  0.9399
   75SLPC   H6Y 6761   1.100   1.253   6.116  0.0242  0.3908 -0.8088
   75SLPC   C37 6762   1.067   1.400   5.959 -0.1778 -0.3101  0.1435
   75SLPC   H7X 6763   1.176   1.415   5.945 -0.3713  0.6024 -0.4647
   75SLPC   H7Y 6764   1.000   1.489   5.951 -0.8589 -0.6151  2.0726
   75SLPC   C38 6765   1.024   1.297   5.852 -0.8637  0.5008  0.7316
   75SLPC   H8X 6766   0.914   1.289   5.864 -0.6361  0.1803  3.0890
   75SLPC   H8Y 6767   1.057   1.194   5.875 -0.0859  0.2971 -1.1245
   75SLPC   C39 6768   1.064   1.352   5.718  0.0073 -0.4379  0.6187
   75SLPC   H9X 6769   1.161   1.405   5.709 -0.2503 -0.3325 -2.9327
   75SLPC   H9Y 6770   0.987   1.421   5.680  0.1963 -0.2126  0.6456
   75SLPC  C310 6771   1.073   1.227   5.626  0.3489  0.0184  0.0008
   75SLPC  H10X 6772   0.971   1.183   5.618  0.5384 -0.2273 -1.5070
   75SLPC  H10Y 6773   1.133   1.152   5.681  0.1864  2.0998  3.2886
   75SLPC  C311 6774   1.135   1.246   5.491  0.6276 -0.1215  0.4341
   75SLPC  H11X 6775   1.156   1.151   5.438 -1.1824 -1.2636  1.6582
   75SLPC  H11Y 6776   1.232   1.292   5.518  0.1100  0.5145  1.2677
   75SLPC  C312 6777   1.054   1.336   5.401 -0.2476 -0.3069 -0.2275
   75SLPC  H12X 6778   1.063   1.440   5.439 -0.0249  0.0806 -1.2990
   75SLPC  H12Y 6779   0.947   1.309   5.406  0.0883 -1.5038  2.8598
   75SLPC  C313 6780   1.114   1.325   5.259  0.5960 -1.2378 -0.2181
   75SLPC  H13X 6781   1.221   1.355   5.266 -0.2617  1.6865  2.4184
   75SLPC  H13Y 6782   1.062   1.401   5.196  2.5235 -0.5556 -1.0682
   75SLPC  C314 6783   1.069   1.193   5.184  0.1201 -0.4491 -0.1344
   75SLPC  H14X 6784   0.959   1.180   5.195  0.4180 -2.5246  1.0616
   75SLPC  H14Y 6785   1.121   1.105   5.228  1.8784  0.6211  0.0064
   75SLPC  C315 6786   1.104   1.182   5.039  0.3178  0.0656  0.4636
   75SLPC  H15X 6787   1.052   1.251   4.969 -0.8515 -1.0684  0.1785
   75SLPC  H15Y 6788   1.083   1.076   5.012  2.1581 -0.5960  1.4070
   75SLPC  C316 6789   1.254   1.197   5.012  0.0149 -0.3635  0.8025
   75SLPC  H16X 6790   1.307   1.127   5.080  0.8111 -0.5057  0.0515
   75SLPC  H16Y 6791   1.287   1.297   5.048  3.0116 -1.0402  0.2012
   75SLPC  C317 6792   1.300   1.187   4.868  0.1817  0.2980 -0.1853
   75SLPC  H17X 6793   1.299   1.287   4.818  0.8832 -0.1886 -1.2144
   75SLPC  H17Y 6794   1.235   1.117   4.813 -0.3162 -0.3681  1.2133
   75SLPC  C318 6795   1.437   1.130   4.842  0.4351  0.5052  0.0187
   75SLPC  H18X 6796   1.504   1.178   4.917  1.1830  1.1997 -1.0526
   75SLPC  H18Y 6797   1.488   1.151   4.745  2.5691 -2.7047  0.3177
   75SLPC  H18Z 6798   1.440   1.021   4.863 -1.9111  0.2678 -0.6227
   76SLPC     N 6799   2.982   1.395   7.698  0.1945 -1.0655  0.4266
   76SLPC   C13 6800   3.036   1.265   7.658  0.2444 -1.1117  0.0658
   76SLPC  H13A 6801   2.953   1.201   7.633  0.0012 -1.6997  2.1435
   76SLPC  H13B 6802   3.102   1.272   7.572  0.2391  1.4392  0.1758
   76SLPC  H13C 6803   3.103   1.218   7.729  1.0274 -1.3092 -0.7870
   76SLPC   C14 6804   3.095   1.474   7.758 -0.2058 -0.5660  0.4806
   76SLPC  H14A 6805   3.184   1.473   7.696 -0.0238  2.1083  0.5963
   76SLPC  H14B 6806   3.064   1.577   7.771 -0.9564 -0.5914 -0.8857
   76SLPC  H14C 6807   3.122   1.442   7.857  2.6702 -0.0879 -0.0694
   76SLPC   C15 6808   2.879   1.374   7.807  0.0641  0.1047 -0.3640
   76SLPC  H15A 6809   2.796   1.317   7.767 -0.5230  1.2729 -0.8833
   76SLPC  H15B 6810   2.919   1.316   7.888  0.0314 -0.3068 -0.6401
   76SLPC  H15C 6811   2.846   1.469   7.848  1.0934  0.1619  0.3620
   76SLPC   C12 6812   2.928   1.478   7.578  0.6113  0.4623  0.1927
   76SLPC  H12A 6813   3.010   1.495   7.509 -1.0352  1.5595 -1.5939
   76SLPC  H12B 6814   2.893   1.576   7.608  1.1135  0.1827  1.8209
   76SLPC   C11 6815   2.805   1.418   7.503 -0.3099  0.2527 -0.3006
   76SLPC  H11A 6816   2.792   1.313   7.537  0.0689 -0.1641 -1.4021
   76SLPC  H11B 6817   2.832   1.418   7.395  1.1169 -1.3743 -0.0057
   76SLPC     P 6818   2.551   1.462   7.489 -0.4333 -0.0676  0.1483
   76SLPC   O13 6819   2.486   1.373   7.588 -0.0892 -0.2679 -0.2852
   76SLPC   O14 6820   2.484   1.589   7.460  0.3975  0.5201  0.2384
   76SLPC   O12 6821   2.692   1.494   7.544 -0.0620  0.3496 -0.1719
   76SLPC   O11 6822   2.591   1.393   7.357  0.2673 -0.4180  0.1606
   76SLPC    C1 6823   2.489   1.382   7.251 -0.3283 -0.1804  0.4558
   76SLPC    HA 6824   2.432   1.288   7.269 -0.2877 -0.3853 -0.4485
   76SLPC    HB 6825   2.418   1.467   7.251 -0.4874 -0.2608  2.5356
   76SLPC    C2 6826   2.570   1.377   7.115  0.9241 -0.9172  0.4186
   76SLPC    HS 6827   2.614   1.479   7.107 -1.0485 -0.1933 -4.5640
   76SLPC   O21 6828   2.480   1.363   7.007  0.0012 -0.0116 -0.4581
   76SLPC   C21 6829   2.423   1.472   6.960  0.1114 -0.5845 -0.3224
   76SLPC   O22 6830   2.437   1.584   7.001  0.2136  0.2041  0.0311
   76SLPC   C22 6831   2.338   1.440   6.834 -0.3618  0.3585 -0.6106
   76SLPC   H2R 6832   2.409   1.414   6.753 -1.7507  0.0645 -1.7867
   76SLPC   H2S 6833   2.278   1.351   6.860 -0.0359 -0.7613 -3.3437
   76SLPC    C3 6834   2.683   1.270   7.110  0.3315 -0.5900  0.7023
   76SLPC    HX 6835   2.618   1.179   7.113 -0.7361  0.1688  1.1121
   76SLPC    HY 6836   2.740   1.289   7.203 -3.7933  2.5748  2.9400
   76SLPC   O31 6837   2.756   1.264   6.987  0.1747 -0.5958  0.2723
   76SLPC   C31 6838   2.884   1.226   7.001 -0.7499  0.3722  0.4917
   76SLPC   O32 6839   2.944   1.208   7.105 -0.2529 -0.0324 -0.3558
   76SLPC   C32 6840   2.939   1.181   6.870  0.4751 -0.9894 -0.7791
   76SLPC   H2X 6841   2.916   1.253   6.788  2.1891 -0.7967 -1.1329
   76SLPC   H2Y 6842   2.905   1.077   6.850 -0.5637 -0.7296 -0.3989
   76SLPC   C23 6843   2.233   1.556   6.805 -0.7111  0.1740 -0.0151
   76SLPC   H3R 6844   2.296   1.645   6.787  0.1264  0.4930  3.6358
   76SLPC   H3S 6845   2.168   1.569   6.894  0.0667 -0.4592  0.6698
   76SLPC   C24 6846   2.148   1.534   6.680  0.4710 -0.3053  0.0328
   76SLPC   H4R 6847   2.074   1.616   6.663 -0.7851 -1.4233 -0.0494
   76SLPC   H4S 6848   2.082   1.445   6.687 -1.4714  1.1421  1.1473
   76SLPC   C25 6849   2.226   1.518   6.553 -0.3681  0.1869 -0.3451
   76SLPC   H5R 6850   2.270   1.416   6.557  3.0521  1.5874  0.3492
   76SLPC   H5S 6851   2.312   1.587   6.543 -0.8338  0.6202 -1.6208
   76SLPC   C26 6852   2.149   1.525   6.427  0.3821  0.5122  0.5576
   76SLPC   H6R 6853   2.097   1.623   6.424  1.1313  0.8924 -1.5090
   76SLPC   H6S 6854   2.077   1.441   6.433 -0.5145  1.3610  4.4911
   76SLPC   C27 6855   2.224   1.522   6.289 -0.1296 -1.1304  0.5550
   76SLPC   H7R 6856   2.299   1.441   6.299  1.1458  0.0785  1.1381
   76SLPC   H7S 6857   2.271   1.618   6.259 -0.6681 -1.3035 -0.9548
   76SLPC   C28 6858   2.140   1.480   6.170 -0.5786 -0.1446  0.0760
   76SLPC   H8R 6859   2.106   1.374   6.167 -1.2376  0.0077  1.5137
   76SLPC   H8S 6860   2.213   1.479   6.085 -0.2746 -2.4507  0.3053
   76SLPC   C29 6861   2.017   1.560   6.158  0.3751  0.3186  0.1833
   76SLPC   H9R 6862   1.961   1.600   6.244  1.1653  1.4252  0.1963
   76SLPC  C210 6863   1.971   1.614   6.045  0.8251 -0.7633  0.6393
   76SLPC  H10R 6864   1.870   1.658   6.046  0.5443 -1.4091  0.9485
   76SLPC  C211 6865   2.022   1.607   5.900 -0.0077  0.4855 -0.5811
   76SLPC  H11R 6866   1.936   1.554   5.853  0.3949 -1.1376  0.4364
   76SLPC  H11S 6867   2.111   1.541   5.900 -1.4592 -1.5812  0.5634
   76SLPC  C212 6868   2.059   1.733   5.830 -0.3082 -0.4367  1.2914
   76SLPC  H12R 6869   2.138   1.795   5.875  0.1865  0.3475 -0.5445
   76SLPC  C213 6870   1.998   1.791   5.719  0.2447  0.0296 -0.4530
   76SLPC  H13R 6871   2.036   1.889   5.686  0.7303 -0.3357 -1.0117
   76SLPC  C214 6872   1.892   1.725   5.643 -0.3217  0.3253 -0.1539
   76SLPC  H14R 6873   1.788   1.729   5.682  0.6054 -0.1678  2.5942
   76SLPC  H14S 6874   1.897   1.614   5.643 -0.6790  0.2872 -1.4044
   76SLPC  C215 6875   1.879   1.783   5.504  0.4820 -0.0103 -0.7219
   76SLPC  H15R 6876   1.886   1.894   5.514  2.1885 -0.1823  0.3415
   76SLPC  H15S 6877   1.778   1.763   5.462  0.0874 -1.1812  0.7122
   76SLPC  C216 6878   1.985   1.730   5.407 -0.2304  0.5306  0.4373
   76SLPC  H16R 6879   1.982   1.621   5.386 -0.3440  0.6174  0.0079
   76SLPC  H16S 6880   2.082   1.758   5.453 -1.5615  0.7124  3.3909
   76SLPC  C217 6881   1.966   1.792   5.271 -0.0198 -0.0729  1.1388
   76SLPC  H17R 6882   1.929   1.897   5.271 -0.1745 -0.1157 -0.2972
   76SLPC  H17S 6883   1.881   1.744   5.219  1.1788 -5.1123  3.2634
   76SLPC  C218 6884   2.085   1.761   5.177 -0.9113  0.1126 -0.2607
   76SLPC  H18R 6885   2.108   1.654   5.161  1.4656  0.4170  0.6603
   76SLPC  H18S 6886   2.178   1.792   5.230 -1.9420  2.0590  0.5415
   76SLPC  H18T 6887   2.075   1.815   5.080 -0.4136 -1.1340 -1.0296
   76SLPC   C33 6888   3.092   1.170   6.870 -0.1522 -0.4871 -0.2463
   76SLPC   H3X 6889   3.108   1.084   6.938  0.2738  0.7970  1.3334
   76SLPC   H3Y 6890   3.156   1.252   6.909 -1.5523 -0.2626  1.7207
   76SLPC   C34 6891   3.144   1.136   6.726 -0.4659  0.2729  0.1922
   76SLPC   H4X 6892   3.121   1.215   6.651 -0.9789  0.2356  0.3120
   76SLPC   H4Y 6893   3.101   1.038   6.699  1.7632 -0.0573 -2.5787
   76SLPC   C35 6894   3.296   1.111   6.727  0.1574 -0.0582  0.3404
   76SLPC   H5X 6895   3.313   1.029   6.800  3.1620  1.7896  1.9594
   76SLPC   H5Y 6896   3.338   1.201   6.778 -0.1467 -0.4251  1.2513
   76SLPC   C36 6897   3.371   1.097   6.594  0.4305 -0.4203 -0.5115
   76SLPC   H6X 6898   3.333   1.003   6.549  1.6449 -0.8752 -0.6264
   76SLPC   H6Y 6899   3.479   1.087   6.620  0.9753  2.7509 -1.0862
   76SLPC   C37 6900   3.362   1.218   6.497  0.5846  0.2238 -0.2486
   76SLPC   H7X 6901   3.389   1.309   6.556 -1.0306  1.1840 -0.9314
   76SLPC   H7Y 6902   3.255   1.239   6.477  0.5519  0.0665 -0.2335
   76SLPC   C38 6903   3.444   1.205   6.372 -0.0377  0.5976 -0.0106
   76SLPC   H8X 6904   3.445   1.098   6.342  2.7021  0.3129  0.8941
   76SLPC   H8Y 6905   3.551   1.226   6.393  0.0618  1.1429 -1.0023
   76SLPC   C39 6906   3.382   1.304   6.271 -0.0504  0.0800  0.0789
   76SLPC   H9X 6907   3.418   1.406   6.299 -1.4014  0.4993  0.3660
   76SLPC   H9Y 6908   3.271   1.311   6.274  0.0195  1.0883  1.5099
   76SLPC  C310 6909   3.421   1.269   6.125  0.3819 -0.3129 -0.3262
   76SLPC  H10X 6910   3.410   1.161   6.102  1.8024 -0.0966 -2.2468
   76SLPC  H10Y 6911   3.529   1.290   6.111  1.0679  0.9620  4.8594
   76SLPC  C311 6912   3.337   1.335   6.013 -0.4661 -0.0850  0.0156
   76SLPC  H11X 6913   3.351   1.445   6.014  2.2555 -0.3593  0.3818
   76SLPC  H11Y 6914   3.229   1.314   6.028 -1.0019  1.6560 -1.0598
   76SLPC  C312 6915   3.371   1.285   5.874  0.0468  0.0203 -0.5889
   76SLPC  H12X 6916   3.327   1.183   5.862 -1.3222  0.3838  0.8962
   76SLPC  H12Y 6917   3.481   1.290   5.859  0.1753  1.7595  0.6414
   76SLPC  C313 6918   3.307   1.377   5.773  0.3184 -0.6877 -0.2564
   76SLPC  H13X 6919   3.336   1.483   5.792 -0.5792 -0.6741  1.1236
   76SLPC  H13Y 6920   3.198   1.368   5.790  0.2391  0.6705  0.0098
   76SLPC  C314 6921   3.335   1.341   5.628  0.1781 -0.1892 -0.2496
   76SLPC  H14X 6922   3.321   1.231   5.619 -1.5411  0.0573 -1.1722
   76SLPC  H14Y 6923   3.441   1.367   5.611  0.1403  0.2908  0.1913
   76SLPC  C315 6924   3.246   1.409   5.525  0.0988  0.4649  0.3106
   76SLPC  H15X 6925   3.286   1.411   5.421 -0.0011  1.9064  0.2811
   76SLPC  H15Y 6926   3.257   1.518   5.546  1.6385  0.2779  0.6288
   76SLPC  C316 6927   3.099   1.367   5.519 -0.5141  0.2081  0.8917
   76SLPC  H16X 6928   3.073   1.378   5.627 -1.1355  2.3906  0.5589
   76SLPC  H16Y 6929   3.098   1.256   5.506  2.0775  0.0879  1.0519
   76SLPC  C317 6930   3.018   1.448   5.425  1.4340  0.7973  0.0498
   76SLPC  H17X 6931   3.044   1.414   5.322  0.5780  0.0210  0.0697
   76SLPC  H17Y 6932   3.028   1.558   5.435  0.3977  0.8509  0.6728
   76SLPC  C318 6933   2.866   1.429   5.434 -0.2487 -0.3355  0.1728
   76SLPC  H18X 6934   2.831   1.324   5.419 -1.1754 -0.2350  1.4596
   76SLPC  H18Y 6935   2.805   1.500   5.376 -0.8392 -0.0667  1.1103
   76SLPC  H18Z 6936   2.850   1.452   5.541  2.0541 -0.0725  0.5132
   77SLPC     N 6937   1.361   0.561   7.658 -0.1686 -0.6171 -0.2805
   77SLPC   C13 6938   1.375   0.665   7.553 -0.2833  0.2916 -0.0953
   77SLPC  H13A 6939   1.417   0.633   7.458 -1.5150 -1.1102 -0.2049
   77SLPC  H13B 6940   1.271   0.691   7.538 -0.6819 -0.2561  1.5723
   77SLPC  H13C 6941   1.435   0.748   7.586 -0.9546  1.4388 -1.5879
   77SLPC   C14 6942   1.260   0.463   7.615  0.3100 -0.4159  0.2765
   77SLPC  H14A 6943   1.254   0.382   7.686  0.6336 -0.0060  0.7766
   77SLPC  H14B 6944   1.167   0.518   7.612  1.2057  1.2315  1.2065
   77SLPC  H14C 6945   1.279   0.431   7.514  0.1249  0.1601  0.0535
   77SLPC   C15 6946   1.313   0.629   7.778 -0.9668 -0.1076  0.5332
   77SLPC  H15A 6947   1.223   0.683   7.755 -2.0093 -1.5271  1.1279
   77SLPC  H15B 6948   1.285   0.571   7.864 -1.2438  0.0619  0.5587
   77SLPC  H15C 6949   1.388   0.699   7.811 -0.2625 -1.1249  1.1308
   77SLPC   C12 6950   1.487   0.487   7.687  0.2990 -0.1008  0.3848
   77SLPC  H12A 6951   1.469   0.423   7.773 -1.8020 -1.7141 -1.1728
   77SLPC  H12B 6952   1.560   0.562   7.714  0.0360  0.3016 -0.0209
   77SLPC   C11 6953   1.561   0.406   7.585 -0.0531 -0.1892  0.2413
   77SLPC  H11A 6954   1.499   0.318   7.559  1.0946 -0.9061 -0.1874
   77SLPC  H11B 6955   1.661   0.380   7.627 -0.1253  2.8753  2.6678
   77SLPC     P 6956   1.719   0.567   7.462  0.2912  0.1572  0.1129
   77SLPC   O13 6957   1.760   0.614   7.598  0.0897  0.5881  0.3442
   77SLPC   O14 6958   1.818   0.495   7.378  0.4421 -0.0922 -0.0643
   77SLPC   O12 6959   1.588   0.474   7.472 -0.1098  0.7293  0.4711
   77SLPC   O11 6960   1.656   0.685   7.378 -0.7726  0.5403 -0.7703
   77SLPC    C1 6961   1.593   0.654   7.248 -0.3585 -0.1079 -0.3773
   77SLPC    HA 6962   1.613   0.555   7.202 -0.0846 -0.0193 -0.4537
   77SLPC    HB 6963   1.483   0.658   7.235 -0.2314  0.7005 -1.3677
   77SLPC    C2 6964   1.645   0.758   7.142  0.8871  0.5108  0.8185
   77SLPC    HS 6965   1.595   0.854   7.171 -0.6990  0.0733 -0.2867
   77SLPC   O21 6966   1.600   0.698   7.018 -0.1036 -0.7714  0.5928
   77SLPC   C21 6967   1.558   0.779   6.926 -0.2530 -0.3970  0.2267
   77SLPC   O22 6968   1.550   0.903   6.934 -0.0192  0.6175  0.1162
   77SLPC   C22 6969   1.510   0.702   6.805 -0.0101  0.9277  0.5623
   77SLPC   H2R 6970   1.569   0.608   6.800 -0.5802  0.6335 -0.9013
   77SLPC   H2S 6971   1.400   0.688   6.815  0.1235  0.7205  1.9862
   77SLPC    C3 6972   1.795   0.768   7.134  0.7378  0.0769  0.0757
   77SLPC    HX 6973   1.839   0.666   7.123 -0.3899 -0.3054 -1.0878
   77SLPC    HY 6974   1.830   0.818   7.227  1.9961 -0.6940  0.0440
   77SLPC   O31 6975   1.844   0.859   7.027 -0.0999  0.0422 -0.3916
   77SLPC   C31 6976   1.838   0.993   7.052 -0.0168 -0.5641  0.2819
   77SLPC   O32 6977   1.809   1.047   7.156 -0.3302  0.0074 -0.2634
   77SLPC   C32 6978   1.868   1.073   6.929  0.4086  0.2392 -0.4338
   77SLPC   H2X 6979   1.910   1.005   6.852  1.4378 -1.8986  1.8389
   77SLPC   H2Y 6980   1.958   1.135   6.950  1.8252 -2.1985  1.3460
   77SLPC   C23 6981   1.527   0.770   6.666  0.1318  0.1786  0.7109
   77SLPC   H3R 6982   1.501   0.697   6.587 -2.5596  2.1097 -0.3454
   77SLPC   H3S 6983   1.635   0.794   6.652 -0.0103  0.2978 -0.2605
   77SLPC   C24 6984   1.444   0.895   6.641 -0.7115  0.0273  0.3710
   77SLPC   H4R 6985   1.484   0.971   6.712 -0.3533 -2.2276  2.7406
   77SLPC   H4S 6986   1.336   0.878   6.661 -0.9291 -0.8831 -1.4104
   77SLPC   C25 6987   1.459   0.941   6.497  0.2103  0.0369 -0.6329
   77SLPC   H5R 6988   1.450   0.859   6.423 -0.3489 -0.8406  0.3924
   77SLPC   H5S 6989   1.561   0.986   6.487  1.7496 -2.3258  2.6788
   77SLPC   C26 6990   1.354   1.049   6.464  0.0358  0.2010 -0.1598
   77SLPC   H6R 6991   1.341   1.116   6.552  0.3268 -1.0626  0.8775
   77SLPC   H6S 6992   1.260   0.993   6.444 -1.2017  1.1710  2.4528
   77SLPC   C27 6993   1.420   1.134   6.353  0.3784  0.6339 -0.4156
   77SLPC   H7R 6994   1.498   1.199   6.398  1.2687 -0.0378 -0.9533
   77SLPC   H7S 6995   1.336   1.202   6.326 -0.8844 -0.2693  1.0804
   77SLPC   C28 6996   1.481   1.064   6.226 -0.5633 -0.5408 -0.5421
   77SLPC   H8R 6997   1.561   0.997   6.263  0.4837  1.1569  0.4157
   77SLPC   H8S 6998   1.530   1.138   6.158  2.6233 -2.1686 -0.2146
   77SLPC   C29 6999   1.380   0.990   6.150  0.3997 -0.7995 -1.2881
   77SLPC   H9R 7000   1.299   0.938   6.202  0.6593 -1.6589 -1.7302
   77SLPC  C210 7001   1.377   0.975   6.018  0.0798 -0.3181 -0.1848
   77SLPC  H10R 7002   1.294   0.920   5.973  3.2424 -3.5029 -2.6313
   77SLPC  C211 7003   1.473   1.035   5.922  0.1004  0.3017  0.6589
   77SLPC  H11R 7004   1.568   1.059   5.975  0.9260  0.1627 -0.7056
   77SLPC  H11S 7005   1.427   1.130   5.888 -1.5252 -1.1118 -1.3378
   77SLPC  C212 7006   1.506   0.951   5.797  0.0589  0.3933 -0.3179
   77SLPC  H12R 7007   1.570   0.867   5.827 -1.4208 -1.2558 -1.5547
   77SLPC  C213 7008   1.468   0.954   5.672 -0.3298 -0.0226 -0.3983
   77SLPC  H13R 7009   1.510   0.876   5.606 -0.3473 -0.0583 -0.3676
   77SLPC  C214 7010   1.380   1.049   5.593 -0.0361  0.1484  0.0480
   77SLPC  H14R 7011   1.338   1.116   5.671  0.9436 -1.8775  2.4419
   77SLPC  H14S 7012   1.293   0.989   5.559 -0.0006 -0.4330  0.9745
   77SLPC  C215 7013   1.454   1.128   5.483 -0.9571 -0.0467  0.6883
   77SLPC  H15R 7014   1.540   1.186   5.523 -1.1676  0.9393 -0.2326
   77SLPC  H15S 7015   1.381   1.198   5.437  1.3088  1.3019 -1.0426
   77SLPC  C216 7016   1.514   1.027   5.378  0.0745 -0.1602 -0.1733
   77SLPC  H16R 7017   1.434   0.953   5.356  0.0239  0.1310 -0.9685
   77SLPC  H16S 7018   1.591   0.972   5.437 -0.4199  0.3997  1.0357
   77SLPC  C217 7019   1.566   1.086   5.253 -0.5702 -0.0667 -0.0397
   77SLPC  H17R 7020   1.636   1.165   5.289  0.2140 -1.0672  0.6651
   77SLPC  H17S 7021   1.485   1.144   5.202 -0.3530  0.3808  0.1130
   77SLPC  C218 7022   1.648   0.995   5.161 -0.0619 -0.1820 -0.4394
   77SLPC  H18R 7023   1.733   0.966   5.226 -1.7010  0.3673  2.1151
   77SLPC  H18S 7024   1.691   1.050   5.075  3.5535 -1.8042  0.1430
   77SLPC  H18T 7025   1.585   0.913   5.121  0.5962  0.3831 -2.7392
   77SLPC   C33 7026   1.758   1.168   6.906  0.3496  0.4594  0.7706
   77SLPC   H3X 7027   1.769   1.248   6.982  1.6346  0.3338  0.7384
   77SLPC   H3Y 7028   1.652   1.135   6.905  0.4102  0.0348  2.8539
   77SLPC   C34 7029   1.781   1.249   6.771 -0.1452 -0.0805 -0.0748
   77SLPC   H4X 7030   1.881   1.295   6.759 -0.6362  1.1895  0.4869
   77SLPC   H4Y 7031   1.706   1.331   6.765  0.6795  0.6155 -1.2257
   77SLPC   C35 7032   1.761   1.157   6.650  0.4650  0.2448  0.1448
   77SLPC   H5X 7033   1.654   1.146   6.623  0.7032  1.8187 -1.6500
   77SLPC   H5Y 7034   1.812   1.059   6.664 -1.1435 -0.6619 -0.1305
   77SLPC   C36 7035   1.812   1.227   6.517 -0.0857 -0.9076  0.9547
   77SLPC   H6X 7036   1.912   1.273   6.533  0.5495 -2.9566  3.3853
   77SLPC   H6Y 7037   1.746   1.304   6.471 -1.0341 -2.4931 -0.4605
   77SLPC   C37 7038   1.821   1.121   6.405 -0.2815  0.0217 -0.1093
   77SLPC   H7X 7039   1.729   1.061   6.391  0.3874 -0.8251 -1.0196
   77SLPC   H7Y 7040   1.895   1.046   6.440 -0.3616 -0.1432 -0.2960
   77SLPC   C38 7041   1.852   1.180   6.267  0.6544  0.7847  0.5498
   77SLPC   H8X 7042   1.954   1.222   6.275  1.3547 -0.6416 -0.3629
   77SLPC   H8Y 7043   1.798   1.271   6.232  0.6294  1.3760  2.0416
   77SLPC   C39 7044   1.863   1.062   6.161 -0.0920  0.3461 -0.0587
   77SLPC   H9X 7045   1.765   1.010   6.159 -0.4764  1.0749 -0.2172
   77SLPC   H9Y 7046   1.937   0.993   6.208 -0.1870  0.7499  0.7106
   77SLPC  C310 7047   1.903   1.106   6.021 -1.0354 -0.0319 -1.2746
   77SLPC  H10X 7048   1.998   1.163   6.032  0.1901 -2.0996 -0.7074
   77SLPC  H10Y 7049   1.836   1.186   5.982 -0.2520  1.3998  0.1774
   77SLPC  C311 7050   1.936   0.990   5.930  0.7691 -0.2060 -0.6277
   77SLPC  H11X 7051   1.842   0.932   5.917  1.3035 -1.3852  0.5905
   77SLPC  H11Y 7052   2.009   0.924   5.981  1.3817 -0.2667 -1.5583
   77SLPC  C312 7053   1.981   1.025   5.784 -0.8162 -0.0681 -0.6219
   77SLPC  H12X 7054   2.006   0.926   5.741  0.7045  0.0767 -0.1105
   77SLPC  H12Y 7055   2.074   1.083   5.799 -1.1889 -0.0115  1.8713
   77SLPC  C313 7056   1.882   1.104   5.700  0.2178  0.1001  0.0766
   77SLPC  H13X 7057   1.868   1.198   5.758 -1.9166  0.0865 -0.3396
   77SLPC  H13Y 7058   1.782   1.057   5.699 -0.0485  0.6224 -1.9720
   77SLPC  C314 7059   1.933   1.155   5.566 -0.3200  0.4033  0.3677
   77SLPC  H14X 7060   1.939   1.072   5.493 -0.4417  2.4336 -2.0965
   77SLPC  H14Y 7061   2.038   1.190   5.575  0.1432 -1.3051  2.3298
   77SLPC  C315 7062   1.854   1.271   5.504 -0.0947  0.2975 -0.2456
   77SLPC  H15X 7063   1.856   1.350   5.582 -0.1341  0.1891 -0.1339
   77SLPC  H15Y 7064   1.747   1.253   5.480 -0.0786  0.3601 -0.3668
   77SLPC  C316 7065   1.939   1.332   5.385  0.8033  0.1109 -0.5394
   77SLPC  H16X 7066   2.045   1.349   5.413  0.2998 -0.0453  1.6856
   77SLPC  H16Y 7067   1.912   1.440   5.389  1.4161  0.2865  3.2974
   77SLPC  C317 7068   1.930   1.271   5.245  0.5727  0.1097  0.3565
   77SLPC  H17X 7069   1.938   1.347   5.165  2.1371 -0.3175  0.0799
   77SLPC  H17Y 7070   1.825   1.241   5.228  0.3998 -0.0119  1.5079
   77SLPC  C318 7071   2.032   1.167   5.211 -0.1284  1.2529 -0.1455
   77SLPC  H18X 7072   2.024   1.079   5.278  0.5063  0.6158 -0.8812
   77SLPC  H18Y 7073   2.136   1.206   5.215  0.1733  0.9274 -2.8230
   77SLPC  H18Z 7074   2.019   1.132   5.106 -0.3479  0.5626  0.1095
   78SLPC     N 7075   4.835   5.778   7.545 -0.5667  0.8000  0.1181
   78SLPC   C13 7076   4.777   5.914   7.549 -0.0677  0.3172 -0.5453
   78SLPC  H13A 7077   4.849   5.994   7.561 -1.9468  1.9916  0.2170
   78SLPC  H13B 7078   4.716   5.943   7.464 -1.1846 -2.0232 -0.6111
   78SLPC  H13C 7079   4.724   5.922   7.643  1.0920 -0.3401  0.1923
   78SLPC   C14 7080   4.919   5.762   7.422  0.0856 -0.1857 -0.2123
   78SLPC  H14A 7081   4.996   5.837   7.413  0.1083 -0.2663 -0.7099
   78SLPC  H14B 7082   4.963   5.664   7.415  0.9068  0.2096 -0.6345
   78SLPC  H14C 7083   4.850   5.771   7.339  0.1345 -0.6486 -0.3093
   78SLPC   C15 7084   4.721   5.682   7.539 -0.7620  0.4686 -0.6430
   78SLPC  H15A 7085   4.676   5.673   7.637 -0.3228  1.6960 -0.3036
   78SLPC  H15B 7086   4.643   5.717   7.473 -2.1038  2.1630  1.6909
   78SLPC  H15C 7087   4.760   5.589   7.501  1.7854  0.3632  1.9005
   78SLPC   C12 7088   4.918   5.748   7.670  0.7066 -0.3685  0.0813
   78SLPC  H12A 7089   4.856   5.770   7.755  0.6571 -0.5381  0.0889
   78SLPC  H12B 7090   4.990   5.828   7.676 -1.3835  1.6257 -0.3542
   78SLPC   C11 7091   4.985   5.608   7.687  0.1867 -0.1359  0.3101
   78SLPC  H11A 7092   4.902   5.533   7.687 -0.7714  0.8917  0.4762
   78SLPC  H11B 7093   5.025   5.603   7.790 -1.5625 -3.0507  0.9806
   78SLPC     P 7094   5.214   5.645   7.588 -0.0162  0.0484 -0.3388
   78SLPC   O13 7095   5.199   5.780   7.523 -0.9624  0.3184 -0.0255
   78SLPC   O14 7096   5.261   5.648   7.731  0.2365 -0.4868  0.2496
   78SLPC   O12 7097   5.073   5.571   7.583 -0.1759  0.6713 -0.2606
   78SLPC   O11 7098   5.305   5.558   7.499  0.2840  0.5391  0.1121
   78SLPC    C1 7099   5.290   5.584   7.353  0.6318  0.3706  0.1348
   78SLPC    HA 7100   5.214   5.661   7.328  3.3020  2.8075 -1.1705
   78SLPC    HB 7101   5.381   5.631   7.310  0.2276  0.8950 -0.1619
   78SLPC    C2 7102   5.277   5.458   7.270  0.5814  0.5101 -0.1631
   78SLPC    HS 7103   5.276   5.480   7.161  3.2863 -2.7069 -1.0195
   78SLPC   O21 7104   5.154   5.384   7.295 -0.2154 -0.6873  0.2495
   78SLPC   C21 7105   5.037   5.448   7.274  0.3927  0.2313  0.2942
   78SLPC   O22 7106   5.014   5.552   7.219  0.2131 -0.2814 -0.0965
   78SLPC   C22 7107   4.929   5.358   7.343 -0.2060  0.0137  0.2211
   78SLPC   H2R 7108   4.958   5.253   7.326 -1.5876 -0.6422  1.6993
   78SLPC   H2S 7109   4.923   5.395   7.447 -1.6583 -0.5001  0.3488
   78SLPC    C3 7110   5.406   5.371   7.288  0.1122 -0.3369  0.2962
   78SLPC    HX 7111   5.409   5.312   7.382  0.4129 -1.5157 -0.4273
   78SLPC    HY 7112   5.495   5.436   7.294  0.6298 -0.9412 -0.5118
   78SLPC   O31 7113   5.417   5.278   7.177 -0.0896  0.5506 -0.7791
   78SLPC   C31 7114   5.521   5.290   7.090  0.2595 -0.6788  0.2931
   78SLPC   O32 7115   5.617   5.365   7.097  0.1451  0.2936 -0.1638
   78SLPC   C32 7116   5.497   5.198   6.972 -0.4952  1.0297 -0.4922
   78SLPC   H2X 7117   5.389   5.185   6.949 -1.1790  0.2250  2.6259
   78SLPC   H2Y 7118   5.527   5.095   7.001 -1.9441  0.9607  0.8802
   78SLPC   C23 7119   4.789   5.388   7.279  0.1778  0.1261 -0.5303
   78SLPC   H3R 7120   4.767   5.496   7.292 -2.6961 -0.6055  1.4666
   78SLPC   H3S 7121   4.711   5.335   7.337  1.8979  0.3338  2.1532
   78SLPC   C24 7122   4.771   5.344   7.134  0.0112  0.6963 -0.2763
   78SLPC   H4R 7123   4.757   5.234   7.147 -0.7883  0.5216 -2.2400
   78SLPC   H4S 7124   4.861   5.376   7.077  1.0819  2.0714  2.0768
   78SLPC   C25 7125   4.645   5.398   7.067 -0.5754  0.2788 -1.2500
   78SLPC   H5R 7126   4.645   5.509   7.076  3.2323  0.3808 -1.1429
   78SLPC   H5S 7127   4.565   5.339   7.118  1.7737 -0.3974  1.9089
   78SLPC   C26 7128   4.645   5.364   6.922 -0.4742  0.3156  0.7836
   78SLPC   H6R 7129   4.554   5.396   6.867  0.0154 -0.4121 -0.4684
   78SLPC   H6S 7130   4.654   5.254   6.910 -0.3923  0.2910  1.0549
   78SLPC   C27 7131   4.747   5.435   6.825  0.8058  0.1265 -0.4689
   78SLPC   H7R 7132   4.848   5.394   6.847  0.9724  0.7831 -0.0042
   78SLPC   H7S 7133   4.752   5.545   6.841 -0.2719  0.4311 -2.0508
   78SLPC   C28 7134   4.723   5.397   6.680 -0.3763  0.8853 -0.2643
   78SLPC   H8R 7135   4.688   5.293   6.672 -0.0325  0.6334  1.1027
   78SLPC   H8S 7136   4.820   5.388   6.626  0.5380 -3.2405  1.6204
   78SLPC   C29 7137   4.625   5.494   6.613 -0.8081  0.8835 -0.0132
   78SLPC   H9R 7138   4.534   5.518   6.671  0.1451 -0.6401  2.2881
   78SLPC  C210 7139   4.648   5.567   6.502  0.0044  0.1266  0.4133
   78SLPC  H10R 7140   4.563   5.619   6.453 -2.0626 -1.2956  2.3026
   78SLPC  C211 7141   4.777   5.573   6.418  0.5526  0.3855  1.2291
   78SLPC  H11R 7142   4.868   5.558   6.481  0.7819  0.0264  0.8212
   78SLPC  H11S 7143   4.788   5.669   6.362  3.2294 -0.5655 -0.0386
   78SLPC  C212 7144   4.762   5.465   6.313 -0.7025  0.3130  0.2291
   78SLPC  H12R 7145   4.823   5.379   6.344 -0.8299 -0.3818 -1.3866
   78SLPC  C213 7146   4.700   5.461   6.195 -0.4805 -0.0619 -0.3221
   78SLPC  H13R 7147   4.716   5.380   6.122 -1.1279  0.5493 -1.1689
   78SLPC  C214 7148   4.610   5.575   6.137 -0.4187 -0.6772  0.8230
   78SLPC  H14R 7149   4.584   5.658   6.205  0.0816  0.7848 -0.7135
   78SLPC  H14S 7150   4.515   5.531   6.099 -0.8869  2.1911 -1.7602
   78SLPC  C215 7151   4.672   5.634   6.005 -0.1369  0.3858  0.0381
   78SLPC  H15R 7152   4.768   5.686   6.024 -0.4442  0.4394  1.6188
   78SLPC  H15S 7153   4.604   5.714   5.968  0.3690  0.8747  0.1478
   78SLPC  C216 7154   4.701   5.537   5.896  0.1677 -0.0308 -0.0841
   78SLPC  H16R 7155   4.616   5.469   5.873  1.0570 -0.7820 -1.2905
   78SLPC  H16S 7156   4.783   5.471   5.930 -0.0578  0.5429  1.7002
   78SLPC  C217 7157   4.746   5.610   5.766 -0.3121  0.5709  0.4504
   78SLPC  H17R 7158   4.837   5.563   5.724  0.0021  1.0613  0.5627
   78SLPC  H17S 7159   4.768   5.718   5.785 -0.4949  0.6496  0.2099
   78SLPC  C218 7160   4.635   5.616   5.656  0.6483  0.2945 -0.6220
   78SLPC  H18R 7161   4.541   5.661   5.694 -0.5926 -1.0578 -1.9650
   78SLPC  H18S 7162   4.611   5.513   5.621  0.8004  0.3642 -0.9296
   78SLPC  H18T 7163   4.681   5.674   5.573 -1.4417 -0.4380 -2.3780
   78SLPC   C33 7164   5.572   5.234   6.845  0.3590  0.0495  0.3923
   78SLPC   H3X 7165   5.679   5.257   6.864  0.5247  1.4878 -1.9779
   78SLPC   H3Y 7166   5.532   5.329   6.803 -0.5876 -0.4827  0.0479
   78SLPC   C34 7167   5.572   5.127   6.741  0.8225  0.3880  0.5255
   78SLPC   H4X 7168   5.601   5.032   6.791  1.6004 -0.0276 -0.6630
   78SLPC   H4Y 7169   5.656   5.140   6.670  1.4971 -2.1320  0.7849
   78SLPC   C35 7170   5.441   5.128   6.658  0.8203  0.5513 -0.2397
   78SLPC   H5X 7171   5.438   5.226   6.606  1.0434  1.7634  1.8913
   78SLPC   H5Y 7172   5.351   5.127   6.723 -0.0778  0.2175 -1.4607
   78SLPC   C36 7173   5.428   5.021   6.550 -0.5020 -0.3672 -0.5875
   78SLPC   H6X 7174   5.404   4.919   6.587  1.2760 -0.5323  0.2037
   78SLPC   H6Y 7175   5.532   5.007   6.515 -1.3973 -0.1545 -3.6272
   78SLPC   C37 7176   5.333   5.066   6.434  0.1765  0.3251  0.3669
   78SLPC   H7X 7177   5.355   5.175   6.428 -1.1259  0.6849  1.4716
   78SLPC   H7Y 7178   5.232   5.046   6.476  0.6478  0.0783  1.4182
   78SLPC   C38 7179   5.348   4.988   6.302  0.2635  0.3790  0.9076
   78SLPC   H8X 7180   5.318   4.883   6.319  0.0103  0.2913 -0.0182
   78SLPC   H8Y 7181   5.457   4.991   6.281  0.2309 -0.0460  0.6767
   78SLPC   C39 7182   5.271   5.057   6.186 -0.3541 -0.0751  0.3129
   78SLPC   H9X 7183   5.306   5.163   6.189  0.9062 -0.4480 -0.5637
   78SLPC   H9Y 7184   5.161   5.054   6.200 -0.2224 -4.0766  1.4380
   78SLPC  C310 7185   5.295   4.989   6.051 -0.5419 -0.2588  0.3600
   78SLPC  H10X 7186   5.305   4.879   6.060  0.4334 -0.2081  0.0598
   78SLPC  H10Y 7187   5.394   5.008   6.004 -0.6903 -1.1162 -0.3206
   78SLPC  C311 7188   5.192   5.021   5.948  0.2323 -0.2833  0.2491
   78SLPC  H11X 7189   5.197   5.129   5.923  2.1190 -0.5769 -0.8442
   78SLPC  H11Y 7190   5.086   5.000   5.974  0.3332 -0.7424  0.2954
   78SLPC  C312 7191   5.214   4.950   5.816 -0.3268  0.3103 -0.8050
   78SLPC  H12X 7192   5.167   4.850   5.826 -0.6936  0.3046 -2.4045
   78SLPC  H12Y 7193   5.321   4.945   5.786  0.1944  1.2864  0.7374
   78SLPC  C313 7194   5.136   5.014   5.702  0.5041  0.1931 -0.5015
   78SLPC  H13X 7195   5.183   5.105   5.658  0.4472 -0.1850 -1.3640
   78SLPC  H13Y 7196   5.036   5.046   5.738  2.2340  3.0590  2.2982
   78SLPC  C314 7197   5.116   4.904   5.594 -0.2453  1.3549 -0.3465
   78SLPC  H14X 7198   5.075   4.815   5.646  0.3626  2.3850  2.0023
   78SLPC  H14Y 7199   5.211   4.866   5.550 -1.8430  0.4420 -3.3212
   78SLPC  C315 7200   5.030   4.929   5.467  0.7125 -0.0088  0.2023
   78SLPC  H15X 7201   4.933   4.973   5.499  0.0093 -1.3161 -0.0634
   78SLPC  H15Y 7202   5.004   4.829   5.426  0.8948  0.1804 -0.3829
   78SLPC  C316 7203   5.106   5.013   5.367  0.4110  0.1995 -0.9011
   78SLPC  H16X 7204   5.121   5.111   5.416 -1.4945  0.2914 -0.4055
   78SLPC  H16Y 7205   5.035   5.034   5.284 -1.0206 -2.0291 -0.3433
   78SLPC  C317 7206   5.230   4.949   5.301 -0.4968 -0.2748 -0.1720
   78SLPC  H17X 7207   5.213   4.849   5.256 -1.2481  0.8637 -2.5593
   78SLPC  H17Y 7208   5.311   4.950   5.377 -0.5117  0.6653 -0.1639
   78SLPC  C318 7209   5.274   5.034   5.181  0.4712  0.1665 -0.1476
   78SLPC  H18X 7210   5.372   5.001   5.141  0.5374 -0.3379  0.4095
   78SLPC  H18Y 7211   5.276   5.141   5.213 -1.1408  0.5196 -1.0883
   78SLPC  H18Z 7212   5.200   5.021   5.099  0.2831 -1.5183  0.2567
   79SLPC     N 7213   1.973   0.995   7.689  0.3915  0.0354  0.4290
   79SLPC   C13 7214   1.882   0.883   7.703 -0.0209  0.0258 -0.1199
   79SLPC  H13A 7215   1.911   0.792   7.653  0.8347  0.8158 -1.1145
   79SLPC  H13B 7216   1.881   0.855   7.807 -1.3949  0.6034  0.0353
   79SLPC  H13C 7217   1.787   0.894   7.653  1.6742  1.8450 -3.2334
   79SLPC   C14 7218   2.106   0.942   7.724 -0.4561  0.2815  0.2634
   79SLPC  H14A 7219   2.178   1.023   7.728 -0.5495  0.3203  1.9783
   79SLPC  H14B 7220   2.099   0.891   7.819 -0.2076  0.3289  0.3079
   79SLPC  H14C 7221   2.130   0.880   7.639  0.0390  0.1873  0.4674
   79SLPC   C15 7222   1.940   1.106   7.784 -1.0522  0.0460  0.0805
   79SLPC  H15A 7223   1.971   1.080   7.884  0.9989 -1.1196 -0.7961
   79SLPC  H15B 7224   2.005   1.186   7.750  1.4215 -1.8023  0.2044
   79SLPC  H15C 7225   1.834   1.126   7.788 -1.0189  0.6045 -1.1516
   79SLPC   C12 7226   1.971   1.048   7.545 -0.4712 -0.5873 -0.0327
   79SLPC  H12A 7227   2.032   1.137   7.542  0.4272 -1.0843  1.7215
   79SLPC  H12B 7228   1.872   1.078   7.514 -0.2231 -0.4986 -0.7610
   79SLPC   C11 7229   2.012   0.954   7.429 -0.0986 -0.0085 -0.5769
   79SLPC  H11A 7230   1.972   1.010   7.341  2.3248  0.6357 -1.3548
   79SLPC  H11B 7231   1.959   0.859   7.449  1.6914 -0.8322  0.4128
   79SLPC     P 7232   2.234   1.066   7.353  0.0509  0.4534 -0.2429
   79SLPC   O13 7233   2.182   1.192   7.411  0.1092 -0.0346 -0.2319
   79SLPC   O14 7234   2.379   1.046   7.372  0.4171  0.6485 -0.1019
   79SLPC   O12 7235   2.157   0.942   7.418 -0.0735 -0.6141  0.1681
   79SLPC   O11 7236   2.211   1.051   7.202 -0.2635  0.4633 -0.1336
   79SLPC    C1 7237   2.199   0.917   7.144 -0.3597 -0.7611 -0.4755
   79SLPC    HA 7238   2.237   0.837   7.211  0.2653 -0.8149 -0.8901
   79SLPC    HB 7239   2.093   0.890   7.124 -0.5380 -0.1734 -0.3585
   79SLPC    C2 7240   2.272   0.912   7.009  0.2383  0.3185 -0.3789
   79SLPC    HS 7241   2.374   0.954   7.023 -0.9502  3.1524  0.7390
   79SLPC   O21 7242   2.196   0.985   6.922  0.5074 -0.2863 -0.7117
   79SLPC   C21 7243   2.250   1.064   6.833 -0.1613  0.4125 -0.3474
   79SLPC   O22 7244   2.366   1.095   6.823 -0.7040 -0.1151 -0.2447
   79SLPC   C22 7245   2.142   1.111   6.743  0.2201 -0.2426  0.2615
   79SLPC   H2R 7246   2.057   1.041   6.730  0.4285 -0.3845 -0.4073
   79SLPC   H2S 7247   2.091   1.199   6.787  1.4352  1.4159 -1.4797
   79SLPC    C3 7248   2.276   0.768   6.938  0.8237  1.1778 -0.6258
   79SLPC    HX 7249   2.174   0.729   6.919  0.4519  1.6805  0.2819
   79SLPC    HY 7250   2.313   0.687   7.005 -0.3452  0.9531 -0.2294
   79SLPC   O31 7251   2.339   0.776   6.810 -0.0765  0.0564  0.0537
   79SLPC   C31 7252   2.473   0.786   6.826 -0.0188  0.0459  0.1372
   79SLPC   O32 7253   2.535   0.759   6.928  0.0294 -0.2357 -0.2740
   79SLPC   C32 7254   2.524   0.809   6.686  0.6300 -0.7762 -0.1491
   79SLPC   H2X 7255   2.498   0.911   6.650 -0.2239 -1.1408 -0.6031
   79SLPC   H2Y 7256   2.475   0.741   6.613 -1.9034  0.9747 -0.2160
   79SLPC   C23 7257   2.194   1.128   6.598 -0.3005 -0.1027 -0.1416
   79SLPC   H3R 7258   2.296   1.171   6.602 -0.4181  0.1896 -0.3099
   79SLPC   H3S 7259   2.123   1.193   6.543 -0.0843 -1.2919 -1.8883
   79SLPC   C24 7260   2.212   0.998   6.524 -0.6436  0.0787  0.0434
   79SLPC   H4R 7261   2.116   0.945   6.502 -0.0799 -0.1798 -2.0183
   79SLPC   H4S 7262   2.277   0.925   6.577  0.0955  1.7134  1.4874
   79SLPC   C25 7263   2.287   1.030   6.394 -0.9954  0.1426  0.1290
   79SLPC   H5R 7264   2.374   1.093   6.420  0.1313 -1.5971  0.8068
   79SLPC   H5S 7265   2.225   1.086   6.321 -1.7775 -0.2034  0.5138
   79SLPC   C26 7266   2.336   0.903   6.322 -0.0530 -0.4645 -0.1166
   79SLPC   H6R 7267   2.261   0.840   6.270  1.0784 -0.1183 -2.2663
   79SLPC   H6S 7268   2.363   0.829   6.401  2.8456  0.7599  0.1554
   79SLPC   C27 7269   2.448   0.920   6.221  1.0354 -0.1954  1.0373
   79SLPC   H7R 7270   2.483   0.818   6.195  0.1660 -0.3160  0.2918
   79SLPC   H7S 7271   2.533   0.971   6.272  1.6188 -0.4756  0.3714
   79SLPC   C28 7272   2.413   1.000   6.095 -0.3369 -0.7194  0.0721
   79SLPC   H8R 7273   2.411   1.107   6.126 -1.8859 -0.8960  0.6288
   79SLPC   H8S 7274   2.313   0.975   6.055  0.1507 -0.9799 -1.0321
   79SLPC   C29 7275   2.527   0.979   5.999  0.2559 -0.3175  0.2029
   79SLPC   H9R 7276   2.616   1.043   6.010  0.5701 -0.5926 -0.5959
   79SLPC  C210 7277   2.519   0.908   5.888 -0.0840 -0.3865  0.0722
   79SLPC  H10R 7278   2.604   0.893   5.820 -0.1742 -1.1820  0.1286
   79SLPC  C211 7279   2.398   0.838   5.824 -0.1580 -0.1826  0.6018
   79SLPC  H11R 7280   2.343   0.799   5.912  1.6421 -0.9898  1.4068
   79SLPC  H11S 7281   2.432   0.751   5.764 -2.6282  0.7110 -2.3845
   79SLPC  C212 7282   2.323   0.943   5.740 -0.7299  0.6278 -0.3530
   79SLPC  H12R 7283   2.242   0.990   5.798 -0.1742  0.2082  0.8036
   79SLPC  C213 7284   2.330   0.961   5.603 -0.3246 -0.5659  0.0190
   79SLPC  H13R 7285   2.290   1.049   5.550  1.1518  0.5285  0.6199
   79SLPC  C214 7286   2.412   0.866   5.520 -0.6513  0.3618  0.0806
   79SLPC  H14R 7287   2.392   0.759   5.541 -0.6981  0.1526 -0.9420
   79SLPC  H14S 7288   2.520   0.877   5.544 -1.1192  2.2503  1.5263
   79SLPC  C215 7289   2.395   0.882   5.370 -0.3272 -0.3425  0.7356
   79SLPC  H15R 7290   2.435   0.981   5.342 -0.3722 -0.9117 -1.5499
   79SLPC  H15S 7291   2.294   0.884   5.324  0.0226 -1.9939 -0.2248
   79SLPC  C216 7292   2.476   0.775   5.293  0.2018 -0.0731  0.0096
   79SLPC  H16R 7293   2.437   0.680   5.336  0.5580  0.3926  1.4248
   79SLPC  H16S 7294   2.582   0.778   5.327 -0.3847 -0.1519  1.9680
   79SLPC  C217 7295   2.473   0.794   5.137  0.6804 -0.3132 -0.5578
   79SLPC  H17R 7296   2.489   0.900   5.107  0.0251 -0.7303 -2.5435
   79SLPC  H17S 7297   2.374   0.771   5.094  0.9483  0.1679 -1.4629
   79SLPC  C218 7298   2.582   0.713   5.066 -0.1797 -0.3657 -0.1465
   79SLPC  H18R 7299   2.607   0.756   4.966 -2.1965  0.8737 -0.1810
   79SLPC  H18S 7300   2.551   0.608   5.047  0.1879 -0.1216 -2.4139
   79SLPC  H18T 7301   2.675   0.711   5.126  0.3310  1.1232 -0.8370
   79SLPC   C33 7302   2.673   0.790   6.683 -0.7419  0.0933 -0.0611
   79SLPC   H3X 7303   2.708   0.691   6.722  1.6548  1.2599  1.0034
   79SLPC   H3Y 7304   2.722   0.861   6.753  0.1490 -0.1132 -0.4604
   79SLPC   C34 7305   2.741   0.804   6.545  0.3563  0.5300 -0.1888
   79SLPC   H4X 7306   2.691   0.736   6.472 -0.8304 -0.3866  1.4024
   79SLPC   H4Y 7307   2.843   0.760   6.550 -0.4074 -1.7188 -2.3247
   79SLPC   C35 7308   2.738   0.943   6.473 -0.0303  0.0074 -1.3145
   79SLPC   H5X 7309   2.641   0.988   6.500 -0.0795 -2.1301  2.8166
   79SLPC   H5Y 7310   2.734   0.922   6.364  0.0310  0.1185 -1.3387
   79SLPC   C36 7311   2.856   1.031   6.504 -0.0694  0.2609  0.3115
   79SLPC   H6X 7312   2.869   1.051   6.613  0.2911  1.0886  0.1308
   79SLPC   H6Y 7313   2.826   1.130   6.463  1.2255  0.6332  0.2146
   79SLPC   C37 7314   2.995   0.989   6.445 -0.5405 -0.9118 -0.1417
   79SLPC   H7X 7315   3.043   0.912   6.510  1.2658 -0.9894 -1.4702
   79SLPC   H7Y 7316   3.059   1.079   6.454  0.6305 -1.7811  0.6532
   79SLPC   C38 7317   2.991   0.956   6.299 -0.3748 -0.0993  0.1938
   79SLPC   H8X 7318   2.935   0.867   6.265 -0.6528  0.1166  0.0818
   79SLPC   H8Y 7319   3.094   0.920   6.280 -0.2361  0.6166 -0.4768
   79SLPC   C39 7320   2.960   1.074   6.203 -0.0171  0.0707  0.9090
   79SLPC   H9X 7321   3.018   1.164   6.232  0.4211 -0.2593  1.0801
   79SLPC   H9Y 7322   2.852   1.094   6.217 -0.1547  0.9363 -1.1153
   79SLPC  C310 7323   2.969   1.042   6.053 -0.3554  0.1897 -0.4071
   79SLPC  H10X 7324   2.907   0.951   6.040  1.3768 -1.2806  1.1394
   79SLPC  H10Y 7325   3.069   0.999   6.032  0.2166  0.6664  1.2006
   79SLPC  C311 7326   2.957   1.156   5.957  0.0253  0.1022  0.4027
   79SLPC  H11X 7327   3.027   1.237   5.988  1.4086 -0.9106  0.0197
   79SLPC  H11Y 7328   2.852   1.194   5.963  0.0757  0.6075 -1.3336
   79SLPC  C312 7329   2.985   1.129   5.805 -0.0818 -0.3056 -0.1975
   79SLPC  H12X 7330   3.086   1.083   5.813  1.1682  2.4293  0.8185
   79SLPC  H12Y 7331   2.985   1.225   5.750  1.3706 -1.4745 -2.3958
   79SLPC  C313 7332   2.879   1.037   5.743 -0.6073  0.5722  0.0712
   79SLPC  H13X 7333   2.785   1.094   5.761 -0.1593  1.0447  1.0013
   79SLPC  H13Y 7334   2.881   0.937   5.792  1.7210 -0.1353 -1.3257
   79SLPC  C314 7335   2.902   1.016   5.590 -0.2612  0.0306  0.4393
   79SLPC  H14X 7336   2.916   1.106   5.527  1.6429 -1.0842 -0.8359
   79SLPC  H14Y 7337   2.812   0.967   5.548 -1.2967  2.9137 -0.9672
   79SLPC  C315 7338   3.025   0.932   5.562 -0.3235  0.1228 -0.7846
   79SLPC  H15X 7339   3.026   0.834   5.615 -0.0478 -1.1163 -2.9819
   79SLPC  H15Y 7340   3.110   0.987   5.607  0.0665  1.0695 -2.5826
   79SLPC  C316 7341   3.065   0.927   5.411  0.0240  0.5568 -0.1042
   79SLPC  H16X 7342   3.055   1.031   5.373  0.3170  0.1652 -1.3162
   79SLPC  H16Y 7343   3.001   0.867   5.342  2.6418 -0.3703 -1.9094
   79SLPC  C317 7344   3.211   0.888   5.394  1.2424 -0.0893 -0.1507
   79SLPC  H17X 7345   3.273   0.956   5.455 -0.7000  1.2593  0.4257
   79SLPC  H17Y 7346   3.240   0.907   5.288 -0.1388  1.5110 -0.2695
   79SLPC  C318 7347   3.232   0.741   5.429  0.2356  0.4824  0.4134
   79SLPC  H18X 7348   3.134   0.691   5.418 -0.2388  1.1995  1.2266
   79SLPC  H18Y 7349   3.265   0.725   5.534 -1.3710  0.0424  0.8654
   79SLPC  H18Z 7350   3.292   0.684   5.355 -0.7995  0.4180 -0.3987
   80SLPC     N 7351   1.352   4.831   6.766  0.7663 -0.5443  0.7985
   80SLPC   C13 7352   1.386   4.973   6.806 -0.0186 -0.2122 -0.7324
   80SLPC  H13A 7353   1.491   4.981   6.828  0.2815 -0.5425 -1.9807
   80SLPC  H13B 7354   1.359   5.024   6.715  1.4343 -1.2502 -1.8015
   80SLPC  H13C 7355   1.339   5.000   6.899  2.4699  1.8839  0.0141
   80SLPC   C14 7356   1.203   4.834   6.735  0.0761  0.1728  0.3806
   80SLPC  H14A 7357   1.132   4.824   6.816 -1.9912 -1.6015 -1.4974
   80SLPC  H14B 7358   1.177   4.926   6.686 -1.3930  0.3260  1.3570
   80SLPC  H14C 7359   1.174   4.752   6.670 -0.2178  0.7322 -0.2031
   80SLPC   C15 7360   1.354   4.740   6.878  0.4526 -0.0355  0.5567
   80SLPC  H15A 7361   1.307   4.781   6.966 -0.2850  1.0638 -0.3178
   80SLPC  H15B 7362   1.311   4.647   6.844  0.1253 -0.0109  0.8929
   80SLPC  H15C 7363   1.449   4.715   6.922  0.0843  0.8511  1.9118
   80SLPC   C12 7364   1.431   4.791   6.643 -0.3452  0.6527 -0.8331
   80SLPC  H12A 7365   1.526   4.777   6.693 -1.3922  0.1115  1.1020
   80SLPC  H12B 7366   1.431   4.875   6.576 -1.9217  1.4083  0.0558
   80SLPC   C11 7367   1.391   4.667   6.567 -0.0293 -0.2477 -0.0184
   80SLPC  H11A 7368   1.445   4.659   6.471 -0.6281  0.9187 -0.4795
   80SLPC  H11B 7369   1.283   4.662   6.542  0.2939 -1.7118 -1.2701
   80SLPC     P 7370   1.559   4.489   6.650  0.1711  0.3782  0.0115
   80SLPC   O13 7371   1.666   4.589   6.673 -0.4650  0.2286 -0.1100
   80SLPC   O14 7372   1.554   4.383   6.748 -0.4063  0.5745 -0.0449
   80SLPC   O12 7373   1.418   4.553   6.653  0.5752 -0.7256  0.7066
   80SLPC   O11 7374   1.579   4.427   6.515  1.0418 -0.1716  0.1983
   80SLPC    C1 7375   1.500   4.318   6.462 -1.2452 -0.7084 -0.3080
   80SLPC    HA 7376   1.566   4.233   6.434  3.2755  2.0043  1.2346
   80SLPC    HB 7377   1.420   4.279   6.529 -0.2457 -1.5834  0.4099
   80SLPC    C2 7378   1.447   4.350   6.320 -0.0750 -0.3086 -0.2996
   80SLPC    HS 7379   1.423   4.459   6.316 -1.2828 -0.5929 -1.5080
   80SLPC   O21 7380   1.330   4.262   6.306  0.4621  0.2365 -0.2507
   80SLPC   C21 7381   1.210   4.333   6.306 -0.5894  0.7557 -0.5226
   80SLPC   O22 7382   1.201   4.450   6.339 -0.3157  0.0827  0.5210
   80SLPC   C22 7383   1.096   4.236   6.280  0.6720 -1.1976 -0.2767
   80SLPC   H2R 7384   1.109   4.144   6.341  0.7119 -0.3305  1.0849
   80SLPC   H2S 7385   0.998   4.270   6.318  1.6360 -0.9265  2.1586
   80SLPC    C3 7386   1.541   4.301   6.209 -0.6341 -0.3283  0.0595
   80SLPC    HX 7387   1.560   4.192   6.220  2.2726 -0.1941 -2.4124
   80SLPC    HY 7388   1.638   4.353   6.220 -1.6756  1.3417  2.0902
   80SLPC   O31 7389   1.483   4.327   6.077 -0.0418 -0.7425 -0.2347
   80SLPC   C31 7390   1.572   4.313   5.976  0.4977  0.9031 -0.3193
   80SLPC   O32 7391   1.691   4.312   5.996 -0.1829  0.4624  0.0418
   80SLPC   C32 7392   1.505   4.281   5.846  0.0349 -0.4333 -0.0725
   80SLPC   H2X 7393   1.442   4.189   5.851  0.9293 -1.2606 -2.3405
   80SLPC   H2Y 7394   1.593   4.254   5.783  1.3398  0.7081  1.1893
   80SLPC   C23 7395   1.068   4.205   6.135  0.7905  0.4474  0.3019
   80SLPC   H3R 7396   1.018   4.106   6.131 -1.1584  1.4275 -0.9577
   80SLPC   H3S 7397   1.163   4.182   6.081  0.8134 -1.7870  1.1686
   80SLPC   C24 7398   0.984   4.320   6.060  0.9404  0.6519  0.1587
   80SLPC   H4R 7399   1.037   4.418   6.055  0.9363  0.7321  1.3606
   80SLPC   H4S 7400   0.891   4.337   6.118  0.8381 -2.3792  1.0572
   80SLPC   C25 7401   0.943   4.274   5.918  0.8813 -0.1721  0.0040
   80SLPC   H5R 7402   0.885   4.180   5.921  0.6055  0.0097  0.3269
   80SLPC   H5S 7403   1.035   4.257   5.858  0.8085 -1.5318  0.2477
   80SLPC   C26 7404   0.851   4.369   5.847 -0.0516  0.1032  1.0945
   80SLPC   H6R 7405   0.910   4.463   5.849  0.9647 -0.4510 -0.6153
   80SLPC   H6S 7406   0.758   4.380   5.907 -1.1564 -2.0460 -0.1187
   80SLPC   C27 7407   0.815   4.319   5.710 -0.7393 -0.0497  0.4908
   80SLPC   H7R 7408   0.730   4.379   5.673  0.5827  1.0851 -0.7891
   80SLPC   H7S 7409   0.795   4.210   5.720 -1.0620 -0.0157  0.2093
   80SLPC   C28 7410   0.931   4.340   5.610 -0.1302 -0.0632  0.6127
   80SLPC   H8R 7411   1.022   4.291   5.650 -0.4322 -2.8170 -1.7509
   80SLPC   H8S 7412   0.948   4.449   5.602 -0.2356 -0.1494 -1.4059
   80SLPC   C29 7413   0.888   4.281   5.481  0.5941 -0.1846  0.2179
   80SLPC   H9R 7414   0.865   4.173   5.477  0.5280 -0.1352 -2.4925
   80SLPC  C210 7415   0.882   4.357   5.372  0.3201  1.0642 -0.0102
   80SLPC  H10R 7416   0.868   4.316   5.271 -0.5279  1.5070 -0.0758
   80SLPC  C211 7417   0.928   4.501   5.370  0.0847 -0.4950  0.5923
   80SLPC  H11R 7418   1.034   4.501   5.405  1.0578 -2.5823 -1.9934
   80SLPC  H11S 7419   0.856   4.572   5.417 -0.5759 -0.7592 -0.0111
   80SLPC  C212 7420   0.954   4.551   5.224 -0.5253 -0.0440 -0.4253
   80SLPC  H12R 7421   0.950   4.473   5.146 -0.3545  0.9974 -1.5033
   80SLPC  C213 7422   0.999   4.673   5.187 -0.7221 -0.5256  0.2715
   80SLPC  H13R 7423   1.013   4.699   5.081  3.2356  1.8054  1.1620
   80SLPC  C214 7424   1.021   4.792   5.274 -0.0862 -0.5115  0.0732
   80SLPC  H14R 7425   0.977   4.773   5.374  1.3208 -1.4265  0.5466
   80SLPC  H14S 7426   0.978   4.888   5.239 -0.0197 -0.7883 -0.8060
   80SLPC  C215 7427   1.170   4.807   5.287  0.5558 -0.3305 -0.2337
   80SLPC  H15R 7428   1.217   4.717   5.332 -1.4804 -1.1969  0.3158
   80SLPC  H15S 7429   1.188   4.900   5.345 -0.8267 -0.2647  0.1303
   80SLPC  C216 7430   1.239   4.840   5.158  0.1662  0.6940  0.4573
   80SLPC  H16R 7431   1.187   4.928   5.115  1.5110  1.1470 -0.3161
   80SLPC  H16S 7432   1.226   4.762   5.079  0.4374 -0.0880  1.1759
   80SLPC  C217 7433   1.389   4.865   5.172 -0.3608  0.5742 -0.2550
   80SLPC  H17R 7434   1.396   4.962   5.225 -1.2067  1.2194 -1.2739
   80SLPC  H17S 7435   1.443   4.881   5.076 -1.1674  0.7146 -0.6914
   80SLPC  C218 7436   1.464   4.744   5.244  0.4760 -0.0951 -0.3192
   80SLPC  H18R 7437   1.569   4.773   5.265  0.3672  0.6310 -0.7386
   80SLPC  H18S 7438   1.466   4.656   5.175 -0.2161  0.5462 -1.1786
   80SLPC  H18T 7439   1.429   4.714   5.345  0.3743 -1.4232 -0.7319
   80SLPC   C33 7440   1.441   4.409   5.788  0.0099  0.1713 -0.4637
   80SLPC   H3X 7441   1.414   4.387   5.683 -3.2395 -2.5005  0.7554
   80SLPC   H3Y 7442   1.507   4.498   5.801  1.3256 -0.9477  0.9755
   80SLPC   C34 7443   1.302   4.433   5.856 -0.8873  0.7487  0.3714
   80SLPC   H4X 7444   1.313   4.462   5.963  1.2542  0.6054  0.2415
   80SLPC   H4Y 7445   1.257   4.332   5.863 -2.0658  1.3009  0.9118
   80SLPC   C35 7446   1.219   4.528   5.777  0.2457  0.6663  1.3528
   80SLPC   H5X 7447   1.129   4.561   5.834 -1.3294  0.2132 -0.7555
   80SLPC   H5Y 7448   1.178   4.481   5.686 -2.0116  2.0844  1.5496
   80SLPC   C36 7449   1.284   4.660   5.733 -0.1550  0.5949 -0.7190
   80SLPC   H6X 7450   1.359   4.645   5.651  0.7870  2.6047 -0.3111
   80SLPC   H6Y 7451   1.343   4.687   5.824 -1.5792  0.2564  0.3280
   80SLPC   C37 7452   1.186   4.766   5.708 -0.1526  0.1497 -0.5385
   80SLPC   H7X 7453   1.123   4.785   5.798  0.5480 -0.4466  0.0924
   80SLPC   H7Y 7454   1.127   4.733   5.620  0.6938 -1.1816 -0.6274
   80SLPC   C38 7455   1.249   4.898   5.657  0.9710  0.3480 -0.4849
   80SLPC   H8X 7456   1.292   4.875   5.558  0.0735 -0.4584 -0.6967
   80SLPC   H8Y 7457   1.328   4.925   5.730  0.0080 -1.3792  1.2829
   80SLPC   C39 7458   1.154   5.024   5.639 -0.6675  0.9954 -0.5343
   80SLPC   H9X 7459   1.130   5.076   5.734  0.6218  3.5734 -1.5349
   80SLPC   H9Y 7460   1.061   4.995   5.585  1.6398 -2.2422 -3.2418
   80SLPC  C310 7461   1.224   5.132   5.549 -0.9009  0.3629  0.0244
   80SLPC  H10X 7462   1.156   5.220   5.551  0.1048  1.1652 -0.0497
   80SLPC  H10Y 7463   1.270   5.091   5.456  0.6978 -2.2933  1.8324
   80SLPC  C311 7464   1.342   5.198   5.620  0.0288 -0.4958  0.0319
   80SLPC  H11X 7465   1.418   5.122   5.646 -0.3272 -1.3756 -1.3905
   80SLPC  H11Y 7466   1.301   5.243   5.713 -0.5801 -2.2330  0.6355
   80SLPC  C312 7467   1.395   5.329   5.544 -0.3251  0.1480  0.3141
   80SLPC  H12X 7468   1.458   5.378   5.622  0.3842 -0.6764  0.2772
   80SLPC  H12Y 7469   1.310   5.398   5.526 -0.6030 -0.3538 -0.3287
   80SLPC  C313 7470   1.487   5.314   5.417  0.3717 -0.2055  0.8986
   80SLPC  H13X 7471   1.513   5.411   5.371 -1.2139 -0.3231 -0.3191
   80SLPC  H13Y 7472   1.444   5.240   5.346  1.3085  0.6629 -0.6030
   80SLPC  C314 7473   1.626   5.247   5.451  0.1724 -0.7337  0.3308
   80SLPC  H14X 7474   1.598   5.142   5.473 -0.5994 -0.5202  0.4072
   80SLPC  H14Y 7475   1.664   5.284   5.549  0.0633 -2.5905  1.1200
   80SLPC  C315 7476   1.723   5.259   5.331  0.5730  0.2059  0.2888
   80SLPC  H15X 7477   1.737   5.363   5.295  0.4404 -0.3493 -1.4735
   80SLPC  H15Y 7478   1.672   5.204   5.249 -1.4794  0.5583  1.2676
   80SLPC  C316 7479   1.872   5.214   5.365 -0.0216  0.2883 -0.0540
   80SLPC  H16X 7480   1.863   5.123   5.429 -0.1476  0.4338  0.1373
   80SLPC  H16Y 7481   1.897   5.303   5.426 -3.0265 -0.3768  2.4471
   80SLPC  C317 7482   1.971   5.217   5.250  0.4135 -0.2458 -0.1102
   80SLPC  H17X 7483   1.981   5.316   5.201 -0.2766 -0.5260 -0.8500
   80SLPC  H17Y 7484   1.921   5.159   5.169 -2.7769  1.2272  0.6494
   80SLPC  C318 7485   2.107   5.170   5.290  0.8234  0.2867  0.3312
   80SLPC  H18X 7486   2.177   5.188   5.206  0.3019 -0.6347 -0.3286
   80SLPC  H18Y 7487   2.102   5.060   5.309 -0.8263  0.5352  1.6103
   80SLPC  H18Z 7488   2.150   5.222   5.377 -0.4839  0.7573  0.7233
   81SLPC     N 7489   0.321   3.761   2.724  0.2392  0.0836  0.0093
   81SLPC   C13 7490   0.430   3.658   2.728  0.1173 -0.4875 -0.0767
   81SLPC  H13A 7491   0.399   3.574   2.788 -0.0975 -1.5789 -1.6875
   81SLPC  H13B 7492   0.470   3.627   2.634 -0.4681  0.9897 -0.8553
   81SLPC  H13C 7493   0.515   3.684   2.790  0.0894  0.9460 -0.5929
   81SLPC   C14 7494   0.200   3.704   2.658 -0.7768  0.0299  0.0208
   81SLPC  H14A 7495   0.117   3.772   2.658  0.1267  1.1552 -0.3310
   81SLPC  H14B 7496   0.210   3.669   2.556 -1.4522  0.1690 -0.0951
   81SLPC  H14C 7497   0.180   3.611   2.709 -0.7685  0.9291  1.7209
   81SLPC   C15 7498   0.374   3.871   2.642  0.1599  0.4916  0.3367
   81SLPC  H15A 7499   0.469   3.904   2.680  1.6291 -2.6244 -0.3040
   81SLPC  H15B 7500   0.396   3.834   2.543  0.3823 -2.0183  1.2481
   81SLPC  H15C 7501   0.308   3.956   2.640  0.2009  0.5812  1.7224
   81SLPC   C12 7502   0.282   3.810   2.861 -0.2436  0.4983 -0.9550
   81SLPC  H12A 7503   0.225   3.901   2.865 -1.0473  0.0263 -1.3440
   81SLPC  H12B 7504   0.380   3.838   2.897 -1.1705  1.8740  0.6529
   81SLPC   C11 7505   0.231   3.705   2.964 -0.0180  0.7054 -0.3497
   81SLPC  H11A 7506   0.213   3.759   3.060  0.9888  0.3644  0.0490
   81SLPC  H11B 7507   0.312   3.632   2.982  0.2791  1.1988  0.3710
   81SLPC     P 7508  -0.029   3.694   2.930  0.3439 -0.2773 -0.1902
   81SLPC   O13 7509  -0.032   3.841   2.978 -0.0537  1.0995 -0.3610
   81SLPC   O14 7510  -0.103   3.662   2.805 -0.2192  0.1173 -0.3008
   81SLPC   O12 7511   0.121   3.635   2.924  0.0990 -0.2532  0.0139
   81SLPC   O11 7512  -0.098   3.620   3.053 -0.1780 -0.2985 -0.6395
   81SLPC    C1 7513  -0.018   3.555   3.155  0.4311  0.3433 -0.4877
   81SLPC    HA 7514  -0.083   3.474   3.194  0.5927  0.4331 -0.0173
   81SLPC    HB 7515   0.070   3.502   3.112  1.0036  0.9947 -0.1500
   81SLPC    C2 7516   0.016   3.651   3.277  0.3619  0.8391 -0.1275
   81SLPC    HS 7517   0.106   3.706   3.242  0.4921 -0.4491 -1.9405
   81SLPC   O21 7518   0.048   3.567   3.390  0.1491 -0.1250  0.1250
   81SLPC   C21 7519   0.137   3.603   3.478 -0.3199 -0.0824  0.6473
   81SLPC   O22 7520   0.229   3.681   3.451  0.3304  0.2453 -0.7283
   81SLPC   C22 7521   0.107   3.555   3.613 -0.2392 -0.3504  0.1491
   81SLPC   H2R 7522   0.014   3.604   3.651  1.3143  2.4475  0.5472
   81SLPC   H2S 7523   0.079   3.448   3.601  1.3344 -0.4847 -3.6053
   81SLPC    C3 7524  -0.093   3.749   3.306 -0.7610 -0.0386 -0.4353
   81SLPC    HX 7525  -0.194   3.704   3.297 -1.0793  0.8824 -1.8698
   81SLPC    HY 7526  -0.073   3.821   3.224  0.7022 -2.1018 -1.9652
   81SLPC   O31 7527  -0.075   3.804   3.441  0.2773 -0.4555  0.2564
   81SLPC   C31 7528  -0.025   3.926   3.445 -0.3792  0.3865  0.1596
   81SLPC   O32 7529   0.027   3.984   3.348  0.4569  0.0156 -0.5157
   81SLPC   C32 7530  -0.018   3.974   3.581  0.3790 -0.0821  0.2211
   81SLPC   H2X 7531   0.043   3.902   3.640  1.1138  0.2185 -0.1520
   81SLPC   H2Y 7532  -0.113   3.969   3.637  0.9290 -2.8475  1.0873
   81SLPC   C23 7533   0.211   3.583   3.728 -0.4280  0.1019  0.1171
   81SLPC   H3R 7534   0.308   3.557   3.680 -1.0964 -1.6801 -0.3255
   81SLPC   H3S 7535   0.189   3.506   3.805  1.0327 -2.3774 -1.7768
   81SLPC   C24 7536   0.207   3.723   3.786 -0.3673  0.5821 -0.2241
   81SLPC   H4R 7537   0.103   3.758   3.799  0.2493  1.8769  1.6282
   81SLPC   H4S 7538   0.253   3.786   3.707  0.7151  0.3879  0.2276
   81SLPC   C25 7539   0.277   3.733   3.929  0.3634  0.6132  0.5851
   81SLPC   H5R 7540   0.346   3.821   3.928 -1.0704  1.7709  0.8308
   81SLPC   H5S 7541   0.348   3.649   3.940  0.0900  0.4803  1.3931
   81SLPC   C26 7542   0.190   3.758   4.051  0.0636 -0.0832 -0.4191
   81SLPC   H6R 7543   0.139   3.666   4.087  0.1886 -0.3387 -0.8852
   81SLPC   H6S 7544   0.114   3.837   4.032  0.9919  0.5893 -1.4819
   81SLPC   C27 7545   0.276   3.807   4.178 -0.1954  0.1563  0.5426
   81SLPC   H7R 7546   0.334   3.889   4.130  0.0313 -2.6255 -4.7085
   81SLPC   H7S 7547   0.338   3.718   4.201  0.7905  0.7865  0.4065
   81SLPC   C28 7548   0.193   3.858   4.300 -0.5124 -0.8248  0.1383
   81SLPC   H8R 7549   0.102   3.912   4.267 -0.5421  0.0387  1.5509
   81SLPC   H8S 7550   0.256   3.925   4.362  1.7205 -0.9767 -1.8085
   81SLPC   C29 7551   0.155   3.735   4.382 -0.9115  0.4841 -0.2187
   81SLPC   H9R 7552   0.116   3.652   4.322  0.8264  0.2073 -1.0400
   81SLPC  C210 7553   0.180   3.712   4.515  0.6683 -0.4255  0.5718
   81SLPC  H10R 7554   0.149   3.613   4.553  0.8355 -0.1738  1.3838
   81SLPC  C211 7555   0.260   3.803   4.615  0.1295  0.2214  0.6414
   81SLPC  H11R 7556   0.338   3.865   4.565  1.9712 -1.6960  0.9931
   81SLPC  H11S 7557   0.322   3.734   4.677 -1.2488 -1.1019  0.5837
   81SLPC  C212 7558   0.166   3.873   4.707  0.0996  0.3830 -0.1794
   81SLPC  H12R 7559   0.067   3.904   4.671 -0.7590 -1.4171  0.5286
   81SLPC  C213 7560   0.180   3.890   4.841 -0.6307  0.1101  0.2317
   81SLPC  H13R 7561   0.101   3.945   4.895  0.7070  2.6240 -0.2107
   81SLPC  C214 7562   0.303   3.852   4.925  0.7881 -0.4519  0.1795
   81SLPC  H14R 7563   0.323   3.934   4.997 -0.2133 -1.4455  1.6680
   81SLPC  H14S 7564   0.396   3.828   4.870 -0.2034 -0.9238 -1.3558
   81SLPC  C215 7565   0.273   3.727   5.007  0.4514 -0.6777  0.3151
   81SLPC  H15R 7566   0.167   3.724   5.039  0.7176 -0.1420  1.2955
   81SLPC  H15S 7567   0.328   3.741   5.102  1.9429  1.7914 -0.8064
   81SLPC  C216 7568   0.302   3.597   4.947 -0.0911 -0.3156 -0.2663
   81SLPC  H16R 7569   0.413   3.588   4.945 -0.0065  0.6670 -2.0393
   81SLPC  H16S 7570   0.263   3.571   4.846  0.4297 -3.1164  0.1544
   81SLPC  C217 7571   0.240   3.486   5.032  0.5558  0.0023  0.2627
   81SLPC  H17R 7572   0.129   3.488   5.021  0.6049 -0.1052 -0.2560
   81SLPC  H17S 7573   0.254   3.503   5.141 -0.1644 -0.0976  0.3787
   81SLPC  C218 7574   0.295   3.353   4.979 -0.1444  0.1677  0.3373
   81SLPC  H18R 7575   0.229   3.272   5.017  0.8274 -0.7453  0.1036
   81SLPC  H18S 7576   0.398   3.329   5.013  0.0899  0.3601 -0.2247
   81SLPC  H18T 7577   0.295   3.349   4.868  1.4567 -0.6971  0.3535
   81SLPC   C33 7578   0.032   4.122   3.579  0.4134  0.0039 -0.2820
   81SLPC   H3X 7579  -0.056   4.190   3.578  0.0338 -0.4037  1.3623
   81SLPC   H3Y 7580   0.097   4.149   3.493 -0.7344 -0.4690 -1.3315
   81SLPC   C34 7581   0.112   4.152   3.705  0.3941 -0.1388  0.0054
   81SLPC   H4X 7582   0.168   4.249   3.702  3.6081 -1.8682 -0.2607
   81SLPC   H4Y 7583   0.194   4.077   3.710  0.3296 -0.1506  1.1501
   81SLPC   C35 7584   0.025   4.157   3.817  0.1658  0.7345 -1.4563
   81SLPC   H5X 7585  -0.026   4.059   3.827 -0.9870  1.5716  2.5854
   81SLPC   H5Y 7586  -0.056   4.231   3.803 -0.9646 -0.4776 -1.5568
   81SLPC   C36 7587   0.083   4.191   3.950 -0.4856 -0.1834 -1.2950
   81SLPC   H6X 7588   0.138   4.287   3.953  0.7483 -0.8151  2.4719
   81SLPC   H6Y 7589   0.158   4.119   3.990  0.5850  0.5499 -1.9263
   81SLPC   C37 7590  -0.026   4.183   4.065 -0.1335 -0.7761 -0.3740
   81SLPC   H7X 7591  -0.080   4.087   4.077 -0.7044 -0.2921  1.0436
   81SLPC   H7Y 7592  -0.111   4.252   4.048  0.3851  0.8367  2.8939
   81SLPC   C38 7593   0.027   4.205   4.205  0.3610 -0.2315  0.3198
   81SLPC   H8X 7594   0.061   4.310   4.209  0.2211 -0.1626 -0.2495
   81SLPC   H8Y 7595   0.116   4.147   4.237 -0.2412 -0.2535  2.1073
   81SLPC   C39 7596  -0.084   4.190   4.310  0.5367 -0.2939  0.1032
   81SLPC   H9X 7597  -0.115   4.086   4.288  0.1560  0.0152 -0.8651
   81SLPC   H9Y 7598  -0.157   4.269   4.282  1.0598  0.4093  0.6673
   81SLPC  C310 7599  -0.053   4.196   4.459  0.3525 -0.0193  0.5392
   81SLPC  H10X 7600   0.009   4.105   4.475 -4.0430 -3.2163  1.2814
   81SLPC  H10Y 7601  -0.142   4.175   4.521  1.0785  0.0989  1.6660
   81SLPC  C311 7602   0.006   4.313   4.518 -0.0154 -0.4238 -0.9286
   81SLPC  H11X 7603  -0.065   4.399   4.521 -2.1295 -2.0969  1.0581
   81SLPC  H11Y 7604   0.097   4.354   4.468  1.2899  2.0438  2.9787
   81SLPC  C312 7605   0.045   4.293   4.666 -1.0589  0.0876 -0.4302
   81SLPC  H12X 7606   0.128   4.219   4.672 -0.8564  0.1602 -1.9708
   81SLPC  H12Y 7607  -0.033   4.255   4.736 -0.8535  0.9828  0.2986
   81SLPC  C313 7608   0.115   4.415   4.734 -0.3860 -0.5454  0.3268
   81SLPC  H13X 7609   0.055   4.507   4.752  0.6950 -0.1782  2.4839
   81SLPC  H13Y 7610   0.202   4.451   4.675  0.6170 -1.1564  1.3864
   81SLPC  C314 7611   0.184   4.397   4.878 -0.0597  0.2750  0.1467
   81SLPC  H14X 7612   0.263   4.474   4.888  0.3701  0.0178 -1.1759
   81SLPC  H14Y 7613   0.243   4.303   4.874  0.6684  0.6959  0.7621
   81SLPC  C315 7614   0.091   4.385   5.002 -0.0455 -0.2329  0.5179
   81SLPC  H15X 7615   0.015   4.311   4.970  0.9129 -1.5535  1.1951
   81SLPC  H15Y 7616   0.041   4.480   5.029  0.1478 -0.1125  0.4617
   81SLPC  C316 7617   0.175   4.335   5.118 -0.1869 -1.0494 -0.4621
   81SLPC  H16X 7618   0.259   4.405   5.136 -0.4936 -0.4708 -1.2243
   81SLPC  H16Y 7619   0.223   4.239   5.089 -1.1057 -0.9547 -2.4964
   81SLPC  C317 7620   0.105   4.312   5.251 -0.4176 -0.5811 -0.2399
   81SLPC  H17X 7621   0.183   4.269   5.318 -1.5992  0.3769  1.8516
   81SLPC  H17Y 7622   0.017   4.248   5.233  0.6489 -2.0332 -0.4696
   81SLPC  C318 7623   0.060   4.437   5.320  0.3248 -0.0035  0.0502
   81SLPC  H18X 7624  -0.005   4.412   5.406 -0.2605 -1.3643 -0.7540
   81SLPC  H18Y 7625   0.004   4.508   5.255 -0.5321  1.7544  2.5472
   81SLPC  H18Z 7626   0.140   4.505   5.357 -0.5496  0.6861  0.7284
   82SLPC     N 7627   3.123   3.026   2.886  0.3128  0.4295  0.0492
   82SLPC   C13 7628   3.105   2.892   2.819  0.2295 -0.4524 -0.1932
   82SLPC  H13A 7629   3.169   2.823   2.872  1.0025 -0.5851 -1.2686
   82SLPC  H13B 7630   3.006   2.849   2.828  0.4620 -1.7108 -2.7530
   82SLPC  H13C 7631   3.146   2.894   2.719  0.7472 -1.1387 -0.0052
   82SLPC   C14 7632   3.055   3.124   2.796 -0.3997 -0.2845 -0.7884
   82SLPC  H14A 7633   2.948   3.110   2.792 -0.5536  0.7796 -0.7947
   82SLPC  H14B 7634   3.069   3.226   2.827  1.2244 -0.5083 -0.7254
   82SLPC  H14C 7635   3.096   3.116   2.696 -0.9436  2.6482 -1.3476
   82SLPC   C15 7636   3.272   3.066   2.892  0.7461 -0.5373  0.6042
   82SLPC  H15A 7637   3.315   3.064   2.793  0.0505 -1.7976  0.3113
   82SLPC  H15B 7638   3.271   3.167   2.932  0.4176 -0.8075  1.2954
   82SLPC  H15C 7639   3.326   3.007   2.964  0.9881 -0.0736  0.8084
   82SLPC   C12 7640   3.061   3.011   3.020 -0.4745  0.4678 -0.3763
   82SLPC  H12A 7641   3.076   3.102   3.076 -2.0880 -0.7247  2.1625
   82SLPC  H12B 7642   3.106   2.927   3.069 -0.7555  0.3065 -0.3958
   82SLPC   C11 7643   2.908   2.977   3.029  0.2317  0.5718  0.7380
   82SLPC  H11A 7644   2.861   3.044   2.954  0.4763 -0.9829 -0.8570
   82SLPC  H11B 7645   2.876   2.997   3.134 -0.2794  3.4948  0.1317
   82SLPC     P 7646   2.743   2.784   2.970  0.4429 -0.2053 -0.3713
   82SLPC   O13 7647   2.652   2.902   2.947  0.8377 -0.0608 -0.6706
   82SLPC   O14 7648   2.750   2.692   2.854 -0.3739  0.6690 -0.5503
   82SLPC   O12 7649   2.888   2.837   2.994 -0.3608 -0.3903 -0.6056
   82SLPC   O11 7650   2.709   2.709   3.100 -0.0176 -0.0437  0.4077
   82SLPC    C1 7651   2.776   2.586   3.136 -1.1241  0.6785  0.4814
   82SLPC    HA 7652   2.701   2.504   3.127  0.5513 -1.1044  1.8315
   82SLPC    HB 7653   2.865   2.556   3.076 -1.1364 -2.2064  1.7200
   82SLPC    C2 7654   2.827   2.591   3.279  0.4373  0.4312  0.3234
   82SLPC    HS 7655   2.902   2.510   3.294 -0.9336 -0.6761  1.5303
   82SLPC   O21 7656   2.723   2.577   3.371  0.5960  0.2471 -0.0894
   82SLPC   C21 7657   2.673   2.448   3.401  0.2250 -0.5977  0.6169
   82SLPC   O22 7658   2.719   2.348   3.352  0.3488  0.0173  0.6167
   82SLPC   C22 7659   2.576   2.452   3.512  0.3156 -0.4941 -0.1048
   82SLPC   H2R 7660   2.490   2.517   3.485  1.7112  1.5543  0.1932
   82SLPC   H2S 7661   2.552   2.351   3.553 -0.0389 -0.6948 -0.7851
   82SLPC    C3 7662   2.910   2.725   3.321  0.3751  0.2727  0.4711
   82SLPC    HX 7663   2.848   2.814   3.296  1.4167  0.6214 -1.0057
   82SLPC    HY 7664   3.002   2.727   3.258  1.5493 -1.1823  2.0613
   82SLPC   O31 7665   2.948   2.719   3.465 -0.3638  0.1264  0.5670
   82SLPC   C31 7666   2.996   2.830   3.521 -0.0690  0.2167 -0.3150
   82SLPC   O32 7667   2.995   2.940   3.466  0.2126 -0.1287  0.1358
   82SLPC   C32 7668   3.025   2.802   3.670 -0.2757  0.2804  0.2601
   82SLPC   H2X 7669   3.084   2.709   3.688  1.3132  0.9563 -1.2109
   82SLPC   H2Y 7670   2.926   2.790   3.717 -0.1080 -2.6916  0.0486
   82SLPC   C23 7671   2.644   2.517   3.639  0.0339  0.1254  1.1610
   82SLPC   H3R 7672   2.698   2.606   3.602 -0.1007 -0.1503  0.2486
   82SLPC   H3S 7673   2.712   2.443   3.686 -0.4234  0.1370  1.8650
   82SLPC   C24 7674   2.549   2.557   3.743 -0.0338 -0.1791 -0.5498
   82SLPC   H4R 7675   2.465   2.485   3.748 -0.6825  0.6214  1.2841
   82SLPC   H4S 7676   2.500   2.654   3.719  0.8202  0.6178  0.7685
   82SLPC   C25 7677   2.616   2.555   3.878 -0.1396 -0.0565 -0.4565
   82SLPC   H5R 7678   2.713   2.607   3.865  1.8162 -3.5044 -0.6529
   82SLPC   H5S 7679   2.648   2.457   3.919  0.6192  0.6052  0.6027
   82SLPC   C26 7680   2.537   2.614   3.990  0.0766 -0.7585 -0.3300
   82SLPC   H6R 7681   2.456   2.544   4.019 -1.0254  0.8444  0.6582
   82SLPC   H6S 7682   2.484   2.708   3.965 -0.4303 -1.4859 -2.1165
   82SLPC   C27 7683   2.626   2.657   4.114  0.2419  0.5462  0.0785
   82SLPC   H7R 7684   2.717   2.704   4.071 -0.1578  1.1450 -0.1261
   82SLPC   H7S 7685   2.649   2.560   4.163 -0.5370  0.8062  0.9925
   82SLPC   C28 7686   2.553   2.743   4.217  0.0317  0.3000 -0.0910
   82SLPC   H8R 7687   2.450   2.702   4.223 -0.7541  1.9492 -1.4239
   82SLPC   H8S 7688   2.526   2.842   4.173 -4.1771 -1.0649 -1.0175
   82SLPC   C29 7689   2.622   2.756   4.350  0.3770  0.2785 -0.6538
   82SLPC   H9R 7690   2.729   2.730   4.353  0.2497 -0.1942  0.0292
   82SLPC  C210 7691   2.575   2.790   4.465 -0.0458 -0.2238 -0.6351
   82SLPC  H10R 7692   2.641   2.787   4.553 -1.0693  0.4750  0.1846
   82SLPC  C211 7693   2.432   2.840   4.488 -1.1439  1.4449 -0.3736
   82SLPC  H11R 7694   2.370   2.755   4.523  0.2128 -1.0009 -3.3784
   82SLPC  H11S 7695   2.388   2.878   4.393 -1.6421  0.5845 -0.4969
   82SLPC  C212 7696   2.421   2.954   4.588 -0.2436  0.0472  0.4553
   82SLPC  H12R 7697   2.415   3.056   4.549 -0.7549 -0.4321 -0.7927
   82SLPC  C213 7698   2.409   2.940   4.716  0.1144 -0.4906 -0.3171
   82SLPC  H13R 7699   2.402   3.033   4.774 -2.1383  0.7731 -2.3739
   82SLPC  C214 7700   2.411   2.806   4.802 -0.5406 -0.2401  0.5087
   82SLPC  H14R 7701   2.436   2.715   4.745 -0.1040  1.2527 -1.8080
   82SLPC  H14S 7702   2.309   2.788   4.843 -0.9714  1.7680  0.4480
   82SLPC  C215 7703   2.515   2.819   4.913 -0.2633 -0.3713  0.5598
   82SLPC  H15R 7704   2.512   2.736   4.987  0.2359 -0.8117  0.0993
   82SLPC  H15S 7705   2.488   2.905   4.977  3.4884 -0.5296  2.6095
   82SLPC  C216 7706   2.664   2.842   4.868 -0.7215 -0.5622  0.1864
   82SLPC  H16R 7707   2.713   2.877   4.961 -3.7080  1.2048  1.2404
   82SLPC  H16S 7708   2.664   2.931   4.802  1.0990 -0.8168 -0.2027
   82SLPC  C217 7709   2.734   2.723   4.810 -0.3003 -0.3916 -0.2556
   82SLPC  H17R 7710   2.667   2.661   4.746 -0.4894 -0.4874  0.0295
   82SLPC  H17S 7711   2.771   2.658   4.893  1.1741  0.2020 -0.4144
   82SLPC  C218 7712   2.867   2.747   4.728 -0.3960 -0.6855  0.3299
   82SLPC  H18R 7713   2.845   2.824   4.651  0.0353 -0.9546 -0.0658
   82SLPC  H18S 7714   2.913   2.660   4.677  1.3524  0.1726  0.3701
   82SLPC  H18T 7715   2.953   2.785   4.787  1.0245 -1.5315 -1.1392
   82SLPC   C33 7716   3.087   2.921   3.758  0.4757  0.0175 -0.9171
   82SLPC   H3X 7717   3.062   3.022   3.720 -1.0359  0.5296  1.2474
   82SLPC   H3Y 7718   3.197   2.911   3.743  1.0724  2.2063  1.3580
   82SLPC   C34 7719   3.035   2.939   3.911 -0.5210 -0.5837 -0.1673
   82SLPC   H4X 7720   2.925   2.947   3.920 -0.4702  0.0260 -0.0834
   82SLPC   H4Y 7721   3.066   3.037   3.952  0.6269 -0.3458 -1.5015
   82SLPC   C35 7722   3.072   2.824   3.999 -0.2948  0.5222  0.4414
   82SLPC   H5X 7723   3.183   2.812   3.992 -0.5726 -1.9456 -0.8365
   82SLPC   H5Y 7724   3.024   2.735   3.953 -0.5149  1.5237 -1.3550
   82SLPC   C36 7725   3.018   2.841   4.143 -0.4805  0.2585 -0.0531
   82SLPC   H6X 7726   3.016   2.748   4.203  0.3944  0.5762  0.4976
   82SLPC   H6Y 7727   2.913   2.875   4.138 -0.7358 -0.6121 -1.3810
   82SLPC   C37 7728   3.104   2.952   4.210  0.3918 -0.1837 -0.3477
   82SLPC   H7X 7729   3.056   3.041   4.164 -2.7041 -1.6629 -0.2287
   82SLPC   H7Y 7730   3.206   2.963   4.169  0.0245  0.5338 -1.1014
   82SLPC   C38 7731   3.089   2.957   4.361  0.3426  0.4509  0.3383
   82SLPC   H8X 7732   3.145   2.875   4.410 -0.5145 -2.2080 -2.7341
   82SLPC   H8Y 7733   2.982   2.932   4.377  0.7489 -0.7898  1.2431
   82SLPC   C39 7734   3.115   3.100   4.419  0.0416  0.0759 -0.4883
   82SLPC   H9X 7735   3.032   3.165   4.384  0.0309  0.6961  0.6099
   82SLPC   H9Y 7736   3.212   3.131   4.373 -0.0065  0.3663 -0.3971
   82SLPC  C310 7737   3.131   3.104   4.574  0.1787  0.1065  0.6725
   82SLPC  H10X 7738   3.232   3.056   4.580 -0.7023 -1.9598  0.0154
   82SLPC  H10Y 7739   3.050   3.037   4.610  2.3751 -2.0671  1.8928
   82SLPC  C311 7740   3.130   3.239   4.636 -0.6521 -0.3166  0.6643
   82SLPC  H11X 7741   3.048   3.308   4.604 -0.3473  0.3847  1.3655
   82SLPC  H11Y 7742   3.222   3.299   4.622 -0.4069 -0.6176  0.9792
   82SLPC  C312 7743   3.113   3.230   4.793  0.3977 -0.2854  0.1295
   82SLPC  H12X 7744   3.016   3.176   4.806 -0.0259  0.0649 -1.4059
   82SLPC  H12Y 7745   3.109   3.329   4.843  0.7869 -0.3738  0.3378
   82SLPC  C313 7746   3.222   3.163   4.868 -0.3409  0.1029  0.2659
   82SLPC  H13X 7747   3.313   3.197   4.815 -1.4012  1.1920 -0.9446
   82SLPC  H13Y 7748   3.220   3.053   4.855 -0.9998  0.3103 -1.8724
   82SLPC  C314 7749   3.231   3.195   5.023 -0.4994 -0.2298  0.1173
   82SLPC  H14X 7750   3.273   3.296   5.042 -1.2072  0.0935 -0.0098
   82SLPC  H14Y 7751   3.312   3.123   5.046  0.1014  0.6257  0.7550
   82SLPC  C315 7752   3.120   3.161   5.123 -0.4495 -0.4579 -0.3058
   82SLPC  H15X 7753   3.086   3.061   5.089 -0.1301 -0.3507 -0.9646
   82SLPC  H15Y 7754   3.034   3.226   5.097 -0.1277  0.8516  1.6698
   82SLPC  C316 7755   3.155   3.174   5.270  0.0232 -0.3994 -0.2593
   82SLPC  H16X 7756   3.251   3.120   5.287 -0.8735 -1.6103  1.2297
   82SLPC  H16Y 7757   3.085   3.118   5.336  1.3409 -0.4899  1.1379
   82SLPC  C317 7758   3.169   3.319   5.321  0.2065 -0.4914  0.1698
   82SLPC  H17X 7759   3.068   3.364   5.318 -0.0113 -1.0164 -1.3752
   82SLPC  H17Y 7760   3.231   3.391   5.264 -0.5063  0.2220  0.2741
   82SLPC  C318 7761   3.214   3.304   5.471  0.6303 -0.1899 -0.0804
   82SLPC  H18X 7762   3.322   3.277   5.473  0.4643 -0.9884 -1.3546
   82SLPC  H18Y 7763   3.152   3.221   5.509 -1.5283  1.6425  0.6438
   82SLPC  H18Z 7764   3.185   3.403   5.512  3.5122 -0.0774  2.0459
   83SLPC     N 7765   6.493   3.312   2.371  1.0401  0.1532 -0.0385
   83SLPC   C13 7766   6.610   3.337   2.283 -0.3831  0.1204 -0.9447
   83SLPC  H13A 7767   6.637   3.441   2.273  1.1152  0.0161  1.2482
   83SLPC  H13B 7768   6.695   3.275   2.306  1.8088  1.3504 -4.8378
   83SLPC  H13C 7769   6.572   3.304   2.188 -0.1344 -0.8717 -0.7082
   83SLPC   C14 7770   6.394   3.410   2.340  0.1150  0.0334 -0.0088
   83SLPC  H14A 7771   6.318   3.415   2.417  1.4861  1.4219  1.3351
   83SLPC  H14B 7772   6.431   3.509   2.357  0.1806  0.0267 -0.1091
   83SLPC  H14C 7773   6.352   3.389   2.243 -1.9328  0.7000  0.6849
   83SLPC   C15 7774   6.533   3.314   2.514  0.4506  0.8659 -0.0300
   83SLPC  H15A 7775   6.446   3.293   2.575  0.0229  2.3113 -0.1036
   83SLPC  H15B 7776   6.605   3.236   2.533 -1.6877 -1.6254 -1.4773
   83SLPC  H15C 7777   6.567   3.411   2.548  1.2080 -0.1050  2.1656
   83SLPC   C12 7778   6.442   3.169   2.347 -0.6520  0.7478 -0.0742
   83SLPC  H12A 7779   6.411   3.172   2.244 -1.1734  1.1039  0.0881
   83SLPC  H12B 7780   6.359   3.146   2.412 -0.0451 -1.5936 -0.0392
   83SLPC   C11 7781   6.540   3.046   2.358 -0.3304 -0.3606  1.2029
   83SLPC  H11A 7782   6.629   3.069   2.297 -0.4048  1.6629  1.7798
   83SLPC  H11B 7783   6.480   2.961   2.318 -1.5629  2.1056 -2.6814
   83SLPC     P 7784   6.680   2.926   2.552 -0.1034  0.5104  0.2180
   83SLPC   O13 7785   6.636   2.794   2.501 -0.2313  0.8295  0.0834
   83SLPC   O14 7786   6.818   2.966   2.527 -0.5406 -0.2285 -0.0880
   83SLPC   O12 7787   6.578   3.030   2.495 -0.4665  0.1626  0.6584
   83SLPC   O11 7788   6.645   2.929   2.707 -0.1570 -0.2786  0.2974
   83SLPC    C1 7789   6.632   3.051   2.787 -0.3315 -0.1216  0.7343
   83SLPC    HA 7790   6.649   3.145   2.731 -0.2112 -1.3555 -1.3939
   83SLPC    HB 7791   6.538   3.053   2.846 -1.0821 -0.1060 -0.4245
   83SLPC    C2 7792   6.758   3.064   2.884 -0.0395  0.2808  0.4450
   83SLPC    HS 7793   6.837   3.013   2.826 -2.1994 -0.6664 -1.8440
   83SLPC   O21 7794   6.717   2.985   3.001 -0.0590 -0.2705  0.1010
   83SLPC   C21 7795   6.817   2.929   3.065  0.2233 -0.1232 -0.3823
   83SLPC   O22 7796   6.936   2.941   3.029  0.5793  0.2310 -0.5894
   83SLPC   C22 7797   6.763   2.831   3.169  0.3252  0.0507 -0.3410
   83SLPC   H2R 7798   6.678   2.773   3.126  1.6289  0.6089 -4.0080
   83SLPC   H2S 7799   6.844   2.756   3.175 -0.7543 -1.2945 -1.7463
   83SLPC    C3 7800   6.808   3.206   2.932 -0.4029 -0.0977  0.6641
   83SLPC    HX 7801   6.834   3.263   2.840 -2.2274 -0.5486 -0.1902
   83SLPC    HY 7802   6.901   3.198   2.991  1.0755  1.8555 -1.2191
   83SLPC   O31 7803   6.716   3.270   3.011  0.7804 -0.4142 -0.6726
   83SLPC   C31 7804   6.716   3.244   3.145  0.3337 -0.3051  0.0910
   83SLPC   O32 7805   6.801   3.184   3.207  0.4724  0.2488 -1.0966
   83SLPC   C32 7806   6.587   3.299   3.201 -0.0602 -0.2331 -0.3273
   83SLPC   H2X 7807   6.504   3.253   3.144 -1.4402  1.2857  0.3724
   83SLPC   H2Y 7808   6.569   3.405   3.173 -0.8473 -0.3480 -0.2916
   83SLPC   C23 7809   6.727   2.902   3.308 -0.4620 -0.1179 -0.5263
   83SLPC   H3R 7810   6.638   2.968   3.295 -0.8849 -0.4627  0.5024
   83SLPC   H3S 7811   6.809   2.973   3.334 -1.2280  0.9905 -1.0172
   83SLPC   C24 7812   6.704   2.805   3.420  0.7306 -0.1624  0.5323
   83SLPC   H4R 7813   6.709   2.702   3.380 -1.6114  0.3909 -1.4249
   83SLPC   H4S 7814   6.597   2.807   3.448  0.3165  1.6660 -0.9621
   83SLPC   C25 7815   6.799   2.836   3.533 -0.0761 -0.6277  0.0581
   83SLPC   H5R 7816   6.776   2.926   3.593  3.7979  1.4707 -1.2578
   83SLPC   H5S 7817   6.903   2.837   3.494 -0.8183 -1.0319 -2.1068
   83SLPC   C26 7818   6.786   2.733   3.641 -0.5114  0.1471  0.0863
   83SLPC   H6R 7819   6.796   2.636   3.589 -0.8598 -0.6544  1.4737
   83SLPC   H6S 7820   6.690   2.739   3.695 -0.7108 -0.3311 -0.2116
   83SLPC   C27 7821   6.909   2.720   3.729  0.1593 -0.0095  0.8914
   83SLPC   H7R 7822   6.999   2.714   3.665  0.2402  0.8274  0.9201
   83SLPC   H7S 7823   6.920   2.625   3.786  0.5197 -1.6916 -1.7994
   83SLPC   C28 7824   6.919   2.834   3.830 -0.0163  0.1853 -0.2508
   83SLPC   H8R 7825   6.859   2.808   3.920  0.2188  3.0072  0.8405
   83SLPC   H8S 7826   6.872   2.927   3.789  2.3165  0.6009 -2.2136
   83SLPC   C29 7827   7.065   2.855   3.875  0.5619  0.3850 -0.1360
   83SLPC   H9R 7828   7.140   2.871   3.797  1.3170 -0.5806  0.3680
   83SLPC  C210 7829   7.110   2.865   4.002 -0.1492  0.4464  0.0436
   83SLPC  H10R 7830   7.219   2.870   4.018 -0.0928 -0.5605  0.0711
   83SLPC  C211 7831   7.018   2.858   4.127 -0.0566 -0.2084  0.2770
   83SLPC  H11R 7832   6.924   2.800   4.112  0.2069 -0.9946  1.4891
   83SLPC  H11S 7833   6.996   2.964   4.147  1.9835  0.1239  1.0553
   83SLPC  C212 7834   7.089   2.801   4.242  1.0350 -0.1333 -0.2507
   83SLPC  H12R 7835   7.186   2.757   4.216 -0.0841 -2.9665  0.0353
   83SLPC  C213 7836   7.041   2.783   4.365 -0.2238  0.0476 -0.4825
   83SLPC  H13R 7837   7.104   2.725   4.435 -0.6682 -1.1118 -1.0268
   83SLPC  C214 7838   6.910   2.829   4.414  0.2339  0.4257 -0.4094
   83SLPC  H14R 7839   6.832   2.804   4.339  0.8929  0.9125 -1.2649
   83SLPC  H14S 7840   6.906   2.939   4.426 -3.0247  0.6342 -2.2394
   83SLPC  C215 7841   6.856   2.767   4.549  0.4694 -0.6397 -0.2223
   83SLPC  H15R 7842   6.844   2.658   4.537 -1.5297 -0.5899  0.9220
   83SLPC  H15S 7843   6.748   2.793   4.557  0.5113 -0.2061 -1.0318
   83SLPC  C216 7844   6.937   2.803   4.669 -0.3031  0.1404 -1.1531
   83SLPC  H16R 7845   7.028   2.740   4.676 -0.3659  0.2696  1.8214
   83SLPC  H16S 7846   6.877   2.774   4.758  0.1686  1.0242 -0.5292
   83SLPC  C217 7847   6.965   2.950   4.682  0.1880 -0.5566 -0.4154
   83SLPC  H17R 7848   6.872   3.010   4.673 -1.3415 -2.6489  0.5809
   83SLPC  H17S 7849   7.027   2.969   4.591  0.3547 -1.9103 -0.5986
   83SLPC  C218 7850   7.048   2.992   4.807 -0.0843  0.1450 -0.5460
   83SLPC  H18R 7851   7.153   3.013   4.777 -0.0021 -0.1107 -0.4385
   83SLPC  H18S 7852   7.072   2.917   4.885 -1.0563  0.3848 -0.0010
   83SLPC  H18T 7853   7.000   3.083   4.849  1.8746  1.2198 -0.4883
   83SLPC   C33 7854   6.556   3.264   3.353 -0.5569 -0.4594  0.0024
   83SLPC   H3X 7855   6.583   3.158   3.372 -1.3414 -0.5342  0.7491
   83SLPC   H3Y 7856   6.447   3.282   3.362 -0.5225  0.3920 -0.9885
   83SLPC   C34 7857   6.630   3.345   3.460  0.0817  0.2939  0.5345
   83SLPC   H4X 7858   6.571   3.438   3.470 -1.5110 -0.4547 -1.4384
   83SLPC   H4Y 7859   6.733   3.381   3.437  0.7295 -1.1348  1.0633
   83SLPC   C35 7860   6.639   3.264   3.591 -0.5231  0.1835 -0.1538
   83SLPC   H5X 7861   6.718   3.188   3.576  0.4598  1.1855 -0.2309
   83SLPC   H5Y 7862   6.554   3.198   3.617  1.1026 -2.4371 -1.1194
   83SLPC   C36 7863   6.676   3.352   3.711 -0.4188 -0.8077 -0.0769
   83SLPC   H6X 7864   6.587   3.402   3.756  0.1224 -1.0880  1.3680
   83SLPC   H6Y 7865   6.747   3.433   3.685  0.3520 -1.5211 -0.2475
   83SLPC   C37 7866   6.744   3.273   3.826  0.5478 -0.2273 -0.5893
   83SLPC   H7X 7867   6.819   3.198   3.793  1.0605 -0.5244  1.1796
   83SLPC   H7Y 7868   6.665   3.209   3.872  1.5038  0.3692  2.0254
   83SLPC   C38 7869   6.803   3.359   3.937 -0.2544 -0.2911 -0.4406
   83SLPC   H8X 7870   6.718   3.398   3.996  0.7343 -0.7254  1.3480
   83SLPC   H8Y 7871   6.870   3.439   3.898  0.1914 -1.0915 -1.3484
   83SLPC   C39 7872   6.893   3.279   4.029  0.3306 -1.3779 -0.0509
   83SLPC   H9X 7873   6.953   3.206   3.970 -0.0182 -2.0254  0.3757
   83SLPC   H9Y 7874   6.819   3.229   4.096  1.2571 -0.0962  2.0418
   83SLPC  C310 7875   7.003   3.350   4.113  0.3120  0.2489  0.2423
   83SLPC  H10X 7876   6.964   3.444   4.157 -0.7313 -0.2951  0.5232
   83SLPC  H10Y 7877   7.079   3.378   4.037 -2.4559  0.7791 -2.5463
   83SLPC  C311 7878   7.051   3.256   4.221 -0.8184  0.1940  0.8084
   83SLPC  H11X 7879   7.092   3.167   4.168 -1.3600  0.4501 -0.0691
   83SLPC  H11Y 7880   6.959   3.221   4.273 -1.2406  1.9035  1.2569
   83SLPC  C312 7881   7.147   3.329   4.317 -0.5747  0.0541  0.6257
   83SLPC  H12X 7882   7.107   3.424   4.358  2.0278  1.0289  1.1092
   83SLPC  H12Y 7883   7.233   3.346   4.248 -1.8603  0.7551 -0.8634
   83SLPC  C313 7884   7.200   3.241   4.430 -0.1999 -0.3658 -0.5901
   83SLPC  H13X 7885   7.249   3.156   4.377  1.8097 -0.3250  1.0691
   83SLPC  H13Y 7886   7.112   3.198   4.483 -0.1451  0.5350  0.2769
   83SLPC  C314 7887   7.300   3.305   4.534  0.3850  0.3126  0.6548
   83SLPC  H14X 7888   7.244   3.385   4.587  0.4121  0.2746  0.7419
   83SLPC  H14Y 7889   7.367   3.360   4.466 -3.0362  2.3760 -1.3157
   83SLPC  C315 7890   7.380   3.213   4.624 -0.7592  0.0296 -1.0217
   83SLPC  H15X 7891   7.427   3.124   4.577 -1.7068 -0.6800 -0.6601
   83SLPC  H15Y 7892   7.306   3.171   4.695  0.9871 -1.4442  0.0198
   83SLPC  C316 7893   7.480   3.292   4.716 -0.2696  0.3585  0.4714
   83SLPC  H16X 7894   7.423   3.362   4.779  0.5171  1.5241 -0.0812
   83SLPC  H16Y 7895   7.560   3.335   4.651  0.4555 -1.5619  0.0132
   83SLPC  C317 7896   7.536   3.188   4.817  0.3701 -0.5113  0.1896
   83SLPC  H17X 7897   7.574   3.103   4.757 -0.7808  0.1256 -1.5037
   83SLPC  H17Y 7898   7.449   3.163   4.882  2.5219 -2.4300  2.5455
   83SLPC  C318 7899   7.642   3.254   4.899  0.1111 -0.0738  0.0156
   83SLPC  H18X 7900   7.628   3.212   5.001 -0.5974 -1.8165 -0.7554
   83SLPC  H18Y 7901   7.625   3.363   4.911  0.8616  0.0693 -0.1691
   83SLPC  H18Z 7902   7.745   3.242   4.860  0.6129  1.4833  0.7663
   84SLPC     N 7903   2.321   2.260   3.072 -0.3785  0.4764  0.6955
   84SLPC   C13 7904   2.228   2.376   3.099  0.2840  0.4767 -0.4237
   84SLPC  H13A 7905   2.145   2.351   3.163  0.1717  0.0482 -0.7317
   84SLPC  H13B 7906   2.289   2.452   3.145  0.1429 -0.3932  1.2738
   84SLPC  H13C 7907   2.190   2.408   3.003 -1.0900  0.2687  0.0367
   84SLPC   C14 7908   2.444   2.307   2.987 -0.1993 -0.1118  0.3094
   84SLPC  H14A 7909   2.510   2.223   2.979 -0.9953 -0.7461  0.2646
   84SLPC  H14B 7910   2.421   2.356   2.894 -0.1816  0.7916  0.7637
   84SLPC  H14C 7911   2.495   2.383   3.045 -1.2781  0.9546 -0.0902
   84SLPC   C15 7912   2.241   2.161   2.987 -0.3880  0.2184 -0.0983
   84SLPC  H15A 7913   2.214   2.210   2.895 -1.5602  1.1920  0.7278
   84SLPC  H15B 7914   2.288   2.068   2.960  0.1072 -0.1977  1.9946
   84SLPC  H15C 7915   2.144   2.138   3.028 -1.2625  4.3953  0.6765
   84SLPC   C12 7916   2.374   2.203   3.203  0.4027 -0.0833 -0.9847
   84SLPC  H12A 7917   2.290   2.159   3.254  0.0377  2.2293  0.5443
   84SLPC  H12B 7918   2.404   2.292   3.258  2.3137 -1.2575 -0.0135
   84SLPC   C11 7919   2.486   2.098   3.204 -0.1577 -0.2979  0.0954
   84SLPC  H11A 7920   2.500   2.076   3.312  1.8787 -2.0897 -0.4729
   84SLPC  H11B 7921   2.583   2.134   3.164 -0.0978  0.5344  0.9665
   84SLPC     P 7922   2.390   1.852   3.170 -0.1420  0.0549  0.2592
   84SLPC   O13 7923   2.256   1.849   3.106 -0.1720  0.2493 -0.2170
   84SLPC   O14 7924   2.479   1.738   3.135  0.2952 -0.3927  0.1265
   84SLPC   O12 7925   2.456   1.987   3.118 -0.2711 -0.4519 -0.2187
   84SLPC   O11 7926   2.387   1.877   3.324  0.0459 -0.1927 -0.3496
   84SLPC    C1 7927   2.452   1.801   3.422 -0.3206  0.2089  0.5796
   84SLPC    HA 7928   2.562   1.798   3.410 -0.3556 -1.1073  0.4697
   84SLPC    HB 7929   2.448   1.852   3.520 -1.6609  0.4665  0.4169
   84SLPC    C2 7930   2.389   1.654   3.445  0.2732 -0.1003  0.8296
   84SLPC    HS 7931   2.397   1.608   3.344 -1.7705  1.0001  0.0946
   84SLPC   O21 7932   2.249   1.662   3.476  0.0308  0.1372 -0.2462
   84SLPC   C21 7933   2.180   1.552   3.449 -0.0943  0.1961 -0.3807
   84SLPC   O22 7934   2.213   1.453   3.383 -0.1726 -0.4787  0.3640
   84SLPC   C22 7935   2.053   1.551   3.544  0.6114 -0.6726  0.3757
   84SLPC   H2R 7936   1.981   1.619   3.493 -0.2457 -2.7086 -1.2569
   84SLPC   H2S 7937   2.017   1.446   3.544 -1.0094 -0.1356 -0.2478
   84SLPC    C3 7938   2.466   1.577   3.549 -0.6821  0.6779 -0.2627
   84SLPC    HX 7939   2.573   1.574   3.521  0.1677  1.0591  2.6053
   84SLPC    HY 7940   2.428   1.473   3.537 -0.7488  0.6194  0.3913
   84SLPC   O31 7941   2.438   1.610   3.686 -0.1546 -0.3848 -0.4139
   84SLPC   C31 7942   2.542   1.671   3.758 -0.3093 -0.1779  0.5045
   84SLPC   O32 7943   2.645   1.701   3.706 -0.3428  0.1849  0.7129
   84SLPC   C32 7944   2.497   1.689   3.894  0.7790 -1.1193 -0.0040
   84SLPC   H2X 7945   2.465   1.590   3.933 -1.0184  0.5582  3.2924
   84SLPC   H2Y 7946   2.410   1.756   3.875  1.3773 -0.7523 -1.6301
   84SLPC   C23 7947   2.087   1.605   3.687 -0.9302  0.0163  0.0788
   84SLPC   H3R 7948   2.140   1.702   3.675  2.5534 -1.9243 -1.9114
   84SLPC   H3S 7949   2.159   1.531   3.729 -0.7934 -0.3518 -0.7765
   84SLPC   C24 7950   1.960   1.615   3.753  0.4119 -0.6875 -0.4487
   84SLPC   H4R 7951   1.928   1.509   3.748 -1.9238 -0.0154 -0.6859
   84SLPC   H4S 7952   1.890   1.669   3.686 -0.4908 -0.6694  0.4836
   84SLPC   C25 7953   1.948   1.681   3.895 -0.2609 -0.0526 -0.3607
   84SLPC   H5R 7954   1.861   1.635   3.947 -1.0228  1.4508 -0.2324
   84SLPC   H5S 7955   1.918   1.788   3.889 -1.9109 -0.4088  0.8286
   84SLPC   C26 7956   2.070   1.683   3.989  0.0218 -0.3081  0.5373
   84SLPC   H6R 7957   2.156   1.713   3.925  0.2487  2.1041  1.8928
   84SLPC   H6S 7958   2.089   1.583   4.035  0.7185 -0.6741 -0.5144
   84SLPC   C27 7959   2.062   1.787   4.096 -0.0719 -0.6592  0.0494
   84SLPC   H7R 7960   1.955   1.789   4.124 -0.2495 -0.2685 -0.6171
   84SLPC   H7S 7961   2.083   1.892   4.066 -1.6516  0.3744  2.2580
   84SLPC   C28 7962   2.139   1.757   4.226 -0.0338 -0.2115  0.1133
   84SLPC   H8R 7963   2.240   1.721   4.198  0.5472  1.4189 -0.0183
   84SLPC   H8S 7964   2.081   1.679   4.279  1.2468 -0.1366  1.6735
   84SLPC   C29 7965   2.148   1.885   4.315 -0.0056 -0.0571 -0.5176
   84SLPC   H9R 7966   2.153   1.984   4.267  0.5062 -0.3572 -1.0975
   84SLPC  C210 7967   2.178   1.877   4.444 -0.7795  0.6734 -0.1439
   84SLPC  H10R 7968   2.184   1.963   4.512 -1.4170 -0.9581  2.1163
   84SLPC  C211 7969   2.191   1.755   4.528 -0.1871 -0.4625  0.1926
   84SLPC  H11R 7970   2.281   1.756   4.593  1.3817  1.6902 -1.8610
   84SLPC  H11S 7971   2.217   1.675   4.455  0.9146  1.2173 -1.3333
   84SLPC  C212 7972   2.070   1.711   4.608 -0.1995  0.3101  0.1661
   84SLPC  H12R 7973   2.010   1.632   4.561 -0.8037  0.7328  0.2207
   84SLPC  C213 7974   2.026   1.776   4.722 -0.2313 -0.1047  1.0106
   84SLPC  H13R 7975   1.934   1.728   4.759 -0.0212 -1.4323 -0.1162
   84SLPC  C214 7976   2.100   1.889   4.789 -0.0498 -0.1330  0.0884
   84SLPC  H14R 7977   2.185   1.930   4.731 -0.8169  0.8029 -0.4115
   84SLPC  H14S 7978   2.159   1.849   4.873  0.4604 -1.0988 -0.7087
   84SLPC  C215 7979   2.016   2.017   4.828  0.2782  0.3277  0.0984
   84SLPC  H15R 7980   2.067   2.079   4.905 -1.8526 -0.0617  1.9268
   84SLPC  H15S 7981   1.917   1.983   4.863 -0.3898  1.0443 -1.0469
   84SLPC  C216 7982   1.985   2.106   4.713  0.4989  0.1824  0.0810
   84SLPC  H16R 7983   1.935   2.054   4.629 -1.6537  1.3747  0.5670
   84SLPC  H16S 7984   2.071   2.170   4.684 -1.1921  1.7744 -1.6654
   84SLPC  C217 7985   1.892   2.227   4.759 -0.0813  0.0710 -0.2240
   84SLPC  H17R 7986   1.956   2.291   4.824 -0.3577 -0.5645  0.6949
   84SLPC  H17S 7987   1.810   2.187   4.822  0.5962  1.6762  1.7977
   84SLPC  C218 7988   1.823   2.298   4.640  0.0295  0.2852  0.4256
   84SLPC  H18R 7989   1.892   2.358   4.577  0.1441 -0.9455 -0.6585
   84SLPC  H18S 7990   1.747   2.369   4.679 -0.1451 -0.7409  2.0808
   84SLPC  H18T 7991   1.767   2.219   4.586  0.6108 -0.7949  1.3487
   84SLPC   C33 7992   2.595   1.767   3.983 -0.3628  0.2939  0.2770
   84SLPC   H3X 7993   2.621   1.866   3.941  0.8121 -0.2388 -0.3139
   84SLPC   H3Y 7994   2.692   1.712   3.984 -0.0622  0.4964 -3.1999
   84SLPC   C34 7995   2.542   1.774   4.133 -0.1736 -0.6459 -0.0297
   84SLPC   H4X 7996   2.505   1.674   4.167 -2.2906 -0.4407 -1.5374
   84SLPC   H4Y 7997   2.455   1.843   4.129  0.8669  0.6527 -1.0806
   84SLPC   C35 7998   2.639   1.837   4.233  0.0067  0.8867  0.2407
   84SLPC   H5X 7999   2.667   1.936   4.191  0.0674  0.1324 -1.5561
   84SLPC   H5Y 8000   2.730   1.773   4.229 -0.4927  0.2319 -1.9612
   84SLPC   C36 8001   2.582   1.839   4.378 -0.7094  0.1182  0.9213
   84SLPC   H6X 8002   2.548   1.733   4.380 -0.7869 -0.0483 -2.9901
   84SLPC   H6Y 8003   2.488   1.898   4.379 -0.6922  0.2988 -1.7951
   84SLPC   C37 8004   2.688   1.864   4.478 -0.4928 -0.2424  0.2080
   84SLPC   H7X 8005   2.748   1.953   4.450  2.5658 -2.2408 -0.1281
   84SLPC   H7Y 8006   2.763   1.782   4.479  0.7777  0.8853  0.6157
   84SLPC   C38 8007   2.644   1.871   4.625  0.3075 -0.3720  0.2217
   84SLPC   H8X 8008   2.581   1.780   4.630 -0.0720 -0.6283 -4.4280
   84SLPC   H8Y 8009   2.565   1.949   4.629 -0.1694 -0.8004 -0.5566
   84SLPC   C39 8010   2.752   1.870   4.729 -0.0230  0.1063 -0.4547
   84SLPC   H9X 8011   2.839   1.921   4.681  0.1002 -0.5066 -0.8877
   84SLPC   H9Y 8012   2.774   1.764   4.752 -0.9807  0.2036  1.0500
   84SLPC  C310 8013   2.724   1.948   4.863 -0.6446 -0.2891 -0.0815
   84SLPC  H10X 8014   2.724   2.051   4.823  0.3576 -0.9618 -1.9894
   84SLPC  H10Y 8015   2.810   1.935   4.932  0.9579 -0.1001 -1.9316
   84SLPC  C311 8016   2.588   1.925   4.929  0.3143  0.2677  0.3716
   84SLPC  H11X 8017   2.508   1.959   4.860  0.1393 -0.3965  0.2399
   84SLPC  H11Y 8018   2.584   1.981   5.025 -1.2566 -1.6002  1.4752
   84SLPC  C312 8019   2.557   1.775   4.963  0.1695 -0.3489  0.2807
   84SLPC  H12X 8020   2.648   1.727   5.005  1.8538  1.0132 -1.6216
   84SLPC  H12Y 8021   2.539   1.713   4.873 -0.6220 -1.6946  1.3316
   84SLPC  C313 8022   2.436   1.768   5.062  0.3173 -0.0991  0.7804
   84SLPC  H13X 8023   2.339   1.796   5.015 -0.5946 -3.9132  0.0506
   84SLPC  H13Y 8024   2.459   1.834   5.149  1.6164  0.3632  0.1058
   84SLPC  C314 8025   2.402   1.625   5.109 -0.1463  0.0357 -0.5805
   84SLPC  H14X 8026   2.329   1.625   5.193  2.9041 -0.3935  2.2909
   84SLPC  H14Y 8027   2.496   1.572   5.136  0.7447  2.4663  1.5366
   84SLPC  C315 8028   2.348   1.538   4.991  0.2084 -0.0083 -0.3855
   84SLPC  H15X 8029   2.412   1.557   4.903  0.6153 -1.2803 -0.3917
   84SLPC  H15Y 8030   2.245   1.573   4.970 -0.1927 -0.4019  0.8329
   84SLPC  C316 8031   2.342   1.388   5.036  0.0164 -0.8592 -0.8013
   84SLPC  H16X 8032   2.261   1.349   4.970 -1.1571  1.7492 -1.0484
   84SLPC  H16Y 8033   2.316   1.382   5.144  0.9556  1.3820 -0.4028
   84SLPC  C317 8034   2.462   1.302   5.011  0.6398  0.2935 -0.2997
   84SLPC  H17X 8035   2.550   1.346   5.063  2.5602 -1.8538 -1.5651
   84SLPC  H17Y 8036   2.502   1.300   4.908  3.8534 -0.1930  0.8642
   84SLPC  C318 8037   2.443   1.160   5.068 -0.7337 -0.0277  0.2780
   84SLPC  H18X 8038   2.448   1.173   5.178  1.7977 -0.5549  0.2694
   84SLPC  H18Y 8039   2.516   1.085   5.033  0.7935  1.9024 -0.8394
   84SLPC  H18Z 8040   2.346   1.117   5.034 -0.8144 -0.1826  0.6980
   85SLPC     N 8041   0.508   5.749   2.595 -0.5197 -0.3838  0.4617
   85SLPC   C13 8042   0.556   5.801   2.723  0.1536 -0.0049 -0.5218
   85SLPC  H13A 8043   0.607   5.895   2.710  1.1258 -0.6353 -1.5050
   85SLPC  H13B 8044   0.470   5.830   2.781  0.0403  3.1058 -2.0589
   85SLPC  H13C 8045   0.626   5.730   2.764  1.7796  1.0893 -1.2799
   85SLPC   C14 8046   0.637   5.704   2.524  0.7387 -0.7275 -0.2968
   85SLPC  H14A 8047   0.719   5.736   2.587  0.4652 -1.2566  0.3496
   85SLPC  H14B 8048   0.648   5.597   2.540  1.0297 -0.5063  1.1980
   85SLPC  H14C 8049   0.652   5.723   2.419 -0.6671 -0.3571 -0.4467
   85SLPC   C15 8050   0.449   5.863   2.520 -0.6085 -0.1129 -0.1440
   85SLPC  H15A 8051   0.380   5.915   2.583 -1.1542  1.7542 -2.1473
   85SLPC  H15B 8052   0.527   5.933   2.492  2.0397 -2.7104  0.1948
   85SLPC  H15C 8053   0.399   5.835   2.428  0.4353 -1.4451 -0.3422
   85SLPC   C12 8054   0.416   5.633   2.611  0.2260 -0.2708  0.0951
   85SLPC  H12A 8055   0.460   5.555   2.670 -0.8023 -0.5514  0.5111
   85SLPC  H12B 8056   0.383   5.593   2.517 -1.6345  1.1243  0.0866
   85SLPC   C11 8057   0.288   5.666   2.701 -0.4816  0.0790  0.0029
   85SLPC  H11A 8058   0.215   5.722   2.637  0.0190  2.6224  1.5068
   85SLPC  H11B 8059   0.317   5.719   2.794  0.8329  0.6283 -0.7026
   85SLPC     P 8060   0.296   5.455   2.848 -0.4171 -0.4227 -0.0103
   85SLPC   O13 8061   0.196   5.348   2.880  0.1445 -0.4636 -0.0183
   85SLPC   O14 8062   0.434   5.409   2.812 -0.0514 -0.0216 -0.0038
   85SLPC   O12 8063   0.228   5.542   2.736 -0.0598  0.3251  0.0668
   85SLPC   O11 8064   0.314   5.554   2.974  0.2327  0.2111  0.2075
   85SLPC    C1 8065   0.216   5.586   3.077  0.3862 -0.1934 -0.3140
   85SLPC    HA 8066   0.178   5.689   3.064 -1.4735 -0.6242  1.2146
   85SLPC    HB 8067   0.130   5.515   3.079  0.1743  0.0812  0.4381
   85SLPC    C2 8068   0.270   5.550   3.218 -0.8207  0.9090 -0.2416
   85SLPC    HS 8069   0.181   5.560   3.284 -0.6018 -2.5253  0.7623
   85SLPC   O21 8070   0.381   5.642   3.261  0.0110 -0.2129  0.0636
   85SLPC   C21 8071   0.337   5.763   3.295 -0.1581  0.4373  0.1301
   85SLPC   O22 8072   0.223   5.810   3.285  0.3287 -0.4774 -0.1216
   85SLPC   C22 8073   0.449   5.840   3.366 -0.3671  0.1991  0.5387
   85SLPC   H2R 8074   0.478   5.781   3.456 -1.1238 -0.8665  0.1168
   85SLPC   H2S 8075   0.528   5.841   3.288 -0.9087  0.5317 -0.0173
   85SLPC    C3 8076   0.316   5.405   3.228  0.3647  0.5667  0.3154
   85SLPC    HX 8077   0.427   5.398   3.218  0.5178 -0.8903  2.3265
   85SLPC    HY 8078   0.298   5.351   3.132  0.8165  1.9096 -0.5669
   85SLPC   O31 8079   0.279   5.348   3.356  0.1320  0.2226  0.3818
   85SLPC   C31 8080   0.168   5.277   3.341  0.7366  0.2142 -0.1756
   85SLPC   O32 8081   0.105   5.255   3.242 -0.1249  0.5308  0.0750
   85SLPC   C32 8082   0.103   5.258   3.481 -0.2837  0.0019 -0.0692
   85SLPC   H2X 8083   0.169   5.282   3.567 -0.8896  1.1019  0.1037
   85SLPC   H2Y 8084   0.080   5.150   3.490 -2.4683  0.4790  0.6153
   85SLPC   C23 8085   0.409   5.989   3.380  0.1947 -0.4646 -0.5851
   85SLPC   H3R 8086   0.309   5.993   3.428 -0.0178 -0.2905 -1.0357
   85SLPC   H3S 8087   0.393   6.040   3.283 -0.1549  1.9903  0.7003
   85SLPC   C24 8088   0.514   6.056   3.466 -0.0371  0.5565 -0.8715
   85SLPC   H4R 8089   0.619   6.034   3.435 -0.0833 -0.7013 -0.2082
   85SLPC   H4S 8090   0.485   6.005   3.561  0.3093 -1.4819 -1.8081
   85SLPC   C25 8091   0.494   6.207   3.483 -0.9864  0.0194 -0.7809
   85SLPC   H5R 8092   0.496   6.256   3.383  0.4666  0.3924 -0.5958
   85SLPC   H5S 8093   0.399   6.228   3.536  0.2908 -0.2816  1.7508
   85SLPC   C26 8094   0.599   6.277   3.571 -0.1464 -0.2064 -0.0101
   85SLPC   H6R 8095   0.694   6.269   3.513 -1.2380 -1.6021 -1.6824
   85SLPC   H6S 8096   0.609   6.214   3.663  0.0788 -1.7142 -1.0231
   85SLPC   C27 8097   0.585   6.428   3.612 -0.2750  0.5585 -0.9753
   85SLPC   H7R 8098   0.491   6.450   3.668  0.8309  0.5934  0.9677
   85SLPC   H7S 8099   0.578   6.495   3.525 -2.2222 -0.5946 -1.7822
   85SLPC   C28 8100   0.710   6.470   3.687 -0.2539  0.5133  0.7797
   85SLPC   H8R 8101   0.798   6.447   3.624 -2.1173 -2.4671 -0.9482
   85SLPC   H8S 8102   0.710   6.405   3.777 -0.4337  1.4380  1.4702
   85SLPC   C29 8103   0.704   6.625   3.712  0.5483 -0.2003 -0.8884
   85SLPC   H9R 8104   0.674   6.696   3.634  0.3360 -0.2910 -0.8892
   85SLPC  C210 8105   0.731   6.677   3.832 -0.0647 -0.0637  0.4400
   85SLPC  H10R 8106   0.718   6.783   3.858  0.5537 -0.0575  0.7430
   85SLPC  C211 8107   0.772   6.592   3.952  0.2187  0.8076  0.1846
   85SLPC  H11R 8108   0.858   6.644   3.999  0.5978  1.2689 -0.9966
   85SLPC  H11S 8109   0.825   6.498   3.925  0.9996  1.1649  0.4376
   85SLPC  C212 8110   0.659   6.565   4.051 -0.1576 -0.6472 -0.0548
   85SLPC  H12R 8111   0.556   6.602   4.043 -0.1003 -0.3451  0.5746
   85SLPC  C213 8112   0.675   6.479   4.148 -0.7212  0.1996 -0.2090
   85SLPC  H13R 8113   0.593   6.439   4.208 -1.2486  0.6707 -0.6031
   85SLPC  C214 8114   0.811   6.408   4.184  0.0069 -0.0876  0.4156
   85SLPC  H14R 8115   0.897   6.472   4.158  0.6414 -0.6340  1.1328
   85SLPC  H14S 8116   0.826   6.322   4.115  0.2871  1.5611 -1.6798
   85SLPC  C215 8117   0.841   6.385   4.331  0.1712  0.3093 -0.4147
   85SLPC  H15R 8118   0.941   6.340   4.351 -0.0845 -0.6512 -1.2386
   85SLPC  H15S 8119   0.773   6.312   4.379  0.2986  1.6126  1.8842
   85SLPC  C216 8120   0.826   6.508   4.417 -0.8743  0.2369  0.1047
   85SLPC  H16R 8121   0.800   6.471   4.518  0.5013 -1.2261 -0.0461
   85SLPC  H16S 8122   0.748   6.577   4.377 -0.8792  0.9144  1.2627
   85SLPC  C217 8123   0.962   6.578   4.434 -0.1906 -0.0801  0.4885
   85SLPC  H17R 8124   1.009   6.613   4.340  2.2830 -1.7459  1.0121
   85SLPC  H17S 8125   1.037   6.509   4.477  0.0529  0.3665  0.7945
   85SLPC  C218 8126   0.930   6.694   4.534 -0.4203  0.6894  0.4854
   85SLPC  H18R 8127   0.849   6.758   4.492 -1.5870 -0.1802  1.3466
   85SLPC  H18S 8128   1.021   6.757   4.540  1.2079 -1.4329 -0.6952
   85SLPC  H18T 8129   0.900   6.665   4.637  2.1995  3.4136  2.1566
   85SLPC   C33 8130  -0.024   5.348   3.488 -0.0625  0.0409  0.6090
   85SLPC   H3X 8131  -0.093   5.334   3.403  0.7494  0.2781 -0.1049
   85SLPC   H3Y 8132   0.005   5.455   3.474 -0.2051 -0.1380 -1.3409
   85SLPC   C34 8133  -0.102   5.331   3.617  0.1245 -0.1105 -0.1036
   85SLPC   H4X 8134  -0.035   5.357   3.702  0.8100  0.4659 -0.8147
   85SLPC   H4Y 8135  -0.132   5.224   3.616  0.8869 -0.3266 -0.3309
   85SLPC   C35 8136  -0.216   5.437   3.638 -0.1564  0.2166 -0.0223
   85SLPC   H5X 8137  -0.285   5.449   3.551  1.0110  1.0273 -0.8824
   85SLPC   H5Y 8138  -0.161   5.528   3.670  1.2197 -1.8183  4.0189
   85SLPC   C36 8139  -0.300   5.406   3.763 -0.3788  0.2971 -0.8569
   85SLPC   H6X 8140  -0.326   5.298   3.764  1.0189 -0.0566 -0.2769
   85SLPC   H6Y 8141  -0.400   5.453   3.761  0.1256  1.8522  2.8699
   85SLPC   C37 8142  -0.229   5.454   3.893  0.3421  0.8942  0.0183
   85SLPC   H7X 8143  -0.210   5.559   3.862  1.6346  0.4209 -0.8765
   85SLPC   H7Y 8144  -0.134   5.397   3.900  0.2317 -0.2109 -4.3824
   85SLPC   C38 8145  -0.314   5.429   4.016 -0.6164 -0.1442 -0.1007
   85SLPC   H8X 8146  -0.298   5.326   4.052 -1.2396 -1.1403 -2.4655
   85SLPC   H8Y 8147  -0.420   5.442   3.984 -0.3427  0.5844 -0.7441
   85SLPC   C39 8148  -0.278   5.522   4.131  0.2679  0.5111  0.2541
   85SLPC   H9X 8149  -0.271   5.618   4.076 -1.7734 -0.5162 -1.9768
   85SLPC   H9Y 8150  -0.184   5.477   4.170  1.4567  2.7233  0.0757
   85SLPC  C310 8151  -0.381   5.512   4.239 -0.4443 -0.2278 -0.7505
   85SLPC  H10X 8152  -0.384   5.410   4.284  1.3412 -0.9625 -2.1624
   85SLPC  H10Y 8153  -0.483   5.544   4.209  0.4811  1.4121 -2.3354
   85SLPC  C311 8154  -0.353   5.609   4.354  0.5154  0.9289 -0.4773
   85SLPC  H11X 8155  -0.374   5.706   4.303  1.1923  0.5561 -1.4927
   85SLPC  H11Y 8156  -0.245   5.611   4.381  0.2567  0.6237  0.6198
   85SLPC  C312 8157  -0.449   5.589   4.473 -0.1644 -0.1241 -0.3837
   85SLPC  H12X 8158  -0.425   5.490   4.518 -3.5472 -1.2794 -0.8175
   85SLPC  H12Y 8159  -0.553   5.592   4.433 -0.0542  0.8366 -0.6279
   85SLPC  C313 8160  -0.426   5.701   4.574 -0.2208 -0.1235 -0.3434
   85SLPC  H13X 8161  -0.484   5.791   4.546 -2.4915 -0.2381  3.2562
   85SLPC  H13Y 8162  -0.320   5.730   4.586 -0.7985  1.0717  2.7520
   85SLPC  C314 8163  -0.470   5.653   4.716  0.0698 -0.0403 -0.2892
   85SLPC  H14X 8164  -0.396   5.580   4.755 -0.9151  0.4101  2.7577
   85SLPC  H14Y 8165  -0.567   5.599   4.704  2.0509 -3.4485 -2.7195
   85SLPC  C315 8166  -0.475   5.764   4.827  0.7914 -0.3753  0.3156
   85SLPC  H15X 8167  -0.508   5.716   4.921  0.8054  1.4116  1.2759
   85SLPC  H15Y 8168  -0.562   5.828   4.802  0.8267 -0.4221  0.0699
   85SLPC  C316 8169  -0.340   5.837   4.846 -0.4016  0.1031  0.2905
   85SLPC  H16X 8170  -0.309   5.879   4.747  0.9352 -2.6988 -0.5819
   85SLPC  H16Y 8171  -0.256   5.773   4.882 -0.2974  1.0727  1.8546
   85SLPC  C317 8172  -0.349   5.942   4.957  0.5347  0.1955  1.6316
   85SLPC  H17X 8173  -0.412   5.899   5.038  0.8604 -2.0810  0.7464
   85SLPC  H17Y 8174  -0.409   6.027   4.916 -0.1236  0.1612  2.4813
   85SLPC  C318 8175  -0.221   5.997   5.007  0.2382 -0.0363  0.5544
   85SLPC  H18X 8176  -0.159   5.928   5.068  0.3091  1.4537  2.2512
   85SLPC  H18Y 8177  -0.243   6.086   5.069  3.4146  0.5542  1.0132
   85SLPC  H18Z 8178  -0.164   6.035   4.918  0.5721 -1.6482  0.0463
   86SLPC     N 8179   3.039   1.555   3.210 -0.1885  0.5458  0.7752
   86SLPC   C13 8180   3.083   1.691   3.246  0.4174 -0.0151 -0.8414
   86SLPC  H13A 8181   3.041   1.727   3.338 -0.0701  1.4202 -1.5936
   86SLPC  H13B 8182   3.189   1.715   3.249  0.1685  1.0450  0.7810
   86SLPC  H13C 8183   3.034   1.758   3.177 -1.4238 -0.3021  0.1309
   86SLPC   C14 8184   3.063   1.470   3.326  0.5735 -0.0224  0.0428
   86SLPC  H14A 8185   3.067   1.367   3.296  0.0628 -0.2391  0.6938
   86SLPC  H14B 8186   3.156   1.499   3.372  0.8691 -1.4553  0.3740
   86SLPC  H14C 8187   2.980   1.485   3.393  0.1106  0.3649 -0.5992
   86SLPC   C15 8188   3.114   1.496   3.097  0.7589 -0.2392 -0.5313
   86SLPC  H15A 8189   3.100   1.390   3.081  1.3103 -0.3081 -0.5964
   86SLPC  H15B 8190   3.075   1.542   3.007  1.5462  0.6269 -0.4415
   86SLPC  H15C 8191   3.221   1.507   3.103  0.7633 -0.7605  0.4143
   86SLPC   C12 8192   2.892   1.553   3.163 -0.0616 -0.1927 -0.1335
   86SLPC  H12A 8193   2.875   1.455   3.122 -2.3645 -1.0074  2.4538
   86SLPC  H12B 8194   2.886   1.602   3.067  1.4989 -4.4698 -2.6638
   86SLPC   C11 8195   2.773   1.591   3.266  0.8652 -0.5575  0.4102
   86SLPC  H11A 8196   2.678   1.603   3.209 -0.2460 -3.5828  1.4560
   86SLPC  H11B 8197   2.802   1.689   3.311  1.1151 -0.2916 -0.3216
   86SLPC     P 8198   2.695   1.346   3.327 -0.1087 -0.0124 -0.2976
   86SLPC   O13 8199   2.548   1.362   3.306  0.3446  0.0779 -0.1513
   86SLPC   O14 8200   2.768   1.286   3.213 -0.7509  0.1418 -0.1583
   86SLPC   O12 8201   2.756   1.493   3.369 -0.8020  0.9323 -0.0984
   86SLPC   O11 8202   2.712   1.245   3.452 -0.0013 -0.5716 -0.0047
   86SLPC    C1 8203   2.840   1.191   3.474 -0.7501  0.4618 -0.4263
   86SLPC    HA 8204   2.862   1.102   3.411  0.2504  1.1794 -1.1099
   86SLPC    HB 8205   2.924   1.262   3.460  0.2335 -0.3904  0.8396
   86SLPC    C2 8206   2.857   1.147   3.619  1.0964  0.0568 -0.1942
   86SLPC    HS 8207   2.962   1.119   3.644  1.9880  0.6643 -2.8581
   86SLPC   O21 8208   2.773   1.035   3.643 -0.7150  0.5767 -0.0143
   86SLPC   C21 8209   2.831   0.921   3.628 -0.3274  0.0795  0.3895
   86SLPC   O22 8210   2.936   0.898   3.573 -0.1386  0.3940 -0.5154
   86SLPC   C22 8211   2.725   0.807   3.668  0.3704  0.8524 -0.0133
   86SLPC   H2R 8212   2.623   0.843   3.644  0.5589  1.3570 -0.0681
   86SLPC   H2S 8213   2.743   0.715   3.608 -1.5652  1.2425 -1.2817
   86SLPC    C3 8214   2.826   1.262   3.716 -0.1682 -0.5672  0.2308
   86SLPC    HX 8215   2.718   1.284   3.701 -0.8737 -2.5229  1.8975
   86SLPC    HY 8216   2.894   1.345   3.688  0.0217 -1.0045 -0.6199
   86SLPC   O31 8217   2.847   1.218   3.853 -0.0431  0.8747 -0.0991
   86SLPC   C31 8218   2.797   1.295   3.936 -0.0841 -0.4196 -0.4756
   86SLPC   O32 8219   2.757   1.410   3.917  0.5862  0.0891  0.0368
   86SLPC   C32 8220   2.783   1.211   4.065  0.6745  0.5256  0.2253
   86SLPC   H2X 8221   2.741   1.112   4.035 -0.1436  1.0167 -0.2956
   86SLPC   H2Y 8222   2.705   1.259   4.128  0.9065  2.1844 -0.6885
   86SLPC   C23 8223   2.737   0.765   3.813  1.2488 -0.2496  0.7001
   86SLPC   H3R 8224   2.843   0.768   3.845  1.1457 -1.5424  1.2378
   86SLPC   H3S 8225   2.707   0.658   3.828  1.0936 -0.1814  0.8790
   86SLPC   C24 8226   2.635   0.849   3.894 -0.2513 -0.1747 -0.1273
   86SLPC   H4R 8227   2.533   0.815   3.865  0.4930 -2.5437 -0.1872
   86SLPC   H4S 8228   2.658   0.957   3.884 -0.6559 -0.0627  0.1349
   86SLPC   C25 8229   2.644   0.816   4.042  0.1766 -0.3018  0.9069
   86SLPC   H5R 8230   2.748   0.814   4.081 -0.1480  3.3242  2.3114
   86SLPC   H5S 8231   2.600   0.715   4.053 -1.0787  0.2501  1.1417
   86SLPC   C26 8232   2.553   0.890   4.141 -0.1512 -0.6144 -0.8099
   86SLPC   H6R 8233   2.449   0.890   4.103 -0.0783 -2.6158 -1.1157
   86SLPC   H6S 8234   2.579   0.997   4.155  0.7587 -1.2104  3.4145
   86SLPC   C27 8235   2.557   0.816   4.276 -0.0914 -0.4677  0.3291
   86SLPC   H7R 8236   2.610   0.721   4.253 -2.1342 -1.4328 -0.6687
   86SLPC   H7S 8237   2.459   0.779   4.314  0.5004 -0.2413  2.2092
   86SLPC   C28 8238   2.626   0.884   4.393 -0.6666  0.5521 -0.1387
   86SLPC   H8R 8239   2.732   0.888   4.361 -0.7969 -0.0742 -0.6703
   86SLPC   H8S 8240   2.626   0.811   4.478 -2.3368 -0.1520 -0.6951
   86SLPC   C29 8241   2.574   1.015   4.443 -0.3492  0.2742 -0.1005
   86SLPC   H9R 8242   2.597   1.104   4.381 -0.0850 -0.5289 -1.1782
   86SLPC  C210 8243   2.519   1.038   4.565  0.1277  0.1090  0.1794
   86SLPC  H10R 8244   2.494   1.139   4.602 -1.4333  0.0265 -0.5574
   86SLPC  C211 8245   2.478   0.934   4.671  0.3000 -0.5444 -0.5313
   86SLPC  H11R 8246   2.548   0.953   4.755 -0.7981 -0.9780  0.5188
   86SLPC  H11S 8247   2.483   0.830   4.633 -0.4565 -1.3065  1.3524
   86SLPC  C212 8248   2.337   0.965   4.720  0.1481  0.9549  0.4048
   86SLPC  H12R 8249   2.319   1.067   4.759  1.2190  1.1178  0.5131
   86SLPC  C213 8250   2.232   0.880   4.709 -0.2488  0.4469 -0.6217
   86SLPC  H13R 8251   2.136   0.917   4.746 -0.8549 -1.9112  0.3579
   86SLPC  C214 8252   2.231   0.748   4.640 -0.0242  0.6937  0.5065
   86SLPC  H14R 8253   2.318   0.721   4.577 -0.9046  0.0141 -0.4498
   86SLPC  H14S 8254   2.141   0.737   4.576  0.1992 -1.8166  0.5263
   86SLPC  C215 8255   2.206   0.639   4.750  0.1867 -0.0313  0.9255
   86SLPC  H15R 8256   2.293   0.638   4.819  1.2436  2.2168 -0.2423
   86SLPC  H15S 8257   2.195   0.536   4.711 -2.0263  0.6682 -0.5026
   86SLPC  C216 8258   2.082   0.661   4.840 -0.4380  0.1156  0.1752
   86SLPC  H16R 8259   1.998   0.686   4.772  0.2006 -0.2730 -0.7690
   86SLPC  H16S 8260   2.107   0.740   4.915 -0.7219 -0.9099  1.3994
   86SLPC  C217 8261   2.042   0.536   4.918 -0.6438 -0.3275  0.1892
   86SLPC  H17R 8262   2.131   0.504   4.976  0.6522  0.3144 -1.3817
   86SLPC  H17S 8263   2.017   0.452   4.850  1.1582 -1.6096  1.0298
   86SLPC  C218 8264   1.923   0.558   5.016  0.0432  0.6265  0.8288
   86SLPC  H18R 8265   1.841   0.619   4.971 -0.9408 -0.4525  1.1196
   86SLPC  H18S 8266   1.966   0.595   5.111  3.0903 -2.1024  0.6615
   86SLPC  H18T 8267   1.898   0.455   5.049 -2.3546  0.7746 -0.2906
   86SLPC   C33 8268   2.912   1.188   4.141  0.6837 -0.1373 -0.1553
   86SLPC   H3X 8269   3.002   1.151   4.086 -0.3282 -1.7304 -0.8082
   86SLPC   H3Y 8270   2.888   1.092   4.193 -0.7528 -0.0590 -0.6204
   86SLPC   C34 8271   2.945   1.298   4.240 -0.1852 -0.3393  0.5289
   86SLPC   H4X 8272   2.864   1.345   4.299  1.0599  1.3858  0.9307
   86SLPC   H4Y 8273   2.992   1.381   4.183 -2.0326  0.4958  0.1420
   86SLPC   C35 8274   3.065   1.246   4.319 -0.5133 -0.3857 -0.0012
   86SLPC   H5X 8275   3.144   1.216   4.247 -0.8067  2.0877 -1.4722
   86SLPC   H5Y 8276   3.038   1.155   4.376  2.6953 -0.5722  1.4477
   86SLPC   C36 8277   3.117   1.356   4.413  0.1319 -0.4006  0.0971
   86SLPC   H6X 8278   3.028   1.410   4.452 -1.0647 -3.2962  1.6881
   86SLPC   H6Y 8279   3.182   1.429   4.361 -0.9072  1.5158  1.3432
   86SLPC   C37 8280   3.178   1.299   4.539  0.0659  0.4320 -1.0492
   86SLPC   H7X 8281   3.267   1.239   4.512  1.2036  1.4499  0.2708
   86SLPC   H7Y 8282   3.102   1.239   4.594  0.1052  0.8184 -0.5595
   86SLPC   C38 8283   3.227   1.417   4.623 -0.1655 -0.1836 -0.1979
   86SLPC   H8X 8284   3.156   1.500   4.643  2.0735  1.3062  2.3361
   86SLPC   H8Y 8285   3.319   1.450   4.570  0.4319 -3.4165 -1.4143
   86SLPC   C39 8286   3.256   1.363   4.769  0.3058  1.3571  0.5954
   86SLPC   H9X 8287   3.298   1.262   4.748 -0.1694  0.7382  2.4103
   86SLPC   H9Y 8288   3.153   1.342   4.808 -0.5122  3.4839 -0.3083
   86SLPC  C310 8289   3.319   1.450   4.878 -0.0791 -0.0480  0.2028
   86SLPC  H10X 8290   3.263   1.546   4.876  0.5836  0.4437  2.3839
   86SLPC  H10Y 8291   3.420   1.468   4.835 -0.9461  1.2114 -1.4230
   86SLPC  C311 8292   3.332   1.377   5.011  1.3305  0.3148  0.2580
   86SLPC  H11X 8293   3.371   1.275   4.991 -0.2159  0.1210 -2.1945
   86SLPC  H11Y 8294   3.230   1.362   5.051  0.6503 -2.4207 -2.1840
   86SLPC  C312 8295   3.422   1.452   5.116  0.3371  0.6592  0.5399
   86SLPC  H12X 8296   3.399   1.408   5.215  1.7011  0.6578  0.8763
   86SLPC  H12Y 8297   3.398   1.561   5.114  3.4530  1.4240 -0.1915
   86SLPC  C313 8298   3.571   1.449   5.086  0.3795  0.4266 -0.2005
   86SLPC  H13X 8299   3.587   1.500   4.988  1.2804  2.2016  0.8168
   86SLPC  H13Y 8300   3.613   1.346   5.088 -1.7984 -0.5765  3.2512
   86SLPC  C314 8301   3.646   1.521   5.198  0.3305  0.0399 -0.4608
   86SLPC  H14X 8302   3.625   1.472   5.296 -0.1082  2.8129  0.9091
   86SLPC  H14Y 8303   3.602   1.623   5.202 -2.2903 -1.0413  0.3615
   86SLPC  C315 8304   3.798   1.527   5.171 -0.6183 -0.2223 -0.3828
   86SLPC  H15X 8305   3.807   1.628   5.124 -0.7130  0.2289  0.5386
   86SLPC  H15Y 8306   3.836   1.449   5.101  0.7873  1.2323 -1.3318
   86SLPC  C316 8307   3.888   1.517   5.293 -0.3480 -0.3621  0.2714
   86SLPC  H16X 8308   3.992   1.492   5.262 -0.7267 -1.2272 -0.3449
   86SLPC  H16Y 8309   3.852   1.455   5.377 -0.6417  1.3367  1.4487
   86SLPC  C317 8310   3.901   1.651   5.366 -0.2028 -0.1664  0.1286
   86SLPC  H17X 8311   3.919   1.626   5.473  0.7071  0.5530  0.1550
   86SLPC  H17Y 8312   3.799   1.695   5.364  0.4413  1.3614 -0.5180
   86SLPC  C318 8313   4.000   1.755   5.304 -0.5465  0.2147  0.6962
   86SLPC  H18X 8314   3.970   1.798   5.206 -0.8843  0.6698  0.9942
   86SLPC  H18Y 8315   4.100   1.708   5.299 -1.0722 -0.8807  0.2213
   86SLPC  H18Z 8316   4.010   1.835   5.381  0.4146  0.2497  0.5394
   87SLPC     N 8317   4.596   1.703   2.570  0.4946  0.6346  0.1514
   87SLPC   C13 8318   4.553   1.554   2.553 -0.4013 -0.2559  0.1034
   87SLPC  H13A 8319   4.491   1.522   2.635  0.1571 -0.6197  0.3903
   87SLPC  H13B 8320   4.490   1.549   2.466  0.6096  3.0897 -0.9771
   87SLPC  H13C 8321   4.642   1.493   2.551  0.0209  0.2026  2.4608
   87SLPC   C14 8322   4.467   1.782   2.547 -0.0232 -0.5723  0.3404
   87SLPC  H14A 8323   4.396   1.751   2.621  1.6707  0.2624  2.4148
   87SLPC  H14B 8324   4.493   1.886   2.560  1.2798 -0.5954 -1.5352
   87SLPC  H14C 8325   4.420   1.767   2.451 -0.4091 -0.4443  0.5094
   87SLPC   C15 8326   4.688   1.743   2.458  0.1980  0.0236 -0.5516
   87SLPC  H15A 8327   4.722   1.845   2.474 -1.1907  0.5146 -0.5766
   87SLPC  H15B 8328   4.775   1.681   2.444 -0.9286 -1.8068  0.1706
   87SLPC  H15C 8329   4.632   1.750   2.366 -0.9122 -0.4110  0.0710
   87SLPC   C12 8330   4.644   1.740   2.710 -0.3011 -0.6428  0.1765
   87SLPC  H12A 8331   4.558   1.723   2.773 -1.2147  0.5893 -0.6848
   87SLPC  H12B 8332   4.652   1.847   2.714 -0.9252 -0.4456 -2.1964
   87SLPC   C11 8333   4.761   1.661   2.765  0.3821  0.1388 -0.8731
   87SLPC  H11A 8334   4.741   1.553   2.744 -2.1072  0.1400  1.0153
   87SLPC  H11B 8335   4.768   1.667   2.875  0.8922  1.2985 -0.9524
   87SLPC     P 8336   4.962   1.830   2.747  0.1189 -0.3925 -0.1334
   87SLPC   O13 8337   5.069   1.853   2.647  0.2170 -0.3643 -0.3672
   87SLPC   O14 8338   4.869   1.945   2.773 -0.0622  0.1313 -0.3871
   87SLPC   O12 8339   4.883   1.706   2.704 -0.4534  0.0153  0.1053
   87SLPC   O11 8340   5.017   1.795   2.891 -0.1676 -0.1542  0.1977
   87SLPC    C1 8341   5.123   1.701   2.916 -0.1578 -0.1966 -0.4146
   87SLPC    HA 8342   5.086   1.599   2.896 -0.6991  0.3045 -2.1020
   87SLPC    HB 8343   5.218   1.714   2.860  0.7026 -2.1602  0.4865
   87SLPC    C2 8344   5.157   1.705   3.071  0.2555  0.2449  0.4488
   87SLPC    HS 8345   5.062   1.669   3.114  1.6966 -0.6784  3.0952
   87SLPC   O21 8346   5.175   1.841   3.115  0.3207 -0.1846  0.6322
   87SLPC   C21 8347   5.272   1.915   3.056  0.2610  0.3007  0.6598
   87SLPC   O22 8348   5.367   1.868   2.991 -0.0620 -0.3021 -0.3125
   87SLPC   C22 8349   5.232   2.069   3.055 -0.0410 -0.1197  0.7126
   87SLPC   H2R 8350   5.254   2.092   2.948 -3.1005  0.3001  0.0983
   87SLPC   H2S 8351   5.123   2.076   3.071 -0.0587 -1.4291  1.3756
   87SLPC    C3 8352   5.271   1.606   3.108  0.2001 -1.0826 -0.0252
   87SLPC    HX 8353   5.364   1.647   3.063 -0.2383 -2.2557 -2.1491
   87SLPC    HY 8354   5.245   1.507   3.065  2.9600 -1.9399  0.1410
   87SLPC   O31 8355   5.289   1.593   3.247  0.7481  0.4809 -0.1817
   87SLPC   C31 8356   5.235   1.483   3.308 -0.3592 -0.2983 -0.4636
   87SLPC   O32 8357   5.165   1.399   3.254  0.7042 -0.0468  0.7299
   87SLPC   C32 8358   5.266   1.486   3.455 -0.5245  0.2607 -0.6113
   87SLPC   H2X 8359   5.281   1.591   3.489 -1.9310 -0.1303  1.3986
   87SLPC   H2Y 8360   5.366   1.437   3.456  0.9005  3.0076  0.3788
   87SLPC   C23 8361   5.316   2.162   3.147  0.0795  0.2992  1.1803
   87SLPC   H3R 8362   5.284   2.265   3.123 -0.1389  0.7890  3.3734
   87SLPC   H3S 8363   5.424   2.143   3.126 -0.8418 -1.3776 -3.1027
   87SLPC   C24 8364   5.290   2.154   3.298 -0.2068 -0.2161  0.2462
   87SLPC   H4R 8365   5.245   2.054   3.319 -1.8939 -0.4163 -3.5690
   87SLPC   H4S 8366   5.218   2.235   3.322  0.2521  0.5491 -0.8912
   87SLPC   C25 8367   5.408   2.175   3.392  0.1764  0.3711 -0.7230
   87SLPC   H5R 8368   5.463   2.267   3.364  0.5428  0.6045  0.6939
   87SLPC   H5S 8369   5.487   2.097   3.395  1.1015  1.3143  0.4992
   87SLPC   C26 8370   5.363   2.191   3.537  0.1528 -0.5492  0.5334
   87SLPC   H6R 8371   5.276   2.259   3.552  0.2321  0.1520 -1.7964
   87SLPC   H6S 8372   5.443   2.233   3.602 -0.6438 -0.6595  1.6106
   87SLPC   C27 8373   5.327   2.057   3.609  0.1248  0.3032 -0.0176
   87SLPC   H7R 8374   5.409   1.983   3.600 -0.5197 -0.6953  1.8486
   87SLPC   H7S 8375   5.239   2.016   3.553 -1.4725  2.4747  0.7513
   87SLPC   C28 8376   5.294   2.069   3.758 -0.2768 -0.3249  0.5317
   87SLPC   H8R 8377   5.250   1.974   3.796 -2.4376  0.3198 -0.2002
   87SLPC   H8S 8378   5.211   2.142   3.764  2.0508  2.3907  1.9355
   87SLPC   C29 8379   5.409   2.126   3.841  0.4593  0.2113  0.0010
   87SLPC   H9R 8380   5.477   2.200   3.796  0.3634  0.0065 -0.4891
   87SLPC  C210 8381   5.449   2.084   3.963 -0.2141 -0.3973  0.0675
   87SLPC  H10R 8382   5.534   2.133   4.013  1.5842 -0.6908 -2.5540
   87SLPC  C211 8383   5.396   1.964   4.035 -0.0267  0.5204 -0.2816
   87SLPC  H11R 8384   5.469   1.913   4.101 -0.9206 -0.2501  0.1296
   87SLPC  H11S 8385   5.375   1.875   3.973  3.3785 -0.5611 -0.0967
   87SLPC  C212 8386   5.282   2.012   4.122  0.1652  0.0809 -0.3243
   87SLPC  H12R 8387   5.182   2.014   4.077 -0.1047 -2.0571  0.0391
   87SLPC  C213 8388   5.296   2.039   4.255 -0.1695 -0.4889 -0.1328
   87SLPC  H13R 8389   5.211   2.069   4.317  0.1481  0.7919 -0.2939
   87SLPC  C214 8390   5.417   2.012   4.339  0.0536 -0.6425 -0.2678
   87SLPC  H14R 8391   5.494   2.092   4.329 -0.5172 -0.2659 -2.0451
   87SLPC  H14S 8392   5.475   1.929   4.293  0.4065 -1.6438  1.8521
   87SLPC  C215 8393   5.386   2.004   4.492  0.1391  0.3860  0.0832
   87SLPC  H15R 8394   5.477   1.967   4.544  1.0017  3.7729  1.2219
   87SLPC  H15S 8395   5.307   1.927   4.506  0.1115  0.2288 -0.8627
   87SLPC  C216 8396   5.345   2.136   4.556  0.2871 -0.1880  0.5240
   87SLPC  H16R 8397   5.250   2.172   4.513  0.8119  1.0138  0.3335
   87SLPC  H16S 8398   5.420   2.217   4.540 -0.5833  0.2807 -1.6319
   87SLPC  C217 8399   5.331   2.121   4.705  0.1966  0.1998  0.4953
   87SLPC  H17R 8400   5.427   2.091   4.753 -0.5669 -0.7681  1.4780
   87SLPC  H17S 8401   5.248   2.052   4.732  0.7870 -0.2470  1.2183
   87SLPC  C218 8402   5.298   2.248   4.781  0.0410  0.7719 -0.0849
   87SLPC  H18R 8403   5.388   2.313   4.780 -0.4605  1.4783  0.0498
   87SLPC  H18S 8404   5.274   2.225   4.887  0.3591 -0.2570 -0.2297
   87SLPC  H18T 8405   5.213   2.301   4.734 -1.8082 -1.8251  0.1370
   87SLPC   C33 8406   5.177   1.410   3.554  0.5080 -0.0549  0.7182
   87SLPC   H3X 8407   5.165   1.302   3.529  1.2127  0.1341 -0.5219
   87SLPC   H3Y 8408   5.071   1.444   3.550  0.5923  0.2205  0.8202
   87SLPC   C34 8409   5.221   1.435   3.702  0.3027  0.6514 -0.1315
   87SLPC   H4X 8410   5.331   1.422   3.707  0.4061  1.7917  1.4099
   87SLPC   H4Y 8411   5.180   1.353   3.765  2.3096  0.3686  0.9056
   87SLPC   C35 8412   5.184   1.568   3.766 -0.2791 -0.4328 -0.0424
   87SLPC   H5X 8413   5.077   1.596   3.769 -0.0622  0.3336  1.0611
   87SLPC   H5Y 8414   5.236   1.650   3.712  0.4779 -2.1806 -2.1372
   87SLPC   C36 8415   5.229   1.572   3.916  0.2476 -0.6892 -0.0167
   87SLPC   H6X 8416   5.336   1.598   3.927 -0.6172  3.1581  0.9941
   87SLPC   H6Y 8417   5.206   1.472   3.958 -1.2917 -0.6994 -0.8047
   87SLPC   C37 8418   5.148   1.671   3.999 -0.3571 -0.1442 -0.4457
   87SLPC   H7X 8419   5.043   1.665   3.961 -0.1295  1.8592 -1.5139
   87SLPC   H7Y 8420   5.189   1.774   3.988  1.0459 -0.4345  1.5166
   87SLPC   C38 8421   5.147   1.631   4.150  0.2430  0.3923  0.6318
   87SLPC   H8X 8422   5.255   1.617   4.172  0.6741  2.6036  0.1515
   87SLPC   H8Y 8423   5.106   1.528   4.160 -0.4394  0.4525 -1.1946
   87SLPC   C39 8424   5.085   1.729   4.249 -0.0283  0.1335 -0.3194
   87SLPC   H9X 8425   4.976   1.745   4.234 -0.3003 -0.5080  0.8781
   87SLPC   H9Y 8426   5.131   1.828   4.235  1.9319 -0.7783 -0.6297
   87SLPC  C310 8427   5.108   1.686   4.393 -0.3663 -0.2479  0.5061
   87SLPC  H10X 8428   5.218   1.682   4.406 -0.3193  1.2517  0.7713
   87SLPC  H10Y 8429   5.065   1.584   4.403 -2.7314  0.0180 -3.9972
   87SLPC  C311 8430   5.030   1.771   4.493 -0.2751 -0.7416  0.2057
   87SLPC  H11X 8431   4.921   1.757   4.475 -0.0895 -1.0818 -0.6648
   87SLPC  H11Y 8432   5.058   1.878   4.482  0.1921 -0.7691  1.0514
   87SLPC  C312 8433   5.054   1.732   4.644 -0.6233  0.5588 -0.3566
   87SLPC  H12X 8434   5.163   1.739   4.660 -0.9792  0.7611  2.3318
   87SLPC  H12Y 8435   5.015   1.628   4.642 -0.6124  0.5471  0.0794
   87SLPC  C313 8436   5.000   1.819   4.761 -0.8353 -0.5812  0.2638
   87SLPC  H13X 8437   4.891   1.840   4.764 -0.5386  1.1669 -0.2326
   87SLPC  H13Y 8438   5.055   1.915   4.749 -0.6472 -0.8164 -0.8588
   87SLPC  C314 8439   5.055   1.758   4.897 -0.9528  0.6595  0.1581
   87SLPC  H14X 8440   5.074   1.828   4.981  0.7159  1.7662 -1.0840
   87SLPC  H14Y 8441   5.147   1.699   4.877 -1.1192  0.4652 -0.0408
   87SLPC  C315 8442   4.950   1.660   4.951  1.2765  0.0860 -0.7921
   87SLPC  H15X 8443   4.904   1.595   4.874 -0.8388  1.5507 -0.8571
   87SLPC  H15Y 8444   4.862   1.710   4.997  0.9259 -0.8765 -0.3948
   87SLPC  C316 8445   5.000   1.569   5.063 -0.0147 -0.0602 -0.4297
   87SLPC  H16X 8446   5.099   1.528   5.035  0.2195 -1.6178  2.3146
   87SLPC  H16Y 8447   4.927   1.487   5.082 -1.7273  1.0061 -1.9933
   87SLPC  C317 8448   4.999   1.627   5.203  0.0319 -0.0640 -0.2009
   87SLPC  H17X 8449   4.899   1.639   5.251 -0.6260 -1.3231 -1.2189
   87SLPC  H17Y 8450   5.040   1.731   5.201  0.3689 -0.2041 -2.0352
   87SLPC  C318 8451   5.088   1.534   5.291 -0.5466 -0.2466 -0.1797
   87SLPC  H18X 8452   5.052   1.429   5.290  0.0731 -0.4712  0.4877
   87SLPC  H18Y 8453   5.080   1.558   5.399 -0.3431  0.4109 -0.3109
   87SLPC  H18Z 8454   5.191   1.545   5.250  1.0773  2.2696  4.0380
   88SLPC     N 8455   2.437   0.304   2.701  0.3051 -0.1249 -0.1947
   88SLPC   C13 8456   2.582   0.299   2.669 -0.1417  0.3726 -0.2069
   88SLPC  H13A 8457   2.623   0.398   2.657 -0.4635  0.5384  0.0434
   88SLPC  H13B 8458   2.632   0.235   2.741  0.8719 -0.1104 -1.2966
   88SLPC  H13C 8459   2.604   0.240   2.582  2.8326  1.3020 -0.1938
   88SLPC   C14 8460   2.397   0.163   2.738  0.0284  0.0707 -1.0360
   88SLPC  H14A 8461   2.402   0.096   2.654  0.8753 -0.8986 -0.2510
   88SLPC  H14B 8462   2.458   0.123   2.818  0.6277 -0.1580 -1.5965
   88SLPC  H14C 8463   2.294   0.175   2.769  0.1654  1.0979 -0.9213
   88SLPC   C15 8464   2.354   0.350   2.585 -0.5047  0.8326  0.3681
   88SLPC  H15A 8465   2.378   0.297   2.493 -0.4914  0.3793  0.6313
   88SLPC  H15B 8466   2.247   0.335   2.590 -0.4370 -0.6429 -1.4220
   88SLPC  H15C 8467   2.378   0.453   2.564 -0.9798  1.3142  2.0457
   88SLPC   C12 8468   2.415   0.389   2.829 -0.0492 -0.3529  0.2354
   88SLPC  H12A 8469   2.492   0.356   2.897 -1.5926  0.0870  2.3286
   88SLPC  H12B 8470   2.328   0.354   2.882  0.0106  0.4951  0.9299
   88SLPC   C11 8471   2.423   0.550   2.823  0.0942  0.1510  1.0204
   88SLPC  H11A 8472   2.388   0.600   2.916 -1.0127 -0.4323  0.9366
   88SLPC  H11B 8473   2.355   0.586   2.743  3.2930  1.4521 -1.3124
   88SLPC     P 8474   2.648   0.623   2.912 -0.0545 -0.0701  0.2734
   88SLPC   O13 8475   2.779   0.651   2.848 -0.2144  0.0663 -0.5877
   88SLPC   O14 8476   2.598   0.728   3.002  0.2553 -0.0371  0.1719
   88SLPC   O12 8477   2.555   0.588   2.791  0.0942  0.0204  0.6012
   88SLPC   O11 8478   2.638   0.487   2.990 -0.1900  0.2349  0.1153
   88SLPC    C1 8479   2.748   0.396   2.991 -0.1336  0.6965  0.3334
   88SLPC    HA 8480   2.714   0.291   2.979  0.2251  0.7129 -1.1084
   88SLPC    HB 8481   2.815   0.396   2.902  0.0189  3.9890  0.2931
   88SLPC    C2 8482   2.844   0.398   3.120  0.5065 -0.2103 -0.0086
   88SLPC    HS 8483   2.928   0.342   3.074  0.2924  1.6134 -2.9434
   88SLPC   O21 8484   2.776   0.344   3.227  0.3663 -0.4892 -0.3164
   88SLPC   C21 8485   2.849   0.256   3.290 -0.7294  0.5720 -0.7107
   88SLPC   O22 8486   2.967   0.225   3.260  0.2767 -0.3695  0.3862
   88SLPC   C22 8487   2.782   0.192   3.410  0.4174 -1.0503  1.0353
   88SLPC   H2R 8488   2.677   0.229   3.412  0.9293  0.5913 -0.4438
   88SLPC   H2S 8489   2.773   0.083   3.392 -1.9002 -0.6688 -0.5235
   88SLPC    C3 8490   2.894   0.536   3.164  0.3530  0.1735  0.0760
   88SLPC    HX 8491   2.804   0.588   3.204  0.1038  0.0993 -0.3800
   88SLPC    HY 8492   2.925   0.582   3.067 -2.1566  1.9172  0.0175
   88SLPC   O31 8493   3.009   0.532   3.255  0.2993 -0.3245 -0.4352
   88SLPC   C31 8494   2.981   0.540   3.380  0.0714 -0.6640 -0.2794
   88SLPC   O32 8495   2.873   0.555   3.432  0.2738 -0.1655 -0.3212
   88SLPC   C32 8496   3.110   0.527   3.462  0.0251  0.6654 -0.3420
   88SLPC   H2X 8497   3.189   0.583   3.407  0.7600 -0.0865 -0.0758
   88SLPC   H2Y 8498   3.128   0.417   3.460  0.1751  0.4948  3.3169
   88SLPC   C23 8499   2.845   0.233   3.543 -0.4937  0.5450 -0.3160
   88SLPC   H3R 8500   2.872   0.340   3.530  2.9526 -0.1439  0.2325
   88SLPC   H3S 8501   2.937   0.172   3.555  0.4366  2.1326  1.1054
   88SLPC   C24 8502   2.756   0.238   3.679  0.2024  0.0926  0.2858
   88SLPC   H4R 8503   2.733   0.134   3.710 -1.1638 -0.0998 -1.2181
   88SLPC   H4S 8504   2.661   0.287   3.648  0.6360  1.4746  1.0357
   88SLPC   C25 8505   2.827   0.320   3.788  0.1829  0.2442 -0.2060
   88SLPC   H5R 8506   2.823   0.426   3.756  0.8415  0.3672  0.0976
   88SLPC   H5S 8507   2.934   0.290   3.796  0.0512  0.0304  1.1592
   88SLPC   C26 8508   2.771   0.308   3.933 -0.1166 -0.6471  0.2420
   88SLPC   H6R 8509   2.780   0.205   3.973  0.7921 -0.5304  0.3422
   88SLPC   H6S 8510   2.663   0.330   3.920 -0.4065 -0.7767  2.1335
   88SLPC   C27 8511   2.805   0.411   4.037  0.4618  0.2880  0.3416
   88SLPC   H7R 8512   2.788   0.516   4.003 -1.6615 -0.8129 -2.3515
   88SLPC   H7S 8513   2.914   0.407   4.056  0.7638  2.2588 -0.7050
   88SLPC   C28 8514   2.721   0.392   4.164  0.8789  0.4049 -0.1626
   88SLPC   H8R 8515   2.617   0.400   4.126  0.9645 -0.0628 -0.5055
   88SLPC   H8S 8516   2.736   0.481   4.229 -0.1191  0.0615  0.5570
   88SLPC   C29 8517   2.748   0.262   4.239  0.2316  0.2861  0.4696
   88SLPC   H9R 8518   2.780   0.175   4.180  0.1163 -0.6416  1.7450
   88SLPC  C210 8519   2.728   0.248   4.369 -0.1740 -0.2263 -0.7898
   88SLPC  H10R 8520   2.733   0.145   4.409  0.8897  0.1648  0.1355
   88SLPC  C211 8521   2.674   0.349   4.471 -0.2683  0.1659  1.0784
   88SLPC  H11R 8522   2.627   0.443   4.433  1.8266  1.8368  2.3900
   88SLPC  H11S 8523   2.761   0.384   4.531 -0.5473 -0.1240  1.6541
   88SLPC  C212 8524   2.578   0.282   4.568 -0.4754 -0.2193 -0.2977
   88SLPC  H12R 8525   2.474   0.295   4.535 -1.8281 -1.1079  3.1348
   88SLPC  C213 8526   2.609   0.224   4.684  0.2012 -0.2647  0.1660
   88SLPC  H13R 8527   2.519   0.191   4.738 -0.0339 -0.3399 -0.2621
   88SLPC  C214 8528   2.746   0.195   4.739  0.5919 -0.7828 -0.6065
   88SLPC  H14R 8529   2.824   0.210   4.661 -0.3123  0.5585 -1.3039
   88SLPC  H14S 8530   2.765   0.089   4.763  2.3413 -0.1675  0.9764
   88SLPC  C215 8531   2.781   0.296   4.856  0.0194  0.5528  0.9786
   88SLPC  H15R 8532   2.774   0.401   4.820  0.8735 -0.2872 -1.9080
   88SLPC  H15S 8533   2.886   0.288   4.891  1.7951  2.5666 -3.2040
   88SLPC  C216 8534   2.695   0.274   4.977 -0.1951 -0.1540 -0.5810
   88SLPC  H16R 8535   2.590   0.302   4.956 -0.4909 -0.6707  0.1913
   88SLPC  H16S 8536   2.723   0.328   5.071  0.4369 -0.5400 -0.5374
   88SLPC  C217 8537   2.682   0.128   5.018  0.4147 -0.3951 -0.6443
   88SLPC  H17R 8538   2.783   0.083   5.031  0.5629 -0.1032 -0.7939
   88SLPC  H17S 8539   2.615   0.074   4.947  0.6254  0.8009 -1.7673
   88SLPC  C218 8540   2.607   0.101   5.153  0.2946 -0.2216 -0.5952
   88SLPC  H18R 8541   2.666   0.155   5.230 -0.1627  0.5828 -0.7959
   88SLPC  H18S 8542   2.601  -0.004   5.188 -0.3081  0.3115  1.0011
   88SLPC  H18T 8543   2.505   0.145   5.149  0.2894 -0.2966 -1.7289
   88SLPC   C33 8544   3.102   0.562   3.617  0.6887 -0.4236 -0.0624
   88SLPC   H3X 8545   3.029   0.494   3.666  0.4486 -0.4058 -0.3899
   88SLPC   H3Y 8546   3.053   0.659   3.637  0.1585 -1.1961  2.9076
   88SLPC   C34 8547   3.237   0.561   3.682  0.2126  0.1965  0.1363
   88SLPC   H4X 8548   3.313   0.637   3.655 -2.0591  2.9223  0.8238
   88SLPC   H4Y 8549   3.275   0.457   3.688 -1.8469 -0.6130  0.1234
   88SLPC   C35 8550   3.227   0.597   3.837  0.0799  0.0941  1.0332
   88SLPC   H5X 8551   3.190   0.504   3.886  0.0988 -0.4893 -0.0376
   88SLPC   H5Y 8552   3.149   0.675   3.848  1.8035  1.7215  2.4542
   88SLPC   C36 8553   3.362   0.646   3.888  0.5175  0.0552 -1.4076
   88SLPC   H6X 8554   3.391   0.745   3.846 -1.7790  2.2714  1.8327
   88SLPC   H6Y 8555   3.448   0.585   3.851  1.3979  0.8616 -0.7423
   88SLPC   C37 8556   3.378   0.669   4.040  0.0618  0.1020 -0.9941
   88SLPC   H7X 8557   3.484   0.683   4.069 -0.2905 -0.6105  0.8157
   88SLPC   H7Y 8558   3.345   0.575   4.091  2.6110 -0.0780  0.4716
   88SLPC   C38 8559   3.304   0.802   4.083 -0.0616 -0.3888 -0.0384
   88SLPC   H8X 8560   3.209   0.822   4.029  1.3460  0.4981 -2.3504
   88SLPC   H8Y 8561   3.373   0.887   4.066  0.8661 -0.6789  1.9558
   88SLPC   C39 8562   3.272   0.808   4.236 -0.9123 -0.3072  0.5408
   88SLPC   H9X 8563   3.289   0.912   4.274  0.7483 -0.1055 -0.6544
   88SLPC   H9Y 8564   3.343   0.738   4.284  0.5374 -0.2242 -1.3783
   88SLPC  C310 8565   3.126   0.771   4.245 -0.2504 -0.5016 -0.0450
   88SLPC  H10X 8566   3.101   0.689   4.174 -1.8581  0.7213 -0.9765
   88SLPC  H10Y 8567   3.067   0.855   4.202  0.0910  1.8043  3.6074
   88SLPC  C311 8568   3.083   0.732   4.381 -0.1599 -0.0137 -0.2492
   88SLPC  H11X 8569   3.159   0.671   4.436  0.5788 -0.2598 -1.5062
   88SLPC  H11Y 8570   3.002   0.656   4.373  0.6016 -0.6407 -3.1001
   88SLPC  C312 8571   3.037   0.848   4.468 -0.2036  0.6146 -0.3355
   88SLPC  H12X 8572   2.969   0.914   4.411 -3.1308 -2.8218 -1.1835
   88SLPC  H12Y 8573   3.128   0.904   4.496 -0.0275 -0.4498  1.4093
   88SLPC  C313 8574   2.977   0.807   4.603  0.2497 -0.0367  0.5841
   88SLPC  H13X 8575   3.043   0.735   4.656  0.4057 -0.2592  0.0931
   88SLPC  H13Y 8576   2.875   0.773   4.575  1.0435 -0.0015 -2.7990
   88SLPC  C314 8577   2.944   0.924   4.700  0.0725 -0.1521 -1.1791
   88SLPC  H14X 8578   2.874   0.994   4.649 -0.4907 -0.5649 -0.9794
   88SLPC  H14Y 8579   3.040   0.977   4.719  1.8352 -3.1808 -0.9269
   88SLPC  C315 8580   2.889   0.883   4.841  0.8975  0.5152  0.1398
   88SLPC  H15X 8581   2.962   0.820   4.895  3.3618  2.5475 -0.6214
   88SLPC  H15Y 8582   2.790   0.839   4.817  1.0569  1.5072 -2.7330
   88SLPC  C316 8583   2.863   1.004   4.931 -0.8342  0.5938  0.4353
   88SLPC  H16X 8584   2.807   1.083   4.875  0.4696  1.7771  0.7391
   88SLPC  H16Y 8585   2.962   1.055   4.943 -0.2011 -0.6702  0.7432
   88SLPC  C317 8586   2.821   0.975   5.074 -0.5518  0.2721  0.6863
   88SLPC  H17X 8587   2.874   0.886   5.114 -1.5199 -0.6077  0.0785
   88SLPC  H17Y 8588   2.715   0.939   5.068  0.6396 -3.7839  0.7633
   88SLPC  C318 8589   2.812   1.097   5.163 -0.3944 -0.1295  0.6861
   88SLPC  H18X 8590   2.898   1.164   5.138 -1.2759  0.4878 -0.8376
   88SLPC  H18Y 8591   2.815   1.068   5.270 -0.6578 -0.2966  0.6473
   88SLPC  H18Z 8592   2.719   1.153   5.139  0.1953  0.4582 -0.2784
   89SAPE     N 8593   0.122   1.507   6.942  0.0008  0.1850  0.3526
   89SAPE   HN1 8594   0.195   1.515   6.868  0.8314  1.2264  1.2410
   89SAPE   HN2 8595   0.138   1.583   7.012 -1.1283  1.1993 -0.4532
   89SAPE   HN3 8596   0.131   1.408   6.973 -1.4406 -1.3172 -3.3711
   89SAPE   C12 8597  -0.021   1.514   6.896 -0.7227 -0.2009  0.3691
   89SAPE  H12A 8598  -0.038   1.621   6.873 -2.1590 -0.1159  1.6172
   89SAPE  H12B 8599  -0.088   1.477   6.977 -1.0129 -2.5133 -0.8489
   89SAPE   C11 8600  -0.023   1.427   6.770  0.5795 -0.2439 -0.2190
   89SAPE  H11A 8601   0.039   1.472   6.689 -0.4696  0.1201 -0.8322
   89SAPE  H11B 8602  -0.121   1.438   6.719  0.4368  0.9395  0.2841
   89SAPE     P 8603  -0.082   1.186   6.852 -0.2532 -0.0899 -0.3897
   89SAPE   O13 8604  -0.021   1.134   6.975  0.1139  0.3639 -0.0997
   89SAPE   O14 8605  -0.218   1.245   6.876  0.5867 -0.9796  0.2876
   89SAPE   O12 8606   0.026   1.295   6.803 -0.4723  0.1492  0.9980
   89SAPE   O11 8607  -0.089   1.081   6.736 -0.5823  0.3673 -0.0329
   89SAPE    C1 8608   0.001   1.082   6.630 -0.2705 -0.5034 -1.0027
   89SAPE    HA 8609   0.099   1.131   6.651 -0.3803 -0.3495 -0.8551
   89SAPE    HB 8610   0.031   0.981   6.595  3.0034  0.2888 -0.7960
   89SAPE    C2 8611  -0.054   1.147   6.502 -0.1826 -0.6049  0.4853
   89SAPE    HS 8612  -0.074   1.251   6.535  0.8803 -0.1156 -0.3743
   89SAPE   O21 8613  -0.179   1.081   6.474 -0.3885 -0.2976  0.4771
   89SAPE   C21 8614  -0.268   1.146   6.407  0.5961  0.2558  0.8071
   89SAPE   O22 8615  -0.275   1.269   6.388  0.0557 -0.2423 -0.4367
   89SAPE   C22 8616  -0.356   1.041   6.344  0.2852  0.4480 -0.0195
   89SAPE   H2R 8617  -0.299   0.995   6.260  0.8625  3.1381 -1.2001
   89SAPE   H2S 8618  -0.377   0.960   6.417  0.5957 -0.0225 -0.4361
   89SAPE    C3 8619   0.034   1.137   6.377  0.6859 -0.4001  0.4905
   89SAPE    HX 8620   0.055   1.028   6.366  0.5427 -0.3068 -0.9215
   89SAPE    HY 8621   0.125   1.199   6.390 -1.5755  3.5162 -0.7834
   89SAPE   O31 8622  -0.030   1.184   6.253 -0.2395 -0.1291  0.2362
   89SAPE   C31 8623  -0.029   1.313   6.236 -0.7585  0.5436 -0.5282
   89SAPE   O32 8624   0.015   1.394   6.318 -0.1651 -0.5619 -0.1442
   89SAPE   C32 8625  -0.088   1.352   6.102 -0.1642  0.3022  0.4098
   89SAPE   H2X 8626  -0.077   1.462   6.089 -1.6938  0.5163  0.7236
   89SAPE   H2Y 8627  -0.197   1.332   6.115 -0.4200  1.3312 -0.0071
   89SAPE   C23 8628  -0.498   1.093   6.280  0.0465  0.5019 -0.4084
   89SAPE   H3R 8629  -0.557   1.135   6.364 -1.9406  0.8734 -1.9183
   89SAPE   H3S 8630  -0.556   1.007   6.240  2.6685 -0.5214 -2.3617
   89SAPE   C24 8631  -0.477   1.193   6.167  0.5795 -0.3942  0.2715
   89SAPE   H4R 8632  -0.417   1.151   6.083 -0.4657  1.3142 -1.4072
   89SAPE   H4S 8633  -0.419   1.281   6.200  0.9960  0.0054 -1.4275
   89SAPE   C25 8634  -0.601   1.254   6.111  0.2200  0.2514  0.3119
   89SAPE   H5R 8635  -0.682   1.262   6.185  1.2279  0.0392  1.4771
   89SAPE   C26 8636  -0.629   1.275   5.987 -0.1905  0.1338  0.2244
   89SAPE   H6R 8637  -0.720   1.333   5.963 -0.4483  0.0836  1.0350
   89SAPE   C27 8638  -0.544   1.244   5.869  0.5648 -0.5399  0.2035
   89SAPE   H7R 8639  -0.604   1.167   5.816  0.8194  0.4729 -1.6575
   89SAPE   H7S 8640  -0.448   1.193   5.894  0.0085 -2.7875 -1.8073
   89SAPE   C28 8641  -0.512   1.349   5.769  0.4123  0.4568 -0.2818
   89SAPE   H8R 8642  -0.521   1.449   5.814 -4.6360  0.3242 -0.4510
   89SAPE   C29 8643  -0.492   1.338   5.634  0.2164  0.6311  0.1400
   89SAPE   H9R 8644  -0.477   1.425   5.568 -0.9758 -0.2533 -1.3656
   89SAPE  C210 8645  -0.498   1.215   5.548  0.3545  0.0971  0.4562
   89SAPE  H10R 8646  -0.436   1.140   5.601  0.6205 -0.3487 -0.4495
   89SAPE  H10S 8647  -0.439   1.227   5.454  0.9442 -0.3767  0.7569
   89SAPE  C211 8648  -0.640   1.162   5.521 -0.3901 -0.1520  0.1726
   89SAPE  H11R 8649  -0.676   1.100   5.604  2.0807 -1.7967  0.1179
   89SAPE  C212 8650  -0.712   1.164   5.403 -0.9534  0.7688 -1.0298
   89SAPE  H12R 8651  -0.820   1.146   5.413 -0.9689  0.0900 -2.2912
   89SAPE  C213 8652  -0.664   1.229   5.283 -0.1872  0.8714  0.4132
   89SAPE  H13R 8653  -0.712   1.174   5.200 -0.3919 -0.3595  1.3281
   89SAPE  H13S 8654  -0.562   1.185   5.277 -0.6455 -0.1593  0.1189
   89SAPE  C214 8655  -0.661   1.381   5.265 -0.1256 -0.0368  0.4211
   89SAPE  H14R 8656  -0.690   1.445   5.350 -1.5005  2.7289 -1.9580
   89SAPE  C215 8657  -0.617   1.445   5.154  0.4124  0.5583  0.0708
   89SAPE  H15R 8658  -0.610   1.555   5.156  0.2818  0.5945 -0.8992
   89SAPE  C216 8659  -0.571   1.386   5.020 -0.2625  0.1063 -0.2127
   89SAPE  H16R 8660  -0.649   1.389   4.942 -0.9879 -2.5166  0.3067
   89SAPE  H16S 8661  -0.535   1.281   5.034  0.2725  0.5754  2.5779
   89SAPE  C217 8662  -0.449   1.456   4.951  0.6197 -0.6507  0.1813
   89SAPE  H17R 8663  -0.466   1.565   4.960 -2.4662 -0.9624 -0.6198
   89SAPE  H17S 8664  -0.425   1.430   4.846  0.2146 -1.4711  0.2853
   89SAPE  C218 8665  -0.323   1.429   5.026 -0.2644  0.2902 -0.1284
   89SAPE  H18R 8666  -0.315   1.319   5.033 -0.2007  0.2908 -0.1845
   89SAPE  H18S 8667  -0.337   1.463   5.131  0.5229  2.4273 -0.6480
   89SAPE  C219 8668  -0.191   1.490   4.959  0.1357  0.2898 -0.1469
   89SAPE  H19R 8669  -0.191   1.601   4.958  0.9664  0.3072 -2.1836
   89SAPE  H19S 8670  -0.169   1.460   4.854  1.7110 -0.3250  0.3302
   89SAPE  C220 8671  -0.071   1.455   5.039 -0.6036  0.1418 -0.5061
   89SAPE  H20R 8672  -0.075   1.497   5.141  0.6381 -0.2308 -0.2980
   89SAPE  H20S 8673   0.027   1.475   4.990  0.3348  0.6678  1.5008
   89SAPE  H20T 8674  -0.069   1.345   5.051 -1.1749  0.2786  1.0194
   89SAPE   C33 8675  -0.029   1.287   5.976 -0.3641  0.1421  0.1103
   89SAPE   H3X 8676  -0.041   1.177   5.984 -2.7963  0.2795 -0.7110
   89SAPE   H3Y 8677   0.080   1.307   5.975 -0.4432  0.6100 -1.1485
   89SAPE   C34 8678  -0.097   1.325   5.852  0.6488 -0.6805 -0.5600
   89SAPE   H4X 8679  -0.082   1.430   5.817 -1.2293 -0.1149  0.2141
   89SAPE   H4Y 8680  -0.206   1.321   5.871  0.4958  1.7963 -0.5546
   89SAPE   C35 8681  -0.046   1.235   5.735  0.3735  0.5496 -0.2498
   89SAPE   H5X 8682  -0.064   1.127   5.758 -0.2250  0.5202 -0.8183
   89SAPE   H5Y 8683   0.065   1.240   5.731  0.3630  0.6560 -0.3987
   89SAPE   C36 8684  -0.102   1.273   5.600 -0.0550 -0.2059 -0.0285
   89SAPE   H6X 8685  -0.073   1.379   5.586  1.5120 -0.5856  0.1534
   89SAPE   H6Y 8686  -0.213   1.263   5.598 -0.0104 -0.8448 -2.3666
   89SAPE   C37 8687  -0.035   1.200   5.485  0.0772  0.1844  0.0985
   89SAPE   H7X 8688  -0.026   1.093   5.513  1.0389 -0.1590 -1.4102
   89SAPE   H7Y 8689   0.066   1.242   5.467  0.4316 -0.6514  0.1254
   89SAPE   C38 8690  -0.115   1.221   5.351  0.6282  0.5809 -0.3415
   89SAPE   H8X 8691  -0.139   1.321   5.310 -2.8001 -0.2060 -0.5476
   89SAPE   H8Y 8692  -0.216   1.180   5.373  0.1843  1.3830 -0.8281
   89SAPE   C39 8693  -0.068   1.115   5.244  0.1084 -0.5716  0.4439
   89SAPE   H9X 8694  -0.139   1.115   5.159  0.8464  2.2001 -0.2545
   89SAPE   H9Y 8695  -0.077   1.015   5.293  1.4875 -1.8835 -1.8063
   89SAPE  C310 8696   0.075   1.138   5.200 -0.0471  0.4181  0.3613
   89SAPE  H10X 8697   0.148   1.114   5.280 -0.4953 -1.8982  0.1391
   89SAPE  H10Y 8698   0.098   1.243   5.171  3.5306 -0.8192 -1.8733
   89SAPE  C311 8699   0.108   1.048   5.074 -0.2124  0.7409 -0.0536
   89SAPE  H11X 8700   0.034   1.072   4.995 -0.7704  0.6789  0.4443
   89SAPE  H11Y 8701   0.089   0.941   5.098 -1.6047  0.5398 -1.8605
   89SAPE  C312 8702   0.256   1.053   5.033 -0.1020 -0.4581 -0.8764
   89SAPE  H12X 8703   0.289   0.962   4.979  2.3975 -1.9589  2.7542
   89SAPE  H12Y 8704   0.313   1.055   5.129 -0.3039 -2.0722 -0.6841
   89SAPE  C313 8705   0.293   1.180   4.953 -0.3000  0.6650 -0.5747
   89SAPE  H13X 8706   0.240   1.261   5.008 -0.1266 -1.0993  2.4002
   89SAPE  H13Y 8707   0.243   1.157   4.857  3.2338  0.8591 -2.6188
   89SAPE  C314 8708   0.445   1.209   4.944 -0.4256  0.0545 -0.2381
   89SAPE  H14X 8709   0.509   1.135   4.891  1.6864  1.9267 -0.4745
   89SAPE  H14Y 8710   0.470   1.201   5.052 -2.9818  0.5803  0.4537
   89SAPE  C315 8711   0.475   1.344   4.883  0.5379 -0.2455  0.0842
   89SAPE  H15X 8712   0.427   1.425   4.944 -0.5012 -1.3269  0.7497
   89SAPE  H15Y 8713   0.441   1.352   4.778 -0.2670  0.6453  0.3872
   89SAPE  C316 8714   0.622   1.368   4.887 -0.4168 -0.0338 -0.5907
   89SAPE  H16X 8715   0.636   1.448   4.811 -1.1958 -1.5014 -2.3478
   89SAPE  H16Y 8716   0.680   1.288   4.836  0.3469  1.1044 -1.5574
   89SAPE  C317 8717   0.674   1.398   5.032 -0.3625 -0.2969  0.0510
   89SAPE  H17X 8718   0.686   1.302   5.086 -1.5150 -1.5474 -1.7976
   89SAPE  H17Y 8719   0.603   1.465   5.085 -0.8861 -0.9281  0.1620
   89SAPE  C318 8720   0.810   1.453   5.023  1.0883 -0.0039 -0.1186
   89SAPE  H18X 8721   0.877   1.398   4.953 -0.0920 -0.8748 -0.6094
   89SAPE  H18Y 8722   0.865   1.464   5.119  1.6311 -0.4580 -0.3759
   89SAPE  H18Z 8723   0.809   1.554   4.976 -1.1991 -0.4802 -1.2215
   90SAPE     N 8724   6.780   0.597   6.753 -0.5238  0.3705  0.2775
   90SAPE   HN1 8725   6.811   0.630   6.847  1.6242  1.3854 -0.7247
   90SAPE   HN2 8726   6.759   0.686   6.703 -0.8827 -0.3216 -0.8262
   90SAPE   HN3 8727   6.691   0.544   6.765 -1.7101  1.9260 -1.1887
   90SAPE   C12 8728   6.897   0.514   6.689  0.2544  0.7606  0.4545
   90SAPE  H12A 8729   6.984   0.582   6.678 -0.9572  2.1073 -1.4621
   90SAPE  H12B 8730   6.857   0.491   6.588  3.3663  0.4506 -0.7952
   90SAPE   C11 8731   6.911   0.381   6.766  0.0509 -0.0072  0.1265
   90SAPE  H11A 8732   6.990   0.321   6.717  0.3746  2.2206 -2.3587
   90SAPE  H11B 8733   6.816   0.325   6.756 -0.3195  0.6521 -0.1311
   90SAPE     P 8734   7.063   0.497   6.954 -0.3523 -0.2230 -0.1101
   90SAPE   O13 8735   7.055   0.635   6.898  0.0458  0.0961 -0.0970
   90SAPE   O14 8736   7.055   0.491   7.100  0.7623 -0.3192 -0.2046
   90SAPE   O12 8737   6.945   0.404   6.899 -0.0471 -0.1928 -0.1131
   90SAPE   O11 8738   7.197   0.425   6.907 -0.2997 -0.4528  0.7806
   90SAPE    C1 8739   7.234   0.311   6.973 -0.2999  0.1349 -0.2928
   90SAPE    HA 8740   7.296   0.334   7.062  1.5029 -1.0418 -1.1680
   90SAPE    HB 8741   7.141   0.254   6.992 -0.8399  1.1234  0.0595
   90SAPE    C2 8742   7.327   0.230   6.875 -0.2422  0.1555 -0.3656
   90SAPE    HS 8743   7.426   0.281   6.877 -1.1053  2.0121 -1.5824
   90SAPE   O21 8744   7.267   0.230   6.748 -0.4102  0.0291 -0.2559
   90SAPE   C21 8745   7.352   0.248   6.643 -0.2637  0.0380 -0.8065
   90SAPE   O22 8746   7.472   0.258   6.659  0.9546  0.3560  0.1150
   90SAPE   C22 8747   7.271   0.231   6.516  0.4308 -0.8696 -0.5002
   90SAPE   H2R 8748   7.206   0.142   6.535  1.6927 -1.5521  0.7933
   90SAPE   H2S 8749   7.210   0.324   6.512  0.6152 -0.5760  1.8483
   90SAPE    C3 8750   7.337   0.086   6.931 -0.2689 -0.3717 -0.8486
   90SAPE    HX 8751   7.233   0.064   6.964 -0.4567  2.0195  0.3696
   90SAPE    HY 8752   7.405   0.083   7.019  0.2992  1.0438 -1.2090
   90SAPE   O31 8753   7.388   0.004   6.825 -0.2128 -0.1659 -0.5227
   90SAPE   C31 8754   7.412  -0.121   6.858  0.0135  1.0078 -0.4431
   90SAPE   O32 8755   7.391  -0.175   6.969  0.1486  0.0549  0.1816
   90SAPE   C32 8756   7.470  -0.198   6.740 -0.5688 -0.5318 -0.4458
   90SAPE   H2X 8757   7.461  -0.306   6.760 -1.8647 -0.5366 -0.9997
   90SAPE   H2Y 8758   7.575  -0.161   6.741 -1.6305  2.9053  0.6906
   90SAPE   C23 8759   7.357   0.208   6.390  0.1680 -0.8261  0.4362
   90SAPE   H3R 8760   7.417   0.117   6.411 -0.4321 -1.3724 -0.1722
   90SAPE   H3S 8761   7.426   0.293   6.371  0.5595 -1.3853 -0.7606
   90SAPE   C24 8762   7.280   0.188   6.255  0.0626  0.0489  0.3091
   90SAPE   H4R 8763   7.203   0.109   6.269  1.6200 -2.0248 -1.8259
   90SAPE   H4S 8764   7.356   0.145   6.186 -0.0340 -0.5949  0.5910
   90SAPE   C25 8765   7.234   0.321   6.203 -0.2002 -0.2916 -0.3052
   90SAPE   H5R 8766   7.202   0.388   6.284  0.0504 -0.1870 -0.2924
   90SAPE   C26 8767   7.247   0.363   6.075 -0.6622 -0.3335 -0.2168
   90SAPE   H6R 8768   7.197   0.458   6.049 -0.4494  0.5768  2.4343
   90SAPE   C27 8769   7.301   0.279   5.958  0.4889 -0.0549 -0.2866
   90SAPE   H7R 8770   7.339   0.180   5.991  0.4412  0.3124  0.9089
   90SAPE   H7S 8771   7.382   0.337   5.907 -0.2161  0.6423 -0.6274
   90SAPE   C28 8772   7.188   0.258   5.858  0.3705  0.0479 -0.4197
   90SAPE   H8R 8773   7.093   0.240   5.909  1.1814 -0.4824  0.9680
   90SAPE   C29 8774   7.191   0.241   5.725 -0.2919 -0.5236  0.4803
   90SAPE   H9R 8775   7.099   0.244   5.665 -0.1650 -0.3028  0.2960
   90SAPE  C210 8776   7.321   0.239   5.642  0.4261  0.2181 -0.1214
   90SAPE  H10R 8777   7.323   0.139   5.594 -0.9939 -0.7116  1.6202
   90SAPE  H10S 8778   7.409   0.224   5.709 -0.2537  1.6803  1.1836
   90SAPE  C211 8779   7.340   0.358   5.549 -0.3675 -0.3980  0.0256
   90SAPE  H11R 8780   7.356   0.453   5.601 -2.8405  0.2862 -0.3266
   90SAPE  C212 8781   7.327   0.357   5.420 -0.2441 -0.3731  1.1816
   90SAPE  H12R 8782   7.340   0.450   5.363  1.6517 -0.6950  1.0176
   90SAPE  C213 8783   7.305   0.233   5.333 -0.2815 -0.2296  0.6804
   90SAPE  H13R 8784   7.245   0.253   5.242 -2.6538  0.3394  2.2962
   90SAPE  H13S 8785   7.224   0.171   5.376  0.6027 -0.7931  1.5873
   90SAPE  C214 8786   7.416   0.140   5.297  0.1341 -0.2669 -0.7563
   90SAPE  H14R 8787   7.420   0.044   5.350  0.1034 -1.1975 -2.3737
   90SAPE  C215 8788   7.519   0.160   5.214 -0.1046  0.0780  0.5321
   90SAPE  H15R 8789   7.588   0.076   5.195 -0.2482 -0.0774  0.6940
   90SAPE  C216 8790   7.560   0.275   5.131  0.4567 -0.3892 -0.1196
   90SAPE  H16R 8791   7.546   0.366   5.193  2.5360  0.4227 -0.7407
   90SAPE  H16S 8792   7.512   0.273   5.031  1.0148  1.3953 -0.4592
   90SAPE  C217 8793   7.710   0.283   5.110 -0.0700 -0.6561  0.0591
   90SAPE  H17R 8794   7.761   0.270   5.208  0.4254 -0.0538 -0.1100
   90SAPE  H17S 8795   7.726   0.390   5.087  0.9359 -0.1575  2.6935
   90SAPE  C218 8796   7.781   0.190   5.013 -0.7959 -0.3880  0.1148
   90SAPE  H18R 8797   7.786   0.091   5.064 -2.6298 -0.0042  1.1684
   90SAPE  H18S 8798   7.883   0.224   4.989 -1.2997  0.6296 -0.6652
   90SAPE  C219 8799   7.700   0.148   4.891 -0.3753  0.0451  0.1553
   90SAPE  H19R 8800   7.662   0.236   4.835  0.0235 -0.9791 -1.8283
   90SAPE  H19S 8801   7.616   0.087   4.930 -2.3496  0.7114 -2.7220
   90SAPE  C220 8802   7.772   0.056   4.788  0.0588  0.7459 -1.0628
   90SAPE  H20R 8803   7.871   0.104   4.777  1.8925 -2.4021  0.2737
   90SAPE  H20S 8804   7.718   0.042   4.692 -2.0444 -0.9975  0.2564
   90SAPE  H20T 8805   7.795  -0.040   4.840 -0.6935  1.7802  1.3526
   90SAPE   C33 8806   7.412  -0.167   6.599 -0.3697  0.6861 -0.0604
   90SAPE   H3X 8807   7.414  -0.060   6.571 -3.4838  0.7595 -0.3184
   90SAPE   H3Y 8808   7.304  -0.193   6.601 -0.8583  2.5299  2.1382
   90SAPE   C34 8809   7.486  -0.247   6.492  0.1958  0.1654  0.5712
   90SAPE   H4X 8810   7.463  -0.356   6.497 -1.3753  0.4463 -0.0902
   90SAPE   H4Y 8811   7.596  -0.239   6.505  0.3292  2.8559 -1.4454
   90SAPE   C35 8812   7.439  -0.197   6.355 -0.1501 -0.0873  0.3764
   90SAPE   H5X 8813   7.455  -0.088   6.345  0.1491 -0.1345  0.2977
   90SAPE   H5Y 8814   7.329  -0.206   6.346 -0.0566 -2.2188  0.7302
   90SAPE   C36 8815   7.497  -0.284   6.232 -0.6427 -0.3144 -0.1217
   90SAPE   H6X 8816   7.475  -0.390   6.258 -1.0467 -0.7532 -2.1091
   90SAPE   H6Y 8817   7.607  -0.273   6.231 -0.8199  1.7155 -0.6919
   90SAPE   C37 8818   7.440  -0.226   6.107  0.3418 -0.2799  0.1334
   90SAPE   H7X 8819   7.485  -0.125   6.095  0.5683 -0.4729 -0.7253
   90SAPE   H7Y 8820   7.331  -0.208   6.120 -0.0769  0.7625 -3.6132
   90SAPE   C38 8821   7.468  -0.304   5.974  0.3704  0.1969 -0.0817
   90SAPE   H8X 8822   7.430  -0.404   6.004 -0.9548  1.2574  1.9517
   90SAPE   H8Y 8823   7.577  -0.310   5.954  0.5274 -2.7132  1.1283
   90SAPE   C39 8824   7.393  -0.261   5.846  0.1520  0.1455  0.0180
   90SAPE   H9X 8825   7.400  -0.150   5.836  0.4584  0.1347  0.0751
   90SAPE   H9Y 8826   7.284  -0.279   5.858 -0.6029  2.0305 -2.8886
   90SAPE  C310 8827   7.442  -0.339   5.732 -0.0786 -0.3005  0.4203
   90SAPE  H10X 8828   7.431  -0.449   5.745  0.8263 -0.4141  0.3172
   90SAPE  H10Y 8829   7.548  -0.318   5.707  0.4904 -0.4030  2.5657
   90SAPE  C311 8830   7.376  -0.312   5.591 -0.5179 -0.6337 -0.4573
   90SAPE  H11X 8831   7.349  -0.204   5.585  3.9229  0.8207  1.3125
   90SAPE  H11Y 8832   7.278  -0.364   5.584 -0.2715 -1.0463 -0.8504
   90SAPE  C312 8833   7.465  -0.335   5.468  0.4457 -0.2428  0.3625
   90SAPE  H12X 8834   7.500  -0.441   5.464 -0.2078 -0.6606  3.3911
   90SAPE  H12Y 8835   7.557  -0.274   5.468  0.0176  0.4111  0.9638
   90SAPE  C313 8836   7.389  -0.307   5.334  0.2926 -0.0987 -0.0985
   90SAPE  H13X 8837   7.367  -0.199   5.322  3.6288  1.1267  2.9706
   90SAPE  H13Y 8838   7.292  -0.362   5.336 -0.8843  1.8206 -1.0382
   90SAPE  C314 8839   7.467  -0.353   5.210  0.0769 -0.5348 -0.5708
   90SAPE  H14X 8840   7.489  -0.461   5.222  1.6601 -0.0520  1.2259
   90SAPE  H14Y 8841   7.565  -0.303   5.219 -1.0753  2.0128 -1.1810
   90SAPE  C315 8842   7.395  -0.307   5.083 -0.4686  0.1518 -0.3482
   90SAPE  H15X 8843   7.406  -0.197   5.086  1.0231  0.0657 -1.3606
   90SAPE  H15Y 8844   7.289  -0.332   5.102  0.2333 -0.8787  2.8319
   90SAPE  C316 8845   7.454  -0.366   4.952 -0.0920 -0.0864 -0.3623
   90SAPE  H16X 8846   7.491  -0.470   4.963  1.9285  0.6096 -0.1742
   90SAPE  H16Y 8847   7.544  -0.305   4.927  0.1117 -1.0133 -2.0177
   90SAPE  C317 8848   7.358  -0.372   4.825  0.4425  0.0611  0.2682
   90SAPE  H17X 8849   7.337  -0.266   4.799 -0.5633 -0.4514 -1.1299
   90SAPE  H17Y 8850   7.261  -0.417   4.854  0.2079 -0.8236 -1.7571
   90SAPE  C318 8851   7.415  -0.453   4.706  0.1949  0.0677  0.2748
   90SAPE  H18X 8852   7.417  -0.562   4.726 -0.4298 -0.1781 -0.8699
   90SAPE  H18Y 8853   7.516  -0.411   4.683  0.3681 -0.7141 -0.4530
   90SAPE  H18Z 8854   7.353  -0.445   4.613 -0.2037  0.8405  0.5980
   91SAPE     N 8855   5.066   2.994   7.365  0.8704  0.0215  0.6131
   91SAPE   HN1 8856   5.044   3.005   7.264  1.6834 -1.2601  0.2598
   91SAPE   HN2 8857   4.990   2.948   7.421  0.4422 -0.0257  0.0066
   91SAPE   HN3 8858   5.063   3.093   7.395  1.5151  1.5391 -3.6381
   91SAPE   C12 8859   5.194   2.918   7.381 -0.7564 -0.3784 -0.5110
   91SAPE  H12A 8860   5.182   2.818   7.335  1.0144 -1.3758  1.0744
   91SAPE  H12B 8861   5.219   2.907   7.488  2.0666  0.7876 -0.9533
   91SAPE   C11 8862   5.303   2.995   7.301 -0.1565 -0.8045 -0.5953
   91SAPE  H11A 8863   5.295   3.101   7.333  0.7455 -1.0508  0.5108
   91SAPE  H11B 8864   5.288   2.996   7.191 -0.2137  1.6124 -0.6335
   91SAPE     P 8865   5.532   2.857   7.240  0.3235  0.2655 -0.3307
   91SAPE   O13 8866   5.673   2.906   7.245 -0.1450  0.2158 -0.0529
   91SAPE   O14 8867   5.519   2.715   7.283  0.6134  0.1731  0.0704
   91SAPE   O12 8868   5.439   2.947   7.328 -0.0853 -0.2529  0.4305
   91SAPE   O11 8869   5.488   2.880   7.091  0.1699 -0.1805 -0.2313
   91SAPE    C1 8870   5.519   3.005   7.023  0.3255 -0.6068  0.5773
   91SAPE    HA 8871   5.428   3.013   6.961  2.4820  0.0377 -2.7461
   91SAPE    HB 8872   5.534   3.093   7.089 -0.1469 -1.2814  1.6334
   91SAPE    C2 8873   5.640   3.001   6.924  0.6441  0.1062  0.7098
   91SAPE    HS 8874   5.632   3.099   6.873  2.1034  0.2965  0.8105
   91SAPE   O21 8875   5.618   2.894   6.829  0.9123 -0.2805  0.4167
   91SAPE   C21 8876   5.550   2.915   6.719  0.0412 -0.6733  0.5735
   91SAPE   O22 8877   5.515   3.027   6.685  0.6873  0.1435 -0.0644
   91SAPE   C22 8878   5.518   2.784   6.636 -0.1879  0.3939  0.3219
   91SAPE   H2R 8879   5.614   2.732   6.614  0.5413  0.8396  2.2320
   91SAPE   H2S 8880   5.447   2.724   6.696 -0.8280  0.5399 -0.2809
   91SAPE    C3 8881   5.776   2.980   6.988  0.1442 -0.3112  0.2299
   91SAPE    HX 8882   5.783   2.878   7.032  0.5690 -0.6556 -0.6132
   91SAPE    HY 8883   5.800   3.056   7.066  1.0723  0.5003 -0.8125
   91SAPE   O31 8884   5.878   3.002   6.887 -0.2479  0.1596  0.3047
   91SAPE   C31 8885   5.955   2.898   6.859  0.0131 -0.6098  0.5166
   91SAPE   O32 8886   5.947   2.788   6.907 -0.4446  0.3799 -0.3142
   91SAPE   C32 8887   6.045   2.944   6.734 -0.4662  0.6341 -0.2044
   91SAPE   H2X 8888   6.101   2.855   6.699 -1.1712 -0.6455  1.7652
   91SAPE   H2Y 8889   6.118   3.009   6.787  0.5138 -2.5126  2.6665
   91SAPE   C23 8890   5.448   2.817   6.506  0.5788 -0.4000  0.4152
   91SAPE   H3R 8891   5.520   2.888   6.460  0.1907  0.4734  1.1119
   91SAPE   H3S 8892   5.357   2.878   6.526  0.9457  0.2547  0.1269
   91SAPE   C24 8893   5.414   2.701   6.418  0.2237  0.4398  0.2146
   91SAPE   H4R 8894   5.495   2.626   6.400  0.2335  0.2483  1.0166
   91SAPE   H4S 8895   5.383   2.747   6.322  2.4109  1.8635  0.1143
   91SAPE   C25 8896   5.305   2.619   6.476  0.3193 -0.0594 -0.2746
   91SAPE   H5R 8897   5.326   2.571   6.573  0.3115 -2.9504 -1.5906
   91SAPE   C26 8898   5.189   2.584   6.414 -0.0696 -0.2022  0.0393
   91SAPE   H6R 8899   5.119   2.527   6.477 -1.0173  1.2034  0.3152
   91SAPE   C27 8900   5.147   2.612   6.276  0.4301 -0.8622  0.3498
   91SAPE   H7R 8901   5.171   2.719   6.261  2.3549 -1.3144 -0.1274
   91SAPE   H7S 8902   5.039   2.587   6.267  0.1472  0.3428  0.3050
   91SAPE   C28 8903   5.219   2.543   6.159 -0.7924 -0.1296  0.1810
   91SAPE   H8R 8904   5.263   2.444   6.177 -0.3768 -0.1205 -0.7174
   91SAPE   C29 8905   5.243   2.598   6.039  0.3320 -0.3685 -0.7055
   91SAPE   H9R 8906   5.285   2.526   5.966 -1.9739 -2.3771 -0.1654
   91SAPE  C210 8907   5.200   2.730   5.988  0.0442  0.3008 -0.2083
   91SAPE  H10R 8908   5.131   2.780   6.060  1.5546 -0.3259  1.7560
   91SAPE  H10S 8909   5.142   2.703   5.897 -0.3542 -0.1581  0.1746
   91SAPE  C211 8910   5.309   2.828   5.955 -0.0337  0.5016 -0.1881
   91SAPE  H11R 8911   5.357   2.875   6.042  0.7796 -0.4435 -0.1206
   91SAPE  C212 8912   5.363   2.858   5.831 -0.0705 -0.4435 -0.3087
   91SAPE  H12R 8913   5.447   2.930   5.835 -0.1345 -0.3713 -0.2754
   91SAPE  C213 8914   5.341   2.804   5.694  0.5408  0.0857 -0.4691
   91SAPE  H13R 8915   5.286   2.708   5.702  1.3778 -0.5937 -2.3734
   91SAPE  H13S 8916   5.439   2.804   5.642  0.2413  0.8655 -1.0555
   91SAPE  C214 8917   5.244   2.881   5.613 -0.2328  0.0815  0.9304
   91SAPE  H14R 8918   5.142   2.848   5.637  0.0813 -0.4742  1.5524
   91SAPE  C215 8919   5.275   2.973   5.514  0.6209  0.1560 -0.0518
   91SAPE  H15R 8920   5.191   3.029   5.471  1.9416  0.6458 -2.1224
   91SAPE  C216 8921   5.420   3.003   5.480  0.6121 -0.9646 -0.8787
   91SAPE  H16R 8922   5.470   3.001   5.579 -1.9956 -1.4937  0.5311
   91SAPE  H16S 8923   5.420   3.105   5.436 -0.0466 -0.8782 -0.6991
   91SAPE  C217 8924   5.491   2.899   5.391  0.3073 -0.8776 -0.0186
   91SAPE  H17R 8925   5.476   2.796   5.429 -0.6302 -0.9569 -0.5849
   91SAPE  H17S 8926   5.601   2.912   5.397  0.1402  0.6988  0.0109
   91SAPE  C218 8927   5.440   2.917   5.249 -0.0970  0.0969  0.6258
   91SAPE  H18R 8928   5.439   3.021   5.212  0.1659  0.1539  0.7769
   91SAPE  H18S 8929   5.333   2.895   5.227 -0.1324  1.9257 -1.2856
   91SAPE  C219 8930   5.521   2.826   5.149 -0.1786  0.0542  0.3532
   91SAPE  H19R 8931   5.474   2.726   5.163 -0.3548 -0.1437 -1.4230
   91SAPE  H19S 8932   5.626   2.828   5.186 -0.4256 -0.9042  1.1512
   91SAPE  C220 8933   5.511   2.861   4.996  0.1698  0.2989 -0.3825
   91SAPE  H20R 8934   5.578   2.948   4.976  0.1430  0.2373 -0.7450
   91SAPE  H20S 8935   5.406   2.886   4.970  0.1449  0.6049 -0.0087
   91SAPE  H20T 8936   5.545   2.770   4.944 -1.7481  0.4441 -1.9955
   91SAPE   C33 8937   5.982   3.028   6.625 -0.1966  0.2033  0.8229
   91SAPE   H3X 8938   6.062   3.079   6.566 -1.0589  0.2652 -0.3252
   91SAPE   H3Y 8939   5.919   3.105   6.673 -0.8189  0.0660  0.2452
   91SAPE   C34 8940   5.896   2.949   6.525  0.0158 -0.6885  0.3085
   91SAPE   H4X 8941   5.816   2.895   6.579 -0.1800  1.0627  1.8712
   91SAPE   H4Y 8942   5.964   2.870   6.484  0.9524  0.9255 -1.3981
   91SAPE   C35 8943   5.838   3.034   6.406  0.9739 -1.0149  0.6334
   91SAPE   H5X 8944   5.922   3.097   6.369  1.6990 -0.8121  2.5189
   91SAPE   H5Y 8945   5.766   3.106   6.450  0.1230 -1.1679 -0.4466
   91SAPE   C36 8946   5.790   2.956   6.293  0.3601  0.6864 -0.1063
   91SAPE   H6X 8947   5.702   2.891   6.308  0.1384  0.1900 -2.9873
   91SAPE   H6Y 8948   5.874   2.885   6.274 -0.6306 -0.4477 -0.3746
   91SAPE   C37 8949   5.769   3.015   6.149  0.9205  0.5500 -0.0866
   91SAPE   H7X 8950   5.855   3.081   6.126  2.7357 -2.5364 -3.0570
   91SAPE   H7Y 8951   5.678   3.078   6.160 -1.4307 -2.5446 -0.3703
   91SAPE   C38 8952   5.760   2.922   6.029  0.3812  0.2226  0.6318
   91SAPE   H8X 8953   5.665   2.865   6.018  1.3347 -1.1592 -1.0021
   91SAPE   H8Y 8954   5.841   2.846   6.029  1.0202  0.8571  2.1010
   91SAPE   C39 8955   5.765   3.013   5.906 -0.0368 -0.3774 -1.0691
   91SAPE   H9X 8956   5.852   3.082   5.912 -1.7722  1.8703  2.6091
   91SAPE   H9Y 8957   5.682   3.088   5.909  1.0007  0.7887  0.4939
   91SAPE  C310 8958   5.767   2.934   5.776  0.3693 -0.2796 -0.5491
   91SAPE  H10X 8959   5.668   2.898   5.742 -0.1644  1.2647 -0.7142
   91SAPE  H10Y 8960   5.823   2.839   5.785 -0.0446 -0.4175  0.8890
   91SAPE  C311 8961   5.838   3.006   5.669 -0.6333 -0.8231  0.0512
   91SAPE  H11X 8962   5.868   2.944   5.582  0.7737 -0.4683  0.2636
   91SAPE  H11Y 8963   5.938   3.032   5.708 -0.6697 -0.3436 -0.1762
   91SAPE  C312 8964   5.774   3.131   5.614  0.0272  0.1862 -0.1579
   91SAPE  H12X 8965   5.736   3.196   5.696 -0.3168 -2.4421  1.9318
   91SAPE  H12Y 8966   5.688   3.105   5.549  0.3726 -2.3837  0.2946
   91SAPE  C313 8967   5.865   3.213   5.529 -0.4513 -0.7317 -0.1798
   91SAPE  H13X 8968   5.915   3.147   5.454 -2.2584 -2.1261 -0.2418
   91SAPE  H13Y 8969   5.932   3.277   5.590 -0.1353 -0.4064 -0.8554
   91SAPE  C314 8970   5.783   3.318   5.443 -0.3685 -0.1274  0.6845
   91SAPE  H14X 8971   5.792   3.420   5.485  0.6858  0.2656 -0.4223
   91SAPE  H14Y 8972   5.677   3.288   5.442  0.4084 -3.3661 -1.8394
   91SAPE  C315 8973   5.834   3.338   5.300  0.0071  0.6539  0.8847
   91SAPE  H15X 8974   5.944   3.349   5.304 -0.1057  1.6536  2.2440
   91SAPE  H15Y 8975   5.781   3.424   5.253 -0.9595 -1.8955 -3.1186
   91SAPE  C316 8976   5.801   3.216   5.215 -0.1205  0.1208  0.4555
   91SAPE  H16X 8977   5.695   3.202   5.244 -0.4117  1.3034  0.0291
   91SAPE  H16Y 8978   5.848   3.123   5.254  0.6784  0.5225  0.4824
   91SAPE  C317 8979   5.825   3.231   5.063  0.2213  0.9608  0.3565
   91SAPE  H17X 8980   5.933   3.214   5.047 -0.1602 -3.3908  1.2160
   91SAPE  H17Y 8981   5.789   3.332   5.033 -0.8437  0.8305  1.1577
   91SAPE  C318 8982   5.759   3.115   4.992 -0.1752 -0.2736  0.0380
   91SAPE  H18X 8983   5.649   3.134   4.990 -0.1440 -0.0998 -0.0219
   91SAPE  H18Y 8984   5.784   3.016   5.035 -0.9081 -0.8054 -0.7289
   91SAPE  H18Z 8985   5.797   3.114   4.888  0.4210 -0.6200  0.2525
   92SAPE     N 8986   6.094   4.213   7.324  0.5923 -0.6559 -0.4175
   92SAPE   HN1 8987   6.134   4.262   7.242 -1.3083  0.8299 -0.5470
   92SAPE   HN2 8988   6.062   4.285   7.392  0.3047 -1.9702  0.8896
   92SAPE   HN3 8989   6.168   4.159   7.372 -0.0339  1.7778  3.8237
   92SAPE   C12 8990   5.984   4.123   7.287 -0.0086  0.2115 -0.2406
   92SAPE  H12A 8991   6.015   4.065   7.198  1.1214  1.6964 -0.8461
   92SAPE  H12B 8992   5.888   4.178   7.281 -0.1237  0.1010  0.4454
   92SAPE   C11 8993   5.985   4.022   7.403 -0.2760  0.6911 -0.3106
   92SAPE  H11A 8994   5.901   3.951   7.384  0.1548  0.0599  0.0971
   92SAPE  H11B 8995   5.955   4.078   7.494 -1.7113  1.6214 -1.3133
   92SAPE     P 8996   6.118   3.800   7.472 -0.4490  0.2642 -0.4196
   92SAPE   O13 8997   6.260   3.775   7.513 -0.2076 -0.3336 -0.4777
   92SAPE   O14 8998   6.013   3.783   7.572  0.3395  0.2658 -0.2763
   92SAPE   O12 8999   6.109   3.952   7.426  0.2331  0.5046 -0.6020
   92SAPE   O11 9000   6.090   3.717   7.338  0.7085  0.0307 -0.2340
   92SAPE    C1 9001   6.159   3.759   7.221  0.5349 -0.0751  0.6005
   92SAPE    HA 9002   6.094   3.827   7.164 -1.7118 -0.9545  1.9753
   92SAPE    HB 9003   6.257   3.800   7.254  0.5942 -2.4126  3.8474
   92SAPE    C2 9004   6.208   3.638   7.135  0.8408 -0.5654  0.1470
   92SAPE    HS 9005   6.257   3.681   7.045 -0.1331 -0.1055 -0.1838
   92SAPE   O21 9006   6.097   3.554   7.082 -0.2310  0.5854 -0.4963
   92SAPE   C21 9007   6.019   3.615   7.002 -0.0177 -0.7052  0.0803
   92SAPE   O22 9008   6.050   3.721   6.950 -0.0094 -0.5678  0.2134
   92SAPE   C22 9009   5.897   3.542   6.970 -0.0069  0.0805 -0.4042
   92SAPE   H2R 9010   5.818   3.534   7.049  0.0527  0.6164 -0.2904
   92SAPE   H2S 9011   5.845   3.599   6.890  0.6894 -0.1392 -1.0267
   92SAPE    C3 9012   6.308   3.544   7.219  1.1397  0.1325 -0.1789
   92SAPE    HX 9013   6.252   3.511   7.309 -0.4449  0.0454 -1.1507
   92SAPE    HY 9014   6.395   3.599   7.259  0.6169  0.9742 -0.1704
   92SAPE   O31 9015   6.347   3.431   7.136  0.2419  0.0787 -0.0186
   92SAPE   C31 9016   6.280   3.321   7.167  0.0715  0.5950  0.0037
   92SAPE   O32 9017   6.209   3.310   7.264  0.9856 -0.7941 -0.3037
   92SAPE   C32 9018   6.317   3.214   7.059 -0.4283  0.4676 -0.1407
   92SAPE   H2X 9019   6.233   3.142   7.054  0.6393 -0.7149 -2.0583
   92SAPE   H2Y 9020   6.404   3.154   7.091 -0.8212 -1.7632 -2.8738
   92SAPE   C23 9021   5.928   3.395   6.937 -0.5227  0.6490 -0.4328
   92SAPE   H3R 9022   5.850   3.317   6.952  1.9273 -1.4313  2.8089
   92SAPE   H3S 9023   5.999   3.340   7.002  0.4177 -0.6424 -2.4514
   92SAPE   C24 9024   5.976   3.380   6.783 -0.7083 -0.2027 -0.2793
   92SAPE   H4R 9025   6.019   3.278   6.780  1.2071  0.5851 -0.5144
   92SAPE   H4S 9026   6.055   3.455   6.765  0.4789 -1.0297  1.1746
   92SAPE   C25 9027   5.865   3.398   6.686 -0.1492  0.0959  0.1772
   92SAPE   H5R 9028   5.769   3.369   6.730  1.1388 -1.3222  2.1910
   92SAPE   C26 9029   5.871   3.421   6.554  0.4871 -1.0306  0.1398
   92SAPE   H6R 9030   5.789   3.428   6.480  2.2282  4.1102 -1.7684
   92SAPE   C27 9031   6.004   3.446   6.485  0.4615  0.2716 -0.7814
   92SAPE   H7R 9032   6.040   3.348   6.447  1.4190  0.5446 -0.6001
   92SAPE   H7S 9033   6.085   3.462   6.559 -1.2804 -0.0658  1.2709
   92SAPE   C28 9034   5.999   3.551   6.378 -0.6985  0.3007  0.4362
   92SAPE   H8R 9035   5.951   3.645   6.408 -1.2196 -0.6143  2.5941
   92SAPE   C29 9036   6.042   3.528   6.248 -0.3950  0.2943  0.2174
   92SAPE   H9R 9037   6.033   3.602   6.168 -1.5803 -0.7623 -0.6687
   92SAPE  C210 9038   6.098   3.398   6.189 -0.3055  0.1355 -0.4968
   92SAPE  H10R 9039   6.012   3.340   6.149  0.4309 -1.4218  0.0950
   92SAPE  H10S 9040   6.150   3.327   6.255  1.0190 -0.9917 -2.6339
   92SAPE  C211 9041   6.198   3.417   6.080 -0.4511 -0.4206  0.1341
   92SAPE  H11R 9042   6.303   3.439   6.106 -0.7575 -0.7013  1.6612
   92SAPE  C212 9043   6.165   3.409   5.955 -0.2008 -0.2142  1.1201
   92SAPE  H12R 9044   6.250   3.407   5.886  0.5006  0.6469  1.9382
   92SAPE  C213 9045   6.025   3.393   5.889 -0.2258  0.7183  0.4369
   92SAPE  H13R 9046   5.945   3.343   5.948 -0.5569  0.4314 -0.2420
   92SAPE  H13S 9047   6.042   3.327   5.801 -2.2898  0.5737  0.0911
   92SAPE  C214 9048   5.969   3.529   5.856  0.9109  0.5054  0.3845
   92SAPE  H14R 9049   5.921   3.579   5.941  1.1709  1.0252  0.2305
   92SAPE  C215 9050   5.986   3.603   5.748 -0.0359 -0.2242 -0.1922
   92SAPE  H15R 9051   5.955   3.707   5.766 -0.7060 -0.6597  1.2518
   92SAPE  C216 9052   6.055   3.585   5.616 -0.1576  0.0687  0.1762
   92SAPE  H16R 9053   6.064   3.477   5.592 -1.6112 -0.0087 -0.0810
   92SAPE  H16S 9054   6.153   3.636   5.624 -0.4644  0.6876 -0.0140
   92SAPE  C217 9055   5.984   3.645   5.496 -0.1384  0.3151  0.3070
   92SAPE  H17R 9056   5.967   3.754   5.509 -0.6917  0.1745  0.8357
   92SAPE  H17S 9057   5.881   3.603   5.495 -0.3559  0.8105  0.9448
   92SAPE  C218 9058   6.053   3.601   5.364 -0.9689 -0.4746  0.9261
   92SAPE  H18R 9059   6.057   3.490   5.361 -1.2478 -0.4898  1.1307
   92SAPE  H18S 9060   6.155   3.644   5.376  0.3699 -3.0012 -0.4493
   92SAPE  C219 9061   6.000   3.659   5.229 -0.1242 -0.6068  0.5651
   92SAPE  H19R 9062   6.006   3.769   5.222 -0.7876 -0.5378  0.9669
   92SAPE  H19S 9063   5.892   3.632   5.231 -0.7238  1.2403 -2.1393
   92SAPE  C220 9064   6.074   3.598   5.109  0.5032 -0.1078  0.5298
   92SAPE  H20R 9065   6.015   3.609   5.015  0.8123  0.6686  0.4229
   92SAPE  H20S 9066   6.091   3.488   5.116  0.6016 -0.2519 -1.4343
   92SAPE  H20T 9067   6.176   3.639   5.096  0.7939 -1.0679 -0.3792
   92SAPE   C33 9068   6.343   3.259   6.915 -0.5757 -0.8238  0.3302
   92SAPE   H3X 9069   6.401   3.354   6.922  0.3326 -1.4515  1.7778
   92SAPE   H3Y 9070   6.241   3.279   6.876 -0.0515 -1.0243 -1.2589
   92SAPE   C34 9071   6.416   3.161   6.813  0.3072 -0.5730 -0.2549
   92SAPE   H4X 9072   6.343   3.082   6.784  2.0432 -2.9810  1.6144
   92SAPE   H4Y 9073   6.493   3.104   6.868  0.2796 -1.6220 -1.2644
   92SAPE   C35 9074   6.470   3.225   6.687 -0.1332  0.9036 -0.0457
   92SAPE   H5X 9075   6.516   3.148   6.622 -2.0052 -0.3640  0.0640
   92SAPE   H5Y 9076   6.550   3.299   6.709 -0.3027  0.4970  2.2373
   92SAPE   C36 9077   6.360   3.282   6.591 -0.1159  0.0242  0.5916
   92SAPE   H6X 9078   6.294   3.345   6.654 -0.3054 -0.0905  0.5107
   92SAPE   H6Y 9079   6.303   3.199   6.544  2.2197 -0.2749 -1.9765
   92SAPE   C37 9080   6.414   3.378   6.480 -0.1726  0.4232 -0.2111
   92SAPE   H7X 9081   6.457   3.463   6.539  0.4178 -1.1092  1.6614
   92SAPE   H7Y 9082   6.329   3.406   6.414  0.1032 -1.6019 -1.4696
   92SAPE   C38 9083   6.513   3.316   6.384 -0.2965 -0.6118  0.3044
   92SAPE   H8X 9084   6.464   3.229   6.335 -2.1979  0.8727 -0.5401
   92SAPE   H8Y 9085   6.605   3.288   6.440  0.6093  0.5025 -0.5644
   92SAPE   C39 9086   6.555   3.416   6.274 -0.4153 -0.1048 -0.2378
   92SAPE   H9X 9087   6.613   3.496   6.324 -1.1406 -0.0220  0.4866
   92SAPE   H9Y 9088   6.467   3.463   6.225 -0.8262 -0.3338  0.2804
   92SAPE  C310 9089   6.638   3.342   6.172 -0.0432  0.1851 -0.2711
   92SAPE  H10X 9090   6.590   3.255   6.122  2.2475 -0.8269 -0.8734
   92SAPE  H10Y 9091   6.724   3.294   6.223  0.7607  0.6721 -1.1298
   92SAPE  C311 9092   6.692   3.441   6.060  0.2763 -0.7411 -0.8290
   92SAPE  H11X 9093   6.775   3.393   6.002  2.3573 -0.4952  1.7602
   92SAPE  H11Y 9094   6.737   3.524   6.117  1.1947 -2.4576  1.0936
   92SAPE  C312 9095   6.577   3.496   5.974 -0.0424  0.4523  0.1822
   92SAPE  H12X 9096   6.522   3.571   6.034  0.5283  0.5094  0.6364
   92SAPE  H12Y 9097   6.504   3.415   5.953  0.2310  0.2585 -0.0345
   92SAPE  C313 9098   6.623   3.566   5.850 -0.5861 -1.1816  0.2584
   92SAPE  H13X 9099   6.721   3.609   5.880  0.6509 -2.4475 -1.6266
   92SAPE  H13Y 9100   6.547   3.639   5.817  0.2230 -0.5382 -0.2424
   92SAPE  C314 9101   6.654   3.470   5.735 -0.2061  0.2757 -0.2841
   92SAPE  H14X 9102   6.563   3.439   5.680  0.5450 -2.4773 -0.1496
   92SAPE  H14Y 9103   6.688   3.370   5.771 -0.9452  0.1411  0.0508
   92SAPE  C315 9104   6.750   3.525   5.630 -0.1379 -0.5618  0.3508
   92SAPE  H15X 9105   6.765   3.458   5.543  0.6873  1.1599 -0.8902
   92SAPE  H15Y 9106   6.849   3.525   5.682 -1.2322 -0.9398  2.5550
   92SAPE  C316 9107   6.697   3.664   5.576  0.0576 -0.1212 -0.1397
   92SAPE  H16X 9108   6.731   3.739   5.652 -1.8147  0.6944 -0.0465
   92SAPE  H16Y 9109   6.589   3.658   5.555 -0.0327  0.1114  0.2449
   92SAPE  C317 9110   6.764   3.714   5.447 -0.6174 -0.0825  0.2893
   92SAPE  H17X 9111   6.708   3.794   5.393  2.1250  2.5956  1.1013
   92SAPE  H17Y 9112   6.774   3.624   5.383  0.8713 -0.3281  0.8243
   92SAPE  C318 9113   6.906   3.767   5.472 -0.4335 -0.0183  0.2416
   92SAPE  H18X 9114   6.950   3.809   5.379 -1.7614 -2.5889 -1.6998
   92SAPE  H18Y 9115   6.966   3.676   5.494 -0.6376 -0.7563 -1.9650
   92SAPE  H18Z 9116   6.908   3.841   5.555  1.0857 -2.3236  2.3786
   93SAPE     N 9117   2.463   0.351   7.607  0.2290  0.2202 -0.0626
   93SAPE   HN1 9118   2.468   0.250   7.582  1.3156  0.5985 -1.5232
   93SAPE   HN2 9119   2.361   0.373   7.616 -0.3688 -2.2090 -0.2161
   93SAPE   HN3 9120   2.496   0.407   7.526 -0.2500  1.0601  0.3008
   93SAPE   C12 9121   2.552   0.385   7.712 -0.4258  0.4612 -0.3525
   93SAPE  H12A 9122   2.533   0.324   7.803 -0.0132 -0.1246 -0.6462
   93SAPE  H12B 9123   2.551   0.494   7.730  3.1843  0.5694  0.0019
   93SAPE   C11 9124   2.703   0.360   7.670  0.1457  0.9993  0.6166
   93SAPE  H11A 9125   2.729   0.253   7.686 -2.9806 -0.1842 -1.2600
   93SAPE  H11B 9126   2.764   0.425   7.736 -1.1046  2.1968  0.6263
   93SAPE     P 9127   2.838   0.355   7.446 -0.2476  0.1357  0.5624
   93SAPE   O13 9128   2.949   0.447   7.457  0.3357  0.8279 -0.0947
   93SAPE   O14 9129   2.864   0.210   7.471 -0.0046 -0.2722  0.3177
   93SAPE   O12 9130   2.715   0.399   7.529  0.3272  0.6109  0.2786
   93SAPE   O11 9131   2.788   0.347   7.299 -0.5304 -0.2312  0.1060
   93SAPE    C1 9132   2.737   0.462   7.229  0.3374 -0.1913  0.3626
   93SAPE    HA 9133   2.630   0.485   7.245  0.8533  2.4368  0.5329
   93SAPE    HB 9134   2.797   0.552   7.254 -1.7072  0.7823  1.9338
   93SAPE    C2 9135   2.761   0.433   7.079 -0.0170 -0.1973 -0.0502
   93SAPE    HS 9136   2.732   0.524   7.023 -0.2051 -1.5384 -2.2161
   93SAPE   O21 9137   2.691   0.313   7.033 -0.0095 -0.2347 -0.3210
   93SAPE   C21 9138   2.561   0.324   7.025  0.4990  0.5082  0.4884
   93SAPE   O22 9139   2.490   0.424   7.043  0.2958 -0.5340 -0.2967
   93SAPE   C22 9140   2.506   0.189   6.978 -0.2251 -0.6110  0.0836
   93SAPE   H2R 9141   2.544   0.167   6.876  0.7327 -1.0152  0.5202
   93SAPE   H2S 9142   2.536   0.115   7.055 -0.9742 -0.8594  0.1457
   93SAPE    C3 9143   2.916   0.411   7.054  0.3947 -0.3674  0.4365
   93SAPE    HX 9144   2.940   0.325   7.119 -0.5703 -0.1610  1.0927
   93SAPE    HY 9145   2.980   0.495   7.087  0.5051  0.3766 -1.5159
   93SAPE   O31 9146   2.937   0.379   6.912 -0.3018 -0.0869 -0.2742
   93SAPE   C31 9147   2.969   0.484   6.826  0.2229 -0.6333 -0.8219
   93SAPE   O32 9148   2.982   0.600   6.865  0.4081  0.2834  0.6887
   93SAPE   C32 9149   2.995   0.430   6.690 -0.3405  0.2413 -0.6883
   93SAPE   H2X 9150   2.901   0.376   6.663 -2.1444  3.2516 -0.9321
   93SAPE   H2Y 9151   3.083   0.363   6.687 -0.6067 -0.0865 -1.5535
   93SAPE   C23 9152   2.353   0.184   6.973 -0.0091 -0.5716 -0.2966
   93SAPE   H3R 9153   2.312   0.226   7.067  1.4058 -0.8406  0.4821
   93SAPE   H3S 9154   2.323   0.078   6.960 -1.6888 -0.0737 -0.6708
   93SAPE   C24 9155   2.285   0.268   6.866  1.1117  0.1253 -0.3425
   93SAPE   H4R 9156   2.307   0.375   6.889  2.7544 -0.4460  0.9661
   93SAPE   H4S 9157   2.176   0.257   6.882  1.3319  0.9012  2.3392
   93SAPE   C25 9158   2.323   0.226   6.722 -0.7470  0.5268 -0.4045
   93SAPE   H5R 9159   2.303   0.122   6.695  1.2066  0.5201 -1.9981
   93SAPE   C26 9160   2.375   0.305   6.632 -0.0783  0.1928  0.8705
   93SAPE   H6R 9161   2.405   0.251   6.541  1.7772  1.1182  0.8895
   93SAPE   C27 9162   2.407   0.450   6.650 -0.1189  0.5173  0.2603
   93SAPE   H7R 9163   2.509   0.458   6.695  0.1809  1.8512 -0.6034
   93SAPE   H7S 9164   2.336   0.500   6.719  0.0738 -0.5927  1.3030
   93SAPE   C28 9165   2.405   0.511   6.510 -0.2310 -0.5444 -0.5864
   93SAPE   H8R 9166   2.314   0.574   6.503  1.0761  1.5634  0.3933
   93SAPE   C29 9167   2.491   0.499   6.403  0.0248 -0.8434 -0.7617
   93SAPE   H9R 9168   2.464   0.554   6.312 -2.3156 -2.0423 -0.8647
   93SAPE  C210 9169   2.627   0.427   6.397  0.5622 -0.3357 -0.1876
   93SAPE  H10R 9170   2.615   0.343   6.469 -1.6641  0.4069  0.3956
   93SAPE  H10S 9171   2.717   0.482   6.433 -0.0822  2.2923 -2.3126
   93SAPE  C211 9172   2.661   0.375   6.260  0.4230  0.4185  0.1787
   93SAPE  H11R 9173   2.677   0.266   6.255 -0.4530  0.2418  0.8215
   93SAPE  C212 9174   2.677   0.442   6.139 -0.3866 -0.4151 -0.1095
   93SAPE  H12R 9175   2.703   0.374   6.057 -0.8357 -1.2690  0.4373
   93SAPE  C213 9176   2.663   0.588   6.110  0.1815  0.7061  0.3362
   93SAPE  H13R 9177   2.648   0.641   6.207  1.8419  1.3681  0.2763
   93SAPE  H13S 9178   2.569   0.593   6.051 -0.8846  1.4622  2.0260
   93SAPE  C214 9179   2.793   0.653   6.057 -0.2253  0.5493 -0.1874
   93SAPE  H14R 9180   2.871   0.669   6.134 -1.5185  1.9186  0.9067
   93SAPE  C215 9181   2.836   0.649   5.932  0.3010 -0.3285  0.3020
   93SAPE  H15R 9182   2.937   0.688   5.912  0.7731 -2.3727 -1.7793
   93SAPE  C216 9183   2.753   0.620   5.809 -0.1200 -0.4441 -0.3813
   93SAPE  H16R 9184   2.744   0.711   5.746  0.4427  1.1829  1.7805
   93SAPE  H16S 9185   2.651   0.588   5.841 -0.4432  0.0616 -0.8802
   93SAPE  C217 9186   2.823   0.512   5.723 -0.5007 -0.2918  0.4616
   93SAPE  H17R 9187   2.839   0.419   5.780  0.2340 -0.7965 -0.5442
   93SAPE  H17S 9188   2.926   0.543   5.695  0.7831 -3.8514  0.8085
   93SAPE  C218 9189   2.745   0.485   5.590  0.4125 -0.4936  0.3382
   93SAPE  H18R 9190   2.797   0.410   5.526 -1.2099 -0.3820 -1.1707
   93SAPE  H18S 9191   2.753   0.574   5.523  1.6334 -0.8415 -0.0150
   93SAPE  C219 9192   2.603   0.453   5.614  0.4014 -0.0048  0.5781
   93SAPE  H19R 9193   2.555   0.548   5.646 -1.6952 -0.2868 -1.4505
   93SAPE  H19S 9194   2.599   0.375   5.693  0.3001 -2.3681 -1.6166
   93SAPE  C220 9195   2.516   0.392   5.503  0.1805  0.0398 -0.2154
   93SAPE  H20R 9196   2.476   0.477   5.442 -0.0069  1.5867  1.9365
   93SAPE  H20S 9197   2.427   0.342   5.547 -0.0349  0.0178 -0.6684
   93SAPE  H20T 9198   2.571   0.318   5.441 -1.9568 -0.0603 -2.1304
   93SAPE   C33 9199   3.004   0.533   6.579 -0.0819  0.5358  0.0482
   93SAPE   H3X 9200   3.078   0.609   6.613  1.7898 -1.1260 -0.0913
   93SAPE   H3Y 9201   2.903   0.576   6.570 -0.4711 -0.0532  1.2908
   93SAPE   C34 9202   3.058   0.469   6.447 -0.0163  0.3222  0.1547
   93SAPE   H4X 9203   2.975   0.407   6.406 -0.3282  1.9144 -1.7481
   93SAPE   H4Y 9204   3.148   0.406   6.466  0.5656  0.8203 -0.8380
   93SAPE   C35 9205   3.083   0.593   6.356 -0.0654  1.0088 -0.1913
   93SAPE   H5X 9206   3.177   0.643   6.391  0.6659  0.7231 -1.6592
   93SAPE   H5Y 9207   2.995   0.660   6.365 -2.8875 -2.4085 -0.3199
   93SAPE   C36 9208   3.113   0.557   6.217 -0.2089 -0.4807  1.4018
   93SAPE   H6X 9209   3.019   0.525   6.168 -0.6763  2.2487  0.3655
   93SAPE   H6Y 9210   3.181   0.469   6.211 -1.1137 -1.0957 -2.0575
   93SAPE   C37 9211   3.183   0.670   6.125  0.1844  0.2283 -0.6455
   93SAPE   H7X 9212   3.283   0.687   6.169 -1.0963  1.0123  2.2169
   93SAPE   H7Y 9213   3.119   0.761   6.134 -0.9930 -0.6278 -0.0170
   93SAPE   C38 9214   3.198   0.621   5.979 -0.0261 -0.0586  0.0831
   93SAPE   H8X 9215   3.106   0.570   5.944 -1.3846 -0.1807  3.4177
   93SAPE   H8Y 9216   3.277   0.544   5.990  0.6913  0.7745  1.0395
   93SAPE   C39 9217   3.238   0.727   5.883  0.7715 -0.2726  0.2406
   93SAPE   H9X 9218   3.148   0.790   5.865 -0.2004 -1.7113 -0.0547
   93SAPE   H9Y 9219   3.260   0.671   5.790  1.6281  1.0659 -0.3998
   93SAPE  C310 9220   3.359   0.815   5.915 -0.0423  0.3819  0.2947
   93SAPE  H10X 9221   3.440   0.759   5.967 -0.1682  0.3039  0.4064
   93SAPE  H10Y 9222   3.317   0.890   5.986 -1.8919  1.1166 -1.4957
   93SAPE  C311 9223   3.411   0.893   5.790  0.3018 -0.2956  0.5326
   93SAPE  H11X 9224   3.340   0.973   5.760  1.4714  0.4363 -0.3863
   93SAPE  H11Y 9225   3.404   0.826   5.701 -0.0464  0.4229  0.0091
   93SAPE  C312 9226   3.559   0.935   5.802  0.0937 -0.7453 -0.1746
   93SAPE  H12X 9227   3.611   0.840   5.825  0.9476 -0.2899 -0.1909
   93SAPE  H12Y 9228   3.571   1.002   5.890  1.6240  0.2876 -1.1119
   93SAPE  C313 9229   3.625   1.005   5.687 -0.4503 -0.5303  0.9769
   93SAPE  H13X 9230   3.734   1.020   5.701  0.6732 -4.0726 -2.1286
   93SAPE  H13Y 9231   3.577   1.105   5.679  0.7919 -0.0589 -2.4809
   93SAPE  C314 9232   3.605   0.948   5.546  0.3783  0.2925  0.2299
   93SAPE  H14X 9233   3.497   0.922   5.533  0.3564  0.4807  0.0446
   93SAPE  H14Y 9234   3.665   0.857   5.526 -0.3234 -0.0612 -0.3192
   93SAPE  C315 9235   3.634   1.055   5.432 -0.4595  0.2401  0.1538
   93SAPE  H15X 9236   3.737   1.095   5.438 -0.2575 -0.2361 -0.1025
   93SAPE  H15Y 9237   3.571   1.143   5.459  0.6711  1.5776 -1.3682
   93SAPE  C316 9238   3.605   1.001   5.286 -0.1140  0.3126 -0.2333
   93SAPE  H16X 9239   3.598   1.080   5.209 -2.7112 -0.4903 -0.9383
   93SAPE  H16Y 9240   3.504   0.954   5.289  0.1438 -0.2608  3.2284
   93SAPE  C317 9241   3.724   0.917   5.223  0.1007 -0.0111 -0.1641
   93SAPE  H17X 9242   3.702   0.808   5.216  0.9986 -0.2252  0.3463
   93SAPE  H17Y 9243   3.803   0.933   5.299 -0.3214 -1.6972  0.6763
   93SAPE  C318 9244   3.780   0.962   5.084  0.1946 -0.8282  0.0942
   93SAPE  H18X 9245   3.851   0.883   5.053  0.8003  0.0212 -0.7438
   93SAPE  H18Y 9246   3.836   1.057   5.093  0.9007 -1.2595  0.3405
   93SAPE  H18Z 9247   3.698   0.968   5.009  0.1878  2.9562  0.2134
   94SAPE     N 9248   1.039   3.575   6.751 -0.5999  0.3227  0.3070
   94SAPE   HN1 9249   1.140   3.555   6.735  0.0122  1.6395  2.1570
   94SAPE   HN2 9250   1.008   3.523   6.836  1.8225 -0.5937  0.7276
   94SAPE   HN3 9251   0.992   3.553   6.662  0.4933  3.6268 -1.2371
   94SAPE   C12 9252   1.025   3.721   6.780  0.1392  0.5160  0.5643
   94SAPE  H12A 9253   1.033   3.777   6.685  0.4815  0.0095  0.2894
   94SAPE  H12B 9254   1.107   3.746   6.851 -1.0589  0.9796  1.8393
   94SAPE   C11 9255   0.888   3.741   6.856 -0.5491  0.4307  0.7386
   94SAPE  H11A 9256   0.855   3.846   6.872 -0.0820  0.8012 -0.6283
   94SAPE  H11B 9257   0.917   3.715   6.960 -1.4251 -1.7448  0.4885
   94SAPE     P 9258   0.689   3.698   6.686 -0.1343  0.1782  0.1734
   94SAPE   O13 9259   0.570   3.768   6.729  0.0211 -0.0961  0.2878
   94SAPE   O14 9260   0.774   3.761   6.591  0.1502  0.0813  0.1355
   94SAPE   O12 9261   0.777   3.669   6.817  0.2953 -0.1061  0.0809
   94SAPE   O11 9262   0.652   3.549   6.634  0.2270  0.4968  0.2191
   94SAPE    C1 9263   0.527   3.539   6.569 -0.0340  0.3245 -0.5250
   94SAPE    HA 9264   0.480   3.449   6.615 -1.6370  2.3272  2.0371
   94SAPE    HB 9265   0.455   3.620   6.592 -2.5733 -2.1037  0.8558
   94SAPE    C2 9266   0.543   3.507   6.416 -0.0518  0.6464  0.4958
   94SAPE    HS 9267   0.450   3.459   6.379  0.0009 -0.2740  1.5051
   94SAPE   O21 9268   0.651   3.410   6.388  0.0379 -0.3664 -0.8149
   94SAPE   C21 9269   0.626   3.286   6.422 -0.5492  0.0669 -0.4125
   94SAPE   O22 9270   0.527   3.241   6.478  0.5150 -0.0546  0.4371
   94SAPE   C22 9271   0.749   3.202   6.388 -0.0769 -0.5779 -0.1283
   94SAPE   H2R 9272   0.831   3.253   6.333  1.0594 -2.8492 -0.7114
   94SAPE   H2S 9273   0.785   3.180   6.491  1.4061 -0.5553 -0.6108
   94SAPE    C3 9274   0.553   3.641   6.335  0.3075 -0.8672  0.5556
   94SAPE    HX 9275   0.610   3.720   6.389 -2.6052  2.7448 -1.1941
   94SAPE    HY 9276   0.453   3.687   6.344  0.0506 -0.6622 -2.5135
   94SAPE   O31 9277   0.582   3.623   6.191 -0.3470  0.1811  0.4021
   94SAPE   C31 9278   0.713   3.602   6.165 -0.0428 -0.0959 -0.5682
   94SAPE   O32 9279   0.800   3.612   6.249  0.2807 -0.0599 -0.7051
   94SAPE   C32 9280   0.732   3.553   6.020 -0.3878  0.1036 -0.1469
   94SAPE   H2X 9281   0.832   3.590   5.987 -0.1340  0.4170  0.9229
   94SAPE   H2Y 9282   0.650   3.585   5.953  0.9563  1.6075 -1.1345
   94SAPE   C23 9283   0.699   3.070   6.325 -0.3464 -0.0576 -0.5292
   94SAPE   H3R 9284   0.625   3.017   6.390  2.0024 -1.3729  1.2576
   94SAPE   H3S 9285   0.796   3.017   6.320  2.3363  4.3997 -0.7156
   94SAPE   C24 9286   0.660   3.084   6.174  0.4380 -0.2094  0.0765
   94SAPE   H4R 9287   0.730   3.162   6.137 -0.8915  1.0509  0.1192
   94SAPE   H4S 9288   0.565   3.140   6.166 -0.3457 -1.4616  0.2970
   94SAPE   C25 9289   0.647   2.959   6.097 -0.0800 -0.3360  0.1021
   94SAPE   H5R 9290   0.573   2.891   6.141 -3.5238  3.3058  0.5980
   94SAPE   C26 9291   0.716   2.934   5.984  0.1836  0.3071  0.3159
   94SAPE   H6R 9292   0.684   2.842   5.933  2.7040 -1.4337  1.6942
   94SAPE   C27 9293   0.823   3.025   5.922  0.5898 -0.4417  1.0652
   94SAPE   H7R 9294   0.841   3.121   5.976 -0.4788  0.6158 -0.3901
   94SAPE   H7S 9295   0.797   3.049   5.817  2.0006 -0.4885  0.6795
   94SAPE   C28 9296   0.954   2.947   5.929  0.3737  0.4560 -0.5656
   94SAPE   H8R 9297   1.003   2.943   6.027 -0.8147  1.6470  0.1097
   94SAPE   C29 9298   1.017   2.896   5.824  0.1496 -0.0228 -0.5748
   94SAPE   H9R 9299   1.119   2.857   5.838  0.1984  1.1263  3.8841
   94SAPE  C210 9300   0.971   2.886   5.681  0.3739 -0.4757  0.1129
   94SAPE  H10R 9301   1.061   2.864   5.620 -0.1090 -1.0565 -0.4046
   94SAPE  H10S 9302   0.943   2.988   5.647  2.0937 -0.1014 -0.2391
   94SAPE  C211 9303   0.856   2.790   5.652 -0.4297  1.0141 -0.5355
   94SAPE  H11R 9304   0.792   2.750   5.731 -0.9430 -1.8414 -2.2612
   94SAPE  C212 9305   0.823   2.757   5.524 -0.7666  0.1603  0.1586
   94SAPE  H12R 9306   0.733   2.700   5.495 -0.6624 -0.2743  0.6824
   94SAPE  C213 9307   0.902   2.819   5.404  0.4147  0.3986 -0.2790
   94SAPE  H13R 9308   0.962   2.741   5.352  2.2108  0.9646  0.8436
   94SAPE  H13S 9309   0.980   2.893   5.432  1.4005 -1.3890  2.1231
   94SAPE  C214 9310   0.794   2.869   5.306 -1.0290 -0.5605 -0.3494
   94SAPE  H14R 9311   0.754   2.968   5.330  0.6025 -0.2201  1.1766
   94SAPE  C215 9312   0.742   2.795   5.215  0.9846 -0.3686  0.7530
   94SAPE  H15R 9313   0.674   2.842   5.142  0.9170  0.0651  1.0925
   94SAPE  C216 9314   0.769   2.651   5.194 -0.0767 -0.1795 -0.5653
   94SAPE  H16R 9315   0.826   2.614   5.283  1.0243 -1.6881 -1.8225
   94SAPE  H16S 9316   0.837   2.642   5.106  0.9787  0.2440  0.1783
   94SAPE  C217 9317   0.641   2.564   5.177  0.4253 -0.0055  0.3652
   94SAPE  H17R 9318   0.561   2.588   5.251 -0.8272 -0.3004 -0.8398
   94SAPE  H17S 9319   0.667   2.456   5.178 -2.0163 -0.7650 -2.6048
   94SAPE  C218 9320   0.563   2.581   5.039 -0.0054  0.6376  1.3340
   94SAPE  H18R 9321   0.480   2.654   5.052 -0.3434  0.5795 -0.2349
   94SAPE  H18S 9322   0.516   2.480   5.032  1.9565 -0.2317 -0.0540
   94SAPE  C219 9323   0.646   2.593   4.913  0.0498  0.0510  0.4417
   94SAPE  H19R 9324   0.738   2.531   4.924  0.5949  0.5812 -0.8084
   94SAPE  H19S 9325   0.675   2.700   4.902 -1.5185  0.3038 -2.0579
   94SAPE  C220 9326   0.569   2.559   4.782  0.1116 -0.1974 -0.2868
   94SAPE  H20R 9327   0.639   2.569   4.696  0.9974 -0.7595  0.3639
   94SAPE  H20S 9328   0.490   2.636   4.764 -0.5824 -0.5872  1.0192
   94SAPE  H20T 9329   0.522   2.459   4.784 -1.1534  0.3820 -0.1528
   94SAPE   C33 9330   0.712   3.403   6.013  0.4498 -0.7404  0.0299
   94SAPE   H3X 9331   0.618   3.368   6.061  0.6000 -2.0375 -0.5896
   94SAPE   H3Y 9332   0.788   3.341   6.066 -0.0863 -0.0888  1.6362
   94SAPE   C34 9333   0.701   3.354   5.873 -0.2544 -0.1169 -0.1647
   94SAPE   H4X 9334   0.616   3.409   5.826 -1.7685 -2.2014 -0.0261
   94SAPE   H4Y 9335   0.668   3.248   5.875 -0.9922  0.1119  0.5869
   94SAPE   C35 9336   0.823   3.377   5.775  0.0462  0.0140  0.4665
   94SAPE   H5X 9337   0.912   3.345   5.833 -0.2489  0.2066  1.0352
   94SAPE   H5Y 9338   0.847   3.485   5.768  0.7324 -0.0334  1.8498
   94SAPE   C36 9339   0.811   3.300   5.639 -0.3305 -0.2227  0.0391
   94SAPE   H6X 9340   0.727   3.348   5.584  1.3473  0.8890 -1.6511
   94SAPE   H6Y 9341   0.800   3.196   5.677 -0.4941  1.1629  4.3733
   94SAPE   C37 9342   0.942   3.321   5.559 -0.6831  0.5630 -0.8105
   94SAPE   H7X 9343   1.020   3.274   5.623  0.7490 -0.4203 -3.1859
   94SAPE   H7Y 9344   0.957   3.431   5.566  0.0582  0.4081  0.4651
   94SAPE   C38 9345   0.959   3.257   5.423 -0.2580 -0.5982  0.1882
   94SAPE   H8X 9346   0.885   3.310   5.359  2.1640  1.2158 -1.3300
   94SAPE   H8Y 9347   0.933   3.150   5.428 -1.3783 -0.4047 -1.0286
   94SAPE   C39 9348   1.094   3.277   5.360 -0.2415  0.6250  0.0328
   94SAPE   H9X 9349   1.172   3.234   5.427  0.1259  2.3030  0.7311
   94SAPE   H9Y 9350   1.118   3.385   5.369  0.9915  0.3923 -0.2380
   94SAPE  C310 9351   1.106   3.229   5.217 -0.1844  0.8712 -0.4285
   94SAPE  H10X 9352   1.212   3.204   5.195 -0.1480  1.3399 -0.8059
   94SAPE  H10Y 9353   1.070   3.305   5.144  0.0340  1.6166  0.2238
   94SAPE  C311 9354   1.030   3.105   5.188 -0.2712 -0.4423 -0.2847
   94SAPE  H11X 9355   0.922   3.122   5.208 -0.2150  0.5230 -0.7483
   94SAPE  H11Y 9356   1.075   3.023   5.248 -0.5628 -0.0951  0.4310
   94SAPE  C312 9357   1.034   3.055   5.038 -0.1558  0.5220  0.4710
   94SAPE  H12X 9358   1.072   3.136   4.972 -2.5605  0.4940 -1.0715
   94SAPE  H12Y 9359   0.932   3.031   5.003 -0.2941  0.7482  0.7249
   94SAPE  C313 9360   1.119   2.924   5.030  1.0736 -0.4108 -0.9584
   94SAPE  H13X 9361   1.073   2.835   5.079  0.7472  0.2129 -0.1128
   94SAPE  H13Y 9362   1.218   2.944   5.076  0.2890  2.5588 -0.4071
   94SAPE  C314 9363   1.149   2.871   4.893  0.3025 -0.0446 -0.3727
   94SAPE  H14X 9364   1.196   2.771   4.902 -2.4611 -1.2607  1.7134
   94SAPE  H14Y 9365   1.221   2.936   4.838 -1.2788 -0.6358 -3.3379
   94SAPE  C315 9366   1.026   2.836   4.803 -0.0101  0.3366 -0.1981
   94SAPE  H15X 9367   0.970   2.930   4.788 -1.2273 -0.5539 -1.4238
   94SAPE  H15Y 9368   0.972   2.766   4.871  0.3648 -0.2750 -0.5215
   94SAPE  C316 9369   1.057   2.782   4.663  0.5043 -0.1713  0.5594
   94SAPE  H16X 9370   1.152   2.823   4.624  2.2389 -1.9794  2.6095
   94SAPE  H16Y 9371   0.984   2.814   4.585 -0.8878 -2.7418  0.6877
   94SAPE  C317 9372   1.069   2.623   4.657 -0.0437 -0.0660  0.3356
   94SAPE  H17X 9373   0.972   2.576   4.684  0.4661 -1.2543  0.1297
   94SAPE  H17Y 9374   1.149   2.593   4.728  0.5431  2.5947  0.9226
   94SAPE  C318 9375   1.104   2.557   4.524  0.0071 -0.5319  1.0858
   94SAPE  H18X 9376   1.155   2.464   4.556  0.9196  0.6024  3.1585
   94SAPE  H18Y 9377   1.180   2.620   4.474 -1.1274 -0.1002 -0.1543
   94SAPE  H18Z 9378   1.015   2.542   4.459  0.9297 -1.2111 -0.0604
   95SAPE     N 9379   5.718   1.155   7.460 -0.1896  0.5727 -0.0338
   95SAPE   HN1 9380   5.818   1.128   7.475 -0.8414 -1.6775  0.7102
   95SAPE   HN2 9381   5.656   1.094   7.516 -0.3437  0.8483  0.0948
   95SAPE   HN3 9382   5.700   1.145   7.358  1.7821  0.9591 -0.4591
   95SAPE   C12 9383   5.685   1.296   7.488  0.1801 -0.0118  0.1457
   95SAPE  H12A 9384   5.736   1.351   7.406 -1.4242  1.3892  0.0498
   95SAPE  H12B 9385   5.723   1.319   7.590  0.6022 -0.5823  0.1253
   95SAPE   C11 9386   5.531   1.320   7.475 -0.2921 -0.0035 -0.3301
   95SAPE  H11A 9387   5.517   1.413   7.534  0.2449 -0.4625  0.5501
   95SAPE  H11B 9388   5.466   1.241   7.517  0.8673 -0.9202 -0.2015
   95SAPE     P 9389   5.384   1.433   7.303  0.2459  0.1512  0.1515
   95SAPE   O13 9390   5.263   1.407   7.377  0.2722  0.5392  0.6102
   95SAPE   O14 9391   5.435   1.568   7.329 -0.3162  0.4832  0.6104
   95SAPE   O12 9392   5.489   1.319   7.341  0.6134 -0.0644 -0.3611
   95SAPE   O11 9393   5.357   1.415   7.143 -0.4752 -0.5112 -0.5178
   95SAPE    C1 9394   5.458   1.412   7.047  0.3075  0.3475  0.2389
   95SAPE    HA 9395   5.454   1.506   6.988  1.6291 -0.9281 -2.0795
   95SAPE    HB 9396   5.558   1.410   7.095 -0.5006 -0.1448  1.9841
   95SAPE    C2 9397   5.441   1.293   6.941  0.3821 -0.0479 -0.3783
   95SAPE    HS 9398   5.478   1.204   6.997 -0.0312 -1.2790 -1.9795
   95SAPE   O21 9399   5.521   1.317   6.828 -1.0161  0.0320  0.3722
   95SAPE   C21 9400   5.659   1.302   6.838 -0.0786 -0.0558 -0.3577
   95SAPE   O22 9401   5.709   1.287   6.944 -0.1448  0.6679 -1.2260
   95SAPE   C22 9402   5.729   1.314   6.699  0.3338  0.0304 -0.5177
   95SAPE   H2R 9403   5.840   1.313   6.704  0.3638  0.6102 -0.9470
   95SAPE   H2S 9404   5.688   1.228   6.642  0.9637 -0.3021 -0.4761
   95SAPE    C3 9405   5.299   1.277   6.893  0.5810 -0.3492  0.3417
   95SAPE    HX 9406   5.259   1.364   6.837  0.1305 -1.0642 -0.4768
   95SAPE    HY 9407   5.233   1.263   6.981  0.8298  0.1735  0.6160
   95SAPE   O31 9408   5.291   1.155   6.810 -0.3972 -0.1424  0.5428
   95SAPE   C31 9409   5.172   1.115   6.765 -0.0319 -0.4216  0.4412
   95SAPE   O32 9410   5.068   1.183   6.783 -0.1818 -0.0123  0.0061
   95SAPE   C32 9411   5.175   0.994   6.678  0.3897  0.2171  0.2725
   95SAPE   H2X 9412   5.074   0.989   6.631 -0.4713 -1.8646  2.1766
   95SAPE   H2Y 9413   5.208   0.911   6.744 -4.1481 -1.8936  0.2472
   95SAPE   C23 9414   5.682   1.446   6.625  0.2795  0.2610 -0.2849
   95SAPE   H3R 9415   5.700   1.541   6.680  0.5757  0.4875 -0.7617
   95SAPE   H3S 9416   5.573   1.429   6.609  0.2127 -2.8768  2.3471
   95SAPE   C24 9417   5.745   1.460   6.486 -0.7392 -0.0064  0.0647
   95SAPE   H4R 9418   5.853   1.449   6.507 -1.1042 -1.7680  1.1649
   95SAPE   H4S 9419   5.731   1.568   6.461  1.2549  0.5328  1.0392
   95SAPE   C25 9420   5.706   1.361   6.381 -0.3547  1.1563 -0.8329
   95SAPE   H5R 9421   5.771   1.274   6.367  3.0266  2.9700  1.9183
   95SAPE   C26 9422   5.610   1.383   6.297  0.8569 -0.2173  0.2669
   95SAPE   H6R 9423   5.594   1.320   6.208 -1.9173  1.7676 -0.7753
   95SAPE   C27 9424   5.523   1.505   6.281 -0.3211 -0.1384  0.1251
   95SAPE   H7R 9425   5.594   1.590   6.274  1.7423 -1.7820  0.1201
   95SAPE   H7S 9426   5.467   1.520   6.376  0.8355  4.0029  0.3147
   95SAPE   C28 9427   5.430   1.524   6.166  1.2418 -0.2638 -0.2915
   95SAPE   H8R 9428   5.354   1.445   6.157  0.9717 -0.1948  1.1742
   95SAPE   C29 9429   5.443   1.607   6.063  0.0300 -0.5466  0.1395
   95SAPE   H9R 9430   5.364   1.604   5.987 -1.5720  0.1999  1.7156
   95SAPE  C210 9431   5.548   1.714   6.038 -0.4408 -0.1616  0.2371
   95SAPE  H10R 9432   5.636   1.663   5.993 -0.1952  1.0004 -0.6429
   95SAPE  H10S 9433   5.575   1.750   6.140 -3.8228 -0.7168  1.4808
   95SAPE  C211 9434   5.488   1.825   5.959  0.1554 -0.1096  0.1614
   95SAPE  H11R 9435   5.452   1.905   6.026  0.3633 -0.2672  0.4613
   95SAPE  C212 9436   5.477   1.835   5.824 -1.2312  0.4389 -0.0819
   95SAPE  H12R 9437   5.468   1.932   5.773  0.4795  1.3098  1.1731
   95SAPE  C213 9438   5.530   1.728   5.733  0.0788 -0.3514  0.5168
   95SAPE  H13R 9439   5.566   1.633   5.777 -1.7277 -1.2297  0.2214
   95SAPE  H13S 9440   5.627   1.760   5.689  0.1370 -0.5324  0.5117
   95SAPE  C214 9441   5.428   1.697   5.631  0.8522  0.2354  0.2950
   95SAPE  H14R 9442   5.377   1.599   5.633  0.7700  0.2792  1.6427
   95SAPE  C215 9443   5.397   1.759   5.516  0.3108 -0.1955 -0.0107
   95SAPE  H15R 9444   5.312   1.722   5.456 -0.0883 -1.0573  1.0649
   95SAPE  C216 9445   5.461   1.891   5.474  0.5322 -0.4473  0.0331
   95SAPE  H16R 9446   5.543   1.874   5.401  0.8852  0.7806  0.1283
   95SAPE  H16S 9447   5.496   1.948   5.562  1.5556 -0.6277 -0.2532
   95SAPE  C217 9448   5.360   1.989   5.412  0.0625 -0.7334  0.5753
   95SAPE  H17R 9449   5.390   2.092   5.444 -0.0386  0.3891 -2.5895
   95SAPE  H17S 9450   5.256   1.979   5.451 -0.6011 -4.2909 -1.6375
   95SAPE  C218 9451   5.356   1.981   5.255  0.3608  0.0141  0.0502
   95SAPE  H18R 9452   5.316   1.881   5.230  0.0460  0.2196 -0.2875
   95SAPE  H18S 9453   5.458   1.984   5.211  0.4223 -1.5638  0.0198
   95SAPE  C219 9454   5.262   2.095   5.197 -0.5007 -0.6633 -0.0087
   95SAPE  H19R 9455   5.278   2.103   5.088  1.1245 -1.7624  0.1312
   95SAPE  H19S 9456   5.300   2.191   5.240  0.5239 -0.7683 -0.6686
   95SAPE  C220 9457   5.115   2.087   5.232  0.2220  0.8102 -0.0819
   95SAPE  H20R 9458   5.105   2.045   5.335 -0.6900 -1.4764 -1.0278
   95SAPE  H20S 9459   5.071   2.006   5.170  0.9071 -0.7991  1.4133
   95SAPE  H20T 9460   5.051   2.176   5.217 -2.3478 -0.5573  1.8258
   95SAPE   C33 9461   5.276   1.004   6.562  0.0253 -0.5473  0.1893
   95SAPE   H3X 9462   5.279   0.902   6.519 -0.7562 -0.8916  0.9325
   95SAPE   H3Y 9463   5.377   1.021   6.605  0.3816 -2.0583  0.0030
   95SAPE   C34 9464   5.236   1.099   6.452 -0.0304 -0.0074  0.6792
   95SAPE   H4X 9465   5.236   1.201   6.496 -0.1173 -0.2560  1.2610
   95SAPE   H4Y 9466   5.135   1.082   6.407  0.9467  1.3615 -2.2912
   95SAPE   C35 9467   5.346   1.109   6.339 -0.1585 -0.2982 -1.2358
   95SAPE   H5X 9468   5.399   1.011   6.343  0.6641  0.1638  2.0790
   95SAPE   H5Y 9469   5.421   1.187   6.363  0.8084 -0.7114 -2.7621
   95SAPE   C36 9470   5.293   1.149   6.195  0.8017 -0.2311 -0.4513
   95SAPE   H6X 9471   5.253   1.251   6.215 -0.6362 -1.2378  2.3521
   95SAPE   H6Y 9472   5.203   1.085   6.182 -0.2504  1.0291  0.3949
   95SAPE   C37 9473   5.381   1.138   6.077  0.2753  0.1501  0.0016
   95SAPE   H7X 9474   5.392   1.030   6.053  0.8361  0.0145  0.8209
   95SAPE   H7Y 9475   5.483   1.175   6.103  0.8371 -2.6502  2.2837
   95SAPE   C38 9476   5.336   1.223   5.964 -0.3439  0.4333 -0.2875
   95SAPE   H8X 9477   5.292   1.318   6.001  1.0927  0.7411  0.6820
   95SAPE   H8Y 9478   5.251   1.173   5.912  0.8855 -0.7897 -1.1705
   95SAPE   C39 9479   5.447   1.251   5.863 -0.7639  0.7620 -0.0198
   95SAPE   H9X 9480   5.509   1.162   5.839  2.4978  2.8595  0.0349
   95SAPE   H9Y 9481   5.515   1.319   5.918 -0.6013  0.2236  0.4601
   95SAPE  C310 9482   5.398   1.315   5.742  0.0975  0.1993  0.1387
   95SAPE  H10X 9483   5.479   1.370   5.691 -0.0727 -0.5002 -0.9232
   95SAPE  H10Y 9484   5.322   1.391   5.769  0.3986  0.3410  0.5966
   95SAPE  C311 9485   5.346   1.224   5.633 -0.6246 -0.6807  0.1651
   95SAPE  H11X 9486   5.246   1.186   5.661 -1.8449  1.5118 -0.9325
   95SAPE  H11Y 9487   5.418   1.140   5.634  0.9892  0.6124  2.4571
   95SAPE  C312 9488   5.341   1.297   5.495  0.2467  0.2434 -0.6073
   95SAPE  H12X 9489   5.443   1.329   5.464  0.9876  0.3435  1.6799
   95SAPE  H12Y 9490   5.273   1.379   5.524 -1.5183 -0.8840 -1.3842
   95SAPE  C313 9491   5.290   1.214   5.382  0.7810 -0.3699  1.0095
   95SAPE  H13X 9492   5.342   1.117   5.372  1.9087  0.1554  1.6165
   95SAPE  H13Y 9493   5.312   1.273   5.291 -1.2184 -1.0921 -0.0217
   95SAPE  C314 9494   5.137   1.187   5.389 -0.0042 -0.0914  0.3229
   95SAPE  H14X 9495   5.083   1.280   5.416 -0.4002 -1.0403  3.2051
   95SAPE  H14Y 9496   5.112   1.114   5.468  2.9572 -1.1179  0.4530
   95SAPE  C315 9497   5.094   1.145   5.249 -0.5246  0.4661 -0.0913
   95SAPE  H15X 9498   5.149   1.056   5.212 -2.6091 -1.2887  0.8607
   95SAPE  H15Y 9499   5.122   1.232   5.185 -1.2184 -0.0419 -1.1026
   95SAPE  C316 9500   4.942   1.114   5.225 -0.3037  0.3273 -0.2480
   95SAPE  H16X 9501   4.919   1.084   5.121 -1.3194  0.9726 -0.2241
   95SAPE  H16Y 9502   4.879   1.204   5.238 -1.7041 -0.7675  0.9742
   95SAPE  C317 9503   4.878   1.009   5.330  0.4728 -0.0132  0.3800
   95SAPE  H17X 9504   4.887   1.057   5.430  0.1615 -2.9951  1.9741
   95SAPE  H17Y 9505   4.942   0.918   5.321  0.3715 -0.0106 -0.4108
   95SAPE  C318 9506   4.732   0.968   5.325 -0.1968 -0.0424  0.1260
   95SAPE  H18X 9507   4.738   0.877   5.389  1.8713 -0.4567 -0.5736
   95SAPE  H18Y 9508   4.692   0.941   5.225 -1.6418  1.9863  0.0982
   95SAPE  H18Z 9509   4.678   1.053   5.371  1.0765 -0.0847  1.8153
   96SAPE     N 9510   0.349   3.920   7.034 -0.0527 -0.4488 -0.2589
   96SAPE   HN1 9511   0.322   3.852   6.960 -2.2013 -0.6236  0.6355
   96SAPE   HN2 9512   0.261   3.976   7.033 -2.0739 -3.3810 -1.4936
   96SAPE   HN3 9513   0.424   3.989   7.012 -0.4122 -0.1372 -0.5367
   96SAPE   C12 9514   0.352   3.857   7.172  0.4823 -0.2235  0.3330
   96SAPE  H12A 9515   0.434   3.782   7.169  1.1714  0.5133 -2.1063
   96SAPE  H12B 9516   0.247   3.830   7.198  0.6550 -1.5660 -0.2511
   96SAPE   C11 9517   0.398   3.963   7.278  0.0598 -0.2615 -0.2615
   96SAPE  H11A 9518   0.406   3.917   7.379 -0.7069 -0.2147 -0.1731
   96SAPE  H11B 9519   0.325   4.047   7.287  1.8253  1.4319 -0.8988
   96SAPE     P 9520   0.557   4.151   7.185 -0.0295  0.1987 -0.0494
   96SAPE   O13 9521   0.466   4.256   7.229  0.0718 -0.2425  0.0304
   96SAPE   O14 9522   0.701   4.173   7.194 -0.0537  0.6579 -0.2908
   96SAPE   O12 9523   0.530   4.015   7.248 -0.3061  0.8583  0.0981
   96SAPE   O11 9524   0.526   4.126   7.037 -0.4323  0.0793 -0.1856
   96SAPE    C1 9525   0.608   4.089   6.928  0.2565  0.4183 -0.4597
   96SAPE    HA 9526   0.715   4.108   6.953 -0.4309  1.2581  2.1198
   96SAPE    HB 9527   0.595   3.979   6.918  3.1864 -0.2140  1.4520
   96SAPE    C2 9528   0.557   4.161   6.800  0.2039 -0.6394  0.2092
   96SAPE    HS 9529   0.583   4.268   6.817 -2.4938  0.3542 -1.3192
   96SAPE   O21 9530   0.415   4.139   6.785 -0.5572 -0.4554  0.4540
   96SAPE   C21 9531   0.353   4.237   6.722 -0.9695  0.4163  0.0625
   96SAPE   O22 9532   0.395   4.352   6.714  0.1871 -0.2442 -0.1485
   96SAPE   C22 9533   0.216   4.191   6.674  0.1252 -0.2195  0.1064
   96SAPE   H2R 9534   0.195   4.088   6.709  0.8641 -0.4719 -0.1749
   96SAPE   H2S 9535   0.138   4.255   6.720  1.1373  1.4468 -0.3996
   96SAPE    C3 9536   0.641   4.116   6.672  0.1733 -0.2339  0.2262
   96SAPE    HX 9537   0.605   4.016   6.641  2.7139 -0.2398 -3.3240
   96SAPE    HY 9538   0.748   4.108   6.701 -0.1531 -2.0381  1.0460
   96SAPE   O31 9539   0.609   4.201   6.558  0.1731 -0.1268  0.4115
   96SAPE   C31 9540   0.672   4.319   6.556 -0.3743 -0.1070 -0.1806
   96SAPE   O32 9541   0.753   4.358   6.637 -0.3546  0.2326  0.0069
   96SAPE   C32 9542   0.617   4.393   6.435 -0.1989 -0.3984  0.4111
   96SAPE   H2X 9543   0.524   4.448   6.460 -1.1695 -1.4129 -0.8247
   96SAPE   H2Y 9544   0.581   4.321   6.358 -2.3199  0.6585  0.3260
   96SAPE   C23 9545   0.210   4.194   6.522 -0.2891 -0.0438  0.4848
   96SAPE   H3R 9546   0.222   4.298   6.483 -0.4942 -0.0261  0.4680
   96SAPE   H3S 9547   0.110   4.160   6.490 -1.2936 -0.5532  3.7694
   96SAPE   C24 9548   0.315   4.118   6.441  0.6186 -0.2548 -0.2218
   96SAPE   H4R 9549   0.340   4.035   6.511  0.1417  0.3208  0.6499
   96SAPE   H4S 9550   0.405   4.183   6.434  2.1136 -2.2632 -0.9024
   96SAPE   C25 9551   0.280   4.076   6.304 -0.0517  0.0587  0.3832
   96SAPE   H5R 9552   0.174   4.060   6.279  0.2568 -1.3129 -0.1903
   96SAPE   C26 9553   0.363   4.058   6.204 -0.5666 -0.6206 -0.6241
   96SAPE   H6R 9554   0.328   4.012   6.111 -0.0729 -0.4293 -0.9061
   96SAPE   C27 9555   0.520   4.069   6.217 -0.3278  0.6457  0.0016
   96SAPE   H7R 9556   0.553   3.963   6.227 -0.0463  0.8257  1.2554
   96SAPE   H7S 9557   0.559   4.114   6.311  0.8062 -0.7792  0.2449
   96SAPE   C28 9558   0.568   4.135   6.095  0.4362  0.4308 -0.5982
   96SAPE   H8R 9559   0.549   4.244   6.089 -0.2245  0.3645  0.1453
   96SAPE   C29 9560   0.631   4.081   5.989 -1.0623 -0.4689 -0.4557
   96SAPE   H9R 9561   0.658   4.148   5.905 -0.8134  1.0806  0.7978
   96SAPE  C210 9562   0.670   3.935   5.971 -0.5697  0.3003  0.4415
   96SAPE  H10R 9563   0.632   3.906   5.871  0.3695 -0.1016  0.1926
   96SAPE  H10S 9564   0.624   3.860   6.039  0.9126 -1.6240 -0.5861
   96SAPE  C211 9565   0.819   3.924   5.990  0.1135 -0.3369 -0.0100
   96SAPE  H11R 9566   0.860   3.968   6.082  0.4469 -2.2318  0.7908
   96SAPE  C212 9567   0.905   3.859   5.910  0.5247 -0.6153 -0.1437
   96SAPE  H12R 9568   1.008   3.858   5.948  0.9144  0.3766 -1.1077
   96SAPE  C213 9569   0.876   3.793   5.775  0.7545  0.3373 -0.4356
   96SAPE  H13R 9570   0.840   3.882   5.719 -0.3012  0.4357  0.3566
   96SAPE  H13S 9571   0.795   3.717   5.783  1.3434 -0.2313  0.2660
   96SAPE  C214 9572   0.988   3.730   5.700 -0.0523  1.0905 -0.0447
   96SAPE  H14R 9573   1.032   3.637   5.738 -1.9549  0.4028  0.6139
   96SAPE  C215 9574   1.036   3.778   5.586  0.1279  0.0432 -0.4048
   96SAPE  H15R 9575   1.127   3.727   5.554  1.1515  1.2794  0.4345
   96SAPE  C216 9576   1.009   3.909   5.515  0.2264 -0.8527 -0.4460
   96SAPE  H16R 9577   0.948   3.970   5.584 -1.1606 -0.6040 -1.8277
   96SAPE  H16S 9578   0.936   3.893   5.433 -1.2779  0.7145  0.5188
   96SAPE  C217 9579   1.132   3.996   5.467  0.4812  0.1565  0.1190
   96SAPE  H17R 9580   1.095   4.089   5.418  1.5523 -0.0495 -1.1364
   96SAPE  H17S 9581   1.176   3.946   5.378  0.0637 -0.5232  0.2890
   96SAPE  C218 9582   1.231   4.015   5.578 -0.2590 -0.0452 -0.3308
   96SAPE  H18R 9583   1.250   3.922   5.636  2.1504  0.3097 -0.4437
   96SAPE  H18S 9584   1.183   4.091   5.644  0.7673 -0.2642  0.7137
   96SAPE  C219 9585   1.363   4.075   5.527  0.2216 -0.1518 -0.9022
   96SAPE  H19R 9586   1.413   4.009   5.453  0.8204 -1.6119  0.7214
   96SAPE  H19S 9587   1.442   4.084   5.605  0.2334  2.3003 -1.1362
   96SAPE  C220 9588   1.341   4.216   5.477  0.4369 -0.2997 -0.1534
   96SAPE  H20R 9589   1.434   4.266   5.440 -1.2802  2.1753 -1.3882
   96SAPE  H20S 9590   1.295   4.273   5.559 -0.9277 -0.7024 -0.6186
   96SAPE  H20T 9591   1.266   4.210   5.395 -0.2251 -0.8027  0.4835
   96SAPE   C33 9592   0.722   4.489   6.364  0.1091 -0.1051 -0.1901
   96SAPE   H3X 9593   0.813   4.432   6.337 -0.5112 -1.5686  0.6897
   96SAPE   H3Y 9594   0.756   4.571   6.430 -4.4557  2.0349 -0.0909
   96SAPE   C34 9595   0.664   4.546   6.238  0.3627  0.6387 -0.0887
   96SAPE   H4X 9596   0.574   4.608   6.261  0.3181  1.0991 -1.4320
   96SAPE   H4Y 9597   0.626   4.469   6.168 -2.0645  0.9569  0.7739
   96SAPE   C35 9598   0.764   4.632   6.154  0.0638 -0.7358  0.7101
   96SAPE   H5X 9599   0.850   4.569   6.121  2.3736  1.8388  1.4262
   96SAPE   H5Y 9600   0.794   4.723   6.210 -1.8937  0.9319 -0.7804
   96SAPE   C36 9601   0.701   4.681   6.021  0.4472 -0.3456  1.0360
   96SAPE   H6X 9602   0.609   4.738   6.045  0.9706  0.8105  0.3757
   96SAPE   H6Y 9603   0.663   4.591   5.969  0.3178 -0.4092  1.2404
   96SAPE   C37 9604   0.791   4.760   5.921  0.8451 -0.2309 -0.3415
   96SAPE   H7X 9605   0.874   4.691   5.894  1.0031 -0.5096  0.8071
   96SAPE   H7Y 9606   0.823   4.854   5.970  0.6711  0.7229 -1.9995
   96SAPE   C38 9607   0.710   4.802   5.794  0.3040  0.2500  0.1064
   96SAPE   H8X 9608   0.619   4.853   5.833 -0.8630 -1.0609 -0.8346
   96SAPE   H8Y 9609   0.668   4.717   5.737  1.1354 -0.8503  1.0732
   96SAPE   C39 9610   0.785   4.891   5.692  0.0923  0.1827 -0.2827
   96SAPE   H9X 9611   0.868   4.820   5.669 -1.6898 -0.9942 -3.7928
   96SAPE   H9Y 9612   0.806   4.984   5.749  0.7346  0.1464 -0.4483
   96SAPE  C310 9613   0.696   4.919   5.567 -0.3447  0.1776 -0.0642
   96SAPE  H10X 9614   0.642   4.825   5.541 -1.5789  0.9130 -0.2354
   96SAPE  H10Y 9615   0.751   4.956   5.478 -1.3189  2.2769  0.1342
   96SAPE  C311 9616   0.591   5.023   5.605 -0.9523  0.5659  0.5230
   96SAPE  H11X 9617   0.631   5.123   5.630  0.2518  0.2114  0.0822
   96SAPE  H11Y 9618   0.548   4.984   5.700 -3.1105  1.6573  0.0406
   96SAPE  C312 9619   0.479   5.042   5.496 -0.1098 -0.1920  0.5528
   96SAPE  H12X 9620   0.377   5.030   5.537 -1.5073 -0.6474 -2.7662
   96SAPE  H12Y 9621   0.495   4.957   5.426  1.2381  1.1657 -0.8924
   96SAPE  C313 9622   0.498   5.158   5.400 -0.3722 -0.2364 -0.0630
   96SAPE  H13X 9623   0.450   5.138   5.302 -0.4513 -1.6546  0.2445
   96SAPE  H13Y 9624   0.606   5.164   5.371 -0.8050  4.9459 -1.5970
   96SAPE  C314 9625   0.445   5.295   5.445  0.5318 -0.0666  0.0851
   96SAPE  H14X 9626   0.501   5.336   5.532 -0.0341  0.8434  0.0341
   96SAPE  H14Y 9627   0.339   5.299   5.479  0.2237  1.6687 -0.9429
   96SAPE  C315 9628   0.454   5.400   5.340 -0.0712 -0.7194 -0.0895
   96SAPE  H15X 9629   0.401   5.379   5.244 -1.4022 -0.2296  0.5055
   96SAPE  H15Y 9630   0.561   5.418   5.318  0.1806  0.0563  1.6535
   96SAPE  C316 9631   0.419   5.540   5.385  0.0073 -0.5586  0.5340
   96SAPE  H16X 9632   0.476   5.566   5.477 -0.0861  0.8468  0.2090
   96SAPE  H16Y 9633   0.315   5.518   5.418 -0.0370 -0.2048  0.6233
   96SAPE  C317 9634   0.432   5.653   5.276 -0.2288  0.3097  0.2424
   96SAPE  H17X 9635   0.382   5.744   5.316  0.5248  1.2674 -0.8811
   96SAPE  H17Y 9636   0.371   5.619   5.190  2.3632 -0.8262 -1.2706
   96SAPE  C318 9637   0.574   5.690   5.228 -0.3410  0.6297 -0.6486
   96SAPE  H18X 9638   0.632   5.739   5.309 -1.2852  2.5084 -1.0372
   96SAPE  H18Y 9639   0.559   5.750   5.135  0.2884 -0.0266 -1.1817
   96SAPE  H18Z 9640   0.616   5.593   5.195 -0.3829  0.0531  0.9325
   97SAPE     N 9641   1.836   5.994   7.312  0.1151 -0.1083 -0.9083
   97SAPE   HN1 9642   1.869   5.933   7.234  2.2884 -0.3864  0.1631
   97SAPE   HN2 9643   1.884   5.976   7.402  1.0892  0.4349 -1.2957
   97SAPE   HN3 9644   1.735   5.976   7.324  0.2144 -0.9316 -1.2269
   97SAPE   C12 9645   1.836   6.143   7.276 -0.1076  0.9859  0.4487
   97SAPE  H12A 9646   1.938   6.152   7.232 -0.4071 -0.1762 -0.5400
   97SAPE  H12B 9647   1.823   6.205   7.366 -0.1078  0.3646  0.8828
   97SAPE   C11 9648   1.736   6.175   7.161  0.1349 -0.5462  0.0034
   97SAPE  H11A 9649   1.746   6.099   7.080  4.5217 -1.5704  1.1915
   97SAPE  H11B 9650   1.764   6.276   7.125  1.5411  0.2729  3.0336
   97SAPE     P 9651   1.497   6.077   7.223 -0.1714  0.0206 -0.0977
   97SAPE   O13 9652   1.552   5.956   7.286  0.6570 -0.2463  0.2883
   97SAPE   O14 9653   1.381   6.142   7.282 -0.1177 -0.0113 -0.1118
   97SAPE   O12 9654   1.606   6.190   7.217 -0.7943  0.0552  0.0978
   97SAPE   O11 9655   1.466   6.052   7.075 -0.5809 -0.2830  0.6427
   97SAPE    C1 9656   1.428   6.158   6.986 -0.0177  0.1190 -0.1590
   97SAPE    HA 9657   1.318   6.170   6.982  0.0079 -0.0019 -1.9288
   97SAPE    HB 9658   1.475   6.255   7.011 -0.4644  0.8260 -1.9096
   97SAPE    C2 9659   1.457   6.127   6.837 -0.4337  0.3419 -0.2880
   97SAPE    HS 9660   1.411   6.205   6.773 -0.5521 -1.0782 -1.9900
   97SAPE   O21 9661   1.413   5.993   6.819  1.4457  0.0190  0.4493
   97SAPE   C21 9662   1.363   5.968   6.695  0.2565 -0.3169  0.0422
   97SAPE   O22 9663   1.369   6.051   6.606 -0.3219 -0.0111  0.0437
   97SAPE   C22 9664   1.298   5.831   6.689 -0.2400  0.1632 -0.1339
   97SAPE   H2R 9665   1.294   5.784   6.790  0.8843 -0.3506 -0.3112
   97SAPE   H2S 9666   1.194   5.849   6.654  0.3349  3.2427 -0.5695
   97SAPE    C3 9667   1.612   6.137   6.801  0.3701  0.2020 -0.0588
   97SAPE    HX 9668   1.658   6.078   6.882 -0.4405 -0.7429 -0.2704
   97SAPE    HY 9669   1.647   6.241   6.818 -0.0319  0.4015 -0.4255
   97SAPE   O31 9670   1.644   6.071   6.672  0.3899 -0.4118  0.2690
   97SAPE   C31 9671   1.651   6.159   6.569 -0.2097  0.4963 -0.0885
   97SAPE   O32 9672   1.636   6.278   6.573  0.1022 -0.1597 -0.4984
   97SAPE   C32 9673   1.664   6.068   6.443  0.4418  0.1877 -0.2225
   97SAPE   H2X 9674   1.615   5.975   6.478  0.0398  1.1893  2.0774
   97SAPE   H2Y 9675   1.769   6.033   6.434 -0.6296 -3.3374 -0.5810
   97SAPE   C23 9676   1.378   5.737   6.602 -0.1855 -0.0265  0.1087
   97SAPE   H3R 9677   1.348   5.635   6.633 -0.5647  0.9178  3.2196
   97SAPE   H3S 9678   1.488   5.739   6.621 -0.4066 -0.3532  1.5581
   97SAPE   C24 9679   1.337   5.756   6.455  0.0803  0.3970 -0.3636
   97SAPE   H4R 9680   1.367   5.856   6.417  1.7122  0.6833  1.4961
   97SAPE   H4S 9681   1.227   5.752   6.441  0.0426  1.6158 -0.5086
   97SAPE   C25 9682   1.407   5.648   6.377  0.1944  0.0922  0.2826
   97SAPE   H5R 9683   1.504   5.623   6.421  0.0604 -0.2602  0.3747
   97SAPE   C26 9684   1.391   5.610   6.252  0.0792  0.4433 -0.3219
   97SAPE   H6R 9685   1.460   5.530   6.221 -1.2820 -1.3885  1.1479
   97SAPE   C27 9686   1.267   5.624   6.163 -0.1208 -0.6770 -0.3388
   97SAPE   H7R 9687   1.282   5.702   6.086  0.1779  0.2802  0.6591
   97SAPE   H7S 9688   1.181   5.654   6.226  1.4025  1.2743  0.9620
   97SAPE   C28 9689   1.228   5.494   6.096 -0.6033  0.4147  0.6214
   97SAPE   H8R 9690   1.181   5.424   6.166  0.8404  0.2243  1.4352
   97SAPE   C29 9691   1.242   5.467   5.960  0.1997 -0.5593  0.3245
   97SAPE   H9R 9692   1.208   5.371   5.918  0.9828 -0.9051  0.4658
   97SAPE  C210 9693   1.310   5.559   5.856 -0.2334 -0.9803  0.2229
   97SAPE  H10R 9694   1.347   5.487   5.780 -0.1637  0.4820 -1.1741
   97SAPE  H10S 9695   1.402   5.611   5.892 -1.0007  0.9942 -0.5335
   97SAPE  C211 9696   1.212   5.656   5.796  0.0471  0.2687  0.1641
   97SAPE  H11R 9697   1.118   5.672   5.851  0.2343  0.7076  0.3625
   97SAPE  C212 9698   1.211   5.704   5.668  0.1226  0.3009 -0.3927
   97SAPE  H12R 9699   1.119   5.752   5.632  0.6971  1.0185 -0.9084
   97SAPE  C213 9700   1.316   5.713   5.566  0.4239 -0.7200 -0.5218
   97SAPE  H13R 9701   1.291   5.659   5.473  1.1583 -0.8093 -0.6761
   97SAPE  H13S 9702   1.414   5.674   5.601  0.3380 -0.1331  0.4094
   97SAPE  C214 9703   1.343   5.856   5.528 -0.3895  0.3002 -0.6226
   97SAPE  H14R 9704   1.300   5.940   5.584 -2.3145  0.4099 -2.1736
   97SAPE  C215 9705   1.418   5.883   5.420 -0.6039  0.0064 -0.2621
   97SAPE  H15R 9706   1.428   5.988   5.391 -0.5432 -0.3257 -1.4940
   97SAPE  C216 9707   1.493   5.788   5.329  0.1204 -0.5653 -0.7480
   97SAPE  H16R 9708   1.488   5.680   5.352  1.9291 -0.9839 -2.1332
   97SAPE  H16S 9709   1.598   5.819   5.348 -0.5813  1.7531 -0.2600
   97SAPE  C217 9710   1.448   5.794   5.179 -0.0291  0.0210 -0.3690
   97SAPE  H17R 9711   1.401   5.893   5.157 -0.3799 -0.0647 -0.0210
   97SAPE  H17S 9712   1.367   5.718   5.178 -1.5237  1.4074  2.6447
   97SAPE  C218 9713   1.555   5.753   5.079 -0.0499 -0.0986 -1.4752
   97SAPE  H18R 9714   1.633   5.831   5.064  0.0953 -0.3507 -2.0246
   97SAPE  H18S 9715   1.506   5.739   4.981 -0.6986  0.0180 -1.1709
   97SAPE  C219 9716   1.601   5.610   5.102  0.3742  0.5946  0.3226
   97SAPE  H19R 9717   1.517   5.543   5.132  0.4807  0.0789 -0.5060
   97SAPE  H19S 9718   1.665   5.595   5.192 -0.2381  0.6948  0.7817
   97SAPE  C220 9719   1.670   5.547   4.984 -0.0537 -0.2781  0.6706
   97SAPE  H20R 9720   1.601   5.528   4.899  1.4666  0.9828 -0.8862
   97SAPE  H20S 9721   1.723   5.452   5.006 -0.1955 -0.7820 -1.0038
   97SAPE  H20T 9722   1.751   5.612   4.946  1.8694 -0.6183  3.7894
   97SAPE   C33 9723   1.593   6.124   6.317  0.4826  0.1882 -0.4325
   97SAPE   H3X 9724   1.623   6.231   6.306  3.1652 -0.2463  1.5523
   97SAPE   H3Y 9725   1.483   6.114   6.324  0.7023 -1.0471  2.6140
   97SAPE   C34 9726   1.624   6.049   6.188 -0.5900  0.3307 -0.3595
   97SAPE   H4X 9727   1.623   5.944   6.223  0.0407  0.6582  0.6958
   97SAPE   H4Y 9728   1.732   6.069   6.177  0.2289 -2.8198  0.7942
   97SAPE   C35 9729   1.551   6.080   6.060 -0.5719  0.1136  0.1931
   97SAPE   H5X 9730   1.580   6.177   6.015  0.3263 -1.5361 -3.0379
   97SAPE   H5Y 9731   1.443   6.085   6.089 -0.8641 -2.8708 -0.0512
   97SAPE   C36 9732   1.541   5.966   5.959  0.2241 -0.4060 -0.2470
   97SAPE   H6X 9733   1.459   5.898   5.991  0.4768 -0.5216  0.1589
   97SAPE   H6Y 9734   1.636   5.909   5.961 -0.1138 -1.0170 -1.1421
   97SAPE   C37 9735   1.526   6.020   5.817 -0.4314  0.0635  0.1034
   97SAPE   H7X 9736   1.439   6.089   5.821  0.6257  1.5368 -1.2011
   97SAPE   H7Y 9737   1.497   5.937   5.748  2.7965  0.2930 -1.7154
   97SAPE   C38 9738   1.654   6.090   5.769  0.2008 -0.1447  0.0287
   97SAPE   H8X 9739   1.739   6.019   5.766 -0.1688 -0.5918  0.2395
   97SAPE   H8Y 9740   1.680   6.182   5.827 -1.2671  1.0395 -1.1078
   97SAPE   C39 9741   1.639   6.139   5.623 -0.2922  0.3248 -0.1175
   97SAPE   H9X 9742   1.655   6.249   5.614  3.0331 -0.2140 -2.8544
   97SAPE   H9Y 9743   1.539   6.114   5.581  0.6542 -2.4882 -0.8842
   97SAPE  C310 9744   1.735   6.081   5.518 -0.2854  0.4359 -0.3005
   97SAPE  H10X 9745   1.721   5.974   5.495 -0.4684 -0.3491  2.9690
   97SAPE  H10Y 9746   1.840   6.094   5.555 -0.6528 -1.0338  1.3905
   97SAPE  C311 9747   1.716   6.159   5.386 -0.2948 -0.5089  0.9099
   97SAPE  H11X 9748   1.690   6.265   5.406  0.9572  0.2889 -1.2856
   97SAPE  H11Y 9749   1.635   6.118   5.322  0.0757 -1.6108  1.1327
   97SAPE  C312 9750   1.847   6.169   5.305  0.3408  0.0149 -0.5964
   97SAPE  H12X 9751   1.865   6.068   5.262  2.7544  0.7942 -1.5481
   97SAPE  H12Y 9752   1.932   6.184   5.375  0.3346 -0.1463 -0.5527
   97SAPE  C313 9753   1.855   6.278   5.198  0.5447  0.5501 -0.0073
   97SAPE  H13X 9754   1.857   6.375   5.251  1.9626  0.3411  0.3436
   97SAPE  H13Y 9755   1.765   6.276   5.133 -0.2855  1.0095  1.0944
   97SAPE  C314 9756   1.974   6.259   5.105  0.5353 -0.3737 -0.3495
   97SAPE  H14X 9757   1.990   6.358   5.056  1.2649 -0.3385 -0.0544
   97SAPE  H14Y 9758   1.945   6.185   5.028  0.5314 -0.0784 -0.6389
   97SAPE  C315 9759   2.103   6.199   5.170  0.0247 -1.1587 -0.1721
   97SAPE  H15X 9760   2.092   6.093   5.141 -1.1942 -0.1478 -3.9985
   97SAPE  H15Y 9761   2.114   6.215   5.279 -0.6878 -4.0694  0.3889
   97SAPE  C316 9762   2.231   6.248   5.100 -0.4874 -0.1491 -0.5540
   97SAPE  H16X 9763   2.230   6.359   5.106 -1.6487 -0.2019  1.1607
   97SAPE  H16Y 9764   2.232   6.217   4.994 -2.1165  0.0555 -0.6541
   97SAPE  C317 9765   2.366   6.194   5.164  0.3607  0.6935 -0.1386
   97SAPE  H17X 9766   2.384   6.084   5.160 -0.0740  0.5676  0.9772
   97SAPE  H17Y 9767   2.361   6.221   5.271  2.4148 -0.4052  0.2816
   97SAPE  C318 9768   2.489   6.264   5.112 -0.0584 -0.2110  0.1035
   97SAPE  H18X 9769   2.582   6.240   5.167  0.5289  1.0941 -0.2659
   97SAPE  H18Y 9770   2.481   6.375   5.121 -0.2413 -0.1983 -0.1958
   97SAPE  H18Z 9771   2.501   6.236   5.005 -1.5999 -0.5979  0.0014
   98SAPE     N 9772   5.084   0.309   7.483  0.4918 -0.3622 -0.2202
   98SAPE   HN1 9773   5.160   0.271   7.543  0.6233  1.8766  1.1454
   98SAPE   HN2 9774   5.061   0.407   7.508  0.9936 -0.1399 -0.6107
   98SAPE   HN3 9775   4.999   0.260   7.517  1.0481 -0.5291  0.9622
   98SAPE   C12 9776   5.116   0.301   7.339 -0.1084 -0.2148 -0.1322
   98SAPE  H12A 9777   5.167   0.396   7.312  0.5704 -0.1033  1.4012
   98SAPE  H12B 9778   5.017   0.302   7.289 -0.6216 -2.0315  0.7564
   98SAPE   C11 9779   5.202   0.180   7.305  0.5334 -0.4894  0.4970
   98SAPE  H11A 9780   5.230   0.188   7.198  0.9153 -1.3795  0.5252
   98SAPE  H11B 9781   5.130   0.095   7.313 -1.0895  0.3671 -3.0347
   98SAPE     P 9782   5.438   0.092   7.355  0.2211 -0.3337 -0.0448
   98SAPE   O13 9783   5.542   0.150   7.441  0.2397  0.5713 -0.5816
   98SAPE   O14 9784   5.408  -0.052   7.349  0.0452  0.2502 -0.0910
   98SAPE   O12 9785   5.310   0.171   7.390  0.4678 -0.8625  0.2526
   98SAPE   O11 9786   5.465   0.155   7.206 -0.5172  0.2945  0.3819
   98SAPE    C1 9787   5.604   0.160   7.165  0.2661  0.0487 -0.9933
   98SAPE    HA 9788   5.666   0.224   7.231 -0.1257  0.5327 -1.0898
   98SAPE    HB 9789   5.655   0.062   7.172  0.8779  0.4871  2.1554
   98SAPE    C2 9790   5.616   0.211   7.016  0.1754 -0.7036  0.7575
   98SAPE    HS 9791   5.602   0.321   7.017  1.1807 -0.5111 -1.3271
   98SAPE   O21 9792   5.534   0.139   6.919 -0.0151 -0.3348  0.0934
   98SAPE   C21 9793   5.430   0.220   6.867  0.3970 -0.6984 -0.1730
   98SAPE   O22 9794   5.411   0.340   6.896  0.0154  0.1543  0.2861
   98SAPE   C22 9795   5.357   0.135   6.766 -0.9553 -0.1020 -0.0317
   98SAPE   H2R 9796   5.265   0.093   6.811 -0.6597 -0.4410  0.2612
   98SAPE   H2S 9797   5.330   0.218   6.697 -1.8372  1.4526  2.0657
   98SAPE    C3 9798   5.767   0.192   6.974  0.2016  0.1651 -0.1637
   98SAPE    HX 9799   5.790   0.085   6.994  1.0846  0.3343 -0.2317
   98SAPE    HY 9800   5.831   0.251   7.042  0.8020  1.4658 -1.7703
   98SAPE   O31 9801   5.794   0.228   6.837 -0.7409  0.1116  0.4089
   98SAPE   C31 9802   5.909   0.166   6.792  0.5038 -0.5383  0.4577
   98SAPE   O32 9803   5.978   0.093   6.856 -0.8170 -0.2171  0.2970
   98SAPE   C32 9804   5.946   0.211   6.651  0.4811  0.3868 -0.1505
   98SAPE   H2X 9805   5.859   0.178   6.591 -0.7336 -0.7988  2.1297
   98SAPE   H2Y 9806   6.036   0.153   6.622  0.3548  0.6456 -1.1020
   98SAPE   C23 9807   5.447   0.035   6.693 -0.0911  0.9385  0.0000
   98SAPE   H3R 9808   5.379  -0.030   6.634  0.6386 -0.9610  1.1584
   98SAPE   H3S 9809   5.483  -0.048   6.757 -0.5801 -0.1361 -1.0802
   98SAPE   C24 9810   5.565   0.095   6.618 -0.0461  0.5392  0.2961
   98SAPE   H4R 9811   5.649   0.110   6.689  0.5006 -0.2422 -0.1648
   98SAPE   H4S 9812   5.528   0.187   6.569 -0.2588 -1.4854 -3.7675
   98SAPE   C25 9813   5.623  -0.003   6.515  0.0620 -0.3518  0.3169
   98SAPE   H5R 9814   5.645  -0.105   6.551 -0.5913 -1.3900 -2.0400
   98SAPE   C26 9815   5.638   0.025   6.383  0.1788 -0.4198 -0.6512
   98SAPE   H6R 9816   5.680  -0.050   6.314  0.3957  1.4700 -2.6889
   98SAPE   C27 9817   5.607   0.152   6.319 -0.1814  1.0445 -0.3474
   98SAPE   H7R 9818   5.683   0.173   6.240  1.8021 -0.2211  1.1356
   98SAPE   H7S 9819   5.628   0.238   6.387  0.8263 -0.2166  1.0014
   98SAPE   C28 9820   5.459   0.180   6.278  0.0399  0.9092 -0.0666
   98SAPE   H8R 9821   5.387   0.138   6.350  1.1053  1.1135  1.1665
   98SAPE   C29 9822   5.410   0.249   6.169  0.1357 -0.1992 -0.3140
   98SAPE   H9R 9823   5.304   0.275   6.156  0.4365 -0.0593 -2.9640
   98SAPE  C210 9824   5.499   0.325   6.073 -0.1919  0.3356  0.4166
   98SAPE  H10R 9825   5.524   0.244   6.001  0.0222 -1.2782  2.1919
   98SAPE  H10S 9826   5.589   0.351   6.134 -0.7508  1.9427  0.6034
   98SAPE  C211 9827   5.416   0.437   6.013  0.1267 -0.0080 -0.2395
   98SAPE  H11R 9828   5.391   0.508   6.093  1.4558 -3.0512  3.1480
   98SAPE  C212 9829   5.387   0.449   5.882 -0.5095 -0.2599  0.1402
   98SAPE  H12R 9830   5.337   0.544   5.858  1.1425  0.4328 -0.7049
   98SAPE  C213 9831   5.408   0.346   5.772 -0.0177  0.0725 -0.0355
   98SAPE  H13R 9832   5.401   0.238   5.798  3.5123 -0.2901 -0.0290
   98SAPE  H13S 9833   5.514   0.360   5.740 -0.2270 -0.1507 -0.8741
   98SAPE  C214 9834   5.320   0.359   5.652 -0.5069 -0.2797 -0.3126
   98SAPE  H14R 9835   5.351   0.444   5.589  4.2929  0.1345  2.1362
   98SAPE  C215 9836   5.224   0.286   5.603 -0.3214 -0.3819  0.0614
   98SAPE  H15R 9837   5.178   0.316   5.508  2.7452 -0.7852 -1.6818
   98SAPE  C216 9838   5.175   0.161   5.667  0.2842  0.2440 -0.2708
   98SAPE  H16R 9839   5.065   0.168   5.681  0.0122 -0.6561 -1.7891
   98SAPE  H16S 9840   5.227   0.124   5.758  0.1004 -1.0682 -0.6803
   98SAPE  C217 9841   5.188   0.048   5.559 -0.0769  0.0118  0.4966
   98SAPE  H17R 9842   5.144  -0.047   5.598  0.1261 -0.5843 -0.6867
   98SAPE  H17S 9843   5.296   0.028   5.543 -0.2590 -0.9025  0.3523
   98SAPE  C218 9844   5.123   0.068   5.420  0.9745 -0.2329 -0.2095
   98SAPE  H18R 9845   5.172   0.145   5.357  1.4511 -1.2424 -1.0921
   98SAPE  H18S 9846   5.020   0.107   5.437  1.1210  0.0543  0.0315
   98SAPE  C219 9847   5.121  -0.059   5.324 -0.2833  0.4419 -0.4213
   98SAPE  H19R 9848   5.057  -0.133   5.377 -0.7233  1.8769  1.1385
   98SAPE  H19S 9849   5.222  -0.104   5.317 -0.2024  0.7590 -1.3506
   98SAPE  C220 9850   5.073  -0.032   5.179  0.2943 -0.5163  0.4524
   98SAPE  H20R 9851   5.151   0.009   5.111  0.6178 -0.3822  0.9003
   98SAPE  H20S 9852   4.988   0.039   5.178 -0.2535 -1.1046  2.0206
   98SAPE  H20T 9853   5.039  -0.124   5.126  1.2325 -0.3577 -0.4658
   98SAPE   C33 9854   5.960   0.368   6.648 -0.3544 -0.5458 -0.5502
   98SAPE   H3X 9855   6.049   0.406   6.702 -1.4271  3.1726 -1.0995
   98SAPE   H3Y 9856   5.867   0.415   6.687 -1.2189 -2.2254 -0.4988
   98SAPE   C34 9857   5.968   0.421   6.504 -0.3739 -0.0089 -0.1024
   98SAPE   H4X 9858   5.976   0.532   6.499  1.1176 -0.0807  0.2160
   98SAPE   H4Y 9859   5.879   0.393   6.443 -0.2594 -0.2020 -0.1805
   98SAPE   C35 9860   6.096   0.368   6.436 -0.5342 -0.5135 -0.6626
   98SAPE   H5X 9861   6.131   0.267   6.466 -0.6346  0.1391  1.9464
   98SAPE   H5Y 9862   6.180   0.434   6.467  0.4420 -1.5536 -1.0371
   98SAPE   C36 9863   6.091   0.376   6.286  0.2916  0.1269  0.6582
   98SAPE   H6X 9864   6.194   0.386   6.245  0.6069 -0.9890  1.1312
   98SAPE   H6Y 9865   6.062   0.482   6.270 -0.8322  0.0876  2.1741
   98SAPE   C37 9866   5.995   0.282   6.210  0.2683  0.1920  0.3660
   98SAPE   H7X 9867   5.910   0.248   6.272  1.3071  0.7843  2.1667
   98SAPE   H7Y 9868   6.055   0.190   6.192 -0.2846  0.3442 -3.0281
   98SAPE   C38 9869   5.964   0.342   6.072 -0.0373  0.0711  0.3713
   98SAPE   H8X 9870   5.949   0.259   5.999  0.0891  1.9459 -1.9372
   98SAPE   H8Y 9871   6.047   0.404   6.032 -0.4079  1.1935  1.2888
   98SAPE   C39 9872   5.848   0.429   6.079  0.4161 -0.0250 -0.3282
   98SAPE   H9X 9873   5.876   0.525   6.129 -0.9418 -0.7230  1.8748
   98SAPE   H9Y 9874   5.775   0.388   6.151  1.4976 -0.4242  0.5799
   98SAPE  C310 9875   5.785   0.464   5.935  0.2501  0.3735 -0.0510
   98SAPE  H10X 9876   5.692   0.521   5.959 -0.1985 -0.7717  1.0397
   98SAPE  H10Y 9877   5.773   0.371   5.876  2.3148  1.5239 -2.4947
   98SAPE  C311 9878   5.875   0.553   5.853 -0.6971 -0.0566  0.0206
   98SAPE  H11X 9879   5.966   0.500   5.818 -0.8324  0.5464 -1.2889
   98SAPE  H11Y 9880   5.903   0.641   5.915 -0.2902  0.6749 -1.1638
   98SAPE  C312 9881   5.814   0.601   5.722 -0.4524 -0.2344  0.0282
   98SAPE  H12X 9882   5.862   0.698   5.695 -3.2215  1.0461 -0.5751
   98SAPE  H12Y 9883   5.704   0.604   5.738 -0.3828 -1.0539  0.7818
   98SAPE  C313 9884   5.845   0.514   5.605  0.4820  0.2897  0.0362
   98SAPE  H13X 9885   5.803   0.416   5.636 -1.5847  1.0523 -0.2426
   98SAPE  H13Y 9886   5.955   0.511   5.591  0.5057 -0.3324  0.2827
   98SAPE  C314 9887   5.780   0.563   5.476 -0.2655  0.8321  0.3815
   98SAPE  H14X 9888   5.816   0.664   5.447  1.1897 -0.4579 -2.6888
   98SAPE  H14Y 9889   5.669   0.563   5.485 -0.3893  1.1716 -0.9423
   98SAPE  C315 9890   5.812   0.474   5.351 -0.0386  0.1265 -0.1141
   98SAPE  H15X 9891   5.780   0.371   5.380 -0.2211 -0.0048 -0.7454
   98SAPE  H15Y 9892   5.922   0.467   5.344  0.0320 -0.2220  1.1154
   98SAPE  C316 9893   5.740   0.532   5.226  0.4801  0.3107  0.6444
   98SAPE  H16X 9894   5.803   0.619   5.200  0.6001  0.2978  0.8918
   98SAPE  H16Y 9895   5.632   0.553   5.241 -0.4311 -2.8155 -0.6778
   98SAPE  C317 9896   5.729   0.430   5.112 -0.9230  0.3552 -0.0634
   98SAPE  H17X 9897   5.648   0.460   5.043 -0.2382 -0.1337 -1.1265
   98SAPE  H17Y 9898   5.704   0.327   5.146 -0.5584 -0.0246 -0.9014
   98SAPE  C318 9899   5.858   0.423   5.037 -0.2696  0.0107  0.0875
   98SAPE  H18X 9900   5.945   0.390   5.098  0.7206  2.3441  0.0405
   98SAPE  H18Y 9901   5.880   0.513   4.976 -1.8777  0.7003  0.4887
   98SAPE  H18Z 9902   5.846   0.345   4.958  0.7927 -1.0903  0.9716
   99SAPE     N 9903   0.618   4.816   7.105  0.1371  0.7782 -0.9259
   99SAPE   HN1 9904   0.679   4.811   7.021 -2.0311  1.2047 -2.6482
   99SAPE   HN2 9905   0.550   4.738   7.102  0.1419  0.2202  4.4108
   99SAPE   HN3 9906   0.570   4.905   7.080 -0.8832  0.0172 -1.8166
   99SAPE   C12 9907   0.682   4.813   7.244  0.3740  0.4548 -0.3084
   99SAPE  H12A 9908   0.744   4.722   7.260  0.9682  0.9948  0.5719
   99SAPE  H12B 9909   0.606   4.828   7.323 -1.6261 -1.7649 -1.6652
   99SAPE   C11 9910   0.783   4.931   7.260  0.5138  0.0064  0.3572
   99SAPE  H11A 9911   0.842   4.910   7.352  0.0018  1.3413  1.0346
   99SAPE  H11B 9912   0.731   5.028   7.278  0.0352  0.2185 -1.9044
   99SAPE     P 9913   1.010   4.991   7.130 -0.5168  0.3355  0.1098
   99SAPE   O13 9914   1.029   5.069   7.256 -0.4990  0.2928  0.3106
   99SAPE   O14 9915   1.092   4.867   7.111  0.5042 -0.5505  0.1937
   99SAPE   O12 9916   0.858   4.942   7.134 -0.3036  0.5203 -0.3663
   99SAPE   O11 9917   1.006   5.080   7.001 -0.3226 -0.5927  0.1270
   99SAPE    C1 9918   0.885   5.103   6.928 -0.3423  0.0395  0.4265
   99SAPE    HA 9919   0.819   5.014   6.921  1.0174 -0.8665 -2.8011
   99SAPE    HB 9920   0.835   5.184   6.985 -1.3617  0.6757 -1.3069
   99SAPE    C2 9921   0.923   5.145   6.784  0.4496 -0.2931  0.1768
   99SAPE    HS 9922   0.974   5.056   6.741 -0.5372 -0.8851  0.1904
   99SAPE   O21 9923   1.004   5.263   6.778  0.0609  0.1083  0.4529
   99SAPE   C21 9924   1.107   5.268   6.685 -0.2685 -0.7647 -0.5744
   99SAPE   O22 9925   1.160   5.171   6.638 -0.6242  0.4968  0.4462
   99SAPE   C22 9926   1.138   5.413   6.656  0.4116  0.3360 -0.5571
   99SAPE   H2R 9927   1.155   5.474   6.748  2.6859  0.5594 -1.0736
   99SAPE   H2S 9928   1.239   5.421   6.612  2.1539  0.2519  3.0513
   99SAPE    C3 9929   0.794   5.169   6.692 -0.5512 -0.0805 -0.4345
   99SAPE    HX 9930   0.716   5.093   6.719 -1.2972  0.6927 -0.3588
   99SAPE    HY 9931   0.822   5.152   6.586 -2.2819 -0.6756 -0.8351
   99SAPE   O31 9932   0.746   5.306   6.718 -0.7781 -0.5097  0.3544
   99SAPE   C31 9933   0.616   5.328   6.743  0.8536  0.1349 -1.3362
   99SAPE   O32 9934   0.530   5.241   6.760 -0.6661  0.3048  0.9203
   99SAPE   C32 9935   0.571   5.477   6.747  0.0856  0.3622  0.8192
   99SAPE   H2X 9936   0.616   5.510   6.651  0.1645 -1.1902  0.2816
   99SAPE   H2Y 9937   0.623   5.529   6.830  0.6144  0.9108  0.1585
   99SAPE   C23 9938   1.033   5.480   6.567 -0.6288 -0.1846  0.6927
   99SAPE   H3R 9939   1.063   5.587   6.572  3.3886 -0.9027 -2.4434
   99SAPE   H3S 9940   0.932   5.464   6.609 -0.3931  0.5900  1.5848
   99SAPE   C24 9941   1.036   5.443   6.419 -0.0550  0.0421  0.8872
   99SAPE   H4R 9942   1.140   5.465   6.386 -0.1049  0.2166  0.8430
   99SAPE   H4S 9943   0.973   5.510   6.357 -0.2094  1.2433  2.2850
   99SAPE   C25 9944   1.000   5.299   6.388  0.2523 -0.2530  0.1084
   99SAPE   H5R 9945   1.079   5.226   6.365  0.6321 -0.0239  0.6835
   99SAPE   C26 9946   0.870   5.263   6.359 -0.4797  0.2861 -0.4297
   99SAPE   H6R 9947   0.848   5.156   6.347 -0.3335  0.2280 -0.1967
   99SAPE   C27 9948   0.757   5.360   6.372  0.0364  0.3410  0.2328
   99SAPE   H7R 9949   0.750   5.422   6.281 -2.2824  0.6653  0.5690
   99SAPE   H7S 9950   0.769   5.432   6.456 -1.4157  2.0404 -0.9345
   99SAPE   C28 9951   0.626   5.294   6.392  0.4585  0.2018 -0.1895
   99SAPE   H8R 9952   0.627   5.197   6.444  1.3359  0.2889 -0.0330
   99SAPE   C29 9953   0.510   5.351   6.363  0.0023 -0.5224 -0.5331
   99SAPE   H9R 9954   0.412   5.305   6.383  0.5085 -1.3518  0.0378
   99SAPE  C210 9955   0.501   5.492   6.306 -0.5801  0.9293 -0.4921
   99SAPE  H10R 9956   0.521   5.489   6.196  0.3093 -1.3299 -0.3209
   99SAPE  H10S 9957   0.582   5.552   6.351  0.9226 -2.4276  1.6458
   99SAPE  C211 9958   0.373   5.568   6.332  0.1847 -0.6106  0.0424
   99SAPE  H11R 9959   0.395   5.652   6.401  1.7942 -1.1215  0.1931
   99SAPE  C212 9960   0.247   5.536   6.302  0.7095 -0.1789  0.2499
   99SAPE  H12R 9961   0.170   5.613   6.319  0.9149  0.3457 -1.0281
   99SAPE  C213 9962   0.201   5.426   6.212  0.0801  0.0766 -0.1503
   99SAPE  H13R 9963   0.272   5.340   6.216  1.5750  1.3021  2.0337
   99SAPE  H13S 9964   0.204   5.467   6.109 -1.2840  0.2284 -0.1474
   99SAPE  C214 9965   0.056   5.386   6.248  0.6516 -0.3665 -0.4798
   99SAPE  H14R 9966   0.020   5.411   6.349  1.6991  0.0674 -0.1980
   99SAPE  C215 9967  -0.037   5.340   6.164 -0.3154 -0.4087 -0.0724
   99SAPE  H15R 9968  -0.130   5.306   6.211 -0.2443  0.4539  0.7308
   99SAPE  C216 9969  -0.008   5.313   6.022 -0.4637  0.3197  0.0657
   99SAPE  H16R 9970  -0.032   5.206   6.003  1.8329 -0.2113 -0.1578
   99SAPE  H16S 9971   0.101   5.306   6.002 -0.6144  0.5478 -0.8866
   99SAPE  C217 9972  -0.077   5.405   5.915  0.5362 -0.1009  0.1350
   99SAPE  H17R 9973  -0.027   5.504   5.921  0.1301  0.2258 -1.4707
   99SAPE  H17S 9974  -0.188   5.410   5.919  0.4724 -1.1657 -0.0785
   99SAPE  C218 9975  -0.039   5.340   5.782  0.6344  0.0306  0.0803
   99SAPE  H18R 9976  -0.067   5.233   5.784 -0.8265  0.4029  0.7105
   99SAPE  H18S 9977   0.069   5.351   5.757  0.5361  0.4501 -0.1735
   99SAPE  C219 9978  -0.106   5.410   5.668  0.5231 -0.7311 -0.7016
   99SAPE  H19R 9979  -0.078   5.517   5.654 -1.9005 -0.1865 -2.1561
   99SAPE  H19S 9980  -0.212   5.426   5.697  1.0593  0.0897  0.9467
   99SAPE  C220 9981  -0.107   5.326   5.537 -0.7470 -0.3436  0.2096
   99SAPE  H20R 9982  -0.153   5.227   5.557  1.7485 -1.7485 -0.5897
   99SAPE  H20S 9983  -0.003   5.301   5.506  0.2875  1.4501  2.0299
   99SAPE  H20T 9984  -0.157   5.391   5.462 -1.4638  0.8092  1.6612
   99SAPE   C33 9985   0.414   5.498   6.752  0.2620 -0.4331 -0.4132
   99SAPE   H3X 9986   0.383   5.470   6.855 -0.1758 -0.3625 -0.5233
   99SAPE   H3Y 9987   0.354   5.439   6.680  0.0139 -0.2335 -0.3740
   99SAPE   C34 9988   0.380   5.652   6.740  0.3177 -0.1574 -0.0996
   99SAPE   H4X 9989   0.409   5.689   6.639  0.3770 -1.7164 -0.6766
   99SAPE   H4Y 9990   0.449   5.703   6.810  0.8285  0.9539 -1.3704
   99SAPE   C35 9991   0.222   5.688   6.753 -0.6694  0.3896 -0.5091
   99SAPE   H5X 9992   0.216   5.799   6.749  0.3398  0.4637 -0.3628
   99SAPE   H5Y 9993   0.187   5.655   6.853  1.7205  0.5749  0.4621
   99SAPE   C36 9994   0.123   5.618   6.652  0.3570 -0.2026  0.6180
   99SAPE   H6X 9995   0.149   5.513   6.629 -0.4573 -0.2272 -0.3051
   99SAPE   H6Y 9996   0.147   5.671   6.557 -0.1981 -1.5481 -0.2988
   99SAPE   C37 9997  -0.029   5.621   6.692 -0.5847 -0.4449  0.2784
   99SAPE   H7X 9998  -0.068   5.720   6.723 -0.0488 -0.9839  2.9158
   99SAPE   H7Y 9999  -0.036   5.567   6.789  1.1116 -2.2699 -0.5347
   99SAPE   C3810000  -0.123   5.559   6.592  0.3559  0.3317  0.0735
   99SAPE   H8X10001  -0.222   5.533   6.636  0.0883 -1.5355 -1.4886
   99SAPE   H8Y10002  -0.083   5.459   6.565 -1.6226 -0.2045 -1.0659
   99SAPE   C3910003  -0.151   5.655   6.473 -0.2851  0.1161 -0.0972
   99SAPE   H9X10004  -0.055   5.678   6.422  0.4261  0.2050  1.2292
   99SAPE   H9Y10005  -0.195   5.746   6.519  1.2863  0.6002  0.5074
   99SAPE  C31010006  -0.248   5.591   6.376  0.0451 -0.0786  0.0658
   99SAPE  H10X10007  -0.347   5.593   6.427  0.4466  1.1148  0.8603
   99SAPE  H10Y10008  -0.217   5.486   6.359  1.4541  0.7239 -3.0741
   99SAPE  C31110009  -0.258   5.661   6.240 -1.1388  0.8347 -0.0643
   99SAPE  H11X10010  -0.155   5.656   6.198 -0.5529 -2.2548  1.4274
   99SAPE  H11Y10011  -0.287   5.766   6.263 -0.1905  0.8872  0.9961
   99SAPE  C31210012  -0.368   5.610   6.146 -0.0520 -0.4372  0.5428
   99SAPE  H12X10013  -0.470   5.627   6.186 -0.2377 -1.6985  0.6595
   99SAPE  H12Y10014  -0.360   5.499   6.141  1.4793 -0.3802  1.3624
   99SAPE  C31310015  -0.349   5.675   6.003 -1.3364  0.2779 -0.2674
   99SAPE  H13X10016  -0.244   5.647   5.979 -1.1217 -0.4932  1.4498
   99SAPE  H13Y10017  -0.352   5.785   6.014  2.0123  0.4992 -0.4587
   99SAPE  C31410018  -0.444   5.623   5.906 -0.5877  0.0572  0.8945
   99SAPE  H14X10019  -0.541   5.670   5.933  1.2382  4.4968  0.6775
   99SAPE  H14Y10020  -0.445   5.512   5.913 -2.4047 -0.0082  0.2097
   99SAPE  C31510021  -0.402   5.659   5.758  0.5665  0.0512  0.6803
   99SAPE  H15X10022  -0.307   5.610   5.728  0.1596  0.3937 -1.3392
   99SAPE  H15Y10023  -0.375   5.767   5.746  1.8626 -0.3600 -0.4491
   99SAPE  C31610024  -0.509   5.622   5.657 -0.2069  0.4004  0.1257
   99SAPE  H16X10025  -0.592   5.695   5.673 -0.4068 -0.0479  1.2134
   99SAPE  H16Y10026  -0.541   5.521   5.691 -1.0789  0.3545 -0.7808
   99SAPE  C31710027  -0.457   5.613   5.514  0.2959 -0.3558  0.1403
   99SAPE  H17X10028  -0.390   5.528   5.489 -0.2005 -1.1736  1.4896
   99SAPE  H17Y10029  -0.406   5.707   5.482 -0.8609 -0.3240 -1.7033
   99SAPE  C31810030  -0.578   5.608   5.421  0.2244  0.6241  0.2002
   99SAPE  H18X10031  -0.537   5.601   5.318 -0.2695  0.3706  0.0155
   99SAPE  H18Y10032  -0.648   5.693   5.437 -0.5285  0.0920 -0.1893
   99SAPE  H18Z10033  -0.634   5.513   5.433  0.8099  0.3867  1.1196
  100SAPE     N10034   4.554   1.846   7.352  0.0981 -0.3753 -0.3955
  100SAPE   HN110035   4.470   1.786   7.359  0.2624 -1.0962 -3.3787
  100SAPE   HN210036   4.627   1.803   7.412 -0.2158 -2.0707 -1.1926
  100SAPE   HN310037   4.542   1.944   7.386  1.6406 -0.3374  0.1199
  100SAPE   C1210038   4.591   1.843   7.211  0.4859  0.6170  0.7477
  100SAPE  H12A10039   4.568   1.742   7.171 -1.8955  1.0089  0.9629
  100SAPE  H12B10040   4.702   1.855   7.208  0.5071  0.8194  1.9321
  100SAPE   C1110041   4.512   1.950   7.139 -0.2663  0.0047  0.4241
  100SAPE  H11A10042   4.543   1.936   7.033 -0.2896  0.7502  0.3138
  100SAPE  H11B10043   4.552   2.047   7.174  1.3273 -0.4648 -0.0231
  100SAPE     P10044   4.262   2.000   7.062  0.1486  0.2918  0.0349
  100SAPE   O1310045   4.131   1.952   7.120  0.2998  0.0284 -0.5863
  100SAPE   O1410046   4.281   2.145   7.070  0.2895 -0.6510  0.3067
  100SAPE   O1210047   4.372   1.945   7.165  0.0026  0.1081 -0.1211
  100SAPE   O1110048   4.286   1.944   6.918  0.2508  0.4754  0.0624
  100SAPE    C110049   4.282   1.807   6.890 -0.7391 -0.0812  0.1264
  100SAPE    HA10050   4.295   1.735   6.973  0.5560 -1.7613 -1.4476
  100SAPE    HB10051   4.186   1.782   6.838 -0.3046 -0.5926 -0.4517
  100SAPE    C210052   4.395   1.773   6.783  0.1638  0.6492 -0.0543
  100SAPE    HS10053   4.496   1.778   6.828 -0.2444 -0.0730  0.9819
  100SAPE   O2110054   4.383   1.858   6.669  0.0270 -0.3072 -0.1615
  100SAPE   C2110055   4.440   1.979   6.688  0.1188 -0.2923  1.0679
  100SAPE   O2210056   4.514   2.009   6.783 -0.1117 -0.0048  1.0860
  100SAPE   C2210057   4.406   2.068   6.572  0.2278 -0.4865  0.7752
  100SAPE   H2R10058   4.415   2.022   6.472  0.3256 -0.2104  0.6545
  100SAPE   H2S10059   4.299   2.096   6.588  0.8405  1.2986  2.2267
  100SAPE    C310060   4.359   1.623   6.739  0.2772 -0.2351  0.1310
  100SAPE    HX10061   4.282   1.637   6.660  1.2672  1.5767 -0.5750
  100SAPE    HY10062   4.309   1.564   6.818  0.6480  0.6123  1.0146
  100SAPE   O3110063   4.460   1.554   6.672  0.0699  0.3762  0.3753
  100SAPE   C3110064   4.545   1.476   6.732  0.3556 -0.0504 -0.1266
  100SAPE   O3210065   4.566   1.475   6.852  0.0828  0.0570  0.3336
  100SAPE   C3210066   4.619   1.389   6.626 -0.0695 -0.5960 -0.4651
  100SAPE   H2X10067   4.592   1.409   6.520  2.6589 -1.1274 -1.3598
  100SAPE   H2Y10068   4.579   1.286   6.633 -1.3237 -0.4544 -3.7802
  100SAPE   C2310069   4.485   2.203   6.575 -0.3493  0.1530 -0.4358
  100SAPE   H3R10070   4.594   2.184   6.576 -0.2094  0.9011  1.3153
  100SAPE   H3S10071   4.456   2.262   6.664 -0.5085 -0.3440 -0.1557
  100SAPE   C2410072   4.442   2.284   6.454 -0.3959 -0.1859 -0.8015
  100SAPE   H4R10073   4.506   2.247   6.372 -0.4192 -2.3724  0.1075
  100SAPE   H4S10074   4.465   2.391   6.476 -0.5843 -0.2790 -0.1251
  100SAPE   C2510075   4.290   2.289   6.421 -0.4605 -0.6117 -0.2267
  100SAPE   H5R10076   4.224   2.305   6.507 -2.7489 -1.3738 -1.7419
  100SAPE   C2610077   4.233   2.271   6.302 -0.4124 -0.4105  0.3810
  100SAPE   H6R10078   4.124   2.269   6.288 -0.0090  0.1354 -3.9593
  100SAPE   C2710079   4.313   2.247   6.172 -0.0692 -0.3152  0.0541
  100SAPE   H7R10080   4.252   2.193   6.098 -0.8427  2.2167 -1.2784
  100SAPE   H7S10081   4.395   2.181   6.207  0.2913 -0.1335 -0.4335
  100SAPE   C2810082   4.369   2.372   6.104  0.4305 -0.7917 -0.1140
  100SAPE   H8R10083   4.375   2.463   6.167  0.5371  0.8575 -2.3949
  100SAPE   C2910084   4.402   2.390   5.978 -0.6681  0.3388 -0.0615
  100SAPE   H9R10085   4.412   2.495   5.948 -3.1999  0.2962 -1.2953
  100SAPE  C21010086   4.390   2.299   5.862 -0.0467  0.3885 -0.4296
  100SAPE  H10R10087   4.305   2.333   5.799 -0.3808 -0.1605 -0.2778
  100SAPE  H10S10088   4.359   2.204   5.910  0.2061 -0.4730 -1.9381
  100SAPE  C21110089   4.520   2.273   5.787 -0.2535 -0.9144 -0.6684
  100SAPE  H11R10090   4.554   2.345   5.710  0.1564  1.6481  1.7177
  100SAPE  C21210091   4.612   2.177   5.826  0.4869  0.0978 -0.3944
  100SAPE  H12R10092   4.706   2.165   5.771  0.0866 -1.0522 -0.8385
  100SAPE  C21310093   4.603   2.084   5.945  0.3123 -0.2866  0.1683
  100SAPE  H13R10094   4.529   2.004   5.922 -0.1331  0.4633 -1.0579
  100SAPE  H13S10095   4.573   2.142   6.035 -0.7311  0.1033 -0.4163
  100SAPE  C21410096   4.737   2.014   5.978  0.5227  0.5485 -0.2188
  100SAPE  H14R10097   4.770   1.941   5.903  0.2070  0.4503 -0.2653
  100SAPE  C21510098   4.795   2.017   6.097  0.4614  0.1877  0.0622
  100SAPE  H15R10099   4.884   1.954   6.114  0.8623  1.0600  1.3557
  100SAPE  C21610100   4.752   2.094   6.219 -0.0255 -0.0688 -0.1611
  100SAPE  H16R10101   4.647   2.074   6.248  0.1006  1.8305  1.8733
  100SAPE  H16S10102   4.767   2.203   6.211  0.0604 -0.1102 -0.5603
  100SAPE  C21710103   4.847   2.064   6.339  0.1358 -0.2754  0.3599
  100SAPE  H17R10104   4.818   2.142   6.413 -1.0436 -0.3293 -0.0151
  100SAPE  H17S10105   4.950   2.079   6.300 -0.3345 -0.2298 -0.9104
  100SAPE  C21810106   4.845   1.926   6.413  1.1727 -0.2901 -0.3050
  100SAPE  H18R10107   4.944   1.925   6.464  1.7277 -0.2480 -1.3680
  100SAPE  H18S10108   4.857   1.843   6.340 -1.7016 -1.0705 -0.0145
  100SAPE  C21910109   4.717   1.896   6.501 -0.5949  0.5285  1.1202
  100SAPE  H19R10110   4.630   1.891   6.432  0.0723  2.6024  0.0286
  100SAPE  H19S10111   4.713   1.973   6.581  1.1937  0.8894  0.9092
  100SAPE  C22010112   4.739   1.756   6.561  0.7091  0.0161 -0.2326
  100SAPE  H20R10113   4.647   1.734   6.620  1.2678 -0.0244  0.6383
  100SAPE  H20S10114   4.837   1.745   6.611 -0.2462 -0.3896  1.6682
  100SAPE  H20T10115   4.749   1.693   6.470  3.3854  0.9465 -0.6653
  100SAPE   C3310116   4.770   1.393   6.653 -0.1007 -0.4472  0.2345
  100SAPE   H3X10117   4.794   1.368   6.759  0.6782  0.2127  0.2239
  100SAPE   H3Y10118   4.810   1.494   6.629  0.9944 -0.4541  1.8571
  100SAPE   C3410119   4.848   1.287   6.560 -0.2017  0.4253 -0.0030
  100SAPE   H4X10120   4.831   1.184   6.599 -0.9485 -0.0465 -1.4810
  100SAPE   H4Y10121   4.956   1.312   6.563 -0.1674  0.2643  0.1380
  100SAPE   C3510122   4.804   1.301   6.418 -1.1577  0.0701  0.0304
  100SAPE   H5X10123   4.779   1.409   6.413 -0.3312  0.2662 -0.0891
  100SAPE   H5Y10124   4.717   1.239   6.389 -1.3467 -0.1908  1.1238
  100SAPE   C3610125   4.917   1.288   6.314 -0.7821  0.4048 -1.0694
  100SAPE   H6X10126   4.967   1.192   6.339 -1.4796  0.0695 -0.9279
  100SAPE   H6Y10127   4.981   1.378   6.323 -1.2259  0.5514  1.0399
  100SAPE   C3710128   4.859   1.274   6.179  0.2569  0.0136  0.3615
  100SAPE   H7X10129   4.804   1.366   6.152  0.7418  0.5429  1.1455
  100SAPE   H7Y10130   4.788   1.192   6.153  0.6776 -0.0003 -0.8032
  100SAPE   C3810131   4.976   1.249   6.085  0.0652  0.8400 -0.4513
  100SAPE   H8X10132   5.027   1.151   6.098 -1.7979 -0.4349 -2.2614
  100SAPE   H8Y10133   5.055   1.328   6.089  1.4846 -0.5369 -0.5457
  100SAPE   C3910134   4.941   1.253   5.935 -0.9702 -0.3829  0.1110
  100SAPE   H9X10135   5.032   1.250   5.871 -1.0445  0.6979 -0.0788
  100SAPE   H9Y10136   4.887   1.349   5.917  1.2248  0.5622 -2.0744
  100SAPE  C31010137   4.849   1.151   5.882 -0.4715  0.7136 -0.3840
  100SAPE  H10X10138   4.756   1.165   5.941 -0.3670 -1.6699  0.4925
  100SAPE  H10Y10139   4.880   1.049   5.914 -0.3260  1.0466  0.5901
  100SAPE  C31110140   4.816   1.152   5.734  0.2636 -0.2480  0.4185
  100SAPE  H11X10141   4.733   1.082   5.710  0.0475  0.3623 -0.7420
  100SAPE  H11Y10142   4.915   1.121   5.694 -0.1157 -1.0088  0.0487
  100SAPE  C31210143   4.780   1.286   5.658 -0.5503 -0.0906 -0.0809
  100SAPE  H12X10144   4.817   1.269   5.554 -1.1923  1.2565 -0.5480
  100SAPE  H12Y10145   4.823   1.373   5.713 -0.9709  0.1162 -0.0747
  100SAPE  C31310146   4.631   1.311   5.641 -0.1126  0.3398  0.3850
  100SAPE  H13X10147   4.578   1.299   5.738 -0.1062  0.4923  0.4083
  100SAPE  H13Y10148   4.601   1.229   5.572  0.3926  1.4334 -1.1920
  100SAPE  C31410149   4.618   1.447   5.570 -0.6368 -0.0020 -0.6546
  100SAPE  H14X10150   4.668   1.442   5.471  2.9811 -0.7397  1.0587
  100SAPE  H14Y10151   4.682   1.519   5.625  0.9272 -2.4821  0.9451
  100SAPE  C31510152   4.473   1.490   5.573  0.1146 -0.0526  0.2727
  100SAPE  H15X10153   4.458   1.591   5.529  1.7520  0.3110  0.4924
  100SAPE  H15Y10154   4.430   1.506   5.674 -1.6828 -0.4947 -0.3814
  100SAPE  C31610155   4.374   1.395   5.515  0.2613 -0.4554 -0.0310
  100SAPE  H16X10156   4.371   1.302   5.576 -0.3886 -2.0308 -2.3501
  100SAPE  H16Y10157   4.410   1.364   5.415  2.8259 -1.1914  1.0342
  100SAPE  C31710158   4.235   1.459   5.510  0.0511 -0.2272 -0.4599
  100SAPE  H17X10159   4.222   1.519   5.417 -2.5933  0.9479  0.5710
  100SAPE  H17Y10160   4.227   1.528   5.596  0.2054 -1.8728  0.9204
  100SAPE  C31810161   4.126   1.354   5.523  0.2428 -0.0466 -1.0178
  100SAPE  H18X10162   4.026   1.403   5.521 -0.7410 -1.9079  0.0130
  100SAPE  H18Y10163   4.138   1.311   5.625 -0.3810  2.1912  0.0703
  100SAPE  H18Z10164   4.132   1.268   5.453 -2.2653 -1.8853  0.8273
  101SAPE     N10165   2.494   5.644   7.077 -0.9818  0.1091 -0.1593
  101SAPE   HN110166   2.464   5.623   7.174  0.6842 -0.3633  0.2914
  101SAPE   HN210167   2.519   5.745   7.068  0.2186  0.0225  1.5788
  101SAPE   HN310168   2.417   5.630   7.009  1.0012 -0.1654 -2.5106
  101SAPE   C1210169   2.609   5.556   7.042 -0.3786 -0.0282 -0.0380
  101SAPE  H12A10170   2.687   5.598   7.110  0.4132 -2.9350  0.9747
  101SAPE  H12B10171   2.643   5.580   6.939 -0.1780 -0.9355 -0.1889
  101SAPE   C1110172   2.585   5.407   7.059 -0.4064  0.2802 -0.0636
  101SAPE  H11A10173   2.560   5.405   7.167 -1.6381  2.6121 -0.2431
  101SAPE  H11B10174   2.673   5.340   7.051 -0.7156 -0.1605  0.2284
  101SAPE     P10175   2.338   5.328   7.042 -0.2446 -0.1694  0.0768
  101SAPE   O1310176   2.359   5.212   7.140  0.1534 -0.6887 -0.2145
  101SAPE   O1410177   2.282   5.450   7.101  0.0842 -0.0490 -0.1996
  101SAPE   O1210178   2.484   5.359   6.971  0.6009  0.6473 -0.5227
  101SAPE   O1110179   2.238   5.289   6.918  0.2892  0.0358  0.2720
  101SAPE    C110180   2.236   5.177   6.832  0.7830  0.3799  0.4823
  101SAPE    HA10181   2.279   5.087   6.881  0.0029  0.4586  1.3378
  101SAPE    HB10182   2.130   5.153   6.813  0.8342 -0.3649  1.1207
  101SAPE    C210183   2.302   5.204   6.693  0.0173 -0.0448 -0.0151
  101SAPE    HS10184   2.299   5.109   6.635 -1.3050 -0.4697  0.7139
  101SAPE   O2110185   2.438   5.248   6.706  0.7614  0.0893 -1.5645
  101SAPE   C2110186   2.525   5.146   6.723  0.3298  0.2838  0.0851
  101SAPE   O2210187   2.492   5.030   6.738 -0.0402  0.1687  0.0448
  101SAPE   C2210188   2.666   5.197   6.731 -0.3504 -0.0998 -0.3474
  101SAPE   H2R10189   2.667   5.304   6.702 -0.5437  0.0043  0.0162
  101SAPE   H2S10190   2.701   5.182   6.836 -1.1016  1.1379  0.1061
  101SAPE    C310191   2.228   5.310   6.603 -0.0176  0.5366 -0.5387
  101SAPE    HX10192   2.201   5.402   6.660 -1.8506 -2.3516  3.7549
  101SAPE    HY10193   2.124   5.271   6.595  0.3680 -1.2103  1.7811
  101SAPE   O3110194   2.279   5.326   6.464  0.5942  0.3402 -0.8857
  101SAPE   C3110195   2.281   5.445   6.413 -0.7510  0.4997 -0.1814
  101SAPE   O3210196   2.275   5.545   6.479  0.2387 -0.1621 -0.2053
  101SAPE   C3210197   2.303   5.425   6.269  0.5875  0.0682  0.5206
  101SAPE   H2X10198   2.268   5.324   6.239  2.5660 -0.2530 -0.9221
  101SAPE   H2Y10199   2.412   5.438   6.253  0.3375  0.8890 -0.6924
  101SAPE   C2310200   2.765   5.124   6.644  1.0997  0.3462  0.5460
  101SAPE   H3R10201   2.760   5.019   6.680 -4.6366  0.3442  0.6204
  101SAPE   H3S10202   2.859   5.173   6.677 -0.2055  1.3339  3.0476
  101SAPE   C2410203   2.750   5.148   6.495 -0.0811  0.2548  0.4474
  101SAPE   H4R10204   2.828   5.078   6.459 -1.7107 -1.1534 -0.4953
  101SAPE   H4S10205   2.780   5.249   6.463  0.4144  0.3261  1.1127
  101SAPE   C2510206   2.628   5.099   6.423 -0.5250 -0.2650 -0.2354
  101SAPE   H5R10207   2.557   5.181   6.410 -2.2862 -1.3067  2.0865
  101SAPE   C2610208   2.612   4.983   6.368 -0.2720  0.3110 -0.0528
  101SAPE   H6R10209   2.517   4.951   6.322 -0.5330 -1.8520  1.8057
  101SAPE   C2710210   2.699   4.858   6.375  0.1746 -0.0650  0.6384
  101SAPE   H7R10211   2.635   4.768   6.391 -0.5136  0.8708  3.9627
  101SAPE   H7S10212   2.774   4.862   6.456 -0.4935 -0.1974  1.2736
  101SAPE   C2810213   2.776   4.858   6.250 -0.1530 -0.3627  0.1385
  101SAPE   H8R10214   2.835   4.951   6.241 -1.1041  0.3487  1.0456
  101SAPE   C2910215   2.775   4.779   6.142  0.6281  0.1752  0.2094
  101SAPE   H9R10216   2.856   4.796   6.069  1.0347  0.1295  0.6425
  101SAPE  C21010217   2.706   4.642   6.131  0.2217  0.5490 -0.3646
  101SAPE  H10R10218   2.610   4.667   6.080 -0.4006  2.5563  1.6477
  101SAPE  H10S10219   2.674   4.612   6.233  0.1728  1.1239 -0.2066
  101SAPE  C21110220   2.777   4.530   6.075 -0.4130  1.2745  0.3361
  101SAPE  H11R10221   2.816   4.466   6.155 -0.3158  2.2266  1.0691
  101SAPE  C21210222   2.825   4.512   5.951 -0.1191  0.2410  0.1075
  101SAPE  H12R10223   2.878   4.419   5.928  1.6056  1.3069 -0.4343
  101SAPE  C21310224   2.811   4.609   5.834  0.0983  0.3145 -0.1726
  101SAPE  H13R10225   2.914   4.626   5.795  0.6027 -0.6131  0.7208
  101SAPE  H13S10226   2.784   4.712   5.866 -0.6181 -0.1175  0.6275
  101SAPE  C21410227   2.704   4.567   5.735 -0.1762 -0.5636  0.0692
  101SAPE  H14R10228   2.607   4.565   5.788 -1.7588  0.3662 -2.6183
  101SAPE  C21510229   2.725   4.535   5.604 -0.2998 -0.1715 -0.7100
  101SAPE  H15R10230   2.644   4.502   5.537 -0.1144 -0.7807 -0.6417
  101SAPE  C21610231   2.857   4.547   5.536  0.8351 -0.8056  0.5914
  101SAPE  H16R10232   2.897   4.649   5.557 -1.2609 -0.2951  2.5516
  101SAPE  H16S10233   2.837   4.532   5.428  0.2238  1.8009  0.2657
  101SAPE  C21710234   2.966   4.448   5.572 -0.0685  0.9870 -1.3695
  101SAPE  H17R10235   2.931   4.343   5.572 -0.1204  0.9481  1.1577
  101SAPE  H17S10236   2.993   4.471   5.677  0.9312 -3.2708 -0.4964
  101SAPE  C21810237   3.092   4.469   5.495 -0.1596  0.3227  0.2606
  101SAPE  H18R10238   3.144   4.567   5.505  0.3249  0.0896  0.0285
  101SAPE  H18S10239   3.074   4.459   5.385  1.2731 -0.5829  0.0862
  101SAPE  C21910240   3.196   4.363   5.525 -0.4376  0.0341 -0.4595
  101SAPE  H19R10241   3.133   4.271   5.527 -0.6652  0.1588 -1.3579
  101SAPE  H19S10242   3.233   4.387   5.626  0.1528  0.3229 -0.7402
  101SAPE  C22010243   3.314   4.344   5.427 -0.6844  0.5766 -0.1565
  101SAPE  H20R10244   3.381   4.431   5.442 -0.1630  0.0269  0.7735
  101SAPE  H20S10245   3.270   4.332   5.325 -3.5404  0.1477  1.0398
  101SAPE  H20T10246   3.369   4.255   5.462 -1.0852  0.6087  0.5827
  101SAPE   C3310247   2.247   5.546   6.185 -0.0689 -1.6712  0.1388
  101SAPE   H3X10248   2.292   5.642   6.219  0.0012 -1.5960 -0.1572
  101SAPE   H3Y10249   2.140   5.556   6.214  0.4078  0.1920  1.4480
  101SAPE   C3410250   2.256   5.535   6.032  0.6948  0.1300  1.2837
  101SAPE   H4X10251   2.364   5.542   6.009  0.7029 -2.9914 -0.2447
  101SAPE   H4Y10252   2.202   5.619   5.985 -1.7380 -0.6649  2.5083
  101SAPE   C3510253   2.188   5.407   5.970 -0.0687  0.7891 -0.6508
  101SAPE   H5X10254   2.082   5.399   6.003 -0.1765 -0.7193 -1.3014
  101SAPE   H5Y10255   2.231   5.309   6.000  1.1186  0.8707 -2.0285
  101SAPE   C3610256   2.174   5.412   5.813  0.2265 -0.4871  0.9236
  101SAPE   H6X10257   2.112   5.503   5.796  1.5992  0.1258 -1.0856
  101SAPE   H6Y10258   2.114   5.328   5.772 -0.2663  0.9016 -1.3702
  101SAPE   C3710259   2.304   5.429   5.726 -0.1622  0.1275  0.4346
  101SAPE   H7X10260   2.381   5.352   5.750  0.0974  0.2872  0.1266
  101SAPE   H7Y10261   2.336   5.533   5.748  1.3334 -0.6781  2.3484
  101SAPE   C3810262   2.266   5.412   5.578 -0.1745 -0.1004  0.4472
  101SAPE   H8X10263   2.170   5.455   5.544  0.9517 -0.2632 -3.4679
  101SAPE   H8Y10264   2.264   5.302   5.566  0.3311 -0.1190  0.5219
  101SAPE   C3910265   2.370   5.490   5.493 -0.3255  0.3426  0.8558
  101SAPE   H9X10266   2.466   5.500   5.547  0.7332 -1.2549 -0.6278
  101SAPE   H9Y10267   2.336   5.594   5.473 -1.7158  0.0409  1.5334
  101SAPE  C31010268   2.392   5.417   5.350 -0.3051 -0.5119  0.2729
  101SAPE  H10X10269   2.295   5.389   5.304  0.1843  0.1629 -1.2452
  101SAPE  H10Y10270   2.451   5.327   5.373 -0.0813  0.0557  2.0304
  101SAPE  C31110271   2.475   5.492   5.241 -1.1210 -0.0282  0.2079
  101SAPE  H11X10272   2.564   5.536   5.292 -0.6222  0.2112 -0.8440
  101SAPE  H11Y10273   2.417   5.576   5.198 -0.3459 -0.0580 -0.9241
  101SAPE  C31210274   2.541   5.409   5.126  0.3315  0.5396 -0.1147
  101SAPE  H12X10275   2.584   5.314   5.163  0.2584  0.3123 -0.6044
  101SAPE  H12Y10276   2.622   5.471   5.081 -0.5725  1.2786 -0.7908
  101SAPE  C31310277   2.449   5.372   5.004 -0.0599 -0.2774  0.2033
  101SAPE  H13X10278   2.419   5.465   4.950 -1.9444 -0.7785  0.3397
  101SAPE  H13Y10279   2.357   5.334   5.054  0.4633  0.4740  1.8224
  101SAPE  C31410280   2.515   5.271   4.909  0.5732 -0.4404  0.1207
  101SAPE  H14X10281   2.614   5.321   4.900 -0.8495  2.6445  0.3091
  101SAPE  H14Y10282   2.454   5.278   4.817 -0.0691 -0.5788  0.5273
  101SAPE  C31510283   2.519   5.128   4.964 -0.5808  0.2456  0.0072
  101SAPE  H15X10284   2.592   5.136   5.048 -0.1328  0.8085 -0.4289
  101SAPE  H15Y10285   2.568   5.072   4.882 -2.6409  0.3939 -1.3785
  101SAPE  C31610286   2.394   5.065   5.015 -0.4268 -0.9986 -0.4409
  101SAPE  H16X10287   2.309   5.092   4.949 -0.8193  0.7519  0.7170
  101SAPE  H16Y10288   2.371   5.120   5.109  1.9502 -1.7337  0.6531
  101SAPE  C31710289   2.406   4.922   5.057  0.0003 -0.2072  0.0268
  101SAPE  H17X10290   2.325   4.901   5.130  0.0783  0.8642  0.4437
  101SAPE  H17Y10291   2.498   4.926   5.119  0.3803 -0.2279 -0.5298
  101SAPE  C31810292   2.410   4.816   4.944 -0.1582  0.1057  0.0359
  101SAPE  H18X10293   2.499   4.835   4.881 -0.7972 -1.6410 -1.4904
  101SAPE  H18Y10294   2.324   4.828   4.875  0.6313  2.1572 -0.6650
  101SAPE  H18Z10295   2.415   4.713   4.984 -0.1092  0.1148  0.0533
  102SAPE     N10296   2.282   3.714   7.078  0.0490  0.1690  0.4274
  102SAPE   HN110297   2.228   3.632   7.113 -1.5185  0.8830 -0.1943
  102SAPE   HN210298   2.328   3.758   7.160  0.4617 -0.8753  0.7696
  102SAPE   HN310299   2.210   3.781   7.042 -0.3446  1.0499  2.6854
  102SAPE   C1210300   2.369   3.669   6.962  0.2779  0.3867 -0.3222
  102SAPE  H12A10301   2.413   3.762   6.920  0.5948 -0.6305 -2.3788
  102SAPE  H12B10302   2.306   3.620   6.885 -0.8133  1.1645  0.0550
  102SAPE   C1110303   2.485   3.575   7.009  0.5992  0.3193  0.8552
  102SAPE  H11A10304   2.540   3.545   6.917 -1.4357  1.2803 -0.7757
  102SAPE  H11B10305   2.437   3.477   7.033  4.1237 -1.0986  2.7902
  102SAPE     P10306   2.606   3.526   7.230  0.2466 -0.6381 -0.0421
  102SAPE   O1310307   2.725   3.572   7.307 -0.0816 -0.3097 -0.3574
  102SAPE   O1410308   2.479   3.504   7.298  0.3423 -0.2590 -0.7367
  102SAPE   O1210309   2.576   3.629   7.105 -0.2892  0.0830  0.1816
  102SAPE   O1110310   2.648   3.390   7.158  0.6686  0.1409  0.9071
  102SAPE    C110311   2.637   3.255   7.210 -0.1936 -0.7024 -0.3392
  102SAPE    HA10312   2.563   3.251   7.293  1.0072  1.3172  0.9089
  102SAPE    HB10313   2.608   3.190   7.125  0.3621 -0.0852 -1.0162
  102SAPE    C210314   2.774   3.211   7.261  0.6831  0.3624  0.1919
  102SAPE    HS10315   2.795   3.265   7.356 -3.1221  1.9949  0.2342
  102SAPE   O2110316   2.870   3.243   7.170  0.2414 -0.2636 -0.0058
  102SAPE   C2110317   3.001   3.219   7.194  0.0966  0.3622  0.1035
  102SAPE   O2210318   3.043   3.196   7.305 -0.1782 -0.3696  0.4492
  102SAPE   C2210319   3.082   3.229   7.064 -0.3990 -0.6341  0.2354
  102SAPE   H2R10320   3.114   3.130   7.024 -0.1375  0.1379 -1.5498
  102SAPE   H2S10321   3.028   3.288   6.988 -0.5021 -0.8740  0.1210
  102SAPE    C310322   2.776   3.052   7.290 -0.2788  0.3897  0.5143
  102SAPE    HX10323   2.691   3.031   7.359  0.8124  0.9851  2.1222
  102SAPE    HY10324   2.867   3.025   7.349  0.0514 -1.5831 -0.7905
  102SAPE   O3110325   2.779   2.974   7.169  0.1104 -0.2255 -0.0397
  102SAPE   C3110326   2.658   2.940   7.113 -0.4995  0.4762  0.1637
  102SAPE   O3210327   2.550   2.954   7.164  0.0569 -0.4762  0.3473
  102SAPE   C3210328   2.683   2.876   6.970  0.9116 -0.4135 -0.8192
  102SAPE   H2X10329   2.619   2.787   6.986  2.5905 -1.2463  1.8955
  102SAPE   H2Y10330   2.790   2.846   6.970  0.2642 -3.5386  3.6049
  102SAPE   C2310331   3.198   3.327   7.084 -0.7645  0.7711 -0.6111
  102SAPE   H3R10332   3.275   3.279   7.148 -2.0124 -0.3708  0.0897
  102SAPE   H3S10333   3.174   3.426   7.129  1.0101  1.0334 -0.1752
  102SAPE   C2410334   3.287   3.343   6.959  0.8008  0.3560  0.3677
  102SAPE   H4R10335   3.324   3.241   6.933 -2.1085 -0.5286 -0.7409
  102SAPE   H4S10336   3.370   3.405   7.000  1.4500 -0.0885 -0.2566
  102SAPE   C2510337   3.203   3.416   6.853 -1.5701  0.1840  0.5515
  102SAPE   H5R10338   3.141   3.498   6.892 -3.4099 -1.4014  1.1356
  102SAPE   C2610339   3.193   3.382   6.726 -0.1851  0.2466  0.4437
  102SAPE   H6R10340   3.138   3.455   6.665  0.1985  1.6559  1.7224
  102SAPE   C2710341   3.253   3.262   6.650 -0.5348  0.1036 -0.3781
  102SAPE   H7R10342   3.306   3.198   6.723  0.0010  1.1326  0.1597
  102SAPE   H7S10343   3.332   3.308   6.587 -2.7088  3.1731 -1.1073
  102SAPE   C2810344   3.157   3.183   6.566  0.2749 -0.0447  0.2973
  102SAPE   H8R10345   3.061   3.153   6.610  0.1099  0.8408  0.5730
  102SAPE   C2910346   3.172   3.151   6.434 -0.0708 -0.1089 -0.4719
  102SAPE   H9R10347   3.094   3.095   6.381 -0.3757 -1.6318  1.4596
  102SAPE  C21010348   3.292   3.180   6.348 -0.7735 -0.2033  0.3355
  102SAPE  H10R10349   3.372   3.124   6.403  0.5519  0.6408 -0.6756
  102SAPE  H10S10350   3.322   3.287   6.344  0.1100 -0.4805 -3.2748
  102SAPE  C21110351   3.277   3.126   6.209  0.7979 -1.0081  0.5674
  102SAPE  H11R10352   3.186   3.150   6.154  2.0588  1.5747 -0.5425
  102SAPE  C21210353   3.365   3.052   6.141  0.5369  0.6995 -0.0695
  102SAPE  H12R10354   3.340   3.021   6.039 -0.7453 -1.5587  0.8630
  102SAPE  C21310355   3.504   3.011   6.187 -0.6852  0.3508 -0.1963
  102SAPE  H13R10356   3.495   2.933   6.266 -0.6508  1.9854  1.4893
  102SAPE  H13S10357   3.557   3.091   6.243 -0.7504 -0.5923  1.2685
  102SAPE  C21410358   3.591   2.977   6.068 -0.1437  0.3301 -0.7573
  102SAPE  H14R10359   3.646   3.065   6.031  0.8084  1.5432  3.0018
  102SAPE  C21510360   3.599   2.851   6.020 -0.1324 -0.6823  0.4551
  102SAPE  H15R10361   3.667   2.833   5.935 -1.8901 -0.0445 -1.1778
  102SAPE  C21610362   3.541   2.731   6.094  0.6347 -1.1112 -0.3015
  102SAPE  H16R10363   3.559   2.725   6.203  1.5136  1.1624 -0.2823
  102SAPE  H16S10364   3.579   2.638   6.046 -0.2614 -1.0868 -1.0847
  102SAPE  C21710365   3.389   2.719   6.074  0.2562  0.0316 -0.7452
  102SAPE  H17R10366   3.365   2.732   5.967  0.4255 -0.1309 -0.8024
  102SAPE  H17S10367   3.331   2.797   6.128  1.6029 -0.5967  1.7532
  102SAPE  C21810368   3.348   2.573   6.108 -0.2666 -0.5346  0.0411
  102SAPE  H18R10369   3.350   2.559   6.218  1.0252  0.5830  0.1832
  102SAPE  H18S10370   3.421   2.504   6.062  1.2490  1.3631 -0.5450
  102SAPE  C21910371   3.192   2.539   6.082 -0.4942 -0.4279  0.3009
  102SAPE  H19R10372   3.133   2.620   6.130 -0.1825 -0.6229  1.0322
  102SAPE  H19S10373   3.174   2.443   6.134  0.8680 -0.3889  0.9029
  102SAPE  C22010374   3.155   2.530   5.939 -0.1990  1.0796 -0.3722
  102SAPE  H20R10375   3.146   2.629   5.889 -0.3749  0.0497 -2.5248
  102SAPE  H20S10376   3.055   2.490   5.912 -0.0464  1.0597 -0.9352
  102SAPE  H20T10377   3.232   2.483   5.873 -1.3410  2.0255 -2.5030
  102SAPE   C3310378   2.647   2.973   6.855  0.0918 -1.0407  0.1122
  102SAPE   H3X10379   2.711   3.063   6.864 -0.2673 -0.8569  0.8711
  102SAPE   H3Y10380   2.541   3.004   6.859 -0.1317 -1.8641  0.6834
  102SAPE   C3410381   2.674   2.901   6.720 -0.4299  0.2613  0.5119
  102SAPE   H4X10382   2.623   2.802   6.722  0.5958 -0.2982 -0.1103
  102SAPE   H4Y10383   2.779   2.867   6.709 -0.0739  0.8296  1.9234
  102SAPE   C3510384   2.601   2.987   6.613 -0.3868  0.3074  0.5222
  102SAPE   H5X10385   2.655   3.083   6.599  2.3076 -1.2380 -0.4748
  102SAPE   H5Y10386   2.504   3.021   6.654 -2.1022  0.3830 -3.2277
  102SAPE   C3610387   2.571   2.945   6.468 -0.1102  0.2719  0.2362
  102SAPE   H6X10388   2.479   2.996   6.433  0.6270  1.0518 -0.6266
  102SAPE   H6Y10389   2.550   2.836   6.463 -2.2400  0.4853  2.5242
  102SAPE   C3710390   2.684   2.986   6.375  0.3982 -0.2912  0.4687
  102SAPE   H7X10391   2.783   2.965   6.422 -0.1136  0.1711  1.8011
  102SAPE   H7Y10392   2.686   3.096   6.357  0.2503 -0.4914 -0.8080
  102SAPE   C3810393   2.659   2.920   6.239 -0.2504  0.0224  0.9668
  102SAPE   H8X10394   2.562   2.958   6.202 -1.2390 -0.2804  3.1405
  102SAPE   H8Y10395   2.672   2.810   6.253  1.4114  0.1719  0.8000
  102SAPE   C3910396   2.765   2.955   6.129  0.2660  0.6549  0.5847
  102SAPE   H9X10397   2.867   2.919   6.155  0.5605  1.0732  0.0349
  102SAPE   H9Y10398   2.771   3.065   6.119  1.0419  0.5293 -0.5048
  102SAPE  C31010399   2.730   2.895   5.990 -0.3225  0.5563 -0.7552
  102SAPE  H10X10400   2.620   2.900   5.978 -0.3671  0.6270 -0.3435
  102SAPE  H10Y10401   2.747   2.785   5.991 -1.2777  0.3778 -1.7328
  102SAPE  C31110402   2.807   2.945   5.862 -0.4255 -0.2612 -0.8292
  102SAPE  H11X10403   2.915   2.922   5.866 -0.0696  0.4771 -3.8080
  102SAPE  H11Y10404   2.793   3.052   5.836  2.6200  0.1758 -1.0346
  102SAPE  C31210405   2.772   2.860   5.744  0.3067  0.0094 -0.5705
  102SAPE  H12X10406   2.825   2.912   5.661 -0.7699  0.8747 -0.7422
  102SAPE  H12Y10407   2.663   2.859   5.720  0.0800 -0.6635  0.4107
  102SAPE  C31310408   2.812   2.712   5.747  0.3931  0.5163 -0.6557
  102SAPE  H13X10409   2.729   2.653   5.792 -0.5246  1.9434 -0.3713
  102SAPE  H13Y10410   2.906   2.692   5.802 -1.7147 -0.7933  2.7733
  102SAPE  C31410411   2.840   2.650   5.607 -0.8922 -0.4923 -0.0550
  102SAPE  H14X10412   2.917   2.706   5.550 -0.5274  0.1666  1.0493
  102SAPE  H14Y10413   2.752   2.660   5.540  0.5669  1.4621 -1.8255
  102SAPE  C31510414   2.874   2.501   5.623  0.3045  0.0090  0.1189
  102SAPE  H15X10415   2.779   2.453   5.655  1.1748  0.8833  4.6289
  102SAPE  H15Y10416   2.937   2.497   5.715 -1.9606  1.0377  1.8147
  102SAPE  C31610417   2.943   2.439   5.503 -0.3279  0.7224  0.1785
  102SAPE  H16X10418   2.999   2.518   5.450  0.7668 -0.0876  0.1102
  102SAPE  H16Y10419   2.869   2.410   5.425  0.9575  0.9672 -1.1712
  102SAPE  C31710420   3.044   2.332   5.545 -0.6775 -0.0174  0.4872
  102SAPE  H17X10421   2.990   2.265   5.615 -0.5947 -0.4795  0.1069
  102SAPE  H17Y10422   3.128   2.381   5.599 -2.0982  1.8184  1.1684
  102SAPE  C31810423   3.090   2.238   5.428  0.5491  0.0150  0.0402
  102SAPE  H18X10424   3.154   2.150   5.451  0.8846  0.5647  1.3205
  102SAPE  H18Y10425   3.134   2.294   5.343 -1.1185 -0.7595 -1.3708
  102SAPE  H18Z10426   2.996   2.198   5.386  1.2355 -0.4190 -1.1300
  103SAPE     N10427   2.716   4.134   2.983  0.1563  0.1997  0.2803
  103SAPE   HN110428   2.639   4.187   3.029 -2.5820 -0.7118 -2.8569
  103SAPE   HN210429   2.736   4.062   3.056 -1.2456 -1.3237 -0.7714
  103SAPE   HN310430   2.793   4.203   2.970 -1.3294  2.0944  0.9270
  103SAPE   C1210431   2.673   4.063   2.856  0.0471  0.1892 -1.0446
  103SAPE  H12A10432   2.617   3.971   2.881  2.4412 -0.6147  1.9408
  103SAPE  H12B10433   2.759   4.020   2.799 -2.0748 -2.9410 -2.1349
  103SAPE   C1110434   2.581   4.160   2.776 -0.0571 -0.1848  0.0970
  103SAPE  H11A10435   2.544   4.107   2.686  1.4830 -0.1934 -0.5740
  103SAPE  H11B10436   2.645   4.238   2.730  0.3969  0.9278  2.4469
  103SAPE     P10437   2.398   4.347   2.781  0.3497  0.2018  0.4075
  103SAPE   O1310438   2.491   4.456   2.754 -0.4357 -0.3183  0.2284
  103SAPE   O1410439   2.307   4.297   2.679  0.2335  0.5489  0.5737
  103SAPE   O1210440   2.476   4.226   2.848 -0.4790 -0.1514  0.1071
  103SAPE   O1110441   2.316   4.398   2.908 -0.2700  0.3926  0.2999
  103SAPE    C110442   2.209   4.324   2.967 -0.3139 -0.3389 -0.0149
  103SAPE    HA10443   2.114   4.379   2.948  0.5716  0.9808 -0.7811
  103SAPE    HB10444   2.192   4.223   2.924 -0.7153  0.5174 -2.0115
  103SAPE    C210445   2.221   4.289   3.122  0.1945 -0.1024  0.0227
  103SAPE    HS10446   2.121   4.294   3.170  0.0756  1.5184 -0.3187
  103SAPE   O2110447   2.302   4.385   3.193 -0.1558 -0.4193  0.2083
  103SAPE   C2110448   2.267   4.511   3.177  0.4881 -0.0266  0.5290
  103SAPE   O2210449   2.158   4.554   3.142  0.5453  0.6118 -0.5051
  103SAPE   C2210450   2.383   4.610   3.191  0.2304  0.7140 -0.0578
  103SAPE   H2R10451   2.465   4.554   3.241  0.2623  1.8670  1.2436
  103SAPE   H2S10452   2.404   4.638   3.085 -0.2464 -0.2046 -0.3996
  103SAPE    C310453   2.281   4.150   3.128 -0.3731  0.0045  0.7090
  103SAPE    HX10454   2.347   4.126   3.041  1.2169 -0.7908  2.0818
  103SAPE    HY10455   2.202   4.077   3.102 -3.1714  2.4864  1.7824
  103SAPE   O3110456   2.340   4.113   3.256 -0.4068 -0.1507 -0.3740
  103SAPE   C3110457   2.411   4.004   3.259  0.4330  0.9543  0.4359
  103SAPE   O3210458   2.410   3.924   3.164  0.1562  0.0990 -0.2246
  103SAPE   C3210459   2.487   4.000   3.397 -0.2117  0.1758  0.5642
  103SAPE   H2X10460   2.570   3.927   3.403 -0.1163  0.3552  1.5285
  103SAPE   H2Y10461   2.412   3.961   3.469  0.8418 -1.7208  0.6958
  103SAPE   C2310462   2.365   4.742   3.273 -0.1877  0.0870  0.5677
  103SAPE   H3R10463   2.286   4.802   3.224  0.1626  0.6634  0.6895
  103SAPE   H3S10464   2.451   4.812   3.284 -1.1057  1.5675 -1.1588
  103SAPE   C2410465   2.321   4.714   3.413  0.3857 -0.5588 -0.5229
  103SAPE   H4R10466   2.239   4.640   3.404 -0.0987  0.0837 -1.5646
  103SAPE   H4S10467   2.274   4.808   3.450  1.8091 -0.5915  1.5134
  103SAPE   C2510468   2.428   4.681   3.510 -0.1865  0.5000  0.0833
  103SAPE   H5R10469   2.533   4.701   3.484  0.5060  0.8122  2.7698
  103SAPE   C2610470   2.406   4.596   3.612 -0.1163  1.0934  0.2970
  103SAPE   H6R10471   2.493   4.565   3.673  0.1500 -1.3098 -1.1437
  103SAPE   C2710472   2.279   4.530   3.653 -0.4687 -0.4179 -0.5986
  103SAPE   H7R10473   2.263   4.443   3.586  1.6864  0.3138 -2.1712
  103SAPE   H7S10474   2.190   4.594   3.638 -0.9078 -0.4520  1.5511
  103SAPE   C2810475   2.281   4.472   3.788  0.0389 -0.3312 -0.0435
  103SAPE   H8R10476   2.310   4.366   3.800 -0.3413 -0.9038 -3.2185
  103SAPE   C2910477   2.255   4.535   3.906  0.2990 -0.2007 -0.7461
  103SAPE   H9R10478   2.271   4.480   4.000 -0.8555  0.2673 -0.2589
  103SAPE  C21010479   2.207   4.673   3.938  0.3914 -0.0338  0.7406
  103SAPE  H10R10480   2.097   4.662   3.953  0.8828 -3.3192  3.0110
  103SAPE  H10S10481   2.221   4.736   3.848 -3.3894 -2.3750 -1.7511
  103SAPE  C21110482   2.273   4.742   4.052 -0.2378 -1.0745 -0.0193
  103SAPE  H11R10483   2.371   4.786   4.029  0.0451  0.5174  3.5221
  103SAPE  C21210484   2.237   4.748   4.181  0.4287  0.8133  0.3356
  103SAPE  H12R10485   2.281   4.825   4.246  2.3696  0.0424 -0.0143
  103SAPE  C21310486   2.113   4.677   4.237 -0.8700 -0.1998 -0.5158
  103SAPE  H13R10487   2.140   4.603   4.315  0.6887 -0.7307 -1.5110
  103SAPE  H13S10488   2.056   4.621   4.160 -2.8327 -1.3619  1.6644
  103SAPE  C21410489   2.015   4.776   4.296 -0.0216 -0.1795  0.0199
  103SAPE  H14R10490   1.944   4.809   4.218  0.2418  2.5265  0.8093
  103SAPE  C21510491   2.005   4.827   4.423  0.9979  0.1124  1.0455
  103SAPE  H15R10492   1.931   4.905   4.447  0.0520 -0.1062 -0.9393
  103SAPE  C21610493   2.091   4.784   4.535  0.0096 -0.1852 -0.3566
  103SAPE  H16R10494   2.147   4.872   4.573 -1.3380  0.7009 -0.3434
  103SAPE  H16S10495   2.157   4.704   4.496 -1.4189 -0.9849 -1.2515
  103SAPE  C21710496   2.004   4.734   4.658  0.2654 -0.6221  0.1633
  103SAPE  H17R10497   1.907   4.788   4.664 -1.3818 -3.2163 -1.3303
  103SAPE  H17S10498   2.056   4.759   4.753  0.3537  2.1886 -0.5231
  103SAPE  C21810499   1.980   4.587   4.650  0.1714 -0.2353 -0.0809
  103SAPE  H18R10500   2.076   4.532   4.638  0.2338 -0.4045  1.0468
  103SAPE  H18S10501   1.917   4.568   4.561  2.6535 -2.1889 -1.5812
  103SAPE  C21910502   1.895   4.516   4.758 -0.6979 -0.0552  0.0917
  103SAPE  H19R10503   1.894   4.412   4.720 -1.2157 -0.2290  0.5686
  103SAPE  H19S10504   1.793   4.561   4.757 -0.8013 -0.2917 -0.2015
  103SAPE  C22010505   1.951   4.511   4.894 -0.2953 -0.0114 -0.6565
  103SAPE  H20R10506   2.061   4.497   4.889 -0.2974 -0.8818  0.8576
  103SAPE  H20S10507   1.909   4.436   4.966  0.7321  0.9135  0.9808
  103SAPE  H20T10508   1.935   4.608   4.945 -0.1262  0.3298 -1.2515
  103SAPE   C3310509   2.536   4.143   3.445 -1.0748  0.2783  0.3266
  103SAPE   H3X10510   2.468   4.229   3.428 -2.5375 -0.6362  1.3064
  103SAPE   H3Y10511   2.632   4.158   3.392 -1.9028 -0.6729 -1.5086
  103SAPE   C3410512   2.568   4.155   3.597  0.0729  0.5255  0.4730
  103SAPE   H4X10513   2.607   4.248   3.645  0.1169  0.7776 -0.0439
  103SAPE   H4Y10514   2.642   4.083   3.638  0.6482 -0.2153 -1.7376
  103SAPE   C3510515   2.447   4.123   3.679  0.1424  0.2519 -0.4341
  103SAPE   H5X10516   2.419   4.017   3.667  2.5671 -0.6117  0.8637
  103SAPE   H5Y10517   2.358   4.181   3.648 -0.8938 -0.2226  1.5064
  103SAPE   C3610518   2.468   4.150   3.832 -0.1229  0.3894  0.2678
  103SAPE   H6X10519   2.483   4.260   3.837  0.6335  0.2617  1.1691
  103SAPE   H6Y10520   2.568   4.117   3.866  0.1057  1.3456  0.5714
  103SAPE   C3710521   2.351   4.115   3.923  0.1352  0.4390 -0.3707
  103SAPE   H7X10522   2.318   4.011   3.905  2.5857 -0.4812  0.1438
  103SAPE   H7Y10523   2.255   4.168   3.904 -1.0976 -1.1383  1.1512
  103SAPE   C3810524   2.380   4.152   4.077  0.2617 -0.6853  0.1410
  103SAPE   H8X10525   2.433   4.250   4.067 -0.0371 -0.5966 -0.6172
  103SAPE   H8Y10526   2.463   4.083   4.102  2.1055  0.6079 -2.0836
  103SAPE   C3910527   2.270   4.173   4.174 -0.3433 -0.1387 -0.8021
  103SAPE   H9X10528   2.207   4.081   4.181 -0.5076 -0.1226 -1.9712
  103SAPE   H9Y10529   2.202   4.257   4.148 -1.3188 -1.1026 -1.4735
  103SAPE  C31010530   2.326   4.187   4.313 -0.3095 -0.0164 -0.0400
  103SAPE  H10X10531   2.363   4.291   4.327 -1.0379  0.0534  1.7101
  103SAPE  H10Y10532   2.410   4.119   4.337 -0.4763 -0.2297 -0.0546
  103SAPE  C31110533   2.221   4.168   4.415  0.9608  0.0614 -0.2738
  103SAPE  H11X10534   2.180   4.065   4.408 -0.6343  0.1772  4.3229
  103SAPE  H11Y10535   2.141   4.244   4.408  0.4171 -0.5122 -0.3678
  103SAPE  C31210536   2.293   4.165   4.553 -0.1151 -0.2328  0.2913
  103SAPE  H12X10537   2.324   4.271   4.568 -0.4075  0.4387 -3.0317
  103SAPE  H12Y10538   2.388   4.109   4.542  0.3783  0.3611  1.4305
  103SAPE  C31310539   2.216   4.118   4.674  0.0445  0.1798  0.2428
  103SAPE  H13X10540   2.284   4.095   4.759 -0.7447 -0.3832  0.7381
  103SAPE  H13Y10541   2.173   4.019   4.647 -1.5640  0.8674  0.1728
  103SAPE  C31410542   2.112   4.211   4.724 -0.1874 -0.3982  0.0801
  103SAPE  H14X10543   2.038   4.230   4.644  0.7895  3.3636 -0.1507
  103SAPE  H14Y10544   2.156   4.311   4.745  0.3544 -0.1812 -1.9282
  103SAPE  C31510545   2.054   4.146   4.848 -0.8331 -0.5172  0.1884
  103SAPE  H15X10546   1.977   4.221   4.878 -0.8980 -0.6475  0.3533
  103SAPE  H15Y10547   2.136   4.131   4.921 -0.5834 -2.2646 -0.4215
  103SAPE  C31610548   1.992   4.008   4.831 -0.6174 -0.3668 -0.4465
  103SAPE  H16X10549   2.076   3.938   4.812  0.1780  0.6744 -0.8304
  103SAPE  H16Y10550   1.925   4.002   4.742 -1.0515 -2.2564 -0.0559
  103SAPE  C31710551   1.919   3.945   4.952 -0.6254  0.0698 -0.2986
  103SAPE  H17X10552   1.862   4.035   4.987 -2.0763 -1.2022  0.7594
  103SAPE  H17Y10553   1.990   3.920   5.033 -0.9243  2.5986  0.8401
  103SAPE  C31810554   1.815   3.839   4.913 -0.7649  0.0288  0.5984
  103SAPE  H18X10555   1.761   3.816   5.007  1.4158 -1.9736  1.4492
  103SAPE  H18Y10556   1.864   3.747   4.876 -2.2008 -0.6341  0.2526
  103SAPE  H18Z10557   1.748   3.878   4.833 -0.7084 -0.5207  0.2734
  104SAPE     N10558   2.427   3.256   2.709  0.6969  0.2176  0.1525
  104SAPE   HN110559   2.499   3.203   2.762 -0.0990 -2.1014 -0.9170
  104SAPE   HN210560   2.338   3.201   2.704  0.5339  0.3263 -5.5573
  104SAPE   HN310561   2.448   3.266   2.607  0.5138  0.6547  0.1564
  104SAPE   C1210562   2.401   3.393   2.770  0.6968  0.0466  0.0046
  104SAPE  H12A10563   2.344   3.377   2.864  1.2385 -2.8513 -0.0706
  104SAPE  H12B10564   2.332   3.439   2.696 -0.3332  0.7773  1.3634
  104SAPE   C1110565   2.534   3.470   2.790 -0.7890 -0.4220  0.0657
  104SAPE  H11A10566   2.502   3.568   2.830  1.3622 -0.1752  1.2700
  104SAPE  H11B10567   2.594   3.491   2.699 -0.7984  0.5304  0.2652
  104SAPE     P10568   2.777   3.453   2.895 -0.1764 -0.2539 -0.0541
  104SAPE   O1310569   2.849   3.337   2.949 -0.3010 -0.3281 -0.2173
  104SAPE   O1410570   2.826   3.508   2.767 -0.6977 -0.4122  0.0868
  104SAPE   O1210571   2.620   3.416   2.887  0.1806 -0.4371  0.0525
  104SAPE   O1110572   2.782   3.565   3.008 -0.2444 -0.7971  0.1745
  104SAPE    C110573   2.677   3.661   3.033 -0.1527 -0.0982  0.0054
  104SAPE    HA10574   2.701   3.748   2.967 -2.1911 -1.3420 -2.5738
  104SAPE    HB10575   2.575   3.618   3.019  0.9568 -2.1942 -2.4577
  104SAPE    C210576   2.672   3.715   3.184 -0.6821  0.0138 -0.1941
  104SAPE    HS10577   2.595   3.789   3.216 -1.0852 -1.2780  2.0132
  104SAPE   O2110578   2.798   3.756   3.231 -0.6629  0.5812 -0.5955
  104SAPE   C2110579   2.819   3.882   3.216 -0.5589 -0.1545 -0.3914
  104SAPE   O2210580   2.735   3.958   3.178 -1.0592  0.0864  0.8925
  104SAPE   C2210581   2.945   3.926   3.276 -1.2971 -0.1616  0.4104
  104SAPE   H2R10582   3.037   3.903   3.219 -0.5517 -2.5236  2.3852
  104SAPE   H2S10583   2.950   4.036   3.291  2.2766 -0.1959  0.2093
  104SAPE    C310584   2.624   3.589   3.264 -0.3632 -0.3984 -0.1047
  104SAPE    HX10585   2.712   3.522   3.261 -0.1328 -0.1527  0.9279
  104SAPE    HY10586   2.535   3.548   3.211  0.2771 -1.5496 -0.3293
  104SAPE   O3110587   2.583   3.626   3.396  0.1662 -0.3951  0.2959
  104SAPE   C3110588   2.677   3.632   3.484  0.2619 -0.1605 -0.2732
  104SAPE   O3210589   2.795   3.615   3.458 -0.2182 -0.1252 -0.7663
  104SAPE   C3210590   2.617   3.661   3.623  0.2268  0.4191 -0.2541
  104SAPE   H2X10591   2.515   3.619   3.633  0.4332  0.0231  0.3008
  104SAPE   H2Y10592   2.606   3.770   3.637 -0.5800  0.2561  0.4852
  104SAPE   C2310593   2.974   3.870   3.420  0.8230  0.3842 -0.2646
  104SAPE   H3R10594   2.985   3.760   3.410 -3.0096 -0.0372 -1.4871
  104SAPE   H3S10595   2.884   3.875   3.484 -1.0640  0.2117 -2.7271
  104SAPE   C2410596   3.091   3.929   3.491  0.3783  0.4656  0.3976
  104SAPE   H4R10597   3.183   3.922   3.430  0.2762 -1.0890  0.3928
  104SAPE   H4S10598   3.102   3.847   3.565 -2.7532 -3.2178 -2.7114
  104SAPE   C2510599   3.059   4.066   3.541 -0.4612  0.0622  0.0463
  104SAPE   H5R10600   3.055   4.142   3.460  0.3330 -1.5213 -1.5573
  104SAPE   C2610601   3.021   4.096   3.671 -0.5111  0.0342 -0.0602
  104SAPE   H6R10602   2.983   4.196   3.698  0.1082 -0.0003  0.9791
  104SAPE   C2710603   3.004   4.001   3.788 -0.3186 -0.4216  0.0829
  104SAPE   H7R10604   2.933   3.921   3.758 -0.2673  0.2225 -1.9198
  104SAPE   H7S10605   2.945   4.054   3.866 -0.1257  0.4622 -0.3571
  104SAPE   C2810606   3.142   3.952   3.838  0.2554  0.3249  0.0258
  104SAPE   H8R10607   3.187   3.880   3.768 -1.8616 -1.4090  0.3020
  104SAPE   C2910608   3.202   3.977   3.953 -0.2245  0.4314 -0.3321
  104SAPE   H9R10609   3.296   3.930   3.984  0.2828  2.4790  1.5503
  104SAPE  C21010610   3.163   4.077   4.062 -0.3872 -0.2461  0.4590
  104SAPE  H10R10611   3.102   4.017   4.132 -1.6987 -0.1385 -0.5571
  104SAPE  H10S10612   3.087   4.152   4.032 -1.4508 -0.9587  1.3273
  104SAPE  C21110613   3.280   4.134   4.137  0.2283  0.3232  0.0491
  104SAPE  H11R10614   3.371   4.149   4.077  1.1764  0.0227  1.3561
  104SAPE  C21210615   3.273   4.169   4.264  0.7298  0.0924 -0.5234
  104SAPE  H12R10616   3.369   4.202   4.308  1.5303  0.1106 -2.1927
  104SAPE  C21310617   3.155   4.178   4.357  0.0497 -0.7505 -0.5480
  104SAPE  H13R10618   3.065   4.138   4.305  0.5907 -1.7486 -0.7576
  104SAPE  H13S10619   3.140   4.285   4.380 -0.5008 -0.2894 -2.8477
  104SAPE  C21410620   3.175   4.095   4.479  0.3313 -0.0817  0.1511
  104SAPE  H14R10621   3.182   3.988   4.458  2.7954 -0.4576  2.3408
  104SAPE  C21510622   3.186   4.136   4.603 -0.3703  0.5664  1.0742
  104SAPE  H15R10623   3.187   4.057   4.681 -0.7579  0.8240  1.3464
  104SAPE  C21610624   3.183   4.276   4.652  0.0469 -0.1604 -0.8453
  104SAPE  H16R10625   3.090   4.285   4.712  0.0059 -4.0344 -0.0702
  104SAPE  H16S10626   3.196   4.347   4.568  0.2984  0.4559 -0.2901
  104SAPE  C21710627   3.304   4.302   4.754  0.2448  0.3115  0.2700
  104SAPE  H17R10628   3.400   4.302   4.698  0.6265 -3.0698  0.7577
  104SAPE  H17S10629   3.309   4.224   4.833 -0.2689  2.1582  2.2230
  104SAPE  C21810630   3.279   4.433   4.839 -0.7265  0.3205  0.2259
  104SAPE  H18R10631   3.182   4.422   4.893  0.0174  1.1624  1.8151
  104SAPE  H18S10632   3.265   4.512   4.763 -1.1832  0.2378  0.2200
  104SAPE  C21910633   3.394   4.459   4.938  0.4146  0.3074  0.5485
  104SAPE  H19R10634   3.364   4.550   4.994  2.5052  0.9990  0.6377
  104SAPE  H19S10635   3.479   4.490   4.873 -0.9481 -0.0031 -1.5055
  104SAPE  C22010636   3.442   4.357   5.037 -0.5920 -0.8205  0.0903
  104SAPE  H20R10637   3.524   4.412   5.088 -2.1193  2.9345 -1.1137
  104SAPE  H20S10638   3.490   4.271   4.986  1.0945  0.2794 -0.2904
  104SAPE  H20T10639   3.378   4.333   5.124 -0.8493  1.8162  0.7267
  104SAPE   C3310640   2.705   3.601   3.743  0.0093  0.5141 -0.0925
  104SAPE   H3X10641   2.815   3.612   3.737  0.3089 -1.8422 -0.1580
  104SAPE   H3Y10642   2.691   3.492   3.722  0.7718  0.5813 -0.9716
  104SAPE   C3410643   2.652   3.631   3.885  0.2637 -0.0748  0.2323
  104SAPE   H4X10644   2.674   3.547   3.955  3.0098 -1.5670 -2.1981
  104SAPE   H4Y10645   2.541   3.628   3.884  0.2438 -0.4746  1.6095
  104SAPE   C3510646   2.696   3.767   3.954 -0.2488  0.2541  0.3523
  104SAPE   H5X10647   2.659   3.859   3.903 -0.6213 -0.0712  0.0290
  104SAPE   H5Y10648   2.805   3.757   3.934  0.1252  0.2008  2.2260
  104SAPE   C3610649   2.662   3.772   4.102  0.0333 -0.6384 -0.5421
  104SAPE   H6X10650   2.676   3.672   4.149 -0.3889 -0.5004 -0.1072
  104SAPE   H6Y10651   2.552   3.786   4.113  0.3381  0.4223  1.7390
  104SAPE   C3710652   2.741   3.892   4.169  0.0883 -0.3864 -0.3324
  104SAPE   H7X10653   2.747   3.990   4.117  0.7995  0.0869  0.6145
  104SAPE   H7Y10654   2.846   3.866   4.194  0.0077 -0.8399 -0.4393
  104SAPE   C3810655   2.675   3.940   4.301 -0.0905  0.6594  0.4790
  104SAPE   H8X10656   2.657   3.861   4.377 -1.4173  0.3238 -0.1426
  104SAPE   H8Y10657   2.572   3.977   4.281  0.1239  0.4545 -1.1579
  104SAPE   C3910658   2.754   4.046   4.369  0.2943  0.0671 -0.3529
  104SAPE   H9X10659   2.759   4.134   4.301  0.2370 -0.8005 -1.4982
  104SAPE   H9Y10660   2.856   4.006   4.383 -0.6042 -1.8526  1.1968
  104SAPE  C31010661   2.697   4.091   4.503  0.2533  0.1510  0.4109
  104SAPE  H10X10662   2.637   4.015   4.557 -0.3853  0.6789  0.4555
  104SAPE  H10Y10663   2.628   4.177   4.490 -0.2664 -0.5696 -2.1499
  104SAPE  C31110664   2.789   4.143   4.609  0.6345 -0.3163 -0.3684
  104SAPE  H11X10665   2.857   4.223   4.574  0.7426 -0.4083 -0.3677
  104SAPE  H11Y10666   2.867   4.069   4.635  0.4729 -1.2799 -2.4734
  104SAPE  C31210667   2.723   4.202   4.735 -0.2020 -0.1541 -0.2483
  104SAPE  H12X10668   2.636   4.136   4.753  0.5453 -0.9539  0.5746
  104SAPE  H12Y10669   2.681   4.303   4.720 -1.2936 -0.1198  2.4831
  104SAPE  C31310670   2.806   4.190   4.859 -0.4908 -0.2355 -0.2440
  104SAPE  H13X10671   2.894   4.255   4.838 -3.0142  3.8267  0.7530
  104SAPE  H13Y10672   2.842   4.086   4.878  0.3914 -0.1651 -1.3888
  104SAPE  C31410673   2.764   4.240   4.992 -0.5236  0.7220 -0.7439
  104SAPE  H14X10674   2.679   4.180   5.029  1.2024 -1.9926 -0.8930
  104SAPE  H14Y10675   2.733   4.347   4.993 -1.0636  0.6563  2.8443
  104SAPE  C31510676   2.870   4.233   5.115  0.0710  0.0041  0.2650
  104SAPE  H15X10677   2.817   4.283   5.199 -1.3799  0.6345 -0.9696
  104SAPE  H15Y10678   2.953   4.302   5.089 -0.0601  0.9170  2.1216
  104SAPE  C31610679   2.916   4.090   5.158 -0.7416 -0.2477 -0.4940
  104SAPE  H16X10680   2.949   4.024   5.075  1.8040 -0.0010  0.2314
  104SAPE  H16Y10681   2.829   4.042   5.207 -0.6012  1.1004  1.1931
  104SAPE  C31710682   3.044   4.093   5.255  0.3835 -0.4453  0.4519
  104SAPE  H17X10683   3.016   4.163   5.337  0.9910  0.4700 -0.1116
  104SAPE  H17Y10684   3.139   4.128   5.210  0.1255 -0.0766  0.1928
  104SAPE  C31810685   3.084   3.964   5.341  0.3569 -0.4112  0.0994
  104SAPE  H18X10686   3.130   3.886   5.276  1.0608  0.3646 -0.3586
  104SAPE  H18Y10687   2.991   3.922   5.386 -0.8964  1.1389 -0.9191
  104SAPE  H18Z10688   3.159   3.991   5.418  2.6123 -0.2255 -2.0373
  105SAPE     N10689   0.282   1.860   2.268  0.1865 -0.4693 -0.0518
  105SAPE   HN110690   0.205   1.791   2.260 -0.3324  0.0878  0.0501
  105SAPE   HN210691   0.300   1.898   2.173  1.7050 -2.6283 -0.6969
  105SAPE   HN310692   0.369   1.823   2.311  1.5760  1.5703 -0.9152
  105SAPE   C1210693   0.220   1.978   2.341  0.8906 -0.1382 -0.0387
  105SAPE  H12A10694   0.303   2.052   2.330 -0.3827  1.1155 -1.7505
  105SAPE  H12B10695   0.196   1.945   2.444 -2.3051  2.0304  0.0557
  105SAPE   C1110696   0.088   2.022   2.270  0.8628  0.3854  0.3262
  105SAPE  H11A10697   0.114   2.061   2.169 -2.2157 -2.0346 -1.6123
  105SAPE  H11B10698   0.043   2.106   2.326  1.2571  1.1855 -0.5263
  105SAPE     P10699  -0.100   1.866   2.351 -0.2213  0.2997 -0.5339
  105SAPE   O1310700  -0.164   1.744   2.287  0.0858  0.0188  0.0370
  105SAPE   O1410701  -0.023   1.841   2.478 -0.3131 -0.2394 -0.0245
  105SAPE   O1210702   0.001   1.913   2.243 -0.3375  0.0691 -0.0748
  105SAPE   O1110703  -0.199   1.986   2.358 -0.6221 -0.5552 -0.9878
  105SAPE    C110704  -0.207   2.082   2.460  0.4229 -0.6329 -0.6461
  105SAPE    HA10705  -0.110   2.135   2.466 -0.2546  0.7252 -1.3089
  105SAPE    HB10706  -0.289   2.153   2.435 -1.4019 -1.0565  3.3332
  105SAPE    C210707  -0.244   2.029   2.605  0.1200 -0.0009  0.5619
  105SAPE    HS10708  -0.164   1.969   2.653 -0.2338  0.6011  1.9668
  105SAPE   O2110709  -0.373   1.968   2.594 -0.1678  0.4259  0.3414
  105SAPE   C2110710  -0.391   1.860   2.672  0.9045 -0.0788 -0.2778
  105SAPE   O2210711  -0.304   1.814   2.744  0.1799  0.5849 -0.3144
  105SAPE   C2210712  -0.534   1.812   2.666  0.0969  0.0466  0.1456
  105SAPE   H2R10713  -0.608   1.887   2.630 -0.8478 -1.3874 -1.0218
  105SAPE   H2S10714  -0.533   1.715   2.612  1.2701 -1.3656  2.5404
  105SAPE    C310715  -0.256   2.157   2.693  0.6859 -0.0172  0.2941
  105SAPE    HX10716  -0.306   2.239   2.638  1.6108 -0.6646 -1.6084
  105SAPE    HY10717  -0.160   2.211   2.700 -0.2954  1.6537  1.8233
  105SAPE   O3110718  -0.306   2.133   2.817  0.4878  0.7441 -0.7052
  105SAPE   C3110719  -0.218   2.092   2.909  0.0453 -0.0536 -0.0703
  105SAPE   O3210720  -0.099   2.070   2.888 -0.2790  0.2026  0.1271
  105SAPE   C3210721  -0.291   2.099   3.045 -0.4199  0.3631 -0.2315
  105SAPE   H2X10722  -0.402   2.094   3.039 -0.7252  2.2969  2.2656
  105SAPE   H2Y10723  -0.266   2.197   3.091  3.5026 -0.1868 -0.8242
  105SAPE   C2310724  -0.582   1.773   2.803 -0.8746  0.7749 -0.2337
  105SAPE   H3R10725  -0.579   1.854   2.879  1.2050 -0.0560  0.6503
  105SAPE   H3S10726  -0.509   1.698   2.842  0.8421  2.0047 -0.9900
  105SAPE   C2410727  -0.720   1.712   2.821 -0.1778 -0.0478 -0.7149
  105SAPE   H4R10728  -0.713   1.701   2.932  0.4592  0.5217 -0.6870
  105SAPE   H4S10729  -0.724   1.616   2.766  0.3879  0.0530 -0.9450
  105SAPE   C2510730  -0.823   1.811   2.790  0.1447  0.1519  0.3006
  105SAPE   H5R10731  -0.795   1.897   2.728  2.8250 -1.0615 -0.3233
  105SAPE   C2610732  -0.948   1.809   2.826  0.7963 -0.2971  0.4228
  105SAPE   H6R10733  -1.016   1.878   2.775  0.5263 -0.9504 -0.1192
  105SAPE   C2710734  -1.008   1.703   2.918 -0.0574  0.3917  0.1542
  105SAPE   H7R10735  -0.939   1.663   2.994  0.8812  0.8241 -0.4469
  105SAPE   H7S10736  -1.029   1.618   2.848  0.8542  0.3197 -0.0486
  105SAPE   C2810737  -1.141   1.753   2.979 -0.3139  0.1333  0.1168
  105SAPE   H8R10738  -1.196   1.824   2.915  2.3821  1.9574 -0.3588
  105SAPE   C2910739  -1.192   1.731   3.102  0.0536  1.1581 -0.7690
  105SAPE   H9R10740  -1.288   1.775   3.132 -0.2157 -0.2689  0.6025
  105SAPE  C21010741  -1.131   1.653   3.219 -0.1469  0.0242  0.0942
  105SAPE  H10R10742  -1.064   1.718   3.280  1.3767 -1.0769 -0.3771
  105SAPE  H10S10743  -1.063   1.574   3.183  1.4231  0.7448  1.3585
  105SAPE  C21110744  -1.231   1.572   3.295 -0.3054 -0.6070 -0.1350
  105SAPE  H11R10745  -1.305   1.518   3.235 -1.8150 -0.3005  1.3798
  105SAPE  C21210746  -1.234   1.563   3.431 -0.0816 -0.0290  0.1179
  105SAPE  H12R10747  -1.308   1.503   3.484  1.2599 -0.3813  1.6641
  105SAPE  C21310748  -1.140   1.620   3.530 -0.9020  0.5542 -0.3709
  105SAPE  H13R10749  -1.035   1.620   3.494  0.2732 -2.7208  2.4501
  105SAPE  H13S10750  -1.122   1.543   3.608 -0.1432  1.2584  0.1697
  105SAPE  C21410751  -1.172   1.758   3.589 -0.5974  0.2823 -0.7795
  105SAPE  H14R10752  -1.111   1.844   3.557  1.1182 -0.7098 -0.2866
  105SAPE  C21510753  -1.256   1.777   3.691  0.2828  0.1837 -0.1654
  105SAPE  H15R10754  -1.277   1.877   3.731  0.0378 -0.4242  1.2746
  105SAPE  C21610755  -1.346   1.670   3.752 -0.2275  0.2524  0.4517
  105SAPE  H16R10756  -1.384   1.595   3.680 -1.6278  1.5009 -0.1903
  105SAPE  H16S10757  -1.445   1.711   3.783 -0.0646  1.5111 -0.5890
  105SAPE  C21710758  -1.274   1.602   3.872  0.8843 -0.8496 -0.2736
  105SAPE  H17R10759  -1.190   1.541   3.831  1.1625 -0.1912 -0.7072
  105SAPE  H17S10760  -1.340   1.525   3.918  0.4267 -0.0702  0.3868
  105SAPE  C21810761  -1.235   1.701   3.992 -0.0891 -0.3316  0.3804
  105SAPE  H18R10762  -1.333   1.737   4.029 -0.5527  0.6736 -1.6883
  105SAPE  H18S10763  -1.181   1.793   3.959 -0.2815 -0.4442 -0.2698
  105SAPE  C21910764  -1.162   1.633   4.112 -0.9445 -1.5803  0.6902
  105SAPE  H19R10765  -1.058   1.601   4.093 -0.9203 -0.3709 -1.5890
  105SAPE  H19S10766  -1.214   1.535   4.123 -0.5941 -1.8611 -0.0718
  105SAPE  C22010767  -1.182   1.721   4.231  0.5255 -0.1717 -0.1093
  105SAPE  H20R10768  -1.161   1.661   4.321  0.3373 -0.5430 -0.3110
  105SAPE  H20S10769  -1.288   1.756   4.228  0.3741 -0.5211 -3.7682
  105SAPE  H20T10770  -1.125   1.816   4.229 -0.9795  0.8601  2.1076
  105SAPE   C3310771  -0.235   1.984   3.134  0.0212  0.0495  0.3414
  105SAPE   H3X10772  -0.124   1.984   3.125 -0.0025 -0.9057 -0.0359
  105SAPE   H3Y10773  -0.276   1.886   3.100 -1.8027  0.1566  2.0179
  105SAPE   C3410774  -0.277   2.011   3.282 -0.2486 -0.2527 -0.3808
  105SAPE   H4X10775  -0.388   2.007   3.284 -0.3726  2.0583  0.3032
  105SAPE   H4Y10776  -0.247   2.107   3.329  0.4491 -0.6475  0.0008
  105SAPE   C3510777  -0.210   1.916   3.380 -0.0824  0.6644  0.3863
  105SAPE   H5X10778  -0.260   1.938   3.477  0.9342 -1.3832  1.4454
  105SAPE   H5Y10779  -0.099   1.917   3.382 -0.0238  0.4612 -1.3130
  105SAPE   C3610780  -0.249   1.774   3.345 -0.1752 -0.2995 -0.4347
  105SAPE   H6X10781  -0.196   1.731   3.257 -0.7850 -2.1263  0.0465
  105SAPE   H6Y10782  -0.356   1.771   3.318 -0.8080 -0.2907  1.8810
  105SAPE   C3710783  -0.224   1.677   3.460  0.2261 -0.2262 -0.9868
  105SAPE   H7X10784  -0.289   1.712   3.542  0.5954 -2.7324  0.4835
  105SAPE   H7Y10785  -0.115   1.692   3.477 -0.1123  2.7477 -0.8453
  105SAPE   C3810786  -0.252   1.535   3.420 -0.0465  0.3286  0.3784
  105SAPE   H8X10787  -0.213   1.515   3.318  0.6425 -3.8019  1.2817
  105SAPE   H8Y10788  -0.361   1.518   3.420  0.1726 -1.4953 -1.5385
  105SAPE   C3910789  -0.193   1.432   3.515  0.3729 -0.3048  0.2846
  105SAPE   H9X10790  -0.088   1.444   3.482  0.1605 -2.1948 -1.2662
  105SAPE   H9Y10791  -0.229   1.329   3.490 -0.2280 -0.0401  0.0224
  105SAPE  C31010792  -0.195   1.466   3.669  0.0267 -0.3725 -0.1045
  105SAPE  H10X10793  -0.301   1.460   3.699 -0.0784  0.0659 -0.3760
  105SAPE  H10Y10794  -0.145   1.565   3.677  1.3304 -0.9459 -0.8079
  105SAPE  C31110795  -0.115   1.366   3.749 -0.2248 -0.6038  0.0486
  105SAPE  H11X10796  -0.022   1.343   3.694 -1.6383 -2.3246 -1.7645
  105SAPE  H11Y10797  -0.183   1.278   3.747  0.0494 -0.9043  1.8338
  105SAPE  C31210798  -0.089   1.407   3.893  0.0855 -0.6019 -0.2856
  105SAPE  H12X10799  -0.182   1.425   3.950  1.9810  1.3782  2.4137
  105SAPE  H12Y10800  -0.036   1.504   3.887  0.2936 -0.7859 -2.8066
  105SAPE  C31310801  -0.014   1.299   3.972 -0.1165 -0.9943 -0.1316
  105SAPE  H13X10802   0.079   1.273   3.917 -1.1676 -3.5699 -0.8474
  105SAPE  H13Y10803  -0.069   1.204   3.987  0.3653 -1.0130  1.8047
  105SAPE  C31410804   0.024   1.353   4.110 -0.2317  0.1596 -0.5942
  105SAPE  H14X10805  -0.068   1.388   4.160  0.7444  2.2952 -0.1729
  105SAPE  H14Y10806   0.086   1.445   4.109  0.4094 -0.2713 -1.0682
  105SAPE  C31510807   0.103   1.255   4.194 -0.4220 -0.1225 -0.3911
  105SAPE  H15X10808   0.200   1.242   4.141 -1.4323 -1.4919 -2.0015
  105SAPE  H15Y10809   0.053   1.156   4.202 -1.4238  0.5440  5.1637
  105SAPE  C31610810   0.114   1.298   4.337 -0.7120 -0.4187 -0.0869
  105SAPE  H16X10811   0.017   1.288   4.389 -0.1862 -1.0031  0.8150
  105SAPE  H16Y10812   0.134   1.406   4.353 -1.1980 -0.3219 -0.1084
  105SAPE  C31710813   0.225   1.226   4.422  0.0303  0.0263  0.6006
  105SAPE  H17X10814   0.320   1.254   4.371  0.9500 -1.0804  1.6384
  105SAPE  H17Y10815   0.221   1.116   4.414  0.8852  0.1011 -2.0690
  105SAPE  C31810816   0.230   1.257   4.566  0.1431 -0.5311 -0.1525
  105SAPE  H18X10817   0.196   1.362   4.580 -2.1702 -1.1027 -1.1352
  105SAPE  H18Y10818   0.331   1.239   4.608  0.5128 -0.5918 -1.0440
  105SAPE  H18Z10819   0.153   1.200   4.622 -0.2372  0.8088  0.7517
  106SAPE     N10820   6.426   4.144   2.812 -0.4858 -0.0849 -0.5756
  106SAPE   HN110821   6.438   4.128   2.710  0.7380  0.0793 -0.4747
  106SAPE   HN210822   6.347   4.085   2.842 -1.8347  1.6129 -0.6343
  106SAPE   HN310823   6.403   4.244   2.830  1.5118  0.1311  1.2210
  106SAPE   C1210824   6.561   4.122   2.871 -0.3520 -0.4834  0.1485
  106SAPE  H12A10825   6.581   4.013   2.866  2.2754 -0.1115  0.9372
  106SAPE  H12B10826   6.565   4.156   2.976  3.1387  0.2366 -0.0772
  106SAPE   C1110827   6.675   4.202   2.797  0.3981  0.3738  0.2181
  106SAPE  H11A10828   6.679   4.168   2.691 -0.3280  1.3571 -0.1416
  106SAPE  H11B10829   6.766   4.170   2.853  1.4863  2.4641 -0.2511
  106SAPE     P10830   6.732   4.441   2.709 -0.1906 -0.1114  0.0034
  106SAPE   O1310831   6.822   4.378   2.616 -0.3678  0.1064 -0.0573
  106SAPE   O1410832   6.625   4.519   2.645 -0.0640  0.1708  0.2783
  106SAPE   O1210833   6.670   4.342   2.807  0.0902 -0.5426 -0.4361
  106SAPE   O1110834   6.808   4.533   2.811 -0.2596 -0.4615 -0.1564
  106SAPE    C110835   6.860   4.482   2.938  1.1278 -0.7231 -0.1234
  106SAPE    HA10836   6.893   4.377   2.927 -1.1839 -1.5850  0.5627
  106SAPE    HB10837   6.945   4.542   2.976  1.3589  0.1713 -1.9631
  106SAPE    C210838   6.748   4.470   3.052 -0.1174 -0.2793 -0.6684
  106SAPE    HS10839   6.649   4.450   3.007 -0.8141 -2.6706  1.7114
  106SAPE   O2110840   6.753   4.599   3.118 -0.1558  0.6230 -0.3423
  106SAPE   C2110841   6.643   4.637   3.172 -0.0884 -0.4567 -0.3964
  106SAPE   O2210842   6.532   4.582   3.168 -0.3155  0.5661 -0.6777
  106SAPE   C2210843   6.667   4.769   3.245 -0.3281  0.2721  0.2578
  106SAPE   H2R10844   6.778   4.775   3.255 -0.0077 -3.2084 -0.1247
  106SAPE   H2S10845   6.629   4.860   3.193  0.4697 -0.4707 -1.7209
  106SAPE    C310846   6.779   4.354   3.156  0.6198  0.1431 -0.6452
  106SAPE    HX10847   6.777   4.272   3.081 -0.4560 -0.3963 -0.0508
  106SAPE    HY10848   6.694   4.318   3.217  0.7009 -1.7726 -1.5792
  106SAPE   O3110849   6.906   4.368   3.224  0.4197  0.6877 -0.0874
  106SAPE   C3110850   6.902   4.435   3.338 -0.2160  0.5937  0.0055
  106SAPE   O3210851   6.806   4.477   3.399 -0.7838  0.3436 -0.0359
  106SAPE   C3210852   7.045   4.464   3.381  0.6242 -0.5439 -0.2746
  106SAPE   H2X10853   7.102   4.505   3.296  0.7695  0.5548  0.3319
  106SAPE   H2Y10854   7.083   4.364   3.412  1.7172  0.1114  0.5659
  106SAPE   C2310855   6.603   4.762   3.385  0.5573 -0.0897  0.0668
  106SAPE   H3R10856   6.637   4.671   3.439  2.3992  1.8724  2.4651
  106SAPE   H3S10857   6.495   4.753   3.363  0.3975  0.3937  0.6319
  106SAPE   C2410858   6.631   4.902   3.457 -0.1125  0.1581 -0.2645
  106SAPE   H4R10859   6.562   4.923   3.541 -1.8175 -1.6189 -1.1395
  106SAPE   H4S10860   6.604   4.980   3.384  1.0408  3.7710  2.8327
  106SAPE   C2510861   6.781   4.927   3.497 -0.7003  0.4848  0.3203
  106SAPE   H5R10862   6.836   4.938   3.402 -2.5764 -3.4461 -1.4612
  106SAPE   C2610863   6.844   4.919   3.612  0.7940  0.0261 -0.6970
  106SAPE   H6R10864   6.952   4.938   3.616  1.1856 -1.9304  2.5720
  106SAPE   C2710865   6.767   4.905   3.746 -0.9037 -0.0960 -0.1679
  106SAPE   H7R10866   6.698   4.820   3.723  0.0352 -0.7744 -0.5681
  106SAPE   H7S10867   6.718   4.999   3.777  0.1213  0.9879 -1.6861
  106SAPE   C2810868   6.848   4.849   3.858  0.0213  0.4016 -0.3621
  106SAPE   H8R10869   6.889   4.747   3.853 -1.2126 -0.0856 -0.8811
  106SAPE   C2910870   6.895   4.931   3.952 -0.3268 -0.1870 -0.7389
  106SAPE   H9R10871   6.939   4.887   4.042 -0.4660  0.0701 -0.5423
  106SAPE  C21010872   6.870   5.075   3.981 -0.1863 -0.2366 -0.7700
  106SAPE  H10R10873   6.877   5.143   3.893  0.2773 -0.4526 -0.9029
  106SAPE  H10S10874   6.957   5.103   4.042  1.5103 -3.4473 -1.4774
  106SAPE  C21110875   6.734   5.103   4.058  0.1621 -0.4348 -0.0795
  106SAPE  H11R10876   6.647   5.101   3.991  0.3694  0.1982 -0.3778
  106SAPE  C21210877   6.712   5.123   4.186 -0.2611 -0.0573  0.1652
  106SAPE  H12R10878   6.610   5.139   4.223 -0.0572  0.1640  0.6339
  106SAPE  C21310879   6.814   5.109   4.294 -0.1800 -0.7170  0.5353
  106SAPE  H13R10880   6.909   5.069   4.252 -0.1921 -0.6675  0.4633
  106SAPE  H13S10881   6.783   5.033   4.369 -1.5463 -0.1430  0.5760
  106SAPE  C21410882   6.837   5.247   4.348  0.2184 -0.2130 -0.3251
  106SAPE  H14R10883   6.867   5.316   4.267 -1.3392 -0.4338 -1.1316
  106SAPE  C21510884   6.815   5.303   4.465 -0.1690 -0.2481 -0.4125
  106SAPE  H15R10885   6.843   5.408   4.484 -1.0482 -0.2460  1.0788
  106SAPE  C21610886   6.758   5.246   4.589  0.4774  0.0071 -0.3218
  106SAPE  H16R10887   6.768   5.135   4.584 -1.5590 -0.2330  0.0390
  106SAPE  H16S10888   6.649   5.266   4.588  0.6553  1.1817  0.7702
  106SAPE  C21710889   6.820   5.289   4.726 -0.0888  0.6340 -0.5900
  106SAPE  H17R10890   6.773   5.231   4.808  1.7660  1.5728  1.2166
  106SAPE  H17S10891   6.800   5.396   4.749  0.2058  0.2088  1.9098
  106SAPE  C21810892   6.974   5.255   4.726 -0.0664  0.0350 -0.2192
  106SAPE  H18R10893   7.015   5.302   4.635  3.1910 -1.1254  0.5190
  106SAPE  H18S10894   6.975   5.144   4.717  1.1887  0.0588 -0.5014
  106SAPE  C21910895   7.045   5.307   4.848 -0.4347  0.5353  0.5300
  106SAPE  H19R10896   7.063   5.415   4.830  3.3238  0.1403  1.1383
  106SAPE  H19S10897   7.143   5.255   4.838 -2.3739 -3.2608 -0.8291
  106SAPE  C22010898   6.981   5.274   4.978 -0.0099  0.1583  0.1266
  106SAPE  H20R10899   6.901   5.345   5.008 -1.3862 -1.5031  0.5667
  106SAPE  H20S10900   7.055   5.299   5.058 -0.9322  0.0112  1.0450
  106SAPE  H20T10901   6.941   5.172   4.994 -1.9987  0.7128 -1.0549
  106SAPE   C3310902   7.051   4.562   3.502  0.3279 -0.0436  0.4799
  106SAPE   H3X10903   7.009   4.510   3.591  0.8047  0.4977  1.0316
  106SAPE   H3Y10904   6.988   4.650   3.476 -1.1237 -1.4182 -0.8904
  106SAPE   C3410905   7.187   4.615   3.539  0.0368  0.1340  0.6800
  106SAPE   H4X10906   7.206   4.680   3.451 -0.2520 -1.8513 -0.9261
  106SAPE   H4Y10907   7.271   4.544   3.524  0.1322  0.7389 -2.2633
  106SAPE   C3510908   7.199   4.682   3.675 -0.2859 -0.5780 -0.5859
  106SAPE   H5X10909   7.147   4.779   3.660 -2.2583 -1.5823 -0.5481
  106SAPE   H5Y10910   7.305   4.707   3.696 -0.6631  1.0599 -0.5325
  106SAPE   C3610911   7.141   4.598   3.787 -0.1389  0.3302 -0.4288
  106SAPE   H6X10912   7.164   4.490   3.774 -0.6904  0.2177 -0.4847
  106SAPE   H6Y10913   7.031   4.611   3.797 -0.5613 -3.6560  2.1220
  106SAPE   C3710914   7.204   4.642   3.930  0.3101 -0.5214 -0.5645
  106SAPE   H7X10915   7.208   4.753   3.938  3.1040 -0.6412  1.2137
  106SAPE   H7Y10916   7.308   4.611   3.956 -0.0713 -2.0756 -0.7868
  106SAPE   C3810917   7.112   4.591   4.038  0.7425  0.4292 -0.2362
  106SAPE   H8X10918   7.132   4.483   4.055 -0.1254  0.1356 -1.0325
  106SAPE   H8Y10919   7.006   4.598   4.005  0.9886  2.4088 -0.7221
  106SAPE   C3910920   7.106   4.685   4.162  0.1243  0.8191 -0.1133
  106SAPE   H9X10921   7.018   4.752   4.151 -0.2693  0.1595 -1.2192
  106SAPE   H9Y10922   7.193   4.753   4.154  0.8410 -0.0399  0.1581
  106SAPE  C31010923   7.106   4.603   4.287  0.2850 -0.3703 -0.6260
  106SAPE  H10X10924   7.205   4.556   4.309  0.1726 -0.2757  0.0895
  106SAPE  H10Y10925   7.027   4.527   4.275 -0.0120 -0.2718  0.5353
  106SAPE  C31110926   7.079   4.690   4.414 -0.1317  0.0729 -0.0500
  106SAPE  H11X10927   7.038   4.618   4.488  0.0215  0.4129  0.3663
  106SAPE  H11Y10928   7.006   4.771   4.392 -0.5405 -0.2794 -0.0245
  106SAPE  C31210929   7.204   4.756   4.482  0.5414 -1.3526 -0.3387
  106SAPE  H12X10930   7.261   4.811   4.405  1.1118  0.3871  1.2407
  106SAPE  H12Y10931   7.268   4.682   4.535  0.4545 -2.6531 -1.9489
  106SAPE  C31310932   7.156   4.854   4.590 -0.8234  0.0577 -0.6114
  106SAPE  H13X10933   7.079   4.919   4.541 -0.5390  0.4903 -0.4862
  106SAPE  H13Y10934   7.245   4.913   4.621 -2.7172  1.7052  2.1459
  106SAPE  C31410935   7.107   4.782   4.710 -0.4002  0.9135 -0.0881
  106SAPE  H14X10936   7.182   4.709   4.747 -0.1360  1.9789  1.5739
  106SAPE  H14Y10937   7.015   4.724   4.686  1.7265 -1.8724 -2.2419
  106SAPE  C31510938   7.083   4.872   4.834 -0.1077 -0.4056  0.0998
  106SAPE  H15X10939   6.975   4.869   4.859 -0.2957  0.7649 -0.4754
  106SAPE  H15Y10940   7.108   4.977   4.807 -1.0340 -0.5912 -1.6421
  106SAPE  C31610941   7.170   4.822   4.953 -0.3511  0.0556 -0.1810
  106SAPE  H16X10942   7.279   4.826   4.933 -0.5825 -0.3385 -1.6387
  106SAPE  H16Y10943   7.140   4.716   4.968  0.3987 -0.4106 -1.6932
  106SAPE  C31710944   7.149   4.886   5.094  0.3981 -0.2147  0.3619
  106SAPE  H17X10945   7.043   4.896   5.123  0.4692  2.7602 -0.1690
  106SAPE  H17Y10946   7.196   4.986   5.084 -0.8473  0.3809  0.4083
  106SAPE  C31810947   7.217   4.828   5.210 -0.2534 -0.2088  0.2059
  106SAPE  H18X10948   7.179   4.725   5.230 -0.6175 -0.0788  0.1901
  106SAPE  H18Y10949   7.204   4.895   5.298  1.7013  2.2906 -1.2909
  106SAPE  H18Z10950   7.327   4.816   5.203 -0.2191 -0.0210  0.4197
  107SAPE     N10951   1.542   1.779   2.894 -0.6341 -0.1481 -0.2780
  107SAPE   HN110952   1.491   1.854   2.943 -1.8450 -0.6785 -0.6903
  107SAPE   HN210953   1.484   1.693   2.891  0.1314 -0.6640 -1.5376
  107SAPE   HN310954   1.633   1.753   2.938  1.2556  2.0886 -2.5229
  107SAPE   C1210955   1.584   1.842   2.759  0.2206  0.4455  0.6423
  107SAPE  H12A10956   1.492   1.896   2.729  0.0491  1.1633  2.3560
  107SAPE  H12B10957   1.606   1.760   2.688 -0.4517  0.9845 -0.2013
  107SAPE   C1110958   1.693   1.946   2.764  0.2689  0.0566  0.0453
  107SAPE  H11A10959   1.698   2.003   2.669  2.3411  0.8568  0.5675
  107SAPE  H11B10960   1.787   1.887   2.773 -1.1144 -2.0248  1.8091
  107SAPE     P10961   1.801   2.114   2.934  0.1859 -0.1533  0.5132
  107SAPE   O1310962   1.927   2.066   2.870  0.1072 -0.1711 -0.5604
  107SAPE   O1410963   1.783   2.262   2.931  0.5786 -0.0824  0.0542
  107SAPE   O1210964   1.671   2.035   2.878  0.0646 -0.1691 -0.2823
  107SAPE   O1110965   1.801   2.071   3.089  0.8262 -0.0921  0.4084
  107SAPE    C110966   1.792   1.938   3.134  0.6422 -0.6804  0.2575
  107SAPE    HA10967   1.685   1.908   3.129 -0.1745  2.0783 -0.5379
  107SAPE    HB10968   1.830   1.863   3.061 -0.7182  0.0495 -1.2722
  107SAPE    C210969   1.854   1.926   3.276 -0.0129 -0.9170 -0.1665
  107SAPE    HS10970   1.817   1.838   3.331  0.3172 -1.4523 -0.7831
  107SAPE   O2110971   1.816   2.038   3.357 -0.4559  0.0266  0.5927
  107SAPE   C2110972   1.689   2.062   3.389  0.4229  0.1651 -0.2526
  107SAPE   O2210973   1.594   2.001   3.345  0.1305 -0.1110 -0.1739
  107SAPE   C2210974   1.684   2.171   3.493  0.3913 -0.2478 -0.1001
  107SAPE   H2R10975   1.780   2.227   3.490  0.6795 -0.6686  0.8696
  107SAPE   H2S10976   1.601   2.234   3.454  0.4371 -0.3439 -0.3512
  107SAPE    C310977   2.012   1.917   3.256  0.5617 -0.0431  0.2062
  107SAPE    HX10978   2.051   2.000   3.194 -1.0361  0.9071  0.4246
  107SAPE    HY10979   2.024   1.822   3.199  0.3902 -0.3581  0.6889
  107SAPE   O3110980   2.081   1.904   3.382  0.6523  0.0086 -0.4216
  107SAPE   C3110981   2.111   2.008   3.453 -0.1460 -0.2657 -0.4671
  107SAPE   O3210982   2.115   2.124   3.416  0.5336  0.1451  0.6285
  107SAPE   C3210983   2.138   1.962   3.598 -0.0286 -0.7246  0.3757
  107SAPE   H2X10984   2.220   1.886   3.600  0.8388  0.0959 -1.6223
  107SAPE   H2Y10985   2.051   1.916   3.650 -0.5632  1.3534  1.4413
  107SAPE   C2310986   1.656   2.119   3.637 -0.0586  0.4619  0.0928
  107SAPE   H3R10987   1.554   2.073   3.631 -0.2761  0.7570  1.1864
  107SAPE   H3S10988   1.653   2.211   3.699  0.8374 -0.3428  1.3956
  107SAPE   C2410989   1.758   2.034   3.702 -0.3059  0.4583  0.7416
  107SAPE   H4R10990   1.860   2.078   3.708 -0.6044  0.9746  2.2967
  107SAPE   H4S10991   1.778   1.944   3.639  1.8152  0.5997  1.1125
  107SAPE   C2510992   1.715   1.990   3.835 -0.5924  0.2927 -0.3585
  107SAPE   H5R10993   1.622   1.931   3.830 -0.6888  0.4130 -0.0367
  107SAPE   C2610994   1.781   2.021   3.950  0.6816  0.7788 -0.1934
  107SAPE   H6R10995   1.745   1.973   4.043  2.1587  1.2918  0.6734
  107SAPE   C2710996   1.904   2.106   3.968 -0.0128  0.8389 -0.0989
  107SAPE   H7R10997   1.888   2.204   3.918  0.1192 -0.7480 -3.5131
  107SAPE   H7S10998   1.987   2.061   3.911  0.3532  0.6552  0.5732
  107SAPE   C2810999   1.932   2.123   4.115  0.1653  0.2258 -0.4196
  107SAPE   H8R11000   1.929   2.028   4.170 -0.5279  0.3224 -0.2803
  107SAPE   C2911001   1.950   2.243   4.181 -0.3458  0.6685  0.2363
  107SAPE   H9R11002   1.987   2.247   4.285 -0.1492  2.2539  0.1292
  107SAPE  C21011003   1.957   2.383   4.117  0.2590  0.1330 -0.4398
  107SAPE  H10R11004   1.905   2.381   4.018  0.2551 -1.3606 -0.4269
  107SAPE  H10S11005   2.062   2.398   4.085 -0.0250 -0.1722 -1.5673
  107SAPE  C21111006   1.914   2.500   4.208 -0.0954 -0.7436  0.8003
  107SAPE  H11R11007   1.805   2.512   4.216 -0.0808 -1.0014  1.5109
  107SAPE  C21211008   1.990   2.555   4.312 -0.1950 -0.4388  0.4197
  107SAPE  H12R11009   1.946   2.630   4.380 -1.4299 -0.2305 -0.5787
  107SAPE  C21311010   2.139   2.542   4.338 -0.4566  0.4511  0.1669
  107SAPE  H13R11011   2.187   2.637   4.371  1.1590 -0.6783  1.2303
  107SAPE  H13S11012   2.190   2.497   4.251 -2.7257  2.3659 -2.3237
  107SAPE  C21411013   2.159   2.438   4.447 -0.2963  0.0149  0.1344
  107SAPE  H14R11014   2.188   2.334   4.427  1.8060 -0.1551  3.2158
  107SAPE  C21511015   2.150   2.468   4.578  0.2152 -0.8541  1.0233
  107SAPE  H15R11016   2.170   2.387   4.649  1.1434 -1.5520  0.0009
  107SAPE  C21611017   2.119   2.608   4.629  0.1318  0.6802 -0.7426
  107SAPE  H16R11018   2.117   2.694   4.559  0.8116  2.1076  0.9157
  107SAPE  H16S11019   2.180   2.633   4.718 -0.9938 -2.4669  1.0937
  107SAPE  C21711020   1.977   2.626   4.705  0.8321  0.8747 -0.4016
  107SAPE  H17R11021   1.989   2.587   4.808  0.4649 -1.1743 -1.0899
  107SAPE  H17S11022   1.893   2.566   4.664  1.2305  1.0220 -1.4689
  107SAPE  C21811023   1.929   2.770   4.717 -0.0742  0.6806 -0.7327
  107SAPE  H18R11024   1.824   2.774   4.754  0.0497  0.1428 -0.3076
  107SAPE  H18S11025   1.928   2.810   4.613  0.8256  0.9570 -0.6405
  107SAPE  C21911026   2.017   2.858   4.806 -0.0958 -0.9485  0.7631
  107SAPE  H19R11027   2.118   2.842   4.761 -0.5784 -0.9170 -0.3505
  107SAPE  H19S11028   2.017   2.825   4.912 -0.8732 -0.2033  1.0083
  107SAPE  C22011029   1.974   3.007   4.780  0.3653 -0.0539 -0.4564
  107SAPE  H20R11030   2.022   3.077   4.852 -1.2958  0.5036  0.1507
  107SAPE  H20S11031   1.864   3.020   4.781  0.3539  0.3529 -2.2936
  107SAPE  H20T11032   2.009   3.039   4.679  1.6299 -1.7368 -0.5945
  107SAPE   C3311033   2.184   2.076   3.685 -0.2518 -0.1638 -0.5832
  107SAPE   H3X11034   2.091   2.130   3.713 -0.5399  0.2672 -2.2270
  107SAPE   H3Y11035   2.247   2.147   3.629 -1.0937  1.3814  0.3666
  107SAPE   C3411036   2.259   2.025   3.813 -0.4889 -0.4819 -0.1494
  107SAPE   H4X11037   2.352   1.969   3.790  0.3943  0.2272  1.4827
  107SAPE   H4Y11038   2.192   1.949   3.859 -0.2472 -1.7315 -1.7808
  107SAPE   C3511039   2.287   2.144   3.900 -0.8397 -0.4732  0.3155
  107SAPE   H5X11040   2.189   2.185   3.935  0.0216 -0.0988  2.4138
  107SAPE   H5Y11041   2.349   2.212   3.838 -0.2631 -0.7415  0.5984
  107SAPE   C3611042   2.353   2.103   4.031  0.5496  0.0154  0.0251
  107SAPE   H6X11043   2.457   2.066   4.018  0.7221 -0.6632  2.6521
  107SAPE   H6Y11044   2.285   2.029   4.079  1.0826  0.2070  1.1144
  107SAPE   C3711045   2.339   2.216   4.134  0.2138  0.1402 -0.4271
  107SAPE   H7X11046   2.231   2.242   4.147 -0.0495 -1.5609  1.3959
  107SAPE   H7Y11047   2.396   2.306   4.104 -0.0530  1.1674  1.9027
  107SAPE   C3811048   2.402   2.186   4.270 -0.9753 -0.0806 -0.1332
  107SAPE   H8X11049   2.480   2.110   4.254 -3.0098 -2.5065  0.7687
  107SAPE   H8Y11050   2.322   2.136   4.329 -0.8702 -1.2897 -0.9859
  107SAPE   C3911051   2.459   2.300   4.343 -0.1659 -0.3210 -0.7313
  107SAPE   H9X11052   2.412   2.401   4.332  1.8287  0.5330 -1.9769
  107SAPE   H9Y11053   2.562   2.320   4.306  0.8229 -0.8348  1.5803
  107SAPE  C31011054   2.486   2.266   4.491 -0.3958 -0.5858  1.0774
  107SAPE  H10X11055   2.540   2.170   4.506  0.6452  0.2753  3.3102
  107SAPE  H10Y11056   2.389   2.266   4.546  0.4059  1.5306  2.6167
  107SAPE  C31111057   2.557   2.377   4.567 -0.3182 -0.0494 -0.8306
  107SAPE  H11X11058   2.496   2.470   4.568 -0.0156  0.1604 -1.2405
  107SAPE  H11Y11059   2.650   2.383   4.506 -0.6975  0.5134 -1.3644
  107SAPE  C31211060   2.583   2.332   4.715 -0.8657 -0.1524  0.1983
  107SAPE  H12X11061   2.655   2.401   4.765 -0.1846 -2.0744  2.0268
  107SAPE  H12Y11062   2.639   2.236   4.706 -1.8725 -0.6167 -1.5207
  107SAPE  C31311063   2.465   2.303   4.809  0.3772  0.2657  0.7594
  107SAPE  H13X11064   2.506   2.233   4.885  1.1139 -1.1128 -0.8555
  107SAPE  H13Y11065   2.390   2.238   4.760  1.6354 -0.1923 -0.6311
  107SAPE  C31411066   2.399   2.428   4.872  0.2260 -0.2276 -0.5358
  107SAPE  H14X11067   2.357   2.496   4.795 -1.3185 -0.5388 -0.0053
  107SAPE  H14Y11068   2.479   2.481   4.927 -1.6283 -0.0909  2.2361
  107SAPE  C31511069   2.287   2.403   4.976 -0.5376 -0.1616 -0.2825
  107SAPE  H15X11070   2.331   2.344   5.060  0.2524  1.9959  0.9224
  107SAPE  H15Y11071   2.208   2.344   4.924  0.4640 -1.3594 -0.4896
  107SAPE  C31611072   2.232   2.541   5.022  0.2961  0.6078  0.3121
  107SAPE  H16X11073   2.218   2.606   4.933 -0.3383  1.4874  1.0353
  107SAPE  H16Y11074   2.308   2.588   5.088 -0.1314 -0.3911  1.5649
  107SAPE  C31711075   2.107   2.528   5.101  0.0026 -0.0903  0.9590
  107SAPE  H17X11076   2.051   2.435   5.079  0.3749 -0.0212 -0.3642
  107SAPE  H17Y11077   2.036   2.603   5.060 -1.2655 -2.3825 -1.3121
  107SAPE  C31811078   2.111   2.552   5.256 -0.0065 -0.4569  0.0686
  107SAPE  H18X11079   2.153   2.651   5.285  0.7521 -0.4627 -0.9847
  107SAPE  H18Y11080   2.169   2.466   5.296 -1.3475 -1.1231  0.6345
  107SAPE  H18Z11081   2.008   2.540   5.296 -0.3457  3.9869  1.0901
  108SAPE     N11082   0.487   2.391   2.665  0.1457 -0.3387  0.0728
  108SAPE   HN111083   0.461   2.491   2.661  1.0952 -0.1282 -1.8439
  108SAPE   HN211084   0.419   2.353   2.595 -1.3862  0.4386  1.0847
  108SAPE   HN311085   0.447   2.354   2.754  1.2121 -2.1800 -0.1465
  108SAPE   C1211086   0.629   2.348   2.660 -0.3445  0.2703 -0.2460
  108SAPE  H12A11087   0.689   2.419   2.598  1.2701 -2.0961 -1.5187
  108SAPE  H12B11088   0.631   2.254   2.601 -0.0833  1.0228 -1.4686
  108SAPE   C1111089   0.698   2.336   2.796  0.2408 -0.1996 -0.2812
  108SAPE  H11A11090   0.696   2.438   2.839  0.9642 -0.0936 -0.4876
  108SAPE  H11B11091   0.804   2.305   2.783  0.9651  1.5583  1.0226
  108SAPE     P11092   0.538   2.264   2.988 -0.1222  0.0370 -0.5166
  108SAPE   O1311093   0.432   2.348   2.928 -0.0404  0.7940 -0.2111
  108SAPE   O1411094   0.492   2.134   3.040  0.1145 -0.2905 -0.5080
  108SAPE   O1211095   0.640   2.240   2.878  0.3307  0.2482 -0.0924
  108SAPE   O1111096   0.612   2.340   3.105 -0.2119  0.1202 -0.3506
  108SAPE    C111097   0.736   2.301   3.164  0.5051  0.1168 -0.0566
  108SAPE    HA11098   0.784   2.219   3.107  0.2189 -0.6044  0.7225
  108SAPE    HB11099   0.816   2.379   3.169  0.8446 -0.2768  0.8347
  108SAPE    C211100   0.728   2.236   3.302  1.0647 -0.4655  0.2650
  108SAPE    HS11101   0.646   2.162   3.296 -0.1354  0.9053 -0.9696
  108SAPE   O2111102   0.696   2.332   3.402 -0.7808 -0.3398  0.4219
  108SAPE   C2111103   0.573   2.369   3.435  0.0258 -0.4096 -0.7598
  108SAPE   O2211104   0.472   2.306   3.410 -0.3886 -0.1884  0.0112
  108SAPE   C2211105   0.585   2.490   3.525 -0.0986  0.1434 -0.3440
  108SAPE   H2R11106   0.645   2.463   3.614  0.6558  1.0767 -0.5624
  108SAPE   H2S11107   0.627   2.583   3.481  2.1178  0.0458  1.4201
  108SAPE    C311108   0.869   2.171   3.332 -0.0107  0.6143  0.9014
  108SAPE    HX11109   0.941   2.255   3.329  1.0940 -0.3038  1.3551
  108SAPE    HY11110   0.893   2.098   3.252  0.5527 -1.9551  3.2883
  108SAPE   O3111111   0.870   2.102   3.461 -0.0715  0.2052  0.2052
  108SAPE   C3111112   0.792   1.990   3.467  0.3131 -0.3789 -0.7172
  108SAPE   O3211113   0.712   1.953   3.386  0.6329  0.4226 -0.2590
  108SAPE   C3211114   0.800   1.917   3.598 -0.0009 -0.1192 -0.0695
  108SAPE   H2X11115   0.877   1.960   3.665  1.1917  0.2206 -1.5863
  108SAPE   H2Y11116   0.833   1.813   3.574 -1.0988 -0.1183 -1.7693
  108SAPE   C2311117   0.439   2.520   3.583  0.0907  0.0258  0.2803
  108SAPE   H3R11118   0.395   2.424   3.617  0.1930  0.0860  0.5845
  108SAPE   H3S11119   0.386   2.555   3.492  2.6492  3.6529 -0.0118
  108SAPE   C2411120   0.434   2.642   3.679  0.4299 -0.0262  1.0191
  108SAPE   H4R11121   0.330   2.673   3.704  0.3615 -0.8217  1.7399
  108SAPE   H4S11122   0.472   2.726   3.617 -2.8912  2.3261  1.8892
  108SAPE   C2511123   0.525   2.627   3.794 -0.3981 -0.6921  0.3865
  108SAPE   H5R11124   0.496   2.549   3.865 -0.2050  1.2163  2.6735
  108SAPE   C2611125   0.637   2.697   3.824 -0.6260 -0.3796  0.3374
  108SAPE   H6R11126   0.703   2.668   3.907 -0.9073 -0.9128  0.3767
  108SAPE   C2711127   0.685   2.815   3.746  0.3940  0.0747  0.1461
  108SAPE   H7R11128   0.598   2.884   3.733  0.2176 -0.3807 -1.3564
  108SAPE   H7S11129   0.707   2.772   3.645 -0.2066 -1.6687  0.7257
  108SAPE   C2811130   0.799   2.899   3.791 -1.0256 -0.3955  0.3549
  108SAPE   H8R11131   0.781   3.006   3.773  0.1940 -0.2056  0.1246
  108SAPE   C2911132   0.918   2.862   3.844  0.5383 -0.2398  0.4106
  108SAPE   H9R11133   0.985   2.947   3.866 -1.5880  0.8096  3.6058
  108SAPE  C21011134   0.976   2.734   3.878 -1.0091  0.4103  0.3533
  108SAPE  H10R11135   1.077   2.727   3.833 -1.4058  1.2798 -0.7017
  108SAPE  H10S11136   0.925   2.642   3.842  0.7294 -0.5296  0.1729
  108SAPE  C21111137   0.987   2.726   4.028 -0.0760  0.5716  0.0695
  108SAPE  H11R11138   0.890   2.725   4.081 -0.6504  0.9719 -0.9581
  108SAPE  C21211139   1.096   2.694   4.095  0.1361  0.4585  0.0041
  108SAPE  H12R11140   1.099   2.704   4.205 -2.4423 -3.1160  0.5963
  108SAPE  C21311141   1.230   2.665   4.032 -0.2822  0.7042  0.1818
  108SAPE  H13R11142   1.253   2.751   3.965 -1.4110  0.4078 -0.6084
  108SAPE  H13S11143   1.216   2.572   3.973 -0.7410 -0.1080  1.5031
  108SAPE  C21411144   1.345   2.653   4.133  0.7364 -0.0092  0.5693
  108SAPE  H14R11145   1.339   2.721   4.219 -2.4272 -1.2211  1.4363
  108SAPE  C21511146   1.444   2.562   4.126 -0.7744  0.0571  0.2670
  108SAPE  H15R11147   1.514   2.553   4.211 -0.9532 -1.6578  0.2613
  108SAPE  C21611148   1.475   2.482   4.002  0.8220 -0.4171  0.1747
  108SAPE  H16R11149   1.386   2.473   3.936  0.1067  0.9586  0.9082
  108SAPE  H16S11150   1.501   2.376   4.022 -1.1362 -1.0547 -0.3722
  108SAPE  C21711151   1.585   2.540   3.905 -0.6948  0.8779  0.4463
  108SAPE  H17R11152   1.675   2.551   3.969  0.6688  0.0129 -1.2438
  108SAPE  H17S11153   1.544   2.641   3.880  0.6680  1.0239 -1.4209
  108SAPE  C21811154   1.612   2.456   3.781  0.3185  0.0168 -0.3500
  108SAPE  H18R11155   1.514   2.452   3.729  0.1581 -1.4629 -0.0008
  108SAPE  H18S11156   1.631   2.357   3.827  0.2864 -0.2108 -0.8179
  108SAPE  C21911157   1.723   2.499   3.690 -0.5818  0.1068  0.3169
  108SAPE  H19R11158   1.733   2.419   3.614  0.8894 -0.4522  1.0590
  108SAPE  H19S11159   1.810   2.497   3.759 -0.2327 -2.0474 -0.1242
  108SAPE  C22011160   1.695   2.631   3.614 -0.5786 -0.2499  0.8791
  108SAPE  H20R11161   1.671   2.717   3.680 -0.7247  1.0381 -0.7706
  108SAPE  H20S11162   1.622   2.627   3.530  1.1838  0.9846 -0.8167
  108SAPE  H20T11163   1.787   2.655   3.556 -1.2746 -0.0953 -0.1889
  108SAPE   C3311164   0.661   1.909   3.671 -0.7225  0.0797  0.7889
  108SAPE   H3X11165   0.687   1.852   3.763  2.7510 -1.6063 -1.0801
  108SAPE   H3Y11166   0.580   1.852   3.619 -0.4334 -0.3603  0.8114
  108SAPE   C3411167   0.618   2.047   3.714  0.5804  0.2841  0.1676
  108SAPE   H4X11168   0.527   2.041   3.778  1.2296  1.0429  1.1912
  108SAPE   H4Y11169   0.583   2.099   3.622 -0.1517  0.1278  0.3464
  108SAPE   C3511170   0.727   2.130   3.792 -0.0828  0.1504  0.2921
  108SAPE   H5X11171   0.763   2.074   3.882 -0.2542 -0.4209  0.0105
  108SAPE   H5Y11172   0.805   2.159   3.719  0.1400  3.4938  1.6582
  108SAPE   C3611173   0.679   2.267   3.855  0.3222  0.0731 -0.2564
  108SAPE   H6X11174   0.620   2.235   3.943 -0.0715 -1.4657 -1.0520
  108SAPE   H6Y11175   0.600   2.320   3.799  0.0185  1.4543  1.3925
  108SAPE   C3711176   0.781   2.364   3.904 -0.5131  0.1098 -0.4598
  108SAPE   H7X11177   0.727   2.453   3.941 -0.5417  0.9601 -2.4167
  108SAPE   H7Y11178   0.842   2.389   3.814  0.7066 -2.5837 -0.4717
  108SAPE   C3811179   0.874   2.309   4.010  0.0688 -0.0613 -0.7640
  108SAPE   H8X11180   0.973   2.338   3.968 -0.6246  2.2068 -0.9390
  108SAPE   H8Y11181   0.859   2.199   4.003  0.3049 -0.2080  0.7362
  108SAPE   C3911182   0.852   2.357   4.155  0.0028  0.0806 -0.1342
  108SAPE   H9X11183   0.760   2.318   4.203  0.1101 -1.0247 -0.7849
  108SAPE   H9Y11184   0.827   2.465   4.162  0.4977  0.1390  1.0482
  108SAPE  C31011185   0.981   2.337   4.240 -0.0540 -0.9364 -0.6578
  108SAPE  H10X11186   0.943   2.368   4.339 -2.9479  0.2412 -2.0230
  108SAPE  H10Y11187   1.052   2.412   4.199 -1.0155  0.2559 -0.1949
  108SAPE  C31111188   1.049   2.201   4.243  0.2476  0.6901 -0.3710
  108SAPE  H11X11189   1.085   2.168   4.144 -1.3046 -1.0760 -0.3911
  108SAPE  H11Y11190   0.969   2.124   4.255  0.2663  0.2486 -2.7790
  108SAPE  C31211191   1.171   2.188   4.342 -0.0831  0.8719 -0.7076
  108SAPE  H12X11192   1.205   2.082   4.338  0.6821  1.1240 -1.1120
  108SAPE  H12Y11193   1.129   2.205   4.443 -0.3711 -1.6447 -0.3380
  108SAPE  C31311194   1.302   2.268   4.310 -0.0886  0.1203 -1.1991
  108SAPE  H13X11195   1.283   2.374   4.337  2.3345  0.5449 -0.9057
  108SAPE  H13Y11196   1.324   2.276   4.202 -0.8368  2.4393 -1.2235
  108SAPE  C31411197   1.421   2.229   4.391 -0.4659  0.0184 -0.7084
  108SAPE  H14X11198   1.396   2.218   4.498 -1.0154  1.2773 -0.7013
  108SAPE  H14Y11199   1.497   2.310   4.384 -0.4495 -0.0022 -0.7757
  108SAPE  C31511200   1.487   2.087   4.358  0.3608  0.3540  0.3311
  108SAPE  H15X11201   1.513   2.090   4.250 -1.1460  1.3040 -0.0409
  108SAPE  H15Y11202   1.409   2.007   4.367 -0.1224  0.3887 -2.6449
  108SAPE  C31611203   1.604   2.048   4.448 -0.1043  0.1350 -0.1918
  108SAPE  H16X11204   1.575   2.055   4.555 -0.4181  2.1722 -0.3788
  108SAPE  H16Y11205   1.675   2.130   4.424 -1.6869  1.1419 -1.5836
  108SAPE  C31711206   1.668   1.905   4.413 -0.0990  0.0066  0.4595
  108SAPE  H17X11207   1.673   1.903   4.302 -0.1005  1.9060  0.4018
  108SAPE  H17Y11208   1.595   1.828   4.446 -1.7348  0.9051 -0.9198
  108SAPE  C31811209   1.810   1.875   4.474  0.9218  0.0648  0.4056
  108SAPE  H18X11210   1.840   1.771   4.449 -1.9840 -0.9327  0.7136
  108SAPE  H18Y11211   1.808   1.894   4.583 -0.2644 -0.1360  0.4366
  108SAPE  H18Z11212   1.885   1.948   4.436 -1.6349  2.1144 -1.0473
  109SAPE     N11213   3.169   0.728   2.785 -0.6703 -0.3399  1.1243
  109SAPE   HN111214   3.142   0.820   2.826  1.0832  0.8117 -0.1747
  109SAPE   HN211215   3.106   0.647   2.798  0.7938 -2.0493 -1.5638
  109SAPE   HN311216   3.246   0.708   2.852 -0.4084 -2.1081  0.3326
  109SAPE   C1211217   3.231   0.750   2.650  0.7333  0.4630 -0.8996
  109SAPE  H12A11218   3.162   0.695   2.582 -1.7169 -1.6749  2.9741
  109SAPE  H12B11219   3.321   0.688   2.669  1.4025  1.8182  0.5200
  109SAPE   C1111220   3.246   0.896   2.617 -0.0310 -0.2624 -0.5904
  109SAPE  H11A11221   3.143   0.937   2.603 -0.6133 -2.1722 -2.2531
  109SAPE  H11B11222   3.300   0.910   2.521 -1.7147 -2.8694 -2.0124
  109SAPE     P11223   3.454   1.042   2.698  0.4638  0.1100 -0.1703
  109SAPE   O1311224   3.564   0.940   2.697 -0.0298  0.1159  0.2837
  109SAPE   O1411225   3.439   1.134   2.580  0.0620  0.0667  0.1806
  109SAPE   O1211226   3.313   0.963   2.721  0.1666 -1.0403 -0.7616
  109SAPE   O1111227   3.467   1.124   2.831  0.2635 -0.2379 -0.4299
  109SAPE    C111228   3.362   1.224   2.861 -0.5616 -0.8562  0.6865
  109SAPE    HA11229   3.400   1.325   2.834 -1.9402 -0.5384 -0.1497
  109SAPE    HB11230   3.267   1.204   2.807 -0.0395 -1.2146 -0.1112
  109SAPE    C211231   3.337   1.212   3.014 -0.0319  0.4584 -0.2111
  109SAPE    HS11232   3.252   1.275   3.047  0.5915  1.0610  0.2786
  109SAPE   O2111233   3.468   1.254   3.078 -0.1306  0.0170  0.4653
  109SAPE   C2111234   3.487   1.387   3.076 -0.3588  0.6552  0.3814
  109SAPE   O2211235   3.415   1.471   3.021 -0.3167  0.3129  0.2103
  109SAPE   C2211236   3.621   1.418   3.149  0.0098 -0.2099  0.8993
  109SAPE   H2R11237   3.687   1.451   3.066 -2.9981  5.3919  0.3061
  109SAPE   H2S11238   3.593   1.509   3.206  0.1887 -0.2699  1.0859
  109SAPE    C311239   3.297   1.071   3.057  0.7968 -0.5657 -0.6720
  109SAPE    HX11240   3.360   0.996   3.004  0.0841 -1.5303 -0.1722
  109SAPE    HY11241   3.201   1.056   3.003  1.0314 -0.6005 -1.0874
  109SAPE   O3111242   3.296   1.043   3.198 -0.3915  0.1091 -0.7541
  109SAPE   C3111243   3.216   1.103   3.281  0.6788 -0.2266  0.6226
  109SAPE   O3211244   3.130   1.180   3.245  0.1068  0.2508 -0.4539
  109SAPE   C3211245   3.236   1.052   3.429  0.8679 -0.4587 -0.0563
  109SAPE   H2X11246   3.250   0.942   3.433  1.3109 -0.3963  0.1024
  109SAPE   H2Y11247   3.138   1.085   3.470  1.3146  3.4256 -1.6303
  109SAPE   C2311248   3.677   1.308   3.245 -0.2100 -0.4181 -0.7998
  109SAPE   H3R11249   3.788   1.306   3.233 -0.3964 -0.0954 -3.0836
  109SAPE   H3S11250   3.651   1.204   3.216 -1.2981 -0.1844 -0.6997
  109SAPE   C2411251   3.635   1.338   3.397 -0.0447  0.3747  0.6638
  109SAPE   H4R11252   3.653   1.248   3.459  0.8519  0.3572  0.3864
  109SAPE   H4S11253   3.526   1.359   3.395 -0.0329  0.4780  0.9913
  109SAPE   C2511254   3.710   1.448   3.456  0.6844  0.0467 -0.6969
  109SAPE   H5R11255   3.727   1.532   3.386  0.6367  0.3213 -0.3823
  109SAPE   C2611256   3.778   1.456   3.570  0.3373 -0.3296  0.0230
  109SAPE   H6R11257   3.834   1.550   3.582  1.0787 -0.9593  1.8144
  109SAPE   C2711258   3.773   1.366   3.690  0.2928 -0.3740  0.2630
  109SAPE   H7R11259   3.879   1.358   3.722  0.4735  0.6222 -0.0519
  109SAPE   H7S11260   3.737   1.264   3.664 -0.2541  0.0313 -0.6417
  109SAPE   C2811261   3.683   1.422   3.797  0.0969 -0.3539  0.6529
  109SAPE   H8R11262   3.577   1.428   3.771  0.7033 -1.0257 -2.3903
  109SAPE   C2911263   3.710   1.439   3.925  0.4183  0.0313  0.0514
  109SAPE   H9R11264   3.632   1.486   3.987  1.4250  1.9049 -0.0357
  109SAPE  C21011265   3.848   1.419   4.001 -0.0217 -0.4502  0.3002
  109SAPE  H10R11266   3.914   1.345   3.951  0.0232  0.0913 -0.4661
  109SAPE  H10S11267   3.833   1.370   4.099 -0.1599 -0.4363  0.2863
  109SAPE  C21111268   3.923   1.549   4.009  0.3070 -0.0271 -1.0782
  109SAPE  H11R11269   3.949   1.592   3.912  3.0351 -0.6403 -0.6819
  109SAPE  C21211270   3.943   1.628   4.125  0.0945  0.0199 -0.0495
  109SAPE  H12R11271   4.005   1.719   4.121  0.5841 -0.2585  0.8358
  109SAPE  C21311272   3.921   1.588   4.267  0.3332 -0.6090 -0.1552
  109SAPE  H13R11273   4.016   1.583   4.325  1.0422  1.0848 -1.1224
  109SAPE  H13S11274   3.879   1.485   4.279 -3.9714  0.7748 -1.6075
  109SAPE  C21411275   3.822   1.673   4.343  0.4173  0.1681  0.2723
  109SAPE  H14R11276   3.743   1.706   4.275 -0.5068  0.9313  1.6649
  109SAPE  C21511277   3.812   1.683   4.480  0.2339  0.8846  0.0366
  109SAPE  H15R11278   3.759   1.769   4.521 -0.9901  1.1550 -1.9583
  109SAPE  C21611279   3.895   1.599   4.570  0.1403 -0.0572 -0.0772
  109SAPE  H16R11280   3.936   1.507   4.522  1.4162 -0.3311  1.4586
  109SAPE  H16S11281   3.832   1.576   4.658  0.2172  0.5936  0.1540
  109SAPE  C21711282   4.021   1.666   4.639  0.4302  0.1749 -0.7745
  109SAPE  H17R11283   4.080   1.688   4.547 -1.4686 -0.0477 -2.1072
  109SAPE  H17S11284   4.059   1.591   4.711 -2.5110  0.0100  0.7713
  109SAPE  C21811285   3.988   1.798   4.705  0.2121 -0.3688 -0.6502
  109SAPE  H18R11286   3.940   1.881   4.649 -2.3895 -1.7456 -0.5863
  109SAPE  H18S11287   4.081   1.846   4.744  0.3789 -0.3299 -1.0971
  109SAPE  C21911288   3.914   1.773   4.836  0.7167 -0.5374  0.2038
  109SAPE  H19R11289   3.975   1.702   4.896  2.2602 -2.0660 -2.9199
  109SAPE  H19S11290   3.813   1.732   4.813  0.4775  0.7140 -1.1720
  109SAPE  C22011291   3.884   1.900   4.921 -0.1795 -0.1225  0.2905
  109SAPE  H20R11292   3.982   1.933   4.960 -0.4314 -0.8436  1.5627
  109SAPE  H20S11293   3.811   1.884   5.004 -0.2425  0.4475  0.3503
  109SAPE  H20T11294   3.831   1.973   4.855 -1.4591  0.2371  1.6534
  109SAPE   C3311295   3.341   1.138   3.497  0.5289 -0.3033 -0.2568
  109SAPE   H3X11296   3.321   1.247   3.506  2.6167  0.0920  0.0378
  109SAPE   H3Y11297   3.440   1.130   3.448  0.5335 -1.9573 -0.0169
  109SAPE   C3411298   3.351   1.100   3.645 -0.1907  0.3981 -0.3205
  109SAPE   H4X11299   3.455   1.095   3.683  0.3380  2.5482 -1.3156
  109SAPE   H4Y11300   3.316   0.995   3.654 -0.8136  0.5718 -0.6239
  109SAPE   C3511301   3.270   1.197   3.733  0.7305  0.5674 -0.1804
  109SAPE   H5X11302   3.167   1.219   3.696  1.0803 -0.2594 -1.7079
  109SAPE   H5Y11303   3.319   1.297   3.731  0.9219  0.5179  0.9839
  109SAPE   C3611304   3.272   1.150   3.880 -0.1439  0.8477 -0.0400
  109SAPE   H6X11305   3.248   1.041   3.888 -1.0205  0.8372 -1.9581
  109SAPE   H6Y11306   3.193   1.201   3.938 -0.1856  1.6067 -0.7341
  109SAPE   C3711307   3.409   1.168   3.951  0.4036  0.3365  0.3815
  109SAPE   H7X11308   3.455   1.258   3.903  2.0269 -1.1257 -0.9405
  109SAPE   H7Y11309   3.482   1.090   3.922  0.1480  0.5139 -0.7831
  109SAPE   C3811310   3.397   1.178   4.098  0.2905  0.7959  0.2373
  109SAPE   H8X11311   3.374   1.080   4.145  3.5671 -0.3228 -0.1951
  109SAPE   H8Y11312   3.324   1.257   4.125  0.1860  1.2115 -1.1795
  109SAPE   C3911313   3.523   1.203   4.181 -0.9896  0.3526  0.0772
  109SAPE   H9X11314   3.550   1.303   4.142 -0.6228  0.6545  1.0699
  109SAPE   H9Y11315   3.595   1.120   4.164 -1.4080 -0.1233  0.6143
  109SAPE  C31011316   3.494   1.209   4.338 -0.2215  0.9141  0.2525
  109SAPE  H10X11317   3.421   1.129   4.365  0.5139  0.3347  0.5602
  109SAPE  H10Y11318   3.440   1.306   4.346  1.7881  2.1568 -0.6128
  109SAPE  C31111319   3.621   1.213   4.410 -0.4262 -0.5519 -0.3537
  109SAPE  H11X11320   3.694   1.276   4.355  0.2045 -0.3731  0.6690
  109SAPE  H11Y11321   3.661   1.109   4.418  0.9157 -0.0466 -0.2573
  109SAPE  C31211322   3.604   1.258   4.558  0.2453 -0.1774  0.1918
  109SAPE  H12X11323   3.542   1.178   4.604  2.1078 -2.1194 -0.4978
  109SAPE  H12Y11324   3.555   1.357   4.573 -1.5350 -0.9067 -0.4897
  109SAPE  C31311325   3.738   1.246   4.635 -0.0502 -0.4778  0.1505
  109SAPE  H13X11326   3.812   1.315   4.591 -0.5550  0.1129  0.2111
  109SAPE  H13Y11327   3.777   1.146   4.607  1.7865  0.8630 -2.3568
  109SAPE  C31411328   3.722   1.279   4.785  0.7492 -0.0862 -0.6178
  109SAPE  H14X11329   3.638   1.220   4.829  0.9160 -1.3822 -1.9569
  109SAPE  H14Y11330   3.690   1.385   4.796 -1.3983 -0.7263 -0.2728
  109SAPE  C31511331   3.850   1.241   4.860 -0.0343 -0.7322 -0.0715
  109SAPE  H15X11332   3.871   1.135   4.838  1.8244 -0.1263 -1.5501
  109SAPE  H15Y11333   3.825   1.249   4.968  0.6984  0.1417  0.0505
  109SAPE  C31611334   3.964   1.338   4.833 -0.7241  0.3149 -0.0441
  109SAPE  H16X11335   3.931   1.444   4.832  1.5519  1.0878 -1.5938
  109SAPE  H16Y11336   3.986   1.325   4.725 -0.6900  4.1505 -0.6345
  109SAPE  C31711337   4.082   1.326   4.928 -0.1512 -0.5636 -0.8888
  109SAPE  H17X11338   4.071   1.393   5.016  0.1211  1.3465 -2.2388
  109SAPE  H17Y11339   4.166   1.382   4.881 -1.2974  0.7688 -1.4101
  109SAPE  C31811340   4.123   1.185   4.947  0.2236 -0.0523 -0.9108
  109SAPE  H18X11341   4.139   1.147   4.844 -1.3427  2.3676 -2.1540
  109SAPE  H18Y11342   4.047   1.124   5.001 -0.5448 -0.0217 -1.9439
  109SAPE  H18Z11343   4.211   1.168   5.013 -1.8865 -4.6884  1.1942
  110SAPE     N11344   3.788   4.306   2.951 -0.2777  0.4907 -0.5860
  110SAPE   HN111345   3.703   4.361   2.973 -0.4238  0.4206 -0.9676
  110SAPE   HN211346   3.872   4.362   2.973  0.3598 -0.8184  0.4596
  110SAPE   HN311347   3.788   4.266   2.854  0.0120  0.5013 -0.5917
  110SAPE   C1211348   3.791   4.189   3.036 -0.2701  0.7791 -0.3537
  110SAPE  H12A11349   3.688   4.168   3.073 -0.5077  1.4247 -0.6424
  110SAPE  H12B11350   3.858   4.202   3.124 -1.1514 -1.3129  0.7138
  110SAPE   C1111351   3.831   4.054   2.962 -0.0815  0.8271  0.1799
  110SAPE  H11A11352   3.847   3.979   3.041 -0.7617  1.2431  0.7272
  110SAPE  H11B11353   3.927   4.065   2.907  0.0955 -0.7048  0.1503
  110SAPE     P11354   3.711   3.847   2.861  0.0448 -0.1059  0.4571
  110SAPE   O1311355   3.589   3.795   2.802 -0.3658  0.0225 -0.2325
  110SAPE   O1411356   3.838   3.795   2.801 -0.9019  0.0264 -0.5164
  110SAPE   O1211357   3.715   4.010   2.879 -0.5701 -0.0233 -0.1368
  110SAPE   O1111358   3.712   3.795   3.007  0.7195 -0.2307 -0.0340
  110SAPE    C111359   3.592   3.803   3.084  0.2476 -0.0423  0.8919
  110SAPE    HA11360   3.499   3.846   3.041  0.5606  3.0920  3.0449
  110SAPE    HB11361   3.560   3.702   3.118  0.1729 -0.4667 -0.3983
  110SAPE    C211362   3.600   3.890   3.212  0.1419 -0.0751  0.4503
  110SAPE    HS11363   3.594   3.994   3.175 -1.8095 -0.6236 -0.9699
  110SAPE   O2111364   3.726   3.865   3.275 -0.0989  0.2035  0.0680
  110SAPE   C2111365   3.787   3.968   3.332 -0.0575  0.7794  0.0618
  110SAPE   O2211366   3.744   4.086   3.318 -0.1285 -0.2872  0.0704
  110SAPE   C2211367   3.899   3.916   3.429  0.4493 -0.1151 -0.2785
  110SAPE   H2R11368   3.989   3.913   3.364  1.2413 -1.8330  0.8178
  110SAPE   H2S11369   3.903   4.002   3.499 -1.4728  0.8420 -1.2768
  110SAPE    C311370   3.487   3.856   3.313 -0.2127 -0.1152  0.5760
  110SAPE    HX11371   3.384   3.862   3.272  0.2574 -0.7700 -0.7815
  110SAPE    HY11372   3.498   3.755   3.358  2.2507 -0.2715 -0.1915
  110SAPE   O3111373   3.507   3.943   3.425 -0.4406  0.4278  0.4566
  110SAPE   C3111374   3.459   4.063   3.420  0.4303 -0.2416 -0.5699
  110SAPE   O3211375   3.390   4.110   3.332  0.0193 -0.3711 -0.0438
  110SAPE   C3211376   3.490   4.125   3.555  0.1284  0.0762  0.5711
  110SAPE   H2X11377   3.568   4.203   3.541 -1.8776  1.8989 -1.1022
  110SAPE   H2Y11378   3.512   4.052   3.636  1.1441  0.8226  0.9908
  110SAPE   C2311379   3.879   3.773   3.484  0.5068  0.0250 -0.7452
  110SAPE   H3R11380   3.878   3.704   3.397 -1.0279  1.2063 -1.7137
  110SAPE   H3S11381   3.783   3.770   3.541  1.8838 -1.6365  1.6897
  110SAPE   C2411382   3.997   3.735   3.579 -0.0544  0.1969  0.1902
  110SAPE   H4R11383   4.085   3.746   3.512  0.5802 -2.7134  0.3820
  110SAPE   H4S11384   3.994   3.624   3.591 -0.3275 -0.2965 -3.3080
  110SAPE   C2511385   4.009   3.804   3.713  0.2095  0.0570 -0.7229
  110SAPE   H5R11386   4.083   3.886   3.712  1.1673 -0.7543  0.3784
  110SAPE   C2611387   3.962   3.757   3.833 -0.6909  0.2986  0.2197
  110SAPE   H6R11388   3.980   3.818   3.922  1.4397 -1.1215  0.8442
  110SAPE   C2711389   3.869   3.639   3.861 -0.7421 -0.2471  0.7742
  110SAPE   H7R11390   3.929   3.560   3.911  1.3119  0.4531 -0.4276
  110SAPE   H7S11391   3.841   3.586   3.768 -1.7400  0.1599  0.8270
  110SAPE   C2811392   3.746   3.671   3.936  0.6156  0.3165  0.3837
  110SAPE   H8R11393   3.661   3.714   3.881  0.0749  1.9812  2.3845
  110SAPE   C2911394   3.737   3.683   4.069 -0.1055 -0.7806  0.5864
  110SAPE   H9R11395   3.643   3.716   4.115  1.6362  2.9249  1.8234
  110SAPE  C21011396   3.847   3.671   4.178  0.2031 -0.0922  0.8542
  110SAPE  H10R11397   3.951   3.647   4.148  0.9892 -0.6895  3.7140
  110SAPE  H10S11398   3.811   3.593   4.248 -2.4456  0.5601  0.3147
  110SAPE  C21111399   3.874   3.806   4.238  0.1557 -0.7051 -0.0710
  110SAPE  H11R11400   3.939   3.866   4.173 -0.8959 -0.3102 -0.7796
  110SAPE  C21211401   3.831   3.861   4.355  0.4721 -0.1966  0.1137
  110SAPE  H12R11402   3.854   3.964   4.383  1.5937 -0.2882 -0.4332
  110SAPE  C21311403   3.725   3.795   4.451  0.2705  0.1752  0.1397
  110SAPE  H13R11404   3.753   3.798   4.558 -0.5029 -1.3044  0.4203
  110SAPE  H13S11405   3.720   3.685   4.431 -0.2236 -0.0581  1.4212
  110SAPE  C21411406   3.588   3.857   4.441 -0.2653  0.3207  0.0249
  110SAPE  H14R11407   3.532   3.813   4.357  0.1685 -0.9141  0.3665
  110SAPE  C21511408   3.538   3.973   4.493 -0.0217 -0.5614 -0.8134
  110SAPE  H15R11409   3.437   4.008   4.469  0.4420  1.3073 -0.1891
  110SAPE  C21611410   3.611   4.060   4.597 -0.0355  0.0662 -0.1103
  110SAPE  H16R11411   3.596   4.168   4.576  2.0751  1.1976  3.2965
  110SAPE  H16S11412   3.722   4.048   4.597  0.2336  2.2175  0.0036
  110SAPE  C21711413   3.571   4.052   4.749 -0.2977 -0.1462  0.6325
  110SAPE  H17R11414   3.467   4.089   4.759 -0.1735  0.2499  0.4774
  110SAPE  H17S11415   3.639   4.122   4.804  0.3860  0.1017 -0.4850
  110SAPE  C21811416   3.591   3.920   4.821 -0.3957  0.6381  1.1471
  110SAPE  H18R11417   3.700   3.906   4.803 -0.3396  1.6840  0.5698
  110SAPE  H18S11418   3.538   3.837   4.770  0.5937  1.0900 -0.7096
  110SAPE  C21911419   3.559   3.927   4.972 -0.1572 -0.2113  0.3578
  110SAPE  H19R11420   3.622   4.000   5.027 -3.9707  0.4919  4.3276
  110SAPE  H19S11421   3.584   3.830   5.020  0.6590  0.3483  1.0773
  110SAPE  C22011422   3.412   3.968   5.005 -0.7042  0.0882  0.3632
  110SAPE  H20R11423   3.402   4.066   4.953  2.6253 -0.2866 -1.2353
  110SAPE  H20S11424   3.399   3.988   5.114  1.2343  2.2334  0.2870
  110SAPE  H20T11425   3.333   3.903   4.964 -2.1260  1.0023  1.5397
  110SAPE   C3311426   3.366   4.207   3.601  0.1811  0.9797  0.1322
  110SAPE   H3X11427   3.286   4.135   3.628  1.5296 -0.6950 -0.1515
  110SAPE   H3Y11428   3.323   4.273   3.522 -1.9008 -1.4676 -0.9146
  110SAPE   C3411429   3.386   4.282   3.733  0.2007  0.5356  0.1199
  110SAPE   H4X11430   3.428   4.206   3.803 -3.2538  0.0041  1.7908
  110SAPE   H4Y11431   3.287   4.315   3.770 -0.4851 -0.2884 -0.9445
  110SAPE   C3511432   3.473   4.404   3.723  0.0587  0.0248  0.5520
  110SAPE   H5X11433   3.438   4.468   3.640  1.4660 -0.2913 -0.3253
  110SAPE   H5Y11434   3.579   4.371   3.713  1.2908  3.8600 -0.5184
  110SAPE   C3611435   3.463   4.510   3.831 -0.4001 -0.3045  0.0329
  110SAPE   H6X11436   3.501   4.464   3.925  1.7586 -0.4031 -0.8308
  110SAPE   H6Y11437   3.359   4.550   3.834 -0.6830 -1.0772  2.0002
  110SAPE   C3711438   3.562   4.620   3.806  0.4019 -0.3381  0.2465
  110SAPE   H7X11439   3.526   4.678   3.718 -1.2569 -1.4207  0.1609
  110SAPE   H7Y11440   3.662   4.575   3.790  0.2989  0.1083 -2.0490
  110SAPE   C3811441   3.580   4.725   3.916  0.1091  0.3517  0.1722
  110SAPE   H8X11442   3.577   4.680   4.018 -1.4037 -0.4856 -0.2078
  110SAPE   H8Y11443   3.500   4.802   3.924  0.3818  0.6596 -0.0409
  110SAPE   C3911444   3.706   4.803   3.904 -0.3147 -0.1351 -0.3699
  110SAPE   H9X11445   3.726   4.838   3.801  1.5745  1.6467  0.5118
  110SAPE   H9Y11446   3.800   4.748   3.924 -2.1795 -2.7533  1.8812
  110SAPE  C31011447   3.709   4.932   3.998  0.0587  0.4228  0.5454
  110SAPE  H10X11448   3.625   4.998   3.967 -2.6453 -1.6212  2.9490
  110SAPE  H10Y11449   3.796   4.991   3.965 -0.3526  0.1265 -1.1756
  110SAPE  C31111450   3.716   4.902   4.149  0.8774  0.6485  0.9629
  110SAPE  H11X11451   3.803   4.835   4.162 -0.5698 -1.7713 -0.9647
  110SAPE  H11Y11452   3.636   4.831   4.179  0.4876  0.0550 -1.2911
  110SAPE  C31211453   3.714   5.019   4.243  0.5418  0.5340 -0.5441
  110SAPE  H12X11454   3.808   5.069   4.209  1.7417  0.0816  1.8462
  110SAPE  H12Y11455   3.738   4.991   4.348 -0.2496 -1.3437 -0.8346
  110SAPE  C31311456   3.596   5.114   4.234 -0.5812 -0.0218  0.5865
  110SAPE  H13X11457   3.500   5.058   4.231 -0.9046  0.5854 -1.4044
  110SAPE  H13Y11458   3.610   5.163   4.136  0.8344 -0.5581  0.5045
  110SAPE  C31411459   3.589   5.220   4.344 -0.3333  0.4089  0.0295
  110SAPE  H14X11460   3.515   5.296   4.310  1.0292  1.2062 -1.2822
  110SAPE  H14Y11461   3.686   5.272   4.358  0.8333 -1.8331  0.7530
  110SAPE  C31511462   3.538   5.154   4.477 -0.1149 -0.0354  0.5427
  110SAPE  H15X11463   3.591   5.058   4.490 -1.8859 -1.0099  0.8945
  110SAPE  H15Y11464   3.433   5.118   4.464  0.1412 -0.3532 -0.7493
  110SAPE  C31611465   3.572   5.239   4.594 -0.2818 -0.8695  0.2336
  110SAPE  H16X11466   3.535   5.342   4.574  2.3220  0.0286 -0.3733
  110SAPE  H16Y11467   3.682   5.253   4.605 -0.6905  1.3625  2.6539
  110SAPE  C31711468   3.502   5.200   4.722 -0.0829  0.3662  0.2793
  110SAPE  H17X11469   3.515   5.090   4.730  0.1224  0.2176 -1.6341
  110SAPE  H17Y11470   3.393   5.207   4.699 -0.4117 -1.2026  1.2437
  110SAPE  C31811471   3.559   5.261   4.844  1.1834 -0.4428 -0.4739
  110SAPE  H18X11472   3.668   5.247   4.859  0.9263 -1.6548  0.4226
  110SAPE  H18Y11473   3.512   5.218   4.935 -0.5484  0.3333 -0.9485
  110SAPE  H18Z11474   3.547   5.372   4.840 -1.2123 -0.6545 -0.8401
  111SAPE     N11475   3.960   6.002   3.040  0.0451 -0.5139 -0.0190
  111SAPE   HN111476   4.014   5.917   3.016 -0.1469 -1.1745  1.6951
  111SAPE   HN211477   3.904   6.012   2.953 -0.3690 -2.1672  0.0203
  111SAPE   HN311478   4.019   6.082   3.069 -0.1383 -0.3208 -0.1782
  111SAPE   C1211479   3.850   5.961   3.144 -0.7241 -0.3712  0.1070
  111SAPE  H12A11480   3.855   5.851   3.162  0.0294 -0.3895 -0.1820
  111SAPE  H12B11481   3.755   6.002   3.104 -0.0405 -0.2526 -1.4736
  111SAPE   C1111482   3.880   6.014   3.279  0.3698  0.3214 -0.3140
  111SAPE  H11A11483   3.983   5.987   3.312  0.1133  0.7864  0.9323
  111SAPE  H11B11484   3.807   5.965   3.347 -1.2164  2.7590 -0.1509
  111SAPE     P11485   3.870   6.227   3.421 -0.0186 -0.1587  0.0209
  111SAPE   O1311486   3.909   6.358   3.375  0.1141 -0.7439  0.6963
  111SAPE   O1411487   3.749   6.217   3.508 -0.6063  0.0684  0.3991
  111SAPE   O1211488   3.853   6.148   3.290  0.3129  0.2039 -0.2525
  111SAPE   O1111489   3.986   6.153   3.484 -0.3410 -0.4262 -0.3043
  111SAPE    C111490   4.110   6.213   3.534  0.1221  0.4331  0.1986
  111SAPE    HA11491   4.170   6.236   3.443 -0.0794  0.1608 -0.0056
  111SAPE    HB11492   4.098   6.300   3.601  0.8554 -1.2339  2.6225
  111SAPE    C211493   4.198   6.108   3.618 -0.0080 -0.7704  0.3932
  111SAPE    HS11494   4.254   6.042   3.548 -0.0317  0.5822 -0.9424
  111SAPE   O2111495   4.114   6.040   3.712  0.3282 -0.2603 -0.5924
  111SAPE   C2111496   4.038   5.933   3.669 -0.4938  0.3545 -0.3527
  111SAPE   O2211497   4.063   5.869   3.569 -0.2552  0.4538 -0.4295
  111SAPE   C2211498   3.916   5.911   3.760 -0.0380  0.3578 -0.0137
  111SAPE   H2R11499   3.855   5.835   3.706  1.6403  0.5379 -2.3068
  111SAPE   H2S11500   3.955   5.846   3.841  0.1434  0.9179  0.3527
  111SAPE    C311501   4.313   6.181   3.693  0.8082  0.9305 -0.0596
  111SAPE    HX11502   4.363   6.099   3.749  0.5004  0.1768 -0.8634
  111SAPE    HY11503   4.258   6.240   3.770 -0.7752 -2.2528  1.4337
  111SAPE   O3111504   4.396   6.251   3.609  0.3915  0.0644  0.4463
  111SAPE   C3111505   4.503   6.307   3.671 -0.2532  0.4716  0.3307
  111SAPE   O3211506   4.512   6.321   3.792  0.4639 -0.6642  0.4630
  111SAPE   C3211507   4.586   6.366   3.565  1.1515  0.7687 -0.1012
  111SAPE   H2X11508   4.531   6.441   3.505  1.7458  0.7937 -0.6336
  111SAPE   H2Y11509   4.628   6.290   3.495  0.8403  0.9478 -0.4852
  111SAPE   C2311510   3.847   6.042   3.816  0.0159 -0.6212  0.6567
  111SAPE   H3R11511   3.806   6.100   3.730  2.0278 -0.7502 -0.4563
  111SAPE   H3S11512   3.926   6.105   3.860 -0.2428 -0.6590  1.1823
  111SAPE   C2411513   3.738   5.999   3.911 -0.1092  1.0794  0.0897
  111SAPE   H4R11514   3.780   5.942   3.997  1.0626  1.3255 -0.3036
  111SAPE   H4S11515   3.673   5.935   3.849  0.9983  0.7549 -0.7742
  111SAPE   C2511516   3.666   6.112   3.977  0.9337  0.0354  0.6579
  111SAPE   H5R11517   3.725   6.203   3.999  0.0245  1.4087 -2.0744
  111SAPE   C2611518   3.533   6.108   4.007  0.3866  0.3311  0.3225
  111SAPE   H6R11519   3.488   6.196   4.056 -0.5191  0.2577 -0.3566
  111SAPE   C2711520   3.439   5.989   3.986 -0.6026 -0.1098  0.1999
  111SAPE   H7R11521   3.402   5.970   4.089  3.1170 -1.0057  1.5520
  111SAPE   H7S11522   3.498   5.901   3.951  1.8725  1.9413 -1.1949
  111SAPE   C2811523   3.320   6.023   3.900 -0.0438  0.4500  0.0290
  111SAPE   H8R11524   3.335   6.076   3.805  0.4771 -2.2903 -1.5386
  111SAPE   C2911525   3.194   5.961   3.920 -0.2068  0.1146  0.0362
  111SAPE   H9R11526   3.112   5.993   3.854 -0.1022 -0.8822 -0.5941
  111SAPE  C21011527   3.158   5.872   4.037 -0.7432  0.6214  0.1136
  111SAPE  H10R11528   3.212   5.888   4.133 -1.9775  0.4238  0.8609
  111SAPE  H10S11529   3.186   5.772   3.996  0.1752  0.4277  1.1677
  111SAPE  C21111530   3.013   5.881   4.064  0.5499  0.6866 -0.7799
  111SAPE  H11R11531   2.955   5.873   3.971 -0.1433  0.5001 -0.3320
  111SAPE  C21211532   2.953   5.893   4.186  0.6890 -0.0973 -0.0531
  111SAPE  H12R11533   2.844   5.891   4.196  0.5501 -3.3161 -1.0888
  111SAPE  C21311534   3.022   5.903   4.321 -0.0219 -0.2472 -0.7061
  111SAPE  H13R11535   2.986   5.997   4.368  1.6617  1.4528 -2.5853
  111SAPE  H13S11536   3.133   5.910   4.309 -0.0329  0.5531 -0.3602
  111SAPE  C21411537   2.990   5.775   4.399 -0.0088  0.4878 -0.4502
  111SAPE  H14R11538   2.983   5.685   4.335  0.0178 -0.8021  1.2861
  111SAPE  C21511539   2.974   5.769   4.530 -0.6108 -0.2891 -0.3156
  111SAPE  H15R11540   2.959   5.673   4.581  0.3888  0.3554  1.2782
  111SAPE  C21611541   2.982   5.880   4.636 -0.0364  0.5534  0.0189
  111SAPE  H16R11542   3.026   5.976   4.601 -1.4599  1.1424 -0.2463
  111SAPE  H16S11543   3.045   5.843   4.719  0.0034  2.4047  0.8665
  111SAPE  C21711544   2.845   5.916   4.686  0.1763 -0.7316 -0.2276
  111SAPE  H17R11545   2.851   5.974   4.781 -0.7171 -2.5297  0.9723
  111SAPE  H17S11546   2.789   5.827   4.722 -0.1397  0.1344  1.5644
  111SAPE  C21811547   2.751   5.995   4.582  0.6465  0.2912 -0.2403
  111SAPE  H18R11548   2.654   6.013   4.633  0.9682  1.1581  0.0840
  111SAPE  H18S11549   2.733   5.935   4.491 -0.4787 -0.3424  0.3794
  111SAPE  C21911550   2.813   6.126   4.534  0.4417 -0.1046 -0.5098
  111SAPE  H19R11551   2.918   6.121   4.499  0.4406 -1.2134 -0.3969
  111SAPE  H19S11552   2.801   6.197   4.619  1.0675  1.3741 -1.6239
  111SAPE  C22011553   2.741   6.170   4.406 -0.1534 -0.2165  0.0001
  111SAPE  H20R11554   2.774   6.098   4.328  1.7878  0.5388  0.0478
  111SAPE  H20S11555   2.786   6.272   4.399  0.8613 -0.5558  1.1817
  111SAPE  H20T11556   2.631   6.174   4.419 -0.2162 -3.3528  1.2983
  111SAPE   C3311557   4.716   6.421   3.626  0.4785  0.3831 -0.4488
  111SAPE   H3X11558   4.794   6.437   3.547  0.6310 -2.1244 -0.8724
  111SAPE   H3Y11559   4.752   6.343   3.696  0.2452  1.3483  0.7812
  111SAPE   C3411560   4.699   6.558   3.710  0.7364  0.4466 -0.1230
  111SAPE   H4X11561   4.781   6.560   3.785 -0.3545  2.9323  1.0937
  111SAPE   H4Y11562   4.604   6.551   3.768 -0.2962 -2.6190 -1.9275
  111SAPE   C3511563   4.709   6.687   3.637  0.2870 -0.2611  0.0910
  111SAPE   H5X11564   4.668   6.680   3.534  2.5303 -3.9589 -0.7498
  111SAPE   H5Y11565   4.814   6.709   3.608  0.7720 -2.5477 -0.0655
  111SAPE   C3611566   4.654   6.811   3.721  0.0324 -0.2076  0.4163
  111SAPE   H6X11567   4.544   6.806   3.740  0.3687 -0.6977  2.5074
  111SAPE   H6Y11568   4.677   6.900   3.660  0.7783  0.6593  1.9171
  111SAPE   C3711569   4.704   6.827   3.865 -1.0042 -0.0340  0.2089
  111SAPE   H7X11570   4.805   6.873   3.851 -2.2583  2.4302 -1.4304
  111SAPE   H7Y11571   4.725   6.730   3.916 -1.3919  0.0806  0.5947
  111SAPE   C3811572   4.620   6.917   3.952 -0.3167  0.3443 -0.6745
  111SAPE   H8X11573   4.514   6.888   3.939 -0.3589  0.2195 -0.0656
  111SAPE   H8Y11574   4.632   7.019   3.909  0.6917  0.2243 -0.6897
  111SAPE   C3911575   4.649   6.914   4.102  0.0447  0.5327  0.3822
  111SAPE   H9X11576   4.758   6.927   4.117  0.4954 -1.0180 -1.2041
  111SAPE   H9Y11577   4.624   6.819   4.153  1.4803 -0.3300 -0.4637
  111SAPE  C31011578   4.556   7.017   4.173 -0.0979  0.0569  0.5821
  111SAPE  H10X11579   4.452   6.995   4.141  0.3654 -0.5633 -0.5526
  111SAPE  H10Y11580   4.572   7.121   4.136 -0.1648 -0.5782 -1.3128
  111SAPE  C31111581   4.563   7.018   4.326  0.0602 -0.1912 -0.5930
  111SAPE  H11X11582   4.517   7.111   4.366 -0.4145 -0.7073  0.0985
  111SAPE  H11Y11583   4.667   7.009   4.364 -0.5708 -2.6184  0.7258
  111SAPE  C31211584   4.493   6.890   4.389 -0.3973  0.6481 -0.1743
  111SAPE  H12X11585   4.537   6.794   4.352  0.0153  0.2978  1.1747
  111SAPE  H12Y11586   4.389   6.872   4.355  0.2351 -2.1380 -0.8969
  111SAPE  C31311587   4.502   6.905   4.545  0.0566  0.6667  0.8031
  111SAPE  H13X11588   4.424   6.980   4.570 -0.0829  0.5395  0.7515
  111SAPE  H13Y11589   4.604   6.944   4.565  1.0577 -1.5092  0.1904
  111SAPE  C31411590   4.486   6.775   4.616 -0.0068 -0.5369  0.1346
  111SAPE  H14X11591   4.542   6.684   4.586 -2.1582 -2.0058  0.3417
  111SAPE  H14Y11592   4.379   6.746   4.601 -1.0336  3.3209 -1.1315
  111SAPE  C31511593   4.510   6.789   4.765  0.4101 -0.2962  0.0140
  111SAPE  H15X11594   4.415   6.777   4.821  1.0927 -1.1854  0.9911
  111SAPE  H15Y11595   4.541   6.892   4.795  3.1240 -0.3117 -2.3029
  111SAPE  C31611596   4.615   6.699   4.825  0.3477  0.2466  0.7018
  111SAPE  H16X11597   4.592   6.590   4.821  0.9600  0.0403  2.3370
  111SAPE  H16Y11598   4.609   6.725   4.933  2.9684  0.1929  0.9192
  111SAPE  C31711599   4.763   6.719   4.782 -0.0087 -0.2507  0.6131
  111SAPE  H17X11600   4.771   6.827   4.757 -1.4322 -0.4633 -0.9730
  111SAPE  H17Y11601   4.766   6.672   4.682 -0.3266 -1.2541  1.0598
  111SAPE  C31811602   4.860   6.676   4.887 -0.0910  0.1211  0.0294
  111SAPE  H18X11603   4.831   6.732   4.979  0.1659  1.1163 -0.4846
  111SAPE  H18Y11604   4.961   6.711   4.856  1.0492 -0.0854  3.1592
  111SAPE  H18Z11605   4.854   6.567   4.907 -0.0305 -0.1026 -1.1428
  112SAPE     N11606   0.742   6.141   2.819 -0.1057  0.2820  0.3513
  112SAPE   HN111607   0.803   6.090   2.751 -2.0172  0.6421 -1.7653
  112SAPE   HN211608   0.799   6.190   2.890 -0.8909  0.8769  0.5803
  112SAPE   HN311609   0.668   6.083   2.863 -2.3468  1.4461 -1.6575
  112SAPE   C1211610   0.657   6.243   2.753 -0.1153  0.4661 -0.4317
  112SAPE  H12A11611   0.716   6.298   2.677  1.7427 -0.2750  0.4213
  112SAPE  H12B11612   0.626   6.323   2.823 -1.0150  1.8458 -2.3108
  112SAPE   C1111613   0.523   6.177   2.701  1.0850 -0.3207 -0.3030
  112SAPE  H11A11614   0.550   6.117   2.611 -1.4052  1.3716 -2.3381
  112SAPE  H11B11615   0.455   6.258   2.668  1.4599  0.4356  0.7127
  112SAPE     P11616   0.313   6.069   2.813 -0.1115  0.6970  0.2016
  112SAPE   O1311617   0.267   6.070   2.671 -0.7655 -0.3718 -0.2971
  112SAPE   O1411618   0.286   5.941   2.888  0.2715  0.4290  0.1799
  112SAPE   O1211619   0.472   6.103   2.810 -0.0315  0.5314  0.0116
  112SAPE   O1111620   0.257   6.196   2.885 -0.1255  0.2896  0.0568
  112SAPE    C111621   0.320   6.231   3.007 -0.2711  0.2436  0.9776
  112SAPE    HA11622   0.305   6.152   3.084  0.3538 -1.1200 -0.2286
  112SAPE    HB11623   0.430   6.247   3.008 -0.5227  4.1699 -2.9871
  112SAPE    C211624   0.248   6.365   3.050  0.4101  0.0494 -0.0989
  112SAPE    HS11625   0.300   6.410   3.137 -0.1050  0.0617  0.2095
  112SAPE   O2111626   0.113   6.326   3.077  0.4473  0.0322 -0.0410
  112SAPE   C2111627   0.098   6.285   3.206  0.2051 -0.0544 -0.4804
  112SAPE   O2211628   0.190   6.267   3.278  0.2503 -0.3361 -0.0270
  112SAPE   C2211629  -0.051   6.261   3.246  0.0217  0.2014 -0.4873
  112SAPE   H2R11630  -0.119   6.242   3.160  0.7162  0.1079 -1.0308
  112SAPE   H2S11631  -0.060   6.163   3.297 -1.8478 -0.4014 -1.8714
  112SAPE    C311632   0.259   6.483   2.938  0.5120  0.3668  0.0448
  112SAPE    HX11633   0.198   6.461   2.848 -0.0955  0.8010  0.3440
  112SAPE    HY11634   0.363   6.497   2.902 -0.5393 -0.1785 -3.6109
  112SAPE   O3111635   0.230   6.610   3.002  0.0299 -0.0174  0.4433
  112SAPE   C3111636   0.105   6.647   3.003 -0.2364 -0.4184  0.3806
  112SAPE   O3211637   0.004   6.590   2.960 -0.2507 -0.3801  0.9295
  112SAPE   C3211638   0.089   6.778   3.076  0.8051 -0.0264  0.3562
  112SAPE   H2X11639   0.101   6.859   3.000 -0.5352  0.2197  0.3841
  112SAPE   H2Y11640   0.162   6.781   3.160 -0.2831 -2.0566  1.4250
  112SAPE   C2311641  -0.107   6.379   3.330 -0.0198 -0.1008 -0.0837
  112SAPE   H3R11642  -0.105   6.473   3.271 -0.1344  0.5371  0.9179
  112SAPE   H3S11643  -0.031   6.378   3.411  1.9926 -1.1120 -1.8808
  112SAPE   C2411644  -0.246   6.351   3.385  0.1509 -0.1576  0.1410
  112SAPE   H4R11645  -0.270   6.249   3.421  1.2319 -0.8008 -0.8968
  112SAPE   H4S11646  -0.325   6.364   3.307  1.0566  0.2821 -0.7284
  112SAPE   C2511647  -0.266   6.451   3.502 -0.4303 -0.6223  0.6478
  112SAPE   H5R11648  -0.303   6.549   3.468 -1.0432 -0.3710  1.9758
  112SAPE   C2611649  -0.241   6.429   3.636  0.6542 -0.3175  1.0054
  112SAPE   H6R11650  -0.248   6.516   3.704  2.3111  0.6432  0.0167
  112SAPE   C2711651  -0.208   6.297   3.697  0.1083  0.7422  0.0800
  112SAPE   H7R11652  -0.105   6.312   3.736  0.5731 -0.5647 -0.5675
  112SAPE   H7S11653  -0.190   6.209   3.631  3.5857  1.9011 -0.7135
  112SAPE   C2811654  -0.324   6.284   3.795  0.2981  0.4826  0.0059
  112SAPE   H8R11655  -0.419   6.245   3.755  0.7043 -2.4400  1.6042
  112SAPE   C2911656  -0.308   6.307   3.923 -0.6805  0.1809 -0.2372
  112SAPE   H9R11657  -0.404   6.298   3.975 -0.9163  0.3660 -0.6414
  112SAPE  C21011658  -0.186   6.339   4.001 -0.2344 -0.4363 -0.3026
  112SAPE  H10R11659  -0.112   6.396   3.941 -0.1666 -0.2560 -0.0448
  112SAPE  H10S11660  -0.134   6.242   4.021 -1.0092 -0.8793 -0.4171
  112SAPE  C21111661  -0.215   6.417   4.124 -0.1445  0.3454  0.1499
  112SAPE  H11R11662  -0.303   6.482   4.119  0.8769  1.7101 -0.7517
  112SAPE  C21211663  -0.151   6.406   4.239 -0.5181 -0.5779  0.3823
  112SAPE  H12R11664  -0.171   6.488   4.310  0.6270  1.8359 -1.9412
  112SAPE  C21311665  -0.048   6.293   4.267 -0.2805  0.0391  0.2422
  112SAPE  H13R11666   0.040   6.334   4.321 -0.6580  0.1327  0.7940
  112SAPE  H13S11667  -0.004   6.252   4.173  1.3600 -0.6117  1.2422
  112SAPE  C21411668  -0.118   6.191   4.357 -0.3295  0.3867  0.3223
  112SAPE  H14R11669  -0.191   6.126   4.305  1.6716 -0.5336 -1.4879
  112SAPE  C21511670  -0.105   6.176   4.494  0.7683 -0.3941  0.3530
  112SAPE  H15R11671  -0.157   6.092   4.542  0.9147 -0.4023  0.4979
  112SAPE  C21611672  -0.013   6.262   4.584 -0.2547  0.7074  0.3798
  112SAPE  H16R11673  -0.060   6.273   4.684 -2.2504 -0.0275 -0.4258
  112SAPE  H16S11674   0.018   6.365   4.556  3.0609 -0.3709 -0.2960
  112SAPE  C21711675   0.129   6.197   4.599  0.5252  0.1224  0.7031
  112SAPE  H17R11676   0.207   6.229   4.527  1.5280 -0.7969  1.3500
  112SAPE  H17S11677   0.113   6.088   4.588 -0.5389  0.4576 -1.6937
  112SAPE  C21811678   0.188   6.235   4.736  0.4990 -0.2900  0.1681
  112SAPE  H18R11679   0.193   6.344   4.757  0.1376 -0.4287  1.0208
  112SAPE  H18S11680   0.294   6.201   4.735  0.8681  0.8260 -0.7785
  112SAPE  C21911681   0.114   6.163   4.854  0.1134  0.6485  0.2842
  112SAPE  H19R11682   0.092   6.061   4.815 -1.5906  1.2366 -0.4035
  112SAPE  H19S11683   0.011   6.195   4.883 -0.2718 -0.4533  0.2080
  112SAPE  C22011684   0.198   6.166   4.981  0.8167  0.7783  0.3623
  112SAPE  H20R11685   0.182   6.264   5.030 -1.5948  1.0904 -0.8729
  112SAPE  H20S11686   0.304   6.149   4.954  0.9360  1.4085  0.4127
  112SAPE  H20T11687   0.163   6.086   5.051  1.8958 -0.1517 -0.1356
  112SAPE   C3311688  -0.054   6.785   3.137 -0.0771  0.2811 -0.4104
  112SAPE   H3X11689  -0.064   6.711   3.219 -0.8507 -1.0262 -1.6223
  112SAPE   H3Y11690  -0.133   6.765   3.062  0.1783 -0.6407 -0.4553
  112SAPE   C3411691  -0.085   6.925   3.190 -0.2228  0.3255 -0.0394
  112SAPE   H4X11692  -0.057   6.992   3.106  3.5002 -0.3489  0.4468
  112SAPE   H4Y11693   0.001   6.945   3.257  0.6936  0.1556 -1.1182
  112SAPE   C3511694  -0.227   6.951   3.231  0.5857  0.0794 -0.0568
  112SAPE   H5X11695  -0.297   6.924   3.149  0.2989  1.1008 -0.1650
  112SAPE   H5Y11696  -0.244   7.053   3.273 -0.4472 -0.8775  2.0337
  112SAPE   C3611697  -0.280   6.879   3.361 -0.6818 -0.8343 -0.3947
  112SAPE   H6X11698  -0.286   6.770   3.343 -1.3044 -0.7498 -0.7297
  112SAPE   H6Y11699  -0.387   6.908   3.375 -0.9592 -2.5144  1.4738
  112SAPE   C3711700  -0.199   6.920   3.484  0.0956 -0.3283  0.2059
  112SAPE   H7X11701  -0.197   7.031   3.485  2.2147 -0.3100 -0.5185
  112SAPE   H7Y11702  -0.091   6.895   3.478  0.4721  1.5665 -2.8286
  112SAPE   C3811703  -0.263   6.871   3.609  0.2360  0.4150  0.1868
  112SAPE   H8X11704  -0.250   6.761   3.614  0.5325  0.4193 -0.3551
  112SAPE   H8Y11705  -0.373   6.884   3.599  0.3620  1.5173  0.0504
  112SAPE   C3911706  -0.207   6.936   3.732  0.2720  1.0582  0.6265
  112SAPE   H9X11707  -0.254   7.036   3.750  1.5644  1.3882  2.5251
  112SAPE   H9Y11708  -0.097   6.949   3.728  1.0732 -3.2323  2.9010
  112SAPE  C31011709  -0.219   6.848   3.853 -0.4412  0.2815 -0.8260
  112SAPE  H10X11710  -0.151   6.762   3.834  2.7642  2.6227 -0.7430
  112SAPE  H10Y11711  -0.326   6.821   3.870  0.3123 -3.1074 -0.6684
  112SAPE  C31111712  -0.149   6.917   3.982 -0.2300 -0.3882  0.0288
  112SAPE  H11X11713  -0.173   7.025   3.984  0.9404 -0.0959 -0.6308
  112SAPE  H11Y11714  -0.039   6.904   3.970 -0.0559  1.1009 -0.1510
  112SAPE  C31211715  -0.184   6.850   4.112  0.3812  0.8891  0.7711
  112SAPE  H12X11716  -0.115   6.863   4.199  2.8446 -1.7592 -0.6041
  112SAPE  H12Y11717  -0.176   6.740   4.104  2.3632  1.0485 -0.0175
  112SAPE  C31311718  -0.335   6.873   4.159 -0.2227 -0.0322  0.1987
  112SAPE  H13X11719  -0.394   6.890   4.066 -1.5578 -0.3736  0.9541
  112SAPE  H13Y11720  -0.333   6.970   4.213 -1.8215 -0.6211  1.3704
  112SAPE  C31411721  -0.399   6.763   4.242 -0.4492 -0.7455  0.1218
  112SAPE  H14X11722  -0.383   6.668   4.187  3.2941 -0.6076  0.7082
  112SAPE  H14Y11723  -0.506   6.787   4.258 -0.1426  1.7489 -1.0365
  112SAPE  C31511724  -0.320   6.741   4.379 -0.4985  0.4678  0.3817
  112SAPE  H15X11725  -0.322   6.833   4.441 -1.3879 -0.2402  1.4358
  112SAPE  H15Y11726  -0.213   6.725   4.356 -0.7574 -0.9833  0.1235
  112SAPE  C31611727  -0.378   6.630   4.460 -0.3943  0.1941  0.4790
  112SAPE  H16X11728  -0.372   6.532   4.408  0.1076 -0.1540  1.1791
  112SAPE  H16Y11729  -0.486   6.649   4.478 -0.4653  0.2639 -0.0018
  112SAPE  C31711730  -0.310   6.606   4.599 -0.4412  0.1790  0.5456
  112SAPE  H17X11731  -0.284   6.702   4.649  0.9534 -0.9335  2.0659
  112SAPE  H17Y11732  -0.211   6.566   4.569  0.3066  2.5306 -0.3914
  112SAPE  C31811733  -0.385   6.497   4.677  0.5015  0.0813 -0.1807
  112SAPE  H18X11734  -0.396   6.405   4.615  0.0664  0.0316 -0.0369
  112SAPE  H18Y11735  -0.482   6.536   4.715 -0.6936 -1.9834 -0.9610
  112SAPE  H18Z11736  -0.334   6.457   4.767 -0.0825  1.2228  0.6919
  113SAPE     N11737   0.917   3.347   2.377 -0.2135  0.1185 -0.3018
  113SAPE   HN111738   0.912   3.449   2.392 -0.6965  0.2637 -1.3351
  113SAPE   HN211739   1.004   3.319   2.328 -0.4212 -2.3517  0.5809
  113SAPE   HN311740   0.834   3.322   2.318 -0.0294 -0.7531 -0.2073
  113SAPE   C1211741   0.912   3.278   2.513 -0.3645  0.0592 -0.1538
  113SAPE  H12A11742   0.879   3.172   2.501  1.5099 -0.4292 -1.5838
  113SAPE  H12B11743   0.848   3.344   2.575  0.7562  0.5706  0.4843
  113SAPE   C1111744   1.053   3.264   2.575 -0.0226 -0.0012 -0.0404
  113SAPE  H11A11745   1.112   3.191   2.516  0.4448  0.1576  0.2291
  113SAPE  H11B11746   1.022   3.224   2.674  2.1506  1.6561  1.4022
  113SAPE     P11747   1.144   3.445   2.734  0.2415  0.1816 -0.2443
  113SAPE   O1311748   1.231   3.563   2.729  0.2622 -0.4561  0.1890
  113SAPE   O1411749   1.012   3.458   2.800 -0.2108 -0.2473 -0.4696
  113SAPE   O1211750   1.126   3.389   2.586  0.6427  0.5347  0.0666
  113SAPE   O1111751   1.223   3.321   2.803 -0.2494 -0.0288 -0.3808
  113SAPE    C111752   1.206   3.287   2.940 -0.2722  0.8376  0.4965
  113SAPE    HA11753   1.103   3.250   2.960  0.7799 -1.9394  1.3866
  113SAPE    HB11754   1.258   3.190   2.955 -2.6561 -0.8314 -1.1798
  113SAPE    C211755   1.262   3.391   3.044 -0.2549  0.5986  0.5013
  113SAPE    HS11756   1.205   3.485   3.027  1.0171  0.7649 -4.1885
  113SAPE   O2111757   1.402   3.407   3.015  0.1974 -0.1098  0.3448
  113SAPE   C2111758   1.449   3.526   3.022  0.0584  0.0901 -0.5786
  113SAPE   O2211759   1.384   3.628   3.041  0.0776 -0.6703  0.1600
  113SAPE   C2211760   1.593   3.511   3.009 -0.3597  0.3028 -0.2084
  113SAPE   H2R11761   1.624   3.417   3.058  0.4915  1.0334  0.7049
  113SAPE   H2S11762   1.614   3.506   2.900  0.9405 -0.1563  0.0449
  113SAPE    C311763   1.245   3.331   3.181  0.1659 -0.9460 -0.1140
  113SAPE    HX11764   1.274   3.224   3.191  0.0567 -1.1025 -1.2999
  113SAPE    HY11765   1.136   3.324   3.199 -0.0993  1.1511 -0.6379
  113SAPE   O3111766   1.301   3.411   3.285  0.0272  0.5891 -0.2420
  113SAPE   C3111767   1.241   3.523   3.326 -0.2996  0.0961 -0.0981
  113SAPE   O3211768   1.135   3.559   3.289 -0.0059 -0.1911  0.3942
  113SAPE   C3211769   1.325   3.589   3.440  0.0866 -0.1762 -0.2163
  113SAPE   H2X11770   1.333   3.695   3.409  0.5804 -0.2225 -0.2620
  113SAPE   H2Y11771   1.424   3.543   3.463  0.4195  1.4141  1.7626
  113SAPE   C2311772   1.673   3.626   3.066 -0.2814 -0.1442  0.4452
  113SAPE   H3R11773   1.629   3.726   3.043 -0.1730 -0.5992 -2.0124
  113SAPE   H3S11774   1.770   3.631   3.014 -0.8368  1.3911 -0.5239
  113SAPE   C2411775   1.689   3.602   3.210 -0.2529 -0.4070  0.1129
  113SAPE   H4R11776   1.748   3.509   3.225  1.3865  0.6052  0.2496
  113SAPE   H4S11777   1.589   3.584   3.254 -0.6589  0.2404 -0.5221
  113SAPE   C2511778   1.758   3.719   3.273  0.4611 -0.3466  0.1861
  113SAPE   H5R11779   1.818   3.784   3.208  2.6791  0.8903  3.2120
  113SAPE   C2611780   1.750   3.763   3.402  0.4375  0.0829 -0.1621
  113SAPE   H6R11781   1.800   3.858   3.426  1.2617 -0.0557 -1.2400
  113SAPE   C2711782   1.680   3.699   3.522 -0.0054 -0.1484  0.6831
  113SAPE   H7R11783   1.669   3.590   3.507 -1.3230  0.0487  0.0304
  113SAPE   H7S11784   1.577   3.736   3.543 -1.1902 -2.5575 -0.5249
  113SAPE   C2811785   1.761   3.707   3.645 -0.1585  0.2048 -0.1257
  113SAPE   H8R11786   1.864   3.743   3.636 -0.4432  1.6894  1.7402
  113SAPE   C2911787   1.714   3.690   3.771  0.1579  0.0568 -0.7747
  113SAPE   H9R11788   1.785   3.709   3.853  1.2618 -3.4836 -0.7386
  113SAPE  C21011789   1.574   3.653   3.819 -0.5519  0.0162 -0.5515
  113SAPE  H10R11790   1.504   3.654   3.733 -0.2071  1.3842 -0.8459
  113SAPE  H10S11791   1.536   3.735   3.882 -0.4767  0.4209 -1.0231
  113SAPE  C21111792   1.545   3.532   3.897  0.4082  0.3212 -0.7637
  113SAPE  H11R11793   1.559   3.439   3.840  1.5428  1.5532 -2.5832
  113SAPE  C21211794   1.506   3.512   4.026  0.6939  0.3952 -0.0741
  113SAPE  H12R11795   1.483   3.409   4.054 -1.6271  0.7841 -0.3872
  113SAPE  C21311796   1.481   3.614   4.137  0.2570 -0.2357  0.0006
  113SAPE  H13R11797   1.413   3.565   4.209 -1.0165  1.2953 -0.1037
  113SAPE  H13S11798   1.430   3.704   4.097 -1.8141 -0.5271  1.8025
  113SAPE  C21411799   1.618   3.656   4.183 -0.1296  0.1640  0.1249
  113SAPE  H14R11800   1.693   3.679   4.106 -0.6232 -1.1165 -0.7700
  113SAPE  C21511801   1.668   3.645   4.307  0.3118  0.1183 -0.1486
  113SAPE  H15R11802   1.772   3.674   4.326  0.4442 -1.7487  2.5295
  113SAPE  C21611803   1.603   3.586   4.434 -0.0787 -0.2283 -0.6254
  113SAPE  H16R11804   1.676   3.513   4.476 -1.0309 -0.3537  0.8714
  113SAPE  H16S11805   1.508   3.531   4.417 -0.0349  0.1991 -2.4939
  113SAPE  C21711806   1.599   3.702   4.526 -0.4537 -0.6472 -0.3634
  113SAPE  H17R11807   1.542   3.788   4.487  3.0820  2.5212  0.8114
  113SAPE  H17S11808   1.698   3.747   4.551 -0.9233 -1.1520  2.7365
  113SAPE  C21811809   1.539   3.666   4.659 -0.4784  0.6733 -0.3303
  113SAPE  H18R11810   1.620   3.619   4.718 -0.5026 -1.4322 -1.8441
  113SAPE  H18S11811   1.459   3.588   4.656 -0.0989  0.3119 -1.3529
  113SAPE  C21911812   1.477   3.782   4.735  0.0317  0.1930  0.1403
  113SAPE  H19R11813   1.395   3.828   4.676  0.9206  1.6379 -0.0240
  113SAPE  H19S11814   1.555   3.862   4.726  0.1811  0.2047  1.3401
  113SAPE  C22011815   1.421   3.761   4.875 -0.1805 -0.1942 -0.4796
  113SAPE  H20R11816   1.354   3.673   4.865  1.9876 -1.9123 -0.5847
  113SAPE  H20S11817   1.365   3.851   4.909 -0.2855 -1.5934  3.6221
  113SAPE  H20T11818   1.497   3.738   4.953  0.1287  0.8551 -0.4439
  113SAPE   C3311819   1.247   3.564   3.574 -0.1666 -0.7025  0.4681
  113SAPE   H3X11820   1.138   3.588   3.573  0.7903  4.9590  0.1099
  113SAPE   H3Y11821   1.279   3.643   3.645 -0.0690  0.1268 -0.4762
  113SAPE   C3411822   1.256   3.423   3.637 -0.5898  0.2370  0.2865
  113SAPE   H4X11823   1.359   3.402   3.673 -0.7377 -1.8527 -0.3812
  113SAPE   H4Y11824   1.256   3.344   3.560 -0.3778  0.3186  0.2003
  113SAPE   C3511825   1.150   3.384   3.732 -0.4746  0.0340  0.1700
  113SAPE   H5X11826   1.179   3.278   3.749 -0.1503 -0.0152 -0.6485
  113SAPE   H5Y11827   1.053   3.383   3.679 -0.8442  0.3349  0.8343
  113SAPE   C3611828   1.125   3.482   3.851  0.3970  0.5579 -0.1131
  113SAPE   H6X11829   1.104   3.580   3.805 -1.0488 -0.2183 -1.1774
  113SAPE   H6Y11830   1.226   3.492   3.898  0.7227 -1.7625 -0.1960
  113SAPE   C3711831   1.016   3.446   3.957  0.1293  0.2139 -0.1728
  113SAPE   H7X11832   1.032   3.345   4.000  0.4071 -0.2481 -1.3065
  113SAPE   H7Y11833   0.920   3.446   3.901  0.2471  1.1945 -0.3926
  113SAPE   C3811834   1.014   3.542   4.077 -0.1068 -0.6742  0.6271
  113SAPE   H8X11835   0.982   3.644   4.045 -1.4560 -1.5808 -1.0029
  113SAPE   H8Y11836   0.941   3.503   4.151 -0.6390 -1.0368 -0.0861
  113SAPE   C3911837   1.141   3.545   4.164  0.4638 -0.4664  0.2904
  113SAPE   H9X11838   1.223   3.608   4.123  0.6806  0.0811  1.5091
  113SAPE   H9Y11839   1.177   3.442   4.186  0.4905 -0.4171  0.4820
  113SAPE  C31011840   1.105   3.588   4.309  0.3086 -0.0754  0.2120
  113SAPE  H10X11841   1.013   3.650   4.298 -0.3362 -1.0291  0.1052
  113SAPE  H10Y11842   1.187   3.655   4.343 -0.9256  0.9114  1.3671
  113SAPE  C31111843   1.081   3.478   4.417  0.4240 -0.8083 -0.2805
  113SAPE  H11X11844   1.171   3.415   4.430  1.2948  0.8811  2.6911
  113SAPE  H11Y11845   1.002   3.406   4.387 -0.2257 -1.7316  3.2377
  113SAPE  C31211846   1.064   3.551   4.552 -0.4297  0.1763 -0.7445
  113SAPE  H12X11847   0.977   3.618   4.538  0.6724  2.5615  2.5562
  113SAPE  H12Y11848   1.152   3.611   4.582 -0.8675  1.7795 -2.5138
  113SAPE  C31311849   1.028   3.458   4.671 -0.4911  0.7888 -0.0193
  113SAPE  H13X11850   0.933   3.412   4.637 -0.4312 -0.9448  1.9347
  113SAPE  H13Y11851   1.009   3.522   4.759 -1.9966  0.3110  0.0270
  113SAPE  C31411852   1.125   3.345   4.709 -0.2822  0.0175 -0.0314
  113SAPE  H14X11853   1.147   3.274   4.626  1.0160 -1.5514  1.5936
  113SAPE  H14Y11854   1.074   3.283   4.785  0.6770 -0.9280 -0.1440
  113SAPE  C31511855   1.252   3.401   4.771  0.1943 -0.2061 -0.1135
  113SAPE  H15X11856   1.225   3.486   4.837 -0.4530  0.1864 -0.8763
  113SAPE  H15Y11857   1.307   3.443   4.684 -1.2921 -2.9777 -2.5488
  113SAPE  C31611858   1.341   3.302   4.853 -0.0355  0.7753 -0.6254
  113SAPE  H16X11859   1.286   3.247   4.932  0.5215 -0.9095 -1.3681
  113SAPE  H16Y11860   1.426   3.351   4.905 -0.7123  0.2122  1.0554
  113SAPE  C31711861   1.414   3.188   4.780  0.4847  0.1259  0.1124
  113SAPE  H17X11862   1.330   3.118   4.763  0.1720  0.2072  1.2052
  113SAPE  H17Y11863   1.483   3.136   4.851 -0.7323 -1.1018  0.4477
  113SAPE  C31811864   1.480   3.225   4.644  0.3278  0.9068 -0.2741
  113SAPE  H18X11865   1.522   3.131   4.602 -2.8247 -0.6962 -0.0778
  113SAPE  H18Y11866   1.561   3.300   4.660  1.9757 -0.4989 -1.6035
  113SAPE  H18Z11867   1.396   3.264   4.583 -1.3577 -1.2621  0.5786
  114SAPE     N11868   4.508   4.939   3.277 -0.6390  0.0620  0.0642
  114SAPE   HN111869   4.602   4.977   3.258  0.3213 -1.4692  1.4280
  114SAPE   HN211870   4.522   4.845   3.319 -0.6232 -0.1740 -0.4605
  114SAPE   HN311871   4.451   4.930   3.191  2.1390  1.4110 -2.0718
  114SAPE   C1211872   4.434   5.015   3.388 -0.1123  0.0503  0.1765
  114SAPE  H12A11873   4.501   5.033   3.475 -1.1589  1.4225  0.7531
  114SAPE  H12B11874   4.353   4.946   3.421 -0.1936  0.3723  0.6689
  114SAPE   C1111875   4.379   5.150   3.324 -0.4585 -0.5125  0.6340
  114SAPE  H11A11876   4.461   5.224   3.314  0.7887 -2.1165 -1.9033
  114SAPE  H11B11877   4.309   5.203   3.393  1.1255 -1.1466  2.8685
  114SAPE     P11878   4.213   5.205   3.123  0.4526 -0.1700 -0.2671
  114SAPE   O1311879   4.225   5.342   3.171 -0.6799 -0.1458 -0.1500
  114SAPE   O1411880   4.234   5.190   2.983 -0.7197 -0.2944 -0.7946
  114SAPE   O1211881   4.327   5.117   3.193  0.0487  0.3110  0.1683
  114SAPE   O1111882   4.066   5.167   3.172  0.1201 -0.0063  0.0360
  114SAPE    C111883   4.036   5.068   3.268  0.2073  0.3903  0.2956
  114SAPE    HA11884   4.054   4.965   3.229  3.9048  0.6389  0.9869
  114SAPE    HB11885   4.102   5.074   3.357 -0.3798 -1.1567  0.8844
  114SAPE    C211886   3.885   5.076   3.321  0.0104 -0.2250  0.5259
  114SAPE    HS11887   3.812   5.092   3.239  0.4998 -1.6984 -0.2387
  114SAPE   O2111888   3.873   5.163   3.438 -0.1848 -0.0451 -0.1174
  114SAPE   C2111889   3.887   5.296   3.409 -0.6276  0.4248  0.0638
  114SAPE   O2211890   3.891   5.338   3.296  0.5679 -0.6810  0.0630
  114SAPE   C2211891   3.894   5.385   3.532  0.5278  0.3996  0.3387
  114SAPE   H2R11892   4.002   5.385   3.559  0.5466  0.4403  0.2626
  114SAPE   H2S11893   3.853   5.485   3.506 -1.2312 -0.5056 -0.5197
  114SAPE    C311894   3.850   4.926   3.364  0.1260  0.2975 -0.3990
  114SAPE    HX11895   3.842   4.862   3.274 -1.4332  0.0053 -0.0871
  114SAPE    HY11896   3.751   4.919   3.414  1.4468 -1.9583  2.2205
  114SAPE   O3111897   3.956   4.871   3.451 -0.3636  0.0860  0.2195
  114SAPE   C3111898   3.916   4.802   3.557  0.2514  0.5165  0.2538
  114SAPE   O3211899   3.799   4.775   3.587  0.0074  0.0017  0.7140
  114SAPE   C3211900   4.034   4.777   3.643  0.2662 -0.8774 -0.7111
  114SAPE   H2X11901   4.091   4.699   3.589  0.7052 -0.6267 -0.6219
  114SAPE   H2Y11902   3.994   4.738   3.739  0.2028  0.2945 -0.2446
  114SAPE   C2311903   3.808   5.339   3.656 -0.2500 -0.1469  0.1406
  114SAPE   H3R11904   3.840   5.240   3.695  2.6078  0.9671  0.8501
  114SAPE   H3S11905   3.702   5.329   3.624 -0.8016 -1.6993  2.2706
  114SAPE   C2411906   3.812   5.444   3.771  0.0410  0.5413 -0.4091
  114SAPE   H4R11907   3.790   5.539   3.718  0.5893  0.6311 -0.4854
  114SAPE   H4S11908   3.912   5.435   3.820 -1.5401 -5.0188  2.7088
  114SAPE   C2511909   3.708   5.431   3.881  0.0529  0.2286  0.0369
  114SAPE   H5R11910   3.609   5.386   3.861  0.1852  0.1801 -0.5444
  114SAPE   C2611911   3.730   5.460   4.007 -0.5043  0.8359 -0.3636
  114SAPE   H6R11912   3.650   5.442   4.080  1.8168 -2.1148  1.7204
  114SAPE   C2711913   3.851   5.517   4.080 -0.5717 -0.1786  0.0230
  114SAPE   H7R11914   3.935   5.554   4.017  0.2401 -0.7835  0.7335
  114SAPE   H7S11915   3.898   5.436   4.140 -1.3099 -0.9124 -0.3611
  114SAPE   C2811916   3.811   5.634   4.160 -0.0065 -0.4108 -0.5032
  114SAPE   H8R11917   3.803   5.723   4.095  2.9453  1.2223  1.1259
  114SAPE   C2911918   3.808   5.644   4.296 -0.3096 -0.5242  0.0453
  114SAPE   H9R11919   3.768   5.736   4.340 -0.1134 -0.7390  0.6784
  114SAPE  C21011920   3.825   5.535   4.400 -0.7124 -0.1183 -0.4761
  114SAPE  H10R11921   3.931   5.528   4.432 -0.7955  0.7097 -0.0093
  114SAPE  H10S11922   3.804   5.432   4.364 -1.9141  0.1567 -0.6108
  114SAPE  C21111923   3.737   5.547   4.518  1.0954  0.2274  0.9355
  114SAPE  H11R11924   3.640   5.497   4.502  0.7639  1.3324 -0.8695
  114SAPE  C21211925   3.752   5.628   4.626 -0.1230  0.3390 -0.2034
  114SAPE  H12R11926   3.674   5.638   4.702  0.2599 -2.6047  0.7108
  114SAPE  C21311927   3.885   5.697   4.651 -0.0811 -0.0200  0.6811
  114SAPE  H13R11928   3.915   5.760   4.564  1.0122 -0.6916  0.5515
  114SAPE  H13S11929   3.961   5.617   4.659  0.4908  0.3495 -0.6794
  114SAPE  C21411930   3.889   5.782   4.780  0.9292  0.4099 -0.4195
  114SAPE  H14R11931   3.871   5.890   4.763  0.7466  0.3424 -0.6654
  114SAPE  C21511932   3.899   5.739   4.909  0.2138  0.0308 -0.4593
  114SAPE  H15R11933   3.903   5.809   4.993 -0.5616 -0.1295 -0.2847
  114SAPE  C21611934   3.930   5.604   4.961 -0.8639 -0.0311 -0.4694
  114SAPE  H16R11935   3.932   5.538   4.871 -0.6850 -1.0328  0.2419
  114SAPE  H16S11936   3.847   5.561   5.021  0.8163 -2.1878  0.4702
  114SAPE  C21711937   4.067   5.599   5.026 -0.9174  0.8079  0.2612
  114SAPE  H17R11938   4.079   5.633   5.131  1.4764  0.0295  0.3162
  114SAPE  H17S11939   4.142   5.668   4.982 -0.0464 -0.6189 -0.5841
  114SAPE  C21811940   4.143   5.469   5.007  0.0316 -0.5344 -0.2218
  114SAPE  H18R11941   4.248   5.483   5.041 -0.5378 -1.1718  1.9331
  114SAPE  H18S11942   4.145   5.449   4.897  1.7454 -1.3998 -0.0771
  114SAPE  C21911943   4.068   5.349   5.074 -0.2290 -0.1491 -0.3742
  114SAPE  H19R11944   3.976   5.325   5.016 -1.1526 -0.6299  1.2284
  114SAPE  H19S11945   4.035   5.384   5.175  3.3757 -0.1770  0.9494
  114SAPE  C22011946   4.156   5.221   5.075  0.3004  0.0805 -0.1024
  114SAPE  H20R11947   4.160   5.168   4.977  0.6061  0.2918 -0.2036
  114SAPE  H20S11948   4.118   5.146   5.147 -0.8025  0.8010  0.0878
  114SAPE  H20T11949   4.256   5.259   5.103  0.0932 -0.0009  0.7682
  114SAPE   C3311950   4.119   4.904   3.660 -0.7269  0.5112 -0.9204
  114SAPE   H3X11951   4.134   4.963   3.566  0.5036  0.7238 -0.6113
  114SAPE   H3Y11952   4.219   4.868   3.692 -1.2178  0.0946  0.1540
  114SAPE   C3411953   4.064   4.996   3.765 -0.1568 -0.7088 -0.0946
  114SAPE   H4X11954   4.073   4.948   3.865 -2.0809  1.3279  1.1639
  114SAPE   H4Y11955   3.955   5.020   3.765 -0.2366 -0.9389  1.4730
  114SAPE   C3511956   4.137   5.127   3.776 -0.3480 -0.1556 -0.5403
  114SAPE   H5X11957   4.092   5.183   3.860  3.9372  0.6425  1.5399
  114SAPE   H5Y11958   4.102   5.178   3.683 -3.2428  1.3861  1.2801
  114SAPE   C3611959   4.290   5.120   3.785 -0.2032 -0.1265  0.6670
  114SAPE   H6X11960   4.329   5.064   3.698 -0.8711  0.3184  0.0705
  114SAPE   H6Y11961   4.319   5.069   3.880  0.8209 -0.6424  0.0957
  114SAPE   C3711962   4.369   5.251   3.790 -0.7160  0.3226  0.6985
  114SAPE   H7X11963   4.393   5.296   3.691 -0.9482  0.1627  0.5664
  114SAPE   H7Y11964   4.466   5.224   3.835 -0.7763 -1.2834 -0.0597
  114SAPE   C3811965   4.302   5.362   3.867  0.0520  0.0919  0.5878
  114SAPE   H8X11966   4.200   5.386   3.831 -0.1463 -0.4887  0.7508
  114SAPE   H8Y11967   4.363   5.454   3.851 -0.2525  0.3572  0.9251
  114SAPE   C3911968   4.293   5.339   4.016 -0.3020  0.0576 -0.5060
  114SAPE   H9X11969   4.391   5.297   4.049  1.3102  1.0649 -3.7048
  114SAPE   H9Y11970   4.214   5.265   4.044  0.1722 -0.3308 -0.1803
  114SAPE  C31011971   4.265   5.468   4.100 -0.0180  0.3445 -0.1211
  114SAPE  H10X11972   4.159   5.443   4.118  0.2003 -0.1348  0.5550
  114SAPE  H10Y11973   4.287   5.561   4.045 -1.5699  0.3942 -0.7013
  114SAPE  C31111974   4.325   5.464   4.241 -0.0823  1.0634 -0.2899
  114SAPE  H11X11975   4.430   5.498   4.235  1.0007 -2.1321 -1.8542
  114SAPE  H11Y11976   4.322   5.355   4.263  2.5376  0.9602 -0.2114
  114SAPE  C31211977   4.249   5.542   4.344  0.1889  0.2588  0.4056
  114SAPE  H12X11978   4.243   5.490   4.442  0.0092 -0.6700 -0.0895
  114SAPE  H12Y11979   4.144   5.559   4.311  0.0905 -2.9634 -1.2576
  114SAPE  C31311980   4.306   5.684   4.362  0.3017  0.6639 -0.5009
  114SAPE  H13X11981   4.292   5.744   4.270  2.0537  1.0084 -0.5654
  114SAPE  H13Y11982   4.415   5.679   4.379  0.4351  1.4032 -1.1158
  114SAPE  C31411983   4.241   5.756   4.485  0.7218  0.1378  0.1199
  114SAPE  H14X11984   4.232   5.697   4.578  1.9590  1.6793  1.2791
  114SAPE  H14Y11985   4.133   5.770   4.463  0.6632 -1.7963 -1.0416
  114SAPE  C31511986   4.294   5.899   4.511 -0.1014  0.2069  0.1652
  114SAPE  H15X11987   4.291   5.955   4.415 -1.1625 -0.6347 -0.3125
  114SAPE  H15Y11988   4.403   5.888   4.533  0.5978  4.3453 -0.2913
  114SAPE  C31611989   4.223   5.969   4.635 -0.0518 -0.2351  0.2074
  114SAPE  H16X11990   4.243   5.915   4.730  0.5544 -0.4251 -0.0223
  114SAPE  H16Y11991   4.116   5.943   4.620 -0.3342  2.2126 -2.8868
  114SAPE  C31711992   4.236   6.125   4.643  0.1525  0.2243 -0.0849
  114SAPE  H17X11993   4.251   6.170   4.543  1.8964 -0.8465 -0.3415
  114SAPE  H17Y11994   4.327   6.145   4.703 -0.0899 -1.5068  0.9063
  114SAPE  C31811995   4.125   6.194   4.722 -0.6624 -0.3339  0.1199
  114SAPE  H18X11996   4.115   6.145   4.821 -2.3478 -0.6691 -0.1844
  114SAPE  H18Y11997   4.024   6.191   4.677 -0.0597  3.2463 -1.9113
  114SAPE  H18Z11998   4.140   6.303   4.738 -1.4148 -0.4468  1.8147
  115SAPE     N11999   1.908   0.774   2.836 -0.3949  0.1595  0.7356
  115SAPE   HN112000   1.901   0.729   2.743  0.8151 -0.3443  0.8718
  115SAPE   HN212001   1.911   0.877   2.823 -2.0231  0.2908  1.0925
  115SAPE   HN312002   1.993   0.743   2.887 -0.0898  2.1245  1.5414
  115SAPE   C1212003   1.790   0.734   2.913 -0.4929 -0.5183 -0.3426
  115SAPE  H12A12004   1.701   0.782   2.866 -0.0889  1.1158  0.5133
  115SAPE  H12B12005   1.794   0.784   3.012  1.7466  0.0415 -0.6722
  115SAPE   C1112006   1.769   0.584   2.917 -0.0254 -0.0704  0.1189
  115SAPE  H11A12007   1.668   0.558   2.953  0.5405 -0.2785  1.6356
  115SAPE  H11B12008   1.839   0.540   2.991  0.0302  0.9575  0.6954
  115SAPE     P12009   1.701   0.422   2.727 -0.0498  0.5317  0.1752
  115SAPE   O1312010   1.582   0.494   2.683  0.0148 -0.3990 -0.1603
  115SAPE   O1412011   1.777   0.354   2.615  0.3391  0.1965 -0.3173
  115SAPE   O1212012   1.806   0.515   2.802 -0.6128 -0.8237 -0.0077
  115SAPE   O1112013   1.654   0.329   2.842 -0.0847  0.2358  0.3164
  115SAPE    C112014   1.733   0.212   2.883 -0.1557 -0.1360 -0.6044
  115SAPE    HA12015   1.702   0.131   2.814 -0.8596  1.7294 -2.5981
  115SAPE    HB12016   1.842   0.232   2.873 -0.6010  2.5734 -0.9294
  115SAPE    C212017   1.699   0.172   3.027  0.2645  0.2901 -0.6193
  115SAPE    HS12018   1.588   0.170   3.034  0.3587 -2.1444  2.6531
  115SAPE   O2112019   1.769   0.260   3.123 -0.0167 -0.0867  0.5496
  115SAPE   C2112020   1.691   0.300   3.223  0.0457  0.1126  0.1542
  115SAPE   O2212021   1.584   0.257   3.248 -0.0378  0.3682  0.6687
  115SAPE   C2212022   1.778   0.383   3.321 -0.1330  0.3773  0.0900
  115SAPE   H2R12023   1.877   0.397   3.274  0.2481 -2.7843 -0.2890
  115SAPE   H2S12024   1.732   0.483   3.340 -0.1201  0.5538 -0.8011
  115SAPE    C312025   1.744   0.023   3.049  0.0753 -0.7338  0.0246
  115SAPE    HX12026   1.846   0.019   3.005 -0.7446  0.6413 -2.1678
  115SAPE    HY12027   1.688  -0.045   2.982  0.6850 -1.2889  0.0727
  115SAPE   O3112028   1.744  -0.026   3.182 -0.0754 -0.4334 -0.7401
  115SAPE   C3112029   1.629  -0.079   3.225  0.5543  0.4676 -0.4591
  115SAPE   O3212030   1.525  -0.087   3.165 -1.0284  0.3712  0.5135
  115SAPE   C3212031   1.641  -0.125   3.368  0.4138 -0.0944  0.2201
  115SAPE   H2X12032   1.737  -0.180   3.370  0.5535  0.1581  2.0766
  115SAPE   H2Y12033   1.555  -0.193   3.379 -0.0685  0.2344 -1.2319
  115SAPE   C2312034   1.816   0.317   3.457  0.9792  0.1064 -0.7728
  115SAPE   H3R12035   1.862   0.215   3.453 -1.3949 -1.0789  0.4339
  115SAPE   H3S12036   1.720   0.296   3.509  1.4562 -3.5021 -1.0537
  115SAPE   C2412037   1.905   0.416   3.542  0.0970  0.2705  0.1205
  115SAPE   H4R12038   1.983   0.447   3.469 -0.4525  0.9835 -0.1696
  115SAPE   H4S12039   1.957   0.371   3.629 -1.0862 -2.0910 -0.3164
  115SAPE   C2512040   1.838   0.545   3.575 -0.2125 -0.2488 -0.1366
  115SAPE   H5R12041   1.848   0.624   3.499 -0.0874 -1.2025 -1.1318
  115SAPE   C2612042   1.767   0.577   3.685 -0.3918  0.9747 -0.4740
  115SAPE   H6R12043   1.701   0.664   3.680 -0.5431  0.8461 -0.7202
  115SAPE   C2712044   1.719   0.469   3.781  0.1214  0.0559  0.1412
  115SAPE   H7R12045   1.735   0.369   3.734 -0.8235 -1.0659  2.0658
  115SAPE   H7S12046   1.610   0.488   3.791 -0.6910 -0.2065 -5.2210
  115SAPE   C2812047   1.787   0.488   3.919 -0.1457  0.1787  0.7046
  115SAPE   H8R12048   1.881   0.544   3.923  0.2702 -0.5665  3.0049
  115SAPE   C2912049   1.733   0.433   4.034 -0.0691 -0.3808 -0.1052
  115SAPE   H9R12050   1.791   0.445   4.127  3.8704 -1.5623 -2.1917
  115SAPE  C21012051   1.604   0.357   4.038 -0.2999  0.5809  0.5001
  115SAPE  H10R12052   1.624   0.263   4.094 -0.3319 -0.8803 -1.7990
  115SAPE  H10S12053   1.583   0.302   3.943 -0.8831 -0.5563  1.2601
  115SAPE  C21112054   1.480   0.435   4.066  0.0183  0.0462  0.0179
  115SAPE  H11R12055   1.422   0.461   3.977 -3.5015 -0.9884  1.8365
  115SAPE  C21212056   1.440   0.473   4.190 -0.4870 -0.1402  0.5173
  115SAPE  H12R12057   1.336   0.506   4.209 -0.7785 -0.9305  0.3355
  115SAPE  C21312058   1.513   0.454   4.320  0.6041 -0.2048 -0.5278
  115SAPE  H13R12059   1.516   0.556   4.363 -0.8440 -0.1778 -0.4704
  115SAPE  H13S12060   1.617   0.417   4.307  0.7307  0.4059 -1.3577
  115SAPE  C21412061   1.431   0.356   4.401  0.6268 -0.1295 -0.2760
  115SAPE  H14R12062   1.344   0.315   4.349 -0.8965 -0.0280  2.0534
  115SAPE  C21512063   1.463   0.320   4.524 -0.4224 -0.4990 -0.1865
  115SAPE  H15R12064   1.415   0.229   4.563  1.7472 -1.4424  0.4559
  115SAPE  C21612065   1.597   0.357   4.592  0.5571  0.7399 -0.4201
  115SAPE  H16R12066   1.669   0.400   4.519  1.1798  1.3831  0.5480
  115SAPE  H16S12067   1.641   0.265   4.636 -2.8706 -0.4208  0.8978
  115SAPE  C21712068   1.576   0.447   4.718  0.1665  0.5489 -0.1212
  115SAPE  H17R12069   1.666   0.453   4.784  0.5910 -0.1113 -0.6289
  115SAPE  H17S12070   1.492   0.415   4.784 -1.1120  0.4128 -1.7578
  115SAPE  C21812071   1.531   0.591   4.672  0.2626  0.1804 -0.2440
  115SAPE  H18R12072   1.427   0.585   4.635  0.1646  1.4981 -0.2326
  115SAPE  H18S12073   1.592   0.615   4.582 -0.0758  3.3203  0.2580
  115SAPE  C21912074   1.558   0.699   4.780  0.3550 -0.4953 -0.2422
  115SAPE  H19R12075   1.520   0.795   4.738 -0.1173 -0.2514  0.7151
  115SAPE  H19S12076   1.668   0.713   4.786  0.5789 -1.5968 -1.4008
  115SAPE  C22012077   1.493   0.688   4.918  0.0482 -0.7129 -0.4417
  115SAPE  H20R12078   1.467   0.794   4.937 -1.8863 -1.4579  1.5044
  115SAPE  H20S12079   1.556   0.624   4.983  0.0210 -0.5656 -0.2709
  115SAPE  H20T12080   1.391   0.644   4.916 -1.0499  1.6854 -0.8725
  115SAPE   C3312081   1.655  -0.015   3.474  0.3489 -0.8853  0.7065
  115SAPE   H3X12082   1.562   0.044   3.473  0.3116 -0.6979 -3.7619
  115SAPE   H3Y12083   1.734   0.051   3.433 -1.7952  0.7591 -0.9943
  115SAPE   C3412084   1.702  -0.075   3.604  0.2479  0.1232  0.0998
  115SAPE   H4X12085   1.786  -0.147   3.591  0.8729  0.8620  0.0009
  115SAPE   H4Y12086   1.615  -0.133   3.642  0.0087 -0.6046 -1.4668
  115SAPE   C3512087   1.742   0.025   3.708  0.1351  0.0980  0.0668
  115SAPE   H5X12088   1.674   0.113   3.712 -1.3732 -0.5997 -4.3922
  115SAPE   H5Y12089   1.842   0.066   3.681 -0.2617  1.1226  0.0935
  115SAPE   C3612090   1.736  -0.036   3.856 -1.5744  0.0794 -0.8320
  115SAPE   H6X12091   1.814   0.025   3.906 -1.0722  0.3891 -1.9471
  115SAPE   H6Y12092   1.778  -0.137   3.874  0.0626  1.0178  0.9483
  115SAPE   C3712093   1.591  -0.023   3.918 -0.6416  0.1250  1.4363
  115SAPE   H7X12094   1.511  -0.084   3.870 -1.9556  0.9184  2.5340
  115SAPE   H7Y12095   1.564   0.084   3.905 -0.1942  0.2679  1.6890
  115SAPE   C3812096   1.576  -0.054   4.070  1.1748  0.4959  0.3799
  115SAPE   H8X12097   1.526   0.038   4.107  2.3070  2.1350 -1.9071
  115SAPE   H8Y12098   1.682  -0.043   4.104  0.5835  1.6977  1.9285
  115SAPE   C3912099   1.501  -0.182   4.103 -0.0149  0.7198  0.0639
  115SAPE   H9X12100   1.526  -0.274   4.046 -0.1123 -0.0807  1.2714
  115SAPE   H9Y12101   1.393  -0.170   4.076 -0.5684 -0.8726  1.4264
  115SAPE  C31012102   1.518  -0.211   4.251  0.6700  0.5196 -0.2966
  115SAPE  H10X12103   1.617  -0.181   4.291  0.8571 -1.4953  0.9244
  115SAPE  H10Y12104   1.509  -0.322   4.247  2.0374  0.3884 -0.0947
  115SAPE  C31112105   1.407  -0.143   4.337 -0.2700 -0.2397  0.3228
  115SAPE  H11X12106   1.309  -0.172   4.295  0.0057  2.4179 -2.4976
  115SAPE  H11Y12107   1.426  -0.035   4.321  1.5418 -0.3723  1.3229
  115SAPE  C31212108   1.426  -0.160   4.496 -0.2328  0.6212  0.2831
  115SAPE  H12X12109   1.531  -0.150   4.532 -0.1396 -1.2607  0.6239
  115SAPE  H12Y12110   1.395  -0.259   4.534 -1.7175  1.4523  1.3220
  115SAPE  C31312111   1.351  -0.062   4.581  0.3187 -0.1668 -0.4204
  115SAPE  H13X12112   1.242  -0.084   4.576  0.5340 -2.5161  2.5354
  115SAPE  H13Y12113   1.370   0.045   4.555 -0.4104  0.3110  0.9337
  115SAPE  C31412114   1.392  -0.080   4.725  0.2605  0.0354 -0.2610
  115SAPE  H14X12115   1.501  -0.072   4.745  0.1818  0.2084  0.0983
  115SAPE  H14Y12116   1.379  -0.184   4.762  1.4152 -0.2236 -0.5492
  115SAPE  C31512117   1.322   0.019   4.810  0.2155 -0.4262 -0.4943
  115SAPE  H15X12118   1.211   0.021   4.806 -0.0490 -4.1085  0.9553
  115SAPE  H15Y12119   1.358   0.112   4.761  0.0751  0.1337  0.4444
  115SAPE  C31612120   1.359   0.019   4.956 -1.1955  0.2952  0.4485
  115SAPE  H16X12121   1.470   0.020   4.959 -1.0707  0.6709 -2.2584
  115SAPE  H16Y12122   1.327  -0.078   5.000 -0.1367 -0.3336 -0.1220
  115SAPE  C31712123   1.320   0.152   5.025 -0.2231  0.1897 -0.5228
  115SAPE  H17X12124   1.211   0.174   5.030  0.2557  3.1724 -1.3443
  115SAPE  H17Y12125   1.344   0.234   4.954  0.9382  0.0340 -0.3320
  115SAPE  C31812126   1.395   0.187   5.154  1.0977  0.4237  0.1058
  115SAPE  H18X12127   1.501   0.204   5.128  1.2424 -0.8647 -0.2155
  115SAPE  H18Y12128   1.385   0.105   5.228 -1.0673 -0.2213 -0.8189
  115SAPE  H18Z12129   1.346   0.270   5.209 -0.4584 -0.8553  0.7627
  116SAPE     N12130   0.142   1.581   2.533 -0.1851  0.6485  0.5138
  116SAPE   HN112131   0.142   1.483   2.499  1.3546  1.2560 -1.3658
  116SAPE   HN212132   0.063   1.640   2.499 -0.4965 -0.1090 -0.0943
  116SAPE   HN312133   0.231   1.625   2.503  1.5278 -2.3074  0.8616
  116SAPE   C1212134   0.132   1.579   2.677  0.3806  0.2759  0.9997
  116SAPE  H12A12135   0.183   1.675   2.701  2.1122 -0.8617  2.0213
  116SAPE  H12B12136   0.190   1.495   2.719 -1.3617 -2.4585 -1.7016
  116SAPE   C1112137  -0.018   1.576   2.720 -0.1088  0.0418 -0.0792
  116SAPE  H11A12138  -0.064   1.672   2.690  2.2937  0.3332 -3.2917
  116SAPE  H11B12139  -0.014   1.571   2.831  1.9546 -0.1155 -0.1198
  116SAPE     P12140  -0.173   1.354   2.764  0.7281  0.1919 -0.3661
  116SAPE   O1312141  -0.308   1.414   2.776  0.0315 -0.5327 -0.1605
  116SAPE   O1412142  -0.165   1.227   2.688 -0.0870 -0.4810  0.1077
  116SAPE   O1212143  -0.087   1.457   2.682 -0.0984 -0.0464  0.8319
  116SAPE   O1112144  -0.116   1.357   2.904  0.0835  0.2351 -0.0804
  116SAPE    C112145   0.006   1.301   2.934  0.0144  0.2511  0.6421
  116SAPE    HA12146  -0.009   1.192   2.925 -0.0368  0.1745  1.5885
  116SAPE    HB12147   0.086   1.321   2.859  0.5721 -0.7289  0.9606
  116SAPE    C212148   0.044   1.337   3.083  0.1031  0.0873  0.5160
  116SAPE    HS12149   0.153   1.319   3.083  0.3870  0.4707 -4.0154
  116SAPE   O2112150  -0.024   1.248   3.174 -0.0969 -0.1932 -0.1425
  116SAPE   C2112151   0.011   1.117   3.175  0.3683 -0.4157 -0.1537
  116SAPE   O2212152   0.099   1.071   3.111  0.2451  0.2105  0.7124
  116SAPE   C2212153  -0.061   1.045   3.291 -0.9812 -0.6304  0.3221
  116SAPE   H2R12154  -0.022   1.092   3.384  3.4042 -0.6792 -1.2687
  116SAPE   H2S12155  -0.171   1.058   3.279 -1.5319 -1.9753  3.0432
  116SAPE    C312156   0.018   1.482   3.124 -0.1929 -0.3464  0.5533
  116SAPE    HX12157  -0.090   1.509   3.131 -0.3011 -0.4328 -0.5597
  116SAPE    HY12158   0.060   1.540   3.039  1.4395 -1.3448  0.6478
  116SAPE   O3112159   0.093   1.515   3.242 -0.0924 -0.1103 -1.2521
  116SAPE   C3112160   0.107   1.648   3.271 -0.2328  0.0959 -0.3938
  116SAPE   O3212161   0.050   1.739   3.213 -0.0350 -0.2033  0.3056
  116SAPE   C3212162   0.218   1.667   3.380  0.4895  0.3690  0.2640
  116SAPE   H2X12163   0.226   1.776   3.400 -1.3903  0.2467  2.0275
  116SAPE   H2Y12164   0.311   1.626   3.336 -0.6303  0.4341 -2.3441
  116SAPE   C2312165  -0.038   0.892   3.307  0.4882 -0.4360 -0.3802
  116SAPE   H3R12166   0.069   0.877   3.332  0.9307 -0.2064 -2.0120
  116SAPE   H3S12167  -0.045   0.843   3.207 -1.2769 -1.7638  0.3395
  116SAPE   C2412168  -0.123   0.823   3.415 -0.2515  0.2008 -0.3405
  116SAPE   H4R12169  -0.104   0.879   3.509  0.0568  1.2450 -1.0062
  116SAPE   H4S12170  -0.091   0.716   3.420 -0.5319  0.1727  2.2412
  116SAPE   C2512171  -0.268   0.817   3.383  0.0589 -0.2885  0.1076
  116SAPE   H5R12172  -0.294   0.807   3.277  1.0527  2.3465 -0.4604
  116SAPE   C2612173  -0.363   0.829   3.477  0.4246  0.2546 -0.3022
  116SAPE   H6R12174  -0.467   0.807   3.449 -0.3767  1.0283  1.8653
  116SAPE   C2712175  -0.342   0.847   3.625  0.1257 -0.4404  0.8178
  116SAPE   H7R12176  -0.285   0.942   3.635 -0.4706  0.0082  0.1015
  116SAPE   H7S12177  -0.277   0.764   3.661  0.0727 -1.2618 -0.8487
  116SAPE   C2812178  -0.472   0.844   3.706 -0.8042  0.2122  0.0177
  116SAPE   H8R12179  -0.559   0.844   3.639 -2.8822  0.6224  2.5565
  116SAPE   C2912180  -0.492   0.849   3.837 -0.3118 -0.1466  0.2689
  116SAPE   H9R12181  -0.594   0.859   3.877 -0.5447  0.0891 -0.3648
  116SAPE  C21012182  -0.380   0.855   3.941  0.5084  0.0440 -0.1930
  116SAPE  H10R12183  -0.286   0.808   3.906  0.5721 -0.9029  1.1506
  116SAPE  H10S12184  -0.403   0.791   4.029  1.1983  1.8882  1.4350
  116SAPE  C21112185  -0.345   1.007   3.972  0.4256  0.5622  0.1955
  116SAPE  H11R12186  -0.295   1.061   3.890 -1.6275 -0.0662 -1.5689
  116SAPE  C21212187  -0.346   1.056   4.094  0.1803  0.5629 -0.7467
  116SAPE  H12R12188  -0.303   1.157   4.103  0.3277  0.6125 -1.9227
  116SAPE  C21312189  -0.395   0.992   4.227  0.3435 -0.5050  0.3095
  116SAPE  H13R12190  -0.333   1.022   4.314  0.2028  0.8626 -0.0347
  116SAPE  H13S12191  -0.383   0.884   4.207  2.0028 -0.3380  0.2257
  116SAPE  C21412192  -0.536   1.017   4.278 -0.2900 -0.0093  0.3757
  116SAPE  H14R12193  -0.611   1.028   4.199 -0.9416  0.8799  1.0933
  116SAPE  C21512194  -0.568   1.032   4.408 -0.3019 -0.1173 -0.0194
  116SAPE  H15R12195  -0.674   1.047   4.435 -0.5641  0.9976 -1.5137
  116SAPE  C21612196  -0.473   1.025   4.526 -0.1862  0.8019  0.5206
  116SAPE  H16R12197  -0.398   1.106   4.520 -0.0796  0.6247 -0.9459
  116SAPE  H16S12198  -0.427   0.924   4.519  1.6218  1.4680  2.1694
  116SAPE  C21712199  -0.534   1.044   4.666 -0.1359  0.5778 -0.4098
  116SAPE  H17R12200  -0.625   0.981   4.680  0.0228  0.3093 -0.5822
  116SAPE  H17S12201  -0.553   1.150   4.695  1.9710  0.9705 -0.3392
  116SAPE  C21812202  -0.434   1.016   4.772  0.3759  0.0954 -0.2925
  116SAPE  H18R12203  -0.362   1.101   4.770  0.3931  0.2024  1.9987
  116SAPE  H18S12204  -0.387   0.917   4.753 -0.8795 -0.3480 -1.2244
  116SAPE  C21912205  -0.507   1.013   4.910 -0.2175  0.2234 -0.3379
  116SAPE  H19R12206  -0.574   0.925   4.908 -1.2391  0.9714  0.2456
  116SAPE  H19S12207  -0.568   1.104   4.927 -0.4435 -0.1291  0.8641
  116SAPE  C22012208  -0.413   0.987   5.037 -0.5155  0.0955 -0.0864
  116SAPE  H20R12209  -0.449   0.924   5.122  0.3368 -3.2552 -2.0036
  116SAPE  H20S12210  -0.385   1.091   5.063  1.3466 -0.7737  1.7848
  116SAPE  H20T12211  -0.319   0.939   5.002  0.3232  0.7838  1.1258
  116SAPE   C3312212   0.190   1.591   3.510 -0.7935 -0.0234 -0.4878
  116SAPE   H3X12213   0.194   1.481   3.494  0.4036  0.1673 -1.6821
  116SAPE   H3Y12214   0.100   1.630   3.562  0.4423  1.3665  0.7249
  116SAPE   C3412215   0.316   1.609   3.611  0.6084  0.5310  0.8803
  116SAPE   H4X12216   0.301   1.715   3.641  0.3249  0.3939  1.2298
  116SAPE   H4Y12217   0.408   1.604   3.549 -0.8206  0.8586 -1.3912
  116SAPE   C3512218   0.307   1.520   3.732  0.1661 -0.6154 -0.3779
  116SAPE   H5X12219   0.319   1.411   3.714  2.9900 -0.2499 -1.1049
  116SAPE   H5Y12220   0.208   1.538   3.779  0.1048  1.9730 -1.3083
  116SAPE   C3612221   0.401   1.553   3.846  0.4018 -0.0427  0.1800
  116SAPE   H6X12222   0.418   1.663   3.852  2.0528 -0.3328  2.8907
  116SAPE   H6Y12223   0.500   1.507   3.827  0.8732  0.7791  0.5648
  116SAPE   C3712224   0.364   1.502   3.992 -1.0923 -0.3906  0.0854
  116SAPE   H7X12225   0.342   1.393   3.985  1.2520 -0.8435 -2.2117
  116SAPE   H7Y12226   0.275   1.556   4.029  0.3539  1.6336  0.7954
  116SAPE   C3812227   0.479   1.517   4.092 -0.4449 -0.2720  0.1087
  116SAPE   H8X12228   0.545   1.588   4.037 -0.7166  0.5446  0.8355
  116SAPE   H8Y12229   0.532   1.421   4.114  0.6610  0.4287  0.6060
  116SAPE   C3912230   0.432   1.565   4.235  0.0133  0.3457  0.0542
  116SAPE   H9X12231   0.330   1.527   4.258 -0.6879  1.6586 -0.7005
  116SAPE   H9Y12232   0.426   1.676   4.241 -1.8217  0.3905 -1.6211
  116SAPE  C31012233   0.528   1.511   4.342 -0.4996 -0.0732 -0.8028
  116SAPE  H10X12234   0.631   1.522   4.302 -0.0123 -0.2007  0.3695
  116SAPE  H10Y12235   0.514   1.401   4.351  2.7153 -0.7183 -2.3814
  116SAPE  C31112236   0.508   1.586   4.477 -0.2510 -0.0197 -0.3755
  116SAPE  H11X12237   0.445   1.516   4.536  0.8060 -2.0191 -1.4980
  116SAPE  H11Y12238   0.455   1.681   4.455  1.0481  0.2564 -2.7438
  116SAPE  C31212239   0.643   1.603   4.548 -0.5329  0.0610  0.4476
  116SAPE  H12X12240   0.708   1.642   4.467 -0.4942 -1.4664 -0.2871
  116SAPE  H12Y12241   0.684   1.506   4.584  1.3997 -0.4669 -2.8144
  116SAPE  C31312242   0.634   1.707   4.663  0.8082 -0.1127  0.8782
  116SAPE  H13X12243   0.556   1.665   4.731 -0.9576  1.4344 -0.1032
  116SAPE  H13Y12244   0.578   1.794   4.623  0.8413 -0.3423  0.3335
  116SAPE  C31412245   0.767   1.738   4.724  0.0199  0.4459  0.1366
  116SAPE  H14X12246   0.833   1.654   4.754  0.1374  0.6578  0.4842
  116SAPE  H14Y12247   0.745   1.800   4.814 -2.3292  0.2731 -0.2712
  116SAPE  C31512248   0.849   1.829   4.626  0.7555  0.1835  0.9032
  116SAPE  H15X12249   0.780   1.909   4.591  2.5280  0.3299 -2.6494
  116SAPE  H15Y12250   0.890   1.774   4.539  1.9826  1.0021  0.9409
  116SAPE  C31612251   0.973   1.877   4.694 -0.1350 -0.3246  0.0660
  116SAPE  H16X12252   1.009   1.794   4.759 -0.6530  0.2829  1.1515
  116SAPE  H16Y12253   0.948   1.959   4.764 -0.0236 -0.6244  0.4581
  116SAPE  C31712254   1.078   1.908   4.595 -0.1807 -0.7362  0.3872
  116SAPE  H17X12255   1.053   1.993   4.529  1.7404  0.3553  1.0072
  116SAPE  H17Y12256   1.096   1.818   4.532  2.9094 -0.7546  1.1614
  116SAPE  C31812257   1.215   1.937   4.658 -0.7645 -0.2422 -0.1035
  116SAPE  H18X12258   1.269   1.843   4.683 -1.0488 -1.2551 -2.9047
  116SAPE  H18Y12259   1.197   2.016   4.735 -2.9572 -0.0765 -0.7101
  116SAPE  H18Z12260   1.272   1.987   4.577 -0.6411  0.6766  0.5348
  117SOPE     N12261   6.428   1.876   6.735 -0.5270  0.5317 -0.8850
  117SOPE   HN112262   6.405   1.822   6.649 -0.7026 -2.7241  1.0767
  117SOPE   HN212263   6.463   1.969   6.704 -2.1064  1.4280 -0.1258
  117SOPE   HN312264   6.503   1.824   6.785 -1.7281 -1.0820 -0.6678
  117SOPE   C1212265   6.304   1.909   6.814 -0.3710 -0.3800 -0.0889
  117SOPE  H12A12266   6.274   1.812   6.859  1.2450  0.1744  2.4441
  117SOPE  H12B12267   6.234   1.941   6.735  0.9437 -1.2182 -1.6630
  117SOPE   C1112268   6.337   2.017   6.915  0.5370 -0.1470 -0.2356
  117SOPE  H11A12269   6.376   1.971   7.008  1.6658  0.5659 -0.3337
  117SOPE  H11B12270   6.236   2.052   6.947  1.4031 -0.9110  3.9374
  117SOPE     P12271   6.418   2.257   6.948  0.3925 -0.1009 -0.1596
  117SOPE   O1312272   6.545   2.248   7.025  0.2621  0.3215 -0.3738
  117SOPE   O1412273   6.289   2.261   7.024  0.5622  0.0930  0.2596
  117SOPE   O1212274   6.409   2.127   6.858 -0.2871  0.1226 -0.0164
  117SOPE   O1112275   6.426   2.374   6.853 -0.1451  0.6329  0.1282
  117SOPE    C112276   6.494   2.368   6.720  0.4977  0.1228 -0.3037
  117SOPE    HA12277   6.586   2.308   6.733 -0.1914 -0.3282  3.7349
  117SOPE    HB12278   6.522   2.472   6.692 -0.3097  0.2242 -0.7952
  117SOPE    C212279   6.390   2.321   6.610  0.1608  0.0080  0.2047
  117SOPE    HS12280   6.361   2.217   6.638 -0.7884 -0.1405 -1.2208
  117SOPE   O2112281   6.460   2.321   6.487 -0.3068 -0.1499  0.4891
  117SOPE   C2112282   6.406   2.251   6.388 -0.5351  0.5175  0.1518
  117SOPE   O2212283   6.307   2.181   6.400 -0.6442  0.2981  0.4160
  117SOPE   C2212284   6.496   2.266   6.269  0.1081  0.8200  0.2090
  117SOPE   H2R12285   6.600   2.276   6.305 -0.1394  0.4635  1.0464
  117SOPE   H2S12286   6.473   2.366   6.226  0.6517 -0.1318 -2.4805
  117SOPE    C312287   6.261   2.410   6.602  0.7236  0.1150  0.2560
  117SOPE    HX12288   6.214   2.393   6.701 -0.0298 -2.5717 -0.4822
  117SOPE    HY12289   6.188   2.377   6.525  1.3244  0.3670 -0.4441
  117SOPE   O3112290   6.298   2.547   6.583 -0.4958  0.1346  0.8717
  117SOPE   C3112291   6.294   2.595   6.455  0.7316 -0.4587  0.5281
  117SOPE   O3212292   6.297   2.525   6.357 -0.3346 -0.1914 -0.1219
  117SOPE   C3212293   6.271   2.745   6.458 -0.2256 -0.1358  1.0814
  117SOPE   H2X12294   6.365   2.783   6.502  0.6027  0.3426 -0.9770
  117SOPE   H2Y12295   6.179   2.758   6.519 -0.4346 -2.8110  1.4940
  117SOPE   C2312296   6.501   2.150   6.163  0.1615  0.1400  0.3487
  117SOPE   H3R12297   6.403   2.098   6.156 -0.2383  1.0270 -0.8874
  117SOPE   H3S12298   6.575   2.077   6.203  0.3021  0.0441 -0.0779
  117SOPE   C2412299   6.549   2.193   6.022 -0.0327 -0.0824 -0.3070
  117SOPE   H4R12300   6.513   2.116   5.951 -0.4619  1.7485 -2.1643
  117SOPE   H4S12301   6.490   2.285   6.001 -2.4934 -0.8403  2.6913
  117SOPE   C2512302   6.695   2.222   6.022  0.1274  0.5668  0.6832
  117SOPE   H5R12303   6.722   2.301   6.096  1.5498  2.1068 -1.3938
  117SOPE   H5S12304   6.752   2.127   6.031 -0.5473  0.1090  0.1935
  117SOPE   C2612305   6.729   2.286   5.886 -0.1387 -0.2651  0.5399
  117SOPE   H6R12306   6.677   2.383   5.872  2.7965  1.2025 -1.0485
  117SOPE   H6S12307   6.836   2.314   5.896  0.1363 -0.6043 -1.1023
  117SOPE   C2712308   6.722   2.190   5.764  0.1049  0.2777 -0.1763
  117SOPE   H7R12309   6.767   2.091   5.787 -0.7231  0.0659  0.5572
  117SOPE   H7S12310   6.612   2.179   5.750  0.2262  0.3655 -1.3556
  117SOPE   C2812311   6.794   2.246   5.644  0.1472 -0.3102 -0.4515
  117SOPE   H8R12312   6.902   2.264   5.662 -0.1887  3.5216 -1.3094
  117SOPE   H8S12313   6.803   2.164   5.570  0.6755 -1.3529  0.7413
  117SOPE   C2912314   6.727   2.364   5.582 -0.7572  0.5837 -0.2813
  117SOPE   H9112315   6.683   2.435   5.654  0.2069  1.0516 -0.1447
  117SOPE  C21012316   6.728   2.399   5.451 -0.1350  0.2075 -0.4006
  117SOPE  H10112317   6.658   2.481   5.429  0.2422  0.9525  1.0508
  117SOPE  C21112318   6.787   2.323   5.336  0.1288 -0.3172 -0.6499
  117SOPE  H11R12319   6.845   2.237   5.374  0.6045 -0.6030 -1.9679
  117SOPE  H11S12320   6.860   2.397   5.296 -0.6399 -0.2682 -2.0285
  117SOPE  C21212321   6.674   2.294   5.232 -0.1310  0.3538 -0.1002
  117SOPE  H12R12322   6.597   2.219   5.260  0.6573 -0.6480 -0.5625
  117SOPE  H12S12323   6.720   2.231   5.153 -0.1079 -1.0335  0.9780
  117SOPE  C21312324   6.618   2.423   5.167  0.2729 -0.0832  0.0245
  117SOPE  H13R12325   6.716   2.468   5.141 -0.2967  0.8893 -0.4698
  117SOPE  H13S12326   6.560   2.482   5.241 -3.3859 -0.5548 -2.2270
  117SOPE  C21412327   6.527   2.401   5.046 -0.1065  0.6603  0.3762
  117SOPE  H14R12328   6.433   2.350   5.076  0.5300 -1.7222 -1.3885
  117SOPE  H14S12329   6.561   2.330   4.968 -3.2853  0.7248 -1.2646
  117SOPE  C21512330   6.489   2.529   4.971  0.1563  0.1947  0.0822
  117SOPE  H15R12331   6.474   2.603   5.053  0.3190 -0.6748  0.9206
  117SOPE  H15S12332   6.393   2.516   4.918  0.0149 -0.2809  0.4503
  117SOPE  C21612333   6.596   2.583   4.871  0.3838 -0.6936 -0.2864
  117SOPE  H16R12334   6.689   2.596   4.930  1.4475 -4.3856 -0.9166
  117SOPE  H16S12335   6.550   2.680   4.841 -1.9242 -1.3456  0.9202
  117SOPE  C21712336   6.628   2.498   4.742 -0.1131 -0.1610  0.6861
  117SOPE  H17R12337   6.678   2.403   4.770  0.9574  0.1792 -0.0112
  117SOPE  H17S12338   6.710   2.555   4.693  0.7103 -0.1043  2.0750
  117SOPE  C21812339   6.514   2.468   4.649 -0.2148 -0.1908  0.5442
  117SOPE  H18R12340   6.453   2.395   4.707 -0.5335 -0.0787  0.3521
  117SOPE  H18S12341   6.546   2.422   4.554  1.2916  2.1616 -0.1953
  117SOPE  H18T12342   6.452   2.558   4.629  1.1700  0.6354 -0.1915
  117SOPE   C3312343   6.254   2.802   6.315 -0.6032 -0.1786 -0.4838
  117SOPE   H3X12344   6.169   2.750   6.267  0.3492 -1.0466 -1.2769
  117SOPE   H3Y12345   6.350   2.802   6.258 -0.3058 -0.9700  0.0046
  117SOPE   C3412346   6.237   2.957   6.309 -0.3075  0.6229  0.7902
  117SOPE   H4X12347   6.328   3.014   6.336 -0.1072  0.5959  0.1933
  117SOPE   H4Y12348   6.155   2.977   6.381 -0.5180 -1.3965  1.1676
  117SOPE   C3512349   6.191   2.998   6.170 -0.0395  0.0013  0.1715
  117SOPE   H5X12350   6.124   3.086   6.178  0.1580  0.2729 -0.9846
  117SOPE   H5Y12351   6.122   2.916   6.141  0.3342 -0.1149 -0.4096
  117SOPE   C3612352   6.300   3.010   6.057  0.2669  0.5880 -0.0359
  117SOPE   H6X12353   6.369   2.924   6.045 -1.5432 -0.9966  0.3277
  117SOPE   H6Y12354   6.365   3.097   6.079  0.6295 -0.3349  3.0718
  117SOPE   C3712355   6.229   3.034   5.918  0.7987 -0.2000 -0.1531
  117SOPE   H7X12356   6.143   3.103   5.935 -0.1509 -1.1262 -1.0287
  117SOPE   H7Y12357   6.188   2.940   5.876 -1.3766 -0.4327  2.2004
  117SOPE   C3812358   6.326   3.084   5.815  0.5892 -0.8283 -0.4488
  117SOPE   H8X12359   6.420   3.025   5.800  0.8895 -0.5044  0.1442
  117SOPE   H8Y12360   6.368   3.178   5.855 -1.8990 -1.1626  3.4005
  117SOPE   C3912361   6.265   3.093   5.676 -0.0886 -0.1135  0.5150
  117SOPE   H9X12362   6.173   3.156   5.672  0.6532  0.9446 -2.2965
  117SOPE   H9Y12363   6.237   2.995   5.632  1.5660  0.0107 -0.9700
  117SOPE  C31012364   6.358   3.161   5.579  0.6307 -0.6730 -0.0146
  117SOPE  H10X12365   6.450   3.103   5.557  0.6294 -0.6191 -0.1608
  117SOPE  H10Y12366   6.380   3.260   5.623 -2.3631  0.1502 -0.1715
  117SOPE  C31112367   6.284   3.187   5.445 -0.2787 -0.7622  0.3454
  117SOPE  H11X12368   6.185   3.234   5.465  0.1437  1.0060 -1.4835
  117SOPE  H11Y12369   6.263   3.094   5.387 -0.3300  0.2249 -1.2702
  117SOPE  C31212370   6.382   3.268   5.355 -0.2426  0.2752  0.2797
  117SOPE  H12X12371   6.463   3.199   5.324 -0.6416  0.2655 -0.7809
  117SOPE  H12Y12372   6.422   3.352   5.415 -0.5530  0.0635  0.7898
  117SOPE  C31312373   6.330   3.344   5.232  0.2311  0.1926  0.0323
  117SOPE  H13X12374   6.252   3.417   5.263  0.6141  0.6801 -0.1275
  117SOPE  H13Y12375   6.275   3.265   5.177  2.7965  0.0616 -2.5900
  117SOPE  C31412376   6.442   3.401   5.141  0.0668 -0.1394 -0.1767
  117SOPE  H14X12377   6.518   3.447   5.207 -0.2505 -0.3864  0.3590
  117SOPE  H14Y12378   6.394   3.475   5.072 -1.5569 -1.1462 -0.1860
  117SOPE  C31512379   6.514   3.291   5.053 -0.1423 -0.1531 -1.5148
  117SOPE  H15X12380   6.557   3.210   5.116 -1.2835 -0.0012 -0.5102
  117SOPE  H15Y12381   6.600   3.335   4.998  1.6351 -0.2592  0.9933
  117SOPE  C31612382   6.427   3.219   4.950 -0.5723 -0.3493 -0.4881
  117SOPE  H16X12383   6.368   3.137   4.997 -0.1366 -0.2727  0.2086
  117SOPE  H16Y12384   6.483   3.155   4.879 -0.4877 -1.7622  0.7837
  117SOPE  C31712385   6.335   3.309   4.863 -0.3078 -0.0252  0.2378
  117SOPE  H17X12386   6.402   3.377   4.805  0.4603  0.1029  1.2510
  117SOPE  H17Y12387   6.267   3.368   4.927  0.5383  0.7782  0.4245
  117SOPE  C31812388   6.246   3.224   4.766 -0.2971 -0.0756 -0.1701
  117SOPE  H18X12389   6.177   3.172   4.836  2.1707  0.9975  3.3363
  117SOPE  H18Y12390   6.318   3.164   4.706 -3.5392 -1.8232 -2.6790
  117SOPE  H18Z12391   6.196   3.301   4.705  1.1282 -0.7241 -2.2945
  118SOPE     N12392   4.910   4.531   7.764 -0.4493 -0.8129 -0.3041
  118SOPE   HN112393   4.830   4.468   7.785  0.3890 -1.7968  0.0688
  118SOPE   HN212394   4.877   4.628   7.780 -0.7229 -0.7497 -1.1970
  118SOPE   HN312395   4.933   4.528   7.662 -1.9782  0.7301 -0.7294
  118SOPE   C1212396   5.024   4.506   7.856  0.4736  0.8080 -0.1115
  118SOPE  H12A12397   4.992   4.534   7.959 -1.7524 -0.6413 -0.3482
  118SOPE  H12B12398   5.113   4.568   7.829  0.9915  0.0950 -0.0860
  118SOPE   C1112399   5.060   4.357   7.851  0.3933  0.2473 -0.3401
  118SOPE  H11A12400   4.981   4.292   7.894  1.9355 -1.6588 -0.2370
  118SOPE  H11B12401   5.146   4.336   7.918  0.6064 -2.2415 -1.2715
  118SOPE     P12402   5.213   4.307   7.638  0.4497  0.2878 -0.5568
  118SOPE   O1312403   5.190   4.229   7.515  0.0924  0.5118  0.4033
  118SOPE   O1412404   5.322   4.253   7.727 -0.0309  0.3684 -0.1150
  118SOPE   O1212405   5.075   4.313   7.720  0.4993 -0.3884 -0.4132
  118SOPE   O1112406   5.246   4.455   7.603  0.3363 -0.5962  0.7004
  118SOPE    C112407   5.380   4.481   7.552 -0.7177 -0.4638  0.4321
  118SOPE    HA12408   5.447   4.393   7.555 -1.3922 -0.9722  2.4006
  118SOPE    HB12409   5.419   4.556   7.624 -2.1550  1.7496 -0.9736
  118SOPE    C212410   5.368   4.531   7.407 -0.1638 -0.2265 -0.0612
  118SOPE    HS12411   5.473   4.534   7.371 -0.0296 -0.3161  0.3147
  118SOPE   O2112412   5.300   4.653   7.396  0.7398 -0.0629  0.3434
  118SOPE   C2112413   5.383   4.755   7.375 -0.4067  0.2520  0.4312
  118SOPE   O2212414   5.506   4.755   7.384  0.0931  0.4757  0.7380
  118SOPE   C2212415   5.297   4.875   7.364  0.1694 -0.7554  0.0776
  118SOPE   H2R12416   5.371   4.958   7.374 -0.8410  0.1329  0.3119
  118SOPE   H2S12417   5.225   4.885   7.448  0.1345  0.0317 -0.0389
  118SOPE    C312418   5.312   4.426   7.306 -0.2095  0.3246 -0.3694
  118SOPE    HX12419   5.209   4.409   7.345 -0.6032 -2.1446 -2.2701
  118SOPE    HY12420   5.383   4.341   7.320 -0.3199  0.4205  0.8862
  118SOPE   O3112421   5.315   4.481   7.176  0.1232 -0.4196 -0.3165
  118SOPE   C3112422   5.306   4.388   7.082 -0.3961 -0.3307  1.4021
  118SOPE   O3212423   5.298   4.267   7.102  0.1659 -0.2443  0.7355
  118SOPE   C3212424   5.305   4.445   6.944  0.2978  1.1120 -0.1504
  118SOPE   H2X12425   5.208   4.420   6.896 -1.1337 -0.1842  3.1067
  118SOPE   H2Y12426   5.392   4.415   6.882  0.7099 -0.5870  1.1572
  118SOPE   C2312427   5.220   4.876   7.225  0.4554 -0.1837  0.0354
  118SOPE   H3R12428   5.142   4.797   7.235  0.5662  0.0098  3.6504
  118SOPE   H3S12429   5.294   4.853   7.145 -1.2751 -0.3745 -1.5863
  118SOPE   C2412430   5.159   5.009   7.179 -0.4764  0.6294 -0.5411
  118SOPE   H4R12431   5.091   5.049   7.257  1.6597  0.7668  1.3452
  118SOPE   H4S12432   5.240   5.082   7.157  1.3690 -1.1124  0.1150
  118SOPE   C2512433   5.095   4.989   7.036  0.0240  0.5152 -0.1830
  118SOPE   H5R12434   5.180   4.965   6.969 -2.2968 -0.6768 -2.8937
  118SOPE   H5S12435   5.029   4.900   7.033  1.5092 -0.7277  1.5186
  118SOPE   C2612436   5.023   5.113   6.985  0.3364  0.4999  0.9644
  118SOPE   H6R12437   4.917   5.081   6.980  0.1682  0.8862  1.8190
  118SOPE   H6S12438   5.035   5.201   7.052 -0.3726 -0.4255  2.3776
  118SOPE   C2712439   5.077   5.163   6.850  0.0249 -0.8070  1.2370
  118SOPE   H7R12440   5.041   5.264   6.820  2.5268 -0.6711 -1.8283
  118SOPE   H7S12441   5.186   5.181   6.862  0.1416  0.9304 -1.5998
  118SOPE   C2812442   5.046   5.066   6.731 -0.4552  0.6328  0.3948
  118SOPE   H8R12443   5.098   5.103   6.641 -1.9094  1.4868 -0.1280
  118SOPE   H8S12444   5.102   4.971   6.744  2.7858  1.8135 -3.1011
  118SOPE   C2912445   4.901   5.059   6.708 -0.0007  0.0947  0.1328
  118SOPE   H9112446   4.837   5.035   6.793 -0.3356  0.8167  0.0976
  118SOPE  C21012447   4.842   5.056   6.583 -0.3390 -0.4661  0.3992
  118SOPE  H10112448   4.734   5.056   6.564 -0.2829  0.3278  0.0353
  118SOPE  C21112449   4.915   5.065   6.451 -0.7331 -0.3663 -0.0263
  118SOPE  H11R12450   4.997   4.990   6.454 -0.3555  0.0480  0.2402
  118SOPE  H11S12451   4.968   5.163   6.456  0.5795 -1.1282  3.5724
  118SOPE  C21212452   4.820   5.036   6.336  0.0082  0.7867 -0.0021
  118SOPE  H12R12453   4.736   5.108   6.345  0.0618  1.1013 -1.7379
  118SOPE  H12S12454   4.779   4.933   6.351  1.9804  0.1118  1.2213
  118SOPE  C21312455   4.888   5.050   6.196 -0.0088  0.9360 -0.1733
  118SOPE  H13R12456   4.959   4.964   6.194 -1.6039 -0.4273 -2.4684
  118SOPE  H13S12457   4.940   5.148   6.196  0.7906  0.5229  0.3099
  118SOPE  C21412458   4.781   5.031   6.086  1.2029  0.0075 -0.0935
  118SOPE  H14R12459   4.681   5.067   6.118 -0.6302 -2.9299 -2.0625
  118SOPE  H14S12460   4.756   4.924   6.071 -0.8322  0.3925  0.2470
  118SOPE  C21512461   4.834   5.086   5.954  0.0123 -0.9046  0.0250
  118SOPE  H15R12462   4.905   5.014   5.908 -0.4608 -1.0855 -0.4325
  118SOPE  H15S12463   4.881   5.185   5.972 -0.7400 -0.6031  0.3701
  118SOPE  C21612464   4.716   5.114   5.854 -0.0991  0.1797 -0.7385
  118SOPE  H16R12465   4.673   5.209   5.891 -0.2972  0.3355 -1.3661
  118SOPE  H16S12466   4.648   5.028   5.839  0.7289 -0.3299 -1.7061
  118SOPE  C21712467   4.788   5.153   5.722 -0.0597  0.2562  0.0676
  118SOPE  H17R12468   4.835   5.062   5.680 -0.8172  0.1409 -0.5531
  118SOPE  H17S12469   4.860   5.233   5.752 -0.3084  0.7388 -0.6039
  118SOPE  C21812470   4.686   5.203   5.613 -0.8379  0.2770  1.0136
  118SOPE  H18R12471   4.609   5.123   5.597  0.6218 -1.4720  2.3239
  118SOPE  H18S12472   4.742   5.218   5.518  1.0922  0.7957  2.1844
  118SOPE  H18T12473   4.643   5.298   5.650  1.5244  0.9142  2.3072
  118SOPE   C3312474   5.323   4.601   6.941 -0.4949  0.0218 -0.0886
  118SOPE   H3X12475   5.421   4.624   6.988 -0.9666  1.8892  0.0780
  118SOPE   H3Y12476   5.248   4.661   6.998  0.7417  3.0644 -1.4585
  118SOPE   C3412477   5.330   4.657   6.799 -0.8312 -0.5356  0.0106
  118SOPE   H4X12478   5.397   4.587   6.744  0.8250  2.2604 -1.8389
  118SOPE   H4Y12479   5.382   4.755   6.802  1.9960 -1.8748 -1.0409
  118SOPE   C3512480   5.194   4.648   6.723  0.3464 -0.1852  0.3336
  118SOPE   H5X12481   5.114   4.702   6.778 -0.2503  0.4950 -1.1654
  118SOPE   H5Y12482   5.168   4.540   6.727  0.3480 -0.1695  0.9026
  118SOPE   C3612483   5.200   4.681   6.577  0.3566 -0.6799 -0.0179
  118SOPE   H6X12484   5.283   4.620   6.535  1.7173  1.1438 -0.0619
  118SOPE   H6Y12485   5.228   4.787   6.565  2.1640 -1.1831 -0.4967
  118SOPE   C3712486   5.075   4.644   6.496  0.6430  0.2957  0.0412
  118SOPE   H7X12487   4.992   4.694   6.551  0.0261 -1.6684  1.0232
  118SOPE   H7Y12488   5.058   4.535   6.510 -1.0012  0.5489  0.2854
  118SOPE   C3812489   5.071   4.670   6.345 -0.5461  0.2940 -0.0910
  118SOPE   H8X12490   5.158   4.619   6.298  0.7441  1.1346  1.2892
  118SOPE   H8Y12491   5.078   4.779   6.323  1.8028  0.5723  1.6367
  118SOPE   C3912492   4.951   4.624   6.269 -0.1025  0.7820  0.2930
  118SOPE   H9X12493   4.869   4.689   6.306 -1.3471 -0.2981 -0.5000
  118SOPE   H9Y12494   4.925   4.520   6.298 -1.1179  0.4626 -1.6070
  118SOPE  C31012495   4.964   4.641   6.121 -0.6204 -0.0421 -0.1768
  118SOPE  H10X12496   5.062   4.590   6.104  0.6530  2.0223  0.5173
  118SOPE  H10Y12497   4.987   4.748   6.099  2.3786 -0.8665 -1.7295
  118SOPE  C31112498   4.855   4.569   6.047 -0.2106 -0.5489  0.4490
  118SOPE  H11X12499   4.753   4.604   6.074  0.2754  1.7095 -0.4779
  118SOPE  H11Y12500   4.865   4.459   6.064  0.8366 -0.6996 -0.9342
  118SOPE  C31212501   4.880   4.594   5.892 -0.0553 -0.3533 -0.5702
  118SOPE  H12X12502   4.988   4.589   5.867 -0.6596 -0.0832 -3.5170
  118SOPE  H12Y12503   4.855   4.699   5.870  0.8945 -0.0829 -0.3975
  118SOPE  C31312504   4.813   4.489   5.804 -0.6556 -0.2296 -0.3792
  118SOPE  H13X12505   4.710   4.492   5.846 -0.4013 -0.6315  0.2781
  118SOPE  H13Y12506   4.846   4.390   5.842  0.4854  0.2572 -0.0506
  118SOPE  C31412507   4.818   4.515   5.650  0.4326 -0.3178  0.2778
  118SOPE  H14X12508   4.820   4.625   5.635 -0.9839 -0.1940  0.8012
  118SOPE  H14Y12509   4.719   4.475   5.619 -0.7392  1.4347  1.5311
  118SOPE  C31512510   4.936   4.445   5.591 -0.1578 -0.2365  0.1314
  118SOPE  H15X12511   4.917   4.338   5.617  1.3549 -0.3442  0.9249
  118SOPE  H15Y12512   5.023   4.474   5.654  1.7714 -3.0145 -1.0304
  118SOPE  C31612513   4.960   4.469   5.437 -0.4598 -0.2500  0.2355
  118SOPE  H16X12514   4.937   4.577   5.418  1.1410 -0.2056 -1.8238
  118SOPE  H16Y12515   4.878   4.411   5.390 -0.4618  1.0970 -1.5330
  118SOPE  C31712516   5.096   4.422   5.380  0.3607  0.0108  0.7023
  118SOPE  H17X12517   5.102   4.437   5.270 -0.8135 -0.8372  0.5036
  118SOPE  H17Y12518   5.113   4.312   5.387 -2.8563 -0.6806 -0.7374
  118SOPE  C31812519   5.213   4.507   5.447  0.1046 -0.1897 -0.2806
  118SOPE  H18X12520   5.183   4.613   5.442 -0.8631 -0.4075  0.6128
  118SOPE  H18Y12521   5.305   4.493   5.385 -1.6876 -3.8970 -2.4953
  118SOPE  H18Z12522   5.219   4.480   5.554 -3.9549  0.4076  0.2339
  119SOPE     N12523   2.079   1.444   7.435  0.0549 -0.0995  0.6934
  119SOPE   HN112524   2.137   1.358   7.425 -1.9971 -1.4486 -0.3356
  119SOPE   HN212525   2.054   1.475   7.531 -0.0336  0.2957  0.5464
  119SOPE   HN312526   1.995   1.420   7.379  0.8327  1.6428 -1.4011
  119SOPE   C1212527   2.130   1.568   7.357  0.5219 -0.6290  0.0812
  119SOPE  H12A12528   2.136   1.544   7.249 -0.5558 -1.0987  0.1137
  119SOPE  H12B12529   2.229   1.603   7.392  0.3734  0.8055 -0.8799
  119SOPE   C1112530   2.046   1.695   7.363  0.0226  0.1950  0.0026
  119SOPE  H11A12531   2.090   1.770   7.293  1.2216 -1.2859 -0.8811
  119SOPE  H11B12532   2.052   1.737   7.466  0.4451  3.1074 -1.0923
  119SOPE     P12533   1.793   1.727   7.286  0.0429  0.0017  0.2523
  119SOPE   O1312534   1.814   1.871   7.315 -0.4065 -0.2463 -0.3010
  119SOPE   O1412535   1.682   1.664   7.356  0.6236 -0.2014  0.1154
  119SOPE   O1212536   1.917   1.650   7.330  0.4816 -0.0697  0.1983
  119SOPE   O1112537   1.790   1.704   7.125  0.1695 -0.8163  0.2121
  119SOPE    C112538   1.916   1.689   7.048  0.2088 -0.2029  0.2532
  119SOPE    HA12539   1.956   1.585   7.054  2.8163  0.7503  0.7959
  119SOPE    HB12540   1.995   1.747   7.101 -1.4895  0.9453  1.6678
  119SOPE    C212541   1.917   1.718   6.899 -0.1132  0.5401 -0.4183
  119SOPE    HS12542   2.011   1.677   6.855 -0.4940  0.2966 -1.0223
  119SOPE   O2112543   1.919   1.863   6.876  0.6676 -0.6573 -0.0835
  119SOPE   C2112544   2.035   1.923   6.899  0.4036  0.0481  1.2594
  119SOPE   O2212545   2.141   1.874   6.932  0.1478 -0.3325 -1.0144
  119SOPE   C2212546   2.015   2.069   6.883  0.4111  0.0161  0.4972
  119SOPE   H2R12547   2.073   2.117   6.964 -0.7307 -0.0846  1.4155
  119SOPE   H2S12548   1.904   2.077   6.875  0.3461 -0.9921  0.2569
  119SOPE    C312549   1.802   1.649   6.828  0.7449 -0.0992 -0.8148
  119SOPE    HX12550   1.702   1.689   6.855  0.4672 -1.8885  0.9841
  119SOPE    HY12551   1.802   1.541   6.854  0.4793  0.4942  1.9067
  119SOPE   O3112552   1.820   1.657   6.682  0.1718  0.1202  0.0851
  119SOPE   C3112553   1.704   1.646   6.613 -0.0956  0.6822  0.4131
  119SOPE   O3212554   1.596   1.648   6.662  0.7773  0.6190  0.2578
  119SOPE   C3212555   1.744   1.613   6.465  0.4874  0.0991  0.1429
  119SOPE   H2X12556   1.806   1.521   6.454  0.5978  0.2875 -0.9348
  119SOPE   H2Y12557   1.795   1.706   6.431  0.1517  0.1754 -0.1621
  119SOPE   C2312558   2.076   2.117   6.746 -0.3953  1.4409 -1.0802
  119SOPE   H3R12559   2.015   2.062   6.672  1.5338 -0.1565 -1.5527
  119SOPE   H3S12560   2.185   2.097   6.737 -0.6603 -0.9079  0.1109
  119SOPE   C2412561   2.050   2.265   6.728  0.2071  0.1136  0.1434
  119SOPE   H4R12562   1.971   2.285   6.804  0.0413  1.7844 -0.4467
  119SOPE   H4S12563   2.147   2.314   6.749  0.9089 -0.9836 -0.4325
  119SOPE   C2512564   2.005   2.295   6.584  0.5855 -0.1836 -0.5791
  119SOPE   H5R12565   1.902   2.255   6.577  1.2378 -2.1580  0.2903
  119SOPE   H5S12566   2.017   2.405   6.574  0.8584 -0.2933 -1.5146
  119SOPE   C2612567   2.095   2.234   6.475 -0.2739  0.3653 -0.8358
  119SOPE   H6R12568   2.201   2.261   6.494 -0.8458  0.6308  2.5121
  119SOPE   H6S12569   2.082   2.125   6.461 -1.7102  0.4899 -0.5517
  119SOPE   C2712570   2.055   2.292   6.339  0.7850  0.2754  0.0233
  119SOPE   H7R12571   1.955   2.255   6.309  0.3553 -0.5612  2.2401
  119SOPE   H7S12572   2.049   2.402   6.356 -1.9286  0.3091 -0.7919
  119SOPE   C2812573   2.162   2.270   6.225  0.0947 -0.4995  0.4081
  119SOPE   H8R12574   2.152   2.342   6.141 -1.3952 -1.3687 -0.2004
  119SOPE   H8S12575   2.255   2.298   6.280  0.8463 -0.2110 -0.9761
  119SOPE   C2912576   2.174   2.129   6.191  0.0686  0.4100  0.0805
  119SOPE   H9112577   2.223   2.078   6.276  3.2143 -0.2614 -1.9554
  119SOPE  C21012578   2.154   2.064   6.076 -0.2841 -0.0159  0.3906
  119SOPE  H10112579   2.181   1.958   6.066  0.3203  0.1738 -0.0099
  119SOPE  C21112580   2.097   2.121   5.945  0.2200 -0.1243 -0.3675
  119SOPE  H11R12581   2.055   2.220   5.974  1.2028 -0.1993  1.4834
  119SOPE  H11S12582   2.012   2.055   5.918 -0.4947  1.2986 -1.7840
  119SOPE  C21212583   2.191   2.133   5.824 -0.2352 -0.0367  0.4155
  119SOPE  H12R12584   2.131   2.168   5.738 -0.8407 -4.0127 -0.9652
  119SOPE  H12S12585   2.229   2.031   5.806 -0.6730 -0.5933  2.3280
  119SOPE  C21312586   2.309   2.231   5.850  0.0094  0.5821 -0.3131
  119SOPE  H13R12587   2.359   2.212   5.947  0.6575  0.3892 -0.6736
  119SOPE  H13S12588   2.254   2.326   5.861  0.5750  1.2795 -2.7226
  119SOPE  C21412589   2.413   2.242   5.732  0.3120  0.1562 -0.8655
  119SOPE  H14R12590   2.478   2.152   5.740 -1.2052 -0.9000  0.3426
  119SOPE  H14S12591   2.480   2.329   5.747  2.1038 -1.0936 -1.3023
  119SOPE  C21512592   2.331   2.247   5.598  0.6687 -0.3217  0.2243
  119SOPE  H15R12593   2.243   2.309   5.628 -0.1952 -1.2178 -0.4235
  119SOPE  H15S12594   2.282   2.150   5.576 -0.9838  0.6852 -0.7545
  119SOPE  C21612595   2.397   2.290   5.471 -0.1234 -0.0786 -0.6228
  119SOPE  H16R12596   2.335   2.255   5.387 -0.0208 -2.8401  0.3478
  119SOPE  H16S12597   2.495   2.240   5.455  0.1394 -0.7543  2.4885
  119SOPE  C21712598   2.423   2.444   5.453 -0.2324  0.7964 -0.1758
  119SOPE  H17R12599   2.446   2.487   5.553 -0.3060  0.5705 -0.0599
  119SOPE  H17S12600   2.328   2.487   5.413 -0.4009  0.4559 -0.1513
  119SOPE  C21812601   2.539   2.475   5.357  0.3316 -0.4235 -0.1289
  119SOPE  H18R12602   2.540   2.578   5.317  2.9390 -0.4433 -0.2848
  119SOPE  H18S12603   2.526   2.404   5.273  0.4057 -1.0383  0.3740
  119SOPE  H18T12604   2.634   2.450   5.408 -0.7222 -1.4393  1.4092
  119SOPE   C3312605   1.618   1.579   6.382  0.4272 -0.3894 -0.3107
  119SOPE   H3X12606   1.554   1.669   6.374  2.1041  0.8655 -0.2183
  119SOPE   H3Y12607   1.561   1.500   6.437 -3.1559  1.3039 -1.2859
  119SOPE   C3412608   1.644   1.533   6.241  0.5928 -0.3823 -0.1580
  119SOPE   H4X12609   1.718   1.452   6.258 -0.1607 -0.7774  1.4694
  119SOPE   H4Y12610   1.677   1.617   6.176  0.3282 -0.0934  0.0740
  119SOPE   C3512611   1.517   1.472   6.169 -0.0221  0.9869 -0.0636
  119SOPE   H5X12612   1.435   1.543   6.146  0.5651  1.9037  0.6046
  119SOPE   H5Y12613   1.478   1.395   6.239 -3.9614  0.9588 -2.0175
  119SOPE   C3612614   1.550   1.391   6.042  0.1648  0.8584  0.4440
  119SOPE   H6X12615   1.458   1.331   6.022  0.0401  1.2655 -0.2640
  119SOPE   H6Y12616   1.631   1.318   6.062  0.2803  0.9084  0.1697
  119SOPE   C3712617   1.574   1.464   5.915 -0.4228  0.2040 -0.3479
  119SOPE   H7X12618   1.671   1.518   5.917 -0.3848  0.1714 -1.0645
  119SOPE   H7Y12619   1.485   1.531   5.914 -0.5757  0.0736  1.5668
  119SOPE   C3812620   1.564   1.376   5.791 -0.1530  0.1178  0.0606
  119SOPE   H8X12621   1.464   1.330   5.799 -0.2275  0.5525  2.2334
  119SOPE   H8Y12622   1.643   1.298   5.786 -1.8305 -1.8339  2.0427
  119SOPE   C3912623   1.555   1.449   5.654 -0.0748  0.5598 -0.1813
  119SOPE   H9X12624   1.541   1.376   5.571 -0.6943 -0.2374  0.6079
  119SOPE   H9Y12625   1.639   1.518   5.630 -0.4361  0.8195 -0.7211
  119SOPE  C31012626   1.425   1.527   5.639  0.1318 -0.0308 -0.7189
  119SOPE  H10X12627   1.422   1.608   5.715  1.0795 -0.9007  0.2833
  119SOPE  H10Y12628   1.341   1.456   5.655  0.1270 -0.2394 -1.6072
  119SOPE  C31112629   1.409   1.588   5.500 -0.1461 -0.5450 -0.0310
  119SOPE  H11X12630   1.300   1.574   5.481 -0.3319  0.6397  0.0944
  119SOPE  H11Y12631   1.458   1.533   5.417 -1.1823  1.4380 -2.0712
  119SOPE  C31212632   1.450   1.738   5.490 -0.5813 -0.0622  0.3624
  119SOPE  H12X12633   1.553   1.760   5.524  0.2378 -0.7170 -1.5556
  119SOPE  H12Y12634   1.381   1.806   5.545  0.2200  0.6171  0.5493
  119SOPE  C31312635   1.457   1.796   5.345 -0.1418  0.9068  0.0349
  119SOPE  H13X12636   1.358   1.761   5.310  0.1322 -0.2840  0.4222
  119SOPE  H13Y12637   1.540   1.741   5.295  0.4592 -1.5367  3.3664
  119SOPE  C31412638   1.462   1.955   5.354 -0.3446  0.4333 -0.2676
  119SOPE  H14X12639   1.567   1.974   5.382  0.7076 -2.7414 -1.5467
  119SOPE  H14Y12640   1.394   1.979   5.438  1.3941 -0.9095  1.5925
  119SOPE  C31512641   1.410   2.038   5.235 -0.6257  0.2646  0.3067
  119SOPE  H15X12642   1.387   2.142   5.266 -0.9281  0.4093 -0.3798
  119SOPE  H15Y12643   1.310   2.000   5.204 -0.0600 -0.1482 -1.0832
  119SOPE  C31612644   1.512   2.037   5.124  0.7143 -0.4462  0.8356
  119SOPE  H16X12645   1.610   2.071   5.164 -0.5204  4.3518  0.4663
  119SOPE  H16Y12646   1.486   2.116   5.050  1.7011 -0.4112  0.5091
  119SOPE  C31712647   1.519   1.909   5.034  1.0417  0.0407  0.1613
  119SOPE  H17X12648   1.421   1.856   5.032  1.0745 -0.1805  2.3065
  119SOPE  H17Y12649   1.592   1.840   5.082  1.5079  1.8537  2.2217
  119SOPE  C31812650   1.576   1.929   4.893 -0.0081  0.0555 -0.5238
  119SOPE  H18X12651   1.615   1.831   4.859 -0.8726 -1.0319  1.4581
  119SOPE  H18Y12652   1.639   2.020   4.897  0.0216  0.0435 -0.7466
  119SOPE  H18Z12653   1.487   1.949   4.831  0.1818  1.1469 -0.4548
  120SOPE     N12654   0.481   5.771   7.601  0.8824 -0.0070 -0.7347
  120SOPE   HN112655   0.463   5.703   7.678 -1.3924  0.5753 -0.6968
  120SOPE   HN212656   0.397   5.831   7.595  1.3584  0.9563  1.3687
  120SOPE   HN312657   0.489   5.720   7.510 -1.1974 -1.2710 -0.2725
  120SOPE   C1212658   0.609   5.837   7.643 -0.3846  0.0733  0.1575
  120SOPE  H12A12659   0.678   5.755   7.671 -0.4242  0.3578  1.1447
  120SOPE  H12B12660   0.590   5.894   7.737  1.5817  1.7594 -0.3996
  120SOPE   C1112661   0.661   5.927   7.533 -0.6171 -0.0163 -1.7061
  120SOPE  H11A12662   0.712   5.874   7.450  1.7738 -1.1111  0.3440
  120SOPE  H11B12663   0.742   5.985   7.583  0.2156 -1.0252 -1.8685
  120SOPE     P12664   0.578   6.104   7.367  0.2463 -0.5134  0.2545
  120SOPE   O1312665   0.681   6.214   7.388  0.4792 -0.0729 -0.2204
  120SOPE   O1412666   0.436   6.144   7.335  0.5103  0.3518 -0.1002
  120SOPE   O1212667   0.568   6.021   7.495 -0.3983  0.6350  0.1790
  120SOPE   O1112668   0.628   6.010   7.254 -0.1158  0.1449  1.1085
  120SOPE    C112669   0.564   5.886   7.219 -0.0522 -0.2308  0.0872
  120SOPE    HA12670   0.467   5.873   7.273 -0.9477  1.0378 -1.1388
  120SOPE    HB12671   0.626   5.795   7.231  0.3728  0.2685  1.9375
  120SOPE    C212672   0.524   5.894   7.064  0.7673 -0.1548 -0.1074
  120SOPE    HS12673   0.458   5.805   7.056  0.5613  0.0162 -0.3403
  120SOPE   O2112674   0.638   5.885   6.970  0.0200 -0.8174 -0.3688
  120SOPE   C2112675   0.708   5.776   6.963  0.2609  0.0849  0.1974
  120SOPE   O2212676   0.684   5.676   7.031 -0.0300  0.2334  0.2544
  120SOPE   C2212677   0.826   5.796   6.862  1.0854  0.0857 -0.1930
  120SOPE   H2R12678   0.881   5.699   6.869 -0.2480 -0.8692 -2.0900
  120SOPE   H2S12679   0.882   5.880   6.908 -0.1871  1.7822 -1.6405
  120SOPE    C312680   0.430   6.010   7.031 -0.7331 -0.5510 -0.6759
  120SOPE    HX12681   0.477   6.110   7.041 -0.4140 -0.3568 -3.4512
  120SOPE    HY12682   0.347   6.001   7.104  0.2173 -1.9713  0.2875
  120SOPE   O3112683   0.376   5.998   6.897  0.0433  0.3810  0.1780
  120SOPE   C3112684   0.436   6.061   6.798 -0.5212 -0.7058  0.2574
  120SOPE   O3212685   0.524   6.144   6.819  0.0330  0.2182  0.0620
  120SOPE   C3212686   0.378   6.020   6.658  0.0337  0.2374 -0.0270
  120SOPE   H2X12687   0.268   6.032   6.664 -0.0380 -0.4419  0.2058
  120SOPE   H2Y12688   0.399   5.912   6.641 -0.6745 -0.1494  1.4489
  120SOPE   C2312689   0.774   5.822   6.723 -0.0791  0.1182 -0.1488
  120SOPE   H3R12690   0.713   5.914   6.713  1.7162  1.3904  0.2329
  120SOPE   H3S12691   0.707   5.742   6.685  0.6475  0.2097 -1.7088
  120SOPE   C2412692   0.892   5.852   6.636  0.0385 -0.8422  0.1752
  120SOPE   H4R12693   0.945   5.941   6.675 -1.0073  1.1242 -2.5769
  120SOPE   H4S12694   0.951   5.758   6.633  0.2723 -0.7058  0.5381
  120SOPE   C2512695   0.843   5.876   6.489  0.0525  0.1348 -0.6301
  120SOPE   H5R12696   0.774   5.964   6.483  0.1565  0.1719 -1.4256
  120SOPE   H5S12697   0.932   5.904   6.430  0.1961 -2.7655 -1.9351
  120SOPE   C2612698   0.778   5.757   6.428  0.2513  0.4783 -0.0561
  120SOPE   H6R12699   0.831   5.671   6.475 -0.7594  0.5391  1.2513
  120SOPE   H6S12700   0.674   5.743   6.464  0.5503  0.6332  0.9185
  120SOPE   C2712701   0.791   5.762   6.273  0.2081  0.3481 -0.4515
  120SOPE   H7R12702   0.898   5.783   6.253 -0.3755  1.3528 -2.8425
  120SOPE   H7S12703   0.761   5.662   6.233  0.8737 -0.2436  0.4745
  120SOPE   C2812704   0.696   5.861   6.212  0.7684 -0.5636 -0.5105
  120SOPE   H8R12705   0.589   5.839   6.227  0.7711 -0.9206 -0.9826
  120SOPE   H8S12706   0.722   5.953   6.268  0.2371 -1.6079  1.5535
  120SOPE   C2912707   0.720   5.886   6.069  0.1074 -0.2026 -0.4255
  120SOPE   H9112708   0.825   5.866   6.042  0.6486  2.9453 -1.0271
  120SOPE  C21012709   0.642   5.924   5.967 -0.2465 -0.1637  0.2225
  120SOPE  H10112710   0.685   5.901   5.869  0.1151  0.1585  0.3021
  120SOPE  C21112711   0.498   5.953   5.969  0.1219  0.2302 -0.3020
  120SOPE  H11R12712   0.457   5.932   6.070  0.9117 -0.8818 -0.1983
  120SOPE  H11S12713   0.441   5.888   5.899  0.0383  0.0125 -0.0319
  120SOPE  C21212714   0.466   6.102   5.930  1.3089  0.0646  0.3440
  120SOPE  H12R12715   0.528   6.165   5.997  3.0435 -3.6329  2.5163
  120SOPE  H12S12716   0.359   6.126   5.944  1.0028 -1.0053 -0.0985
  120SOPE  C21312717   0.504   6.131   5.789  0.0074 -0.3812  0.2436
  120SOPE  H13R12718   0.609   6.105   5.764  0.2538 -0.7366  1.5257
  120SOPE  H13S12719   0.501   6.242   5.792  0.3609 -0.3467 -0.5683
  120SOPE  C21412720   0.406   6.078   5.688 -0.0952  0.0510 -0.1991
  120SOPE  H14R12721   0.301   6.086   5.722  0.4724 -0.2217  1.7464
  120SOPE  H14S12722   0.422   5.968   5.683 -0.5663 -0.1668  1.9308
  120SOPE  C21512723   0.425   6.137   5.544  0.6993  1.4304 -0.0453
  120SOPE  H15R12724   0.535   6.144   5.534  0.9969  2.8079  3.0111
  120SOPE  H15S12725   0.375   6.236   5.536 -0.8199  0.7692  0.8648
  120SOPE  C21612726   0.351   6.044   5.444 -1.0047 -0.0275 -0.1296
  120SOPE  H16R12727   0.241   6.057   5.452 -0.9125  1.2750 -0.7582
  120SOPE  H16S12728   0.383   5.940   5.469  1.5608  1.4078  3.2423
  120SOPE  C21712729   0.405   6.077   5.300  0.5607 -0.0204  0.7951
  120SOPE  H17R12730   0.338   6.016   5.236  0.7530  0.8681 -0.2688
  120SOPE  H17S12731   0.507   6.033   5.292  0.2541 -0.8774  1.3660
  120SOPE  C21812732   0.403   6.219   5.255 -0.3690 -0.2853  0.3152
  120SOPE  H18R12733   0.487   6.273   5.304 -1.7241 -0.2288  2.7762
  120SOPE  H18S12734   0.307   6.267   5.283 -1.5540 -1.3561 -1.6610
  120SOPE  H18T12735   0.422   6.242   5.149 -1.0400  0.4704  0.3525
  120SOPE   C3312736   0.433   6.123   6.559 -0.4743 -0.0450 -0.4867
  120SOPE   H3X12737   0.536   6.102   6.524 -1.1952  0.5727 -3.1940
  120SOPE   H3Y12738   0.431   6.226   6.600  1.5753 -0.5704  1.1070
  120SOPE   C3412739   0.355   6.128   6.428  0.5677  0.3007 -0.4542
  120SOPE   H4X12740   0.406   6.188   6.349  0.1442  3.0996  1.2821
  120SOPE   H4Y12741   0.259   6.181   6.443  0.1968 -0.0276 -1.5501
  120SOPE   C3512742   0.324   6.001   6.354  0.1456  0.0605 -0.0406
  120SOPE   H5X12743   0.256   5.940   6.418  0.1066 -1.4223 -1.4357
  120SOPE   H5Y12744   0.415   5.947   6.320 -1.2523 -0.9014 -2.5208
  120SOPE   C3612745   0.245   6.034   6.232 -0.3729 -0.4521  0.4775
  120SOPE   H6X12746   0.300   6.094   6.156 -1.8663  1.2966  0.6904
  120SOPE   H6Y12747   0.153   6.090   6.260 -1.2347 -2.2165  1.3022
  120SOPE   C3712748   0.207   5.903   6.165  0.5005 -0.0237  0.2407
  120SOPE   H7X12749   0.158   5.840   6.242 -1.9006  0.9769 -0.3759
  120SOPE   H7Y12750   0.303   5.854   6.139  1.4657  1.7824  0.2464
  120SOPE   C3812751   0.109   5.910   6.046 -0.3732  0.6094  0.7281
  120SOPE   H8X12752   0.118   6.003   5.985  1.2318 -0.3934 -0.6636
  120SOPE   H8Y12753   0.009   5.924   6.092  0.6873  3.1388  2.5295
  120SOPE   C3912754   0.121   5.785   5.958  0.4783 -0.2382 -0.5267
  120SOPE   H9X12755   0.093   5.699   6.023  0.5024 -0.2274 -0.5029
  120SOPE   H9Y12756   0.224   5.790   5.917  0.3786  2.3693 -0.6510
  120SOPE  C31012757   0.021   5.805   5.839  0.3791 -0.0671 -0.4372
  120SOPE  H10X12758  -0.029   5.903   5.855  2.2668  1.0016 -0.8722
  120SOPE  H10Y12759  -0.051   5.723   5.861 -0.4003  1.3301  2.8971
  120SOPE  C31112760   0.081   5.810   5.698  0.5869 -0.4731  0.6257
  120SOPE  H11X12761   0.132   5.716   5.669  0.9787 -0.8070  2.2804
  120SOPE  H11Y12762   0.126   5.910   5.682  1.7382 -1.0047  0.4485
  120SOPE  C31212763  -0.032   5.809   5.589 -0.5236 -0.4249 -0.8719
  120SOPE  H12X12764  -0.101   5.895   5.602  2.2839  1.7995  0.4252
  120SOPE  H12Y12765  -0.106   5.727   5.603  0.6963 -1.7962 -2.1589
  120SOPE  C31312766   0.025   5.802   5.447 -0.2153  0.6304  0.5122
  120SOPE  H13X12767   0.090   5.713   5.436 -2.0040 -1.0073  2.3622
  120SOPE  H13Y12768   0.081   5.897   5.435 -0.2981  0.4438 -1.8971
  120SOPE  C31412769  -0.079   5.786   5.334  0.0596  0.0051  0.2905
  120SOPE  H14X12770  -0.030   5.816   5.239 -0.4963 -0.7233 -0.2308
  120SOPE  H14Y12771  -0.161   5.858   5.353 -0.0664 -0.4140  1.4163
  120SOPE  C31512772  -0.134   5.644   5.340  0.0543  0.0692  0.3373
  120SOPE  H15X12773  -0.194   5.621   5.432 -0.7299 -1.7451 -0.5613
  120SOPE  H15Y12774  -0.045   5.578   5.333 -0.3592 -0.5185  0.4950
  120SOPE  C31612775  -0.226   5.614   5.218  0.2601 -1.0711 -0.2289
  120SOPE  H16X12776  -0.227   5.703   5.151  4.3090 -0.5083  0.2465
  120SOPE  H16Y12777  -0.324   5.610   5.271  0.4473  0.9441  0.3584
  120SOPE  C31712778  -0.194   5.481   5.157  0.6449  0.1993  0.3343
  120SOPE  H17X12779  -0.194   5.405   5.238  0.6722  0.4386  0.5589
  120SOPE  H17Y12780  -0.096   5.491   5.106  0.0788 -0.7058 -1.0016
  120SOPE  C31812781  -0.283   5.431   5.045 -0.3413  0.2239  0.1904
  120SOPE  H18X12782  -0.248   5.330   5.016 -2.2872 -0.8337  1.3046
  120SOPE  H18Y12783  -0.280   5.487   4.949  1.3364 -0.7776 -0.3914
  120SOPE  H18Z12784  -0.388   5.426   5.081 -1.3747  1.7672 -2.3448
  121SOPE     N12785   1.668   3.326   6.903  0.2210 -0.8275 -0.0080
  121SOPE   HN112786   1.652   3.331   6.800  1.7258  0.1883 -0.2220
  121SOPE   HN212787   1.767   3.300   6.924  0.2531  0.1210  1.1076
  121SOPE   HN312788   1.599   3.256   6.936 -1.8288  0.7495 -0.7453
  121SOPE   C1212789   1.638   3.467   6.957 -0.1869  0.2608 -0.8546
  121SOPE  H12A12790   1.733   3.489   7.010 -0.9507  1.5571  0.0195
  121SOPE  H12B12791   1.561   3.458   7.036  2.5919 -1.3034  1.9047
  121SOPE   C1112792   1.605   3.583   6.862 -0.3737  0.1227  0.6643
  121SOPE  H11A12793   1.681   3.577   6.781 -1.9190  0.7426 -0.8939
  121SOPE  H11B12794   1.619   3.679   6.917 -1.7969  0.4691  0.4499
  121SOPE     P12795   1.412   3.713   6.742 -0.0843  0.2769 -0.2971
  121SOPE   O1312796   1.381   3.797   6.859  0.6033 -0.0018  1.0055
  121SOPE   O1412797   1.295   3.669   6.659 -0.0236 -0.1282  0.0010
  121SOPE   O1212798   1.481   3.574   6.793 -0.7230 -0.4649 -0.3518
  121SOPE   O1112799   1.516   3.785   6.655  0.3597  0.5413  0.2451
  121SOPE    C112800   1.610   3.715   6.576 -0.5259 -0.4590 -0.0544
  121SOPE    HA12801   1.602   3.605   6.559 -0.3006 -0.0861 -3.0339
  121SOPE    HB12802   1.714   3.731   6.613 -0.2046  0.3382 -1.2509
  121SOPE    C212803   1.630   3.775   6.427 -0.4590 -0.9736  0.6362
  121SOPE    HS12804   1.684   3.870   6.447 -0.4174 -0.7522 -0.4965
  121SOPE   O2112805   1.503   3.805   6.367 -0.0425  0.2497 -0.4309
  121SOPE   C2112806   1.503   3.874   6.255 -0.4888 -0.1777 -0.1057
  121SOPE   O2212807   1.601   3.925   6.201  0.2685 -0.3595  0.2764
  121SOPE   C2212808   1.361   3.864   6.203 -0.4651  0.2526  0.9322
  121SOPE   H2R12809   1.294   3.906   6.281 -1.5690 -1.0333  0.7059
  121SOPE   H2S12810   1.331   3.758   6.189 -3.5046  0.7463  2.6835
  121SOPE    C312811   1.717   3.685   6.335 -0.3869 -1.2120  0.2815
  121SOPE    HX12812   1.778   3.614   6.396 -1.7933 -1.9519  0.8615
  121SOPE    HY12813   1.791   3.750   6.284  1.2587 -2.4908  0.9247
  121SOPE   O3112814   1.638   3.618   6.239 -0.7331 -0.4596  0.4658
  121SOPE   C3112815   1.601   3.494   6.263 -0.1302  0.0762 -0.7281
  121SOPE   O3212816   1.640   3.426   6.362  0.6500  0.4610 -0.8049
  121SOPE   C3212817   1.526   3.434   6.148  0.0603  0.1562  0.2585
  121SOPE   H2X12818   1.593   3.435   6.059 -0.5438  2.2883 -0.2426
  121SOPE   H2Y12819   1.446   3.510   6.133 -1.6691 -2.0332 -2.7608
  121SOPE   C2312820   1.327   3.936   6.071  0.2094  0.4419  0.3484
  121SOPE   H3R12821   1.349   4.045   6.076  0.1113  0.4626  0.3274
  121SOPE   H3S12822   1.217   3.921   6.060  0.4313 -1.5910  0.5049
  121SOPE   C2412823   1.386   3.859   5.953 -0.0293 -0.1070  0.4127
  121SOPE   H4R12824   1.410   3.925   5.867  3.0843  0.6760  1.7392
  121SOPE   H4S12825   1.486   3.823   5.984 -0.3122 -1.8968 -0.6414
  121SOPE   C2512826   1.320   3.716   5.922 -0.3833  0.1194  0.7207
  121SOPE   H5R12827   1.323   3.644   6.007 -0.5563 -0.2275  0.4347
  121SOPE   H5S12828   1.215   3.736   5.892 -0.5927 -0.4145  1.0604
  121SOPE   C2612829   1.386   3.642   5.801  0.2179 -1.3957  0.4929
  121SOPE   H6R12830   1.368   3.697   5.706 -0.6151 -0.4587  1.1736
  121SOPE   H6S12831   1.497   3.633   5.799  0.5241  1.5725  0.0495
  121SOPE   C2712832   1.317   3.503   5.786  0.3240 -0.8395  0.0105
  121SOPE   H7R12833   1.348   3.433   5.866  1.6369 -0.2589  0.0408
  121SOPE   H7S12834   1.209   3.525   5.787  0.3309 -0.4261 -2.3278
  121SOPE   C2812835   1.341   3.441   5.645  0.0829 -0.0127 -0.0774
  121SOPE   H8R12836   1.316   3.333   5.645  2.3851 -0.6316 -2.0823
  121SOPE   H8S12837   1.269   3.488   5.574 -0.7081 -0.0070  0.7058
  121SOPE   C2912838   1.482   3.446   5.594 -0.6871 -0.4956 -0.4909
  121SOPE   H9112839   1.558   3.431   5.672  1.0188  0.2976 -1.9356
  121SOPE  C21012840   1.525   3.480   5.469 -0.0176 -0.2355  0.5790
  121SOPE  H10112841   1.634   3.480   5.456  0.0071 -1.2184  0.7605
  121SOPE  C21112842   1.445   3.500   5.341  0.2926 -0.0212 -1.3252
  121SOPE  H11R12843   1.456   3.604   5.302  1.8419 -0.7972 -3.1251
  121SOPE  H11S12844   1.336   3.481   5.350  0.5437 -1.3414 -0.8987
  121SOPE  C21212845   1.488   3.397   5.231  0.7699 -0.0566  0.0648
  121SOPE  H12R12846   1.431   3.424   5.140 -0.5384 -2.0225  0.2371
  121SOPE  H12S12847   1.440   3.297   5.240 -0.9737  0.7772  0.5526
  121SOPE  C21312848   1.643   3.387   5.201 -0.0888  0.3377  0.2984
  121SOPE  H13R12849   1.699   3.344   5.287 -2.0280 -0.6969  1.1076
  121SOPE  H13S12850   1.686   3.487   5.184 -1.5230  0.7693 -1.0631
  121SOPE  C21412851   1.667   3.303   5.072 -0.0578 -0.5192  0.3311
  121SOPE  H14R12852   1.656   3.382   4.995 -1.4664  2.8222  3.5983
  121SOPE  H14S12853   1.596   3.222   5.047 -1.2887  0.6610 -0.1384
  121SOPE  C21512854   1.805   3.253   5.057 -0.7479 -0.0051 -0.4815
  121SOPE  H15R12855   1.879   3.329   5.088 -3.8952  3.2642 -0.2727
  121SOPE  H15S12856   1.815   3.238   4.947  1.2072 -0.8774 -0.2326
  121SOPE  C21612857   1.825   3.113   5.130  0.1987 -0.3069 -0.1518
  121SOPE  H16R12858   1.788   3.033   5.062  1.1895  0.7549 -2.0204
  121SOPE  H16S12859   1.753   3.111   5.214  0.6200  0.9538  0.2491
  121SOPE  C21712860   1.971   3.089   5.168  0.8134  0.2040 -0.1198
  121SOPE  H17R12861   2.007   3.160   5.245  1.8106 -0.2158 -0.1768
  121SOPE  H17S12862   2.033   3.113   5.079  0.0374 -0.2862 -0.8062
  121SOPE  C21812863   1.992   2.939   5.199  0.6565 -0.4823  0.4796
  121SOPE  H18R12864   1.979   2.880   5.105  3.3537 -2.3250  1.1229
  121SOPE  H18S12865   1.920   2.906   5.277  0.2869  0.1334  0.4026
  121SOPE  H18T12866   2.096   2.936   5.238  0.0022  1.4242  2.5517
  121SOPE   C3312867   1.469   3.293   6.187 -0.7222  0.2263  0.1204
  121SOPE   H3X12868   1.394   3.304   6.269  1.6891  0.7511  2.3888
  121SOPE   H3Y12869   1.555   3.234   6.224 -0.2894  0.6512 -0.2073
  121SOPE   C3412870   1.430   3.209   6.065  0.0261 -0.1489  0.3114
  121SOPE   H4X12871   1.513   3.211   5.991  0.0431 -0.1203  0.3314
  121SOPE   H4Y12872   1.355   3.260   6.001 -1.4423 -2.7765 -0.2002
  121SOPE   C3512873   1.395   3.066   6.094 -0.4268  0.1899  0.1051
  121SOPE   H5X12874   1.290   3.061   6.129  0.0888  0.8308  1.8491
  121SOPE   H5Y12875   1.458   3.026   6.177 -0.0594 -1.4384 -0.9184
  121SOPE   C3612876   1.428   2.968   5.976  0.2039 -0.0470  0.5476
  121SOPE   H6X12877   1.534   2.961   5.943 -0.3172 -0.5577 -1.1489
  121SOPE   H6Y12878   1.374   3.007   5.887 -1.6436  0.5724  1.9082
  121SOPE   C3712879   1.374   2.831   5.999  0.9305  0.5712 -0.0450
  121SOPE   H7X12880   1.263   2.834   6.001  0.8716  3.2202 -1.9835
  121SOPE   H7Y12881   1.417   2.797   6.096  0.1126 -3.2911 -0.8739
  121SOPE   C3812882   1.401   2.733   5.881 -0.2027  0.2887 -0.4173
  121SOPE   H8X12883   1.505   2.699   5.897 -0.8891 -1.2564  1.2247
  121SOPE   H8Y12884   1.398   2.778   5.780  2.8254  0.9418 -0.3127
  121SOPE   C3912885   1.306   2.615   5.882 -0.5602 -0.1437 -0.5821
  121SOPE   H9X12886   1.203   2.650   5.863 -0.8191 -0.1588  0.6709
  121SOPE   H9Y12887   1.311   2.559   5.978 -0.0775  2.5988  1.1087
  121SOPE  C31012888   1.328   2.523   5.765 -0.2898 -0.2234  0.4256
  121SOPE  H10X12889   1.271   2.430   5.784 -0.5299 -0.1426  0.1154
  121SOPE  H10Y12890   1.433   2.489   5.747 -1.2360 -2.3359 -1.6464
  121SOPE  C31112891   1.272   2.569   5.627  0.2431 -0.0627 -0.2350
  121SOPE  H11X12892   1.329   2.659   5.594  1.8106 -0.6623  0.7446
  121SOPE  H11Y12893   1.164   2.590   5.643  0.2006 -1.3113  1.3859
  121SOPE  C31212894   1.284   2.469   5.516  0.6462  0.9022 -1.0840
  121SOPE  H12X12895   1.229   2.379   5.552  3.5755  0.0204  1.6947
  121SOPE  H12Y12896   1.386   2.425   5.505  0.3506 -0.3772  0.6793
  121SOPE  C31312897   1.218   2.528   5.385 -0.2650 -0.6264  0.2175
  121SOPE  H13X12898   1.280   2.616   5.358 -1.5092  0.3243  0.3759
  121SOPE  H13Y12899   1.112   2.557   5.399 -0.1252  0.5599 -1.0366
  121SOPE  C31412900   1.216   2.426   5.269 -0.3945 -0.8179  0.2210
  121SOPE  H14X12901   1.165   2.334   5.303 -0.0664 -0.9474  0.3686
  121SOPE  H14Y12902   1.322   2.406   5.244 -0.5529  1.0478 -2.3726
  121SOPE  C31512903   1.143   2.498   5.153  0.5425 -0.1397  0.0541
  121SOPE  H15X12904   1.197   2.592   5.130 -0.1899  0.0572 -0.8937
  121SOPE  H15Y12905   1.041   2.517   5.191  0.0256 -0.3383 -1.2117
  121SOPE  C31612906   1.146   2.427   5.020  0.7146  0.0562 -0.0822
  121SOPE  H16X12907   1.246   2.444   4.974  0.4772  2.2832  0.0910
  121SOPE  H16Y12908   1.075   2.485   4.957 -2.1725 -1.9251  1.1376
  121SOPE  C31712909   1.110   2.274   5.021  0.2092 -0.2750  0.5960
  121SOPE  H17X12910   1.011   2.271   5.072  0.5817 -1.0045  1.3142
  121SOPE  H17Y12911   1.190   2.221   5.077  1.2106  0.4041 -0.1596
  121SOPE  C31812912   1.106   2.208   4.888 -0.8969 -0.2617 -0.2758
  121SOPE  H18X12913   1.208   2.192   4.847  0.4223  1.1484  2.2424
  121SOPE  H18Y12914   1.041   2.260   4.814 -1.2198 -0.0429  0.1563
  121SOPE  H18Z12915   1.071   2.103   4.903  0.1221 -0.6284 -0.3895
  122SOPE     N12916   1.668   4.147   6.794  0.1998 -0.2550 -0.3913
  122SOPE   HN112917   1.769   4.136   6.775 -0.2222 -1.4017 -2.2897
  122SOPE   HN212918   1.611   4.109   6.715 -1.1499  0.6706  0.0966
  122SOPE   HN312919   1.644   4.248   6.796  0.1856 -0.2623 -0.1976
  122SOPE   C1212920   1.639   4.073   6.919 -0.0723  0.6632  0.7489
  122SOPE  H12A12921   1.530   4.052   6.923  0.1710 -0.8808  0.0829
  122SOPE  H12B12922   1.680   4.136   7.001 -1.8694  2.0861  0.6060
  122SOPE   C1112923   1.712   3.939   6.916 -0.4246  0.1436 -0.6685
  122SOPE  H11A12924   1.674   3.878   6.832 -1.2755 -1.8900  1.1035
  122SOPE  H11B12925   1.682   3.882   7.007  1.4803  0.3996  0.1648
  122SOPE     P12926   1.941   3.824   6.905 -0.4041  0.0534 -0.2428
  122SOPE   O1312927   1.852   3.707   6.937  0.1500 -0.1275 -0.1383
  122SOPE   O1412928   2.064   3.844   6.982 -0.0587 -0.2800 -0.4613
  122SOPE   O1212929   1.855   3.952   6.905  0.5581 -0.3294 -0.4684
  122SOPE   O1112930   1.978   3.813   6.752 -0.4153  0.4890  0.1885
  122SOPE    C112931   1.948   3.920   6.666  0.0534  0.3589  0.4002
  122SOPE    HA12932   1.909   4.011   6.716  1.6651 -0.8389  4.2123
  122SOPE    HB12933   1.868   3.895   6.592  1.3236  0.1925 -0.9553
  122SOPE    C212934   2.077   3.960   6.584 -0.7712 -0.0080 -0.8801
  122SOPE    HS12935   2.058   4.048   6.519 -1.1340  0.7853  0.2691
  122SOPE   O2112936   2.131   3.846   6.520 -0.5317  0.0887 -0.2461
  122SOPE   C2112937   2.054   3.813   6.410 -0.0103  0.0176 -0.0612
  122SOPE   O2212938   1.965   3.884   6.369  0.3087 -0.2996 -0.0469
  122SOPE   C2212939   2.096   3.679   6.355  0.3637  0.2312 -0.3098
  122SOPE   H2R12940   2.012   3.612   6.381  1.0564 -0.4078  0.3206
  122SOPE   H2S12941   2.186   3.636   6.404 -1.8442 -1.0901  2.9721
  122SOPE    C312942   2.190   4.020   6.675  1.0630  1.0145 -0.2411
  122SOPE    HX12943   2.202   3.955   6.764 -1.4923 -0.3267 -0.7877
  122SOPE    HY12944   2.150   4.118   6.708 -3.2439 -1.4884  3.1507
  122SOPE   O3112945   2.313   4.035   6.606 -0.1853 -0.2395 -0.2193
  122SOPE   C3112946   2.398   3.936   6.617  0.2502 -0.4754  0.5570
  122SOPE   O3212947   2.386   3.836   6.686  0.6420  0.1702 -0.3394
  122SOPE   C3212948   2.519   3.964   6.528  0.6060  0.1919  0.5293
  122SOPE   H2X12949   2.600   3.918   6.588  0.8082  0.7146  0.6588
  122SOPE   H2Y12950   2.536   4.074   6.533  0.7564  0.1863  0.1673
  122SOPE   C2312951   2.115   3.671   6.202  0.4105  0.1027 -0.6766
  122SOPE   H3R12952   2.037   3.729   6.148  0.7789 -1.4856 -3.0434
  122SOPE   H3S12953   2.091   3.564   6.183  0.3420 -0.0830  0.3574
  122SOPE   C2412954   2.254   3.686   6.147  0.5580  0.9874  0.5274
  122SOPE   H4R12955   2.292   3.790   6.137 -0.4567  1.5583  2.2279
  122SOPE   H4S12956   2.322   3.647   6.226 -0.4182 -0.2969  0.7651
  122SOPE   C2512957   2.273   3.608   6.019  0.4630  0.2930  0.2667
  122SOPE   H5R12958   2.381   3.586   6.005  0.3209  0.1324 -0.7017
  122SOPE   H5S12959   2.231   3.505   6.024  0.4799  0.3388  1.7187
  122SOPE   C2612960   2.215   3.680   5.890  0.0634  0.4000 -0.8644
  122SOPE   H6R12961   2.104   3.681   5.892 -0.0070 -1.7251 -0.8763
  122SOPE   H6S12962   2.254   3.783   5.897 -0.0318  0.4761 -1.4025
  122SOPE   C2712963   2.252   3.606   5.758  0.1150 -0.4655  0.3613
  122SOPE   H7R12964   2.359   3.638   5.749 -0.0063 -0.3693 -1.1347
  122SOPE   H7S12965   2.239   3.496   5.758  0.0294 -0.4578  0.1136
  122SOPE   C2812966   2.177   3.671   5.631 -0.7859  0.0756 -0.4079
  122SOPE   H8R12967   2.178   3.782   5.637 -0.6397  0.0459  0.1358
  122SOPE   H8S12968   2.256   3.643   5.557 -1.1328  1.9135 -1.5376
  122SOPE   C2912969   2.050   3.609   5.584 -0.0481 -0.4596  0.0998
  122SOPE   H9112970   1.956   3.660   5.610 -0.7245 -2.6516  2.4313
  122SOPE  C21012971   2.036   3.499   5.508  0.4718 -0.4655 -0.0191
  122SOPE  H10112972   1.938   3.454   5.488 -0.0241 -0.2406  1.7774
  122SOPE  C21112973   2.155   3.417   5.461  0.3145 -0.0539  0.8008
  122SOPE  H11R12974   2.137   3.312   5.492 -0.9994 -0.0903  0.0008
  122SOPE  H11S12975   2.254   3.431   5.509  0.9057 -1.9118  0.2165
  122SOPE  C21212976   2.165   3.411   5.302  0.1730  0.8290 -0.6126
  122SOPE  H12R12977   2.205   3.506   5.262  0.9400  1.6932  2.0232
  122SOPE  H12S12978   2.061   3.391   5.268  1.0608 -1.9881 -1.9379
  122SOPE  C21312979   2.246   3.292   5.248  0.2228  0.1098 -0.0035
  122SOPE  H13R12980   2.201   3.192   5.266 -0.2088 -0.1799 -2.3561
  122SOPE  H13S12981   2.340   3.291   5.308 -0.5884 -2.0069  1.3323
  122SOPE  C21412982   2.268   3.295   5.094 -0.7351 -0.3972 -0.2447
  122SOPE  H14R12983   2.301   3.400   5.077 -2.9917  0.7580  1.8728
  122SOPE  H14S12984   2.178   3.281   5.031 -1.2334  1.0992  0.0850
  122SOPE  C21512985   2.380   3.206   5.041 -0.3841  0.5225 -0.4006
  122SOPE  H15R12986   2.371   3.220   4.932 -0.3279 -1.4772 -0.7060
  122SOPE  H15S12987   2.362   3.098   5.065  1.8245  0.3478  0.7713
  122SOPE  C21612988   2.515   3.224   5.097  0.0642 -0.2255 -0.1413
  122SOPE  H16R12989   2.522   3.236   5.208  0.2475  3.1174 -0.4143
  122SOPE  H16S12990   2.544   3.325   5.061 -1.4689 -0.3677 -1.8981
  122SOPE  C21712991   2.625   3.124   5.056 -0.5469 -0.1914  0.3402
  122SOPE  H17R12992   2.614   3.119   4.946 -0.3928  1.9165  0.1947
  122SOPE  H17S12993   2.602   3.028   5.108 -0.8135 -0.2611  0.0955
  122SOPE  C21812994   2.772   3.162   5.095 -0.2269  0.2720  0.3416
  122SOPE  H18R12995   2.786   3.264   5.055  2.7424  0.5097  1.7483
  122SOPE  H18S12996   2.847   3.103   5.038  0.6364  2.3421 -0.7688
  122SOPE  H18T12997   2.796   3.162   5.203  1.1225 -2.3801  0.1127
  122SOPE   C3312998   2.495   3.908   6.387 -0.1178  0.9362  0.1884
  122SOPE   H3X12999   2.424   3.971   6.328 -1.0907 -0.2936  0.0145
  122SOPE   H3Y13000   2.467   3.802   6.375 -0.0088  0.9053  0.2104
  122SOPE   C3413001   2.637   3.904   6.318  0.3911  0.2130 -0.1672
  122SOPE   H4X13002   2.706   3.869   6.398 -0.4235 -1.2186 -0.0501
  122SOPE   H4Y13003   2.665   4.012   6.315 -1.0912  0.5896 -1.3455
  122SOPE   C3513004   2.656   3.824   6.190 -0.4060 -0.0600 -0.4544
  122SOPE   H5X13005   2.616   3.721   6.208 -2.7899  0.4192 -2.5669
  122SOPE   H5Y13006   2.764   3.825   6.166 -0.6493  2.4537 -1.7234
  122SOPE   C3613007   2.580   3.862   6.060 -0.3572  0.4762  0.1398
  122SOPE   H6X13008   2.584   3.973   6.063 -0.6033  0.4694  1.7580
  122SOPE   H6Y13009   2.478   3.819   6.068  0.8659 -2.4734  1.2820
  122SOPE   C3713010   2.654   3.821   5.931 -0.3016 -1.2007  0.1608
  122SOPE   H7X13011   2.653   3.710   5.934 -1.7667 -1.2175 -0.2947
  122SOPE   H7Y13012   2.758   3.858   5.948 -2.0063  3.0426  2.9828
  122SOPE   C3813013   2.608   3.892   5.805  0.3628 -0.2033  0.4278
  122SOPE   H8X13014   2.619   4.000   5.830  1.2728  0.3107 -1.9350
  122SOPE   H8Y13015   2.498   3.882   5.790  0.5233 -2.0961  0.2340
  122SOPE   C3913016   2.682   3.839   5.685  0.9051 -0.8802 -0.3118
  122SOPE   H9X13017   2.676   3.728   5.680  0.1148 -0.7882 -3.4886
  122SOPE   H9Y13018   2.787   3.869   5.704  0.3146  1.4255 -0.3750
  122SOPE  C31013019   2.633   3.898   5.553  0.3048  0.3736 -0.4377
  122SOPE  H10X13020   2.716   3.881   5.481 -0.1757 -0.9615 -0.7132
  122SOPE  H10Y13021   2.631   4.009   5.557  4.9718  0.6279  1.6535
  122SOPE  C31113022   2.497   3.840   5.508  0.6224  1.0264  0.4951
  122SOPE  H11X13023   2.418   3.885   5.572 -1.3611 -1.1454 -0.2607
  122SOPE  H11Y13024   2.499   3.731   5.532  0.4095  0.8842 -0.1110
  122SOPE  C31213025   2.472   3.844   5.358 -0.5727 -1.0903 -0.4104
  122SOPE  H12X13026   2.538   3.764   5.318 -0.1467 -2.5774  2.9263
  122SOPE  H12Y13027   2.503   3.944   5.320  0.6245 -1.1842  0.2670
  122SOPE  C31313028   2.326   3.812   5.316  0.3801  0.1668  0.3672
  122SOPE  H13X13029   2.261   3.881   5.374  0.8099 -0.3078  1.4256
  122SOPE  H13Y13030   2.296   3.709   5.345 -0.9914 -0.2247 -2.1573
  122SOPE  C31413031   2.301   3.830   5.168 -0.2412 -0.2488  0.0751
  122SOPE  H14X13032   2.340   3.931   5.145  1.8273 -1.0741 -0.3301
  122SOPE  H14Y13033   2.193   3.816   5.149 -0.7986  1.8523  1.4409
  122SOPE  C31513034   2.362   3.719   5.072 -0.0549 -0.3723  0.8194
  122SOPE  H15X13035   2.320   3.617   5.087 -1.5390  0.0484 -0.3036
  122SOPE  H15Y13036   2.468   3.709   5.105  0.7080  1.2147 -1.0286
  122SOPE  C31613037   2.360   3.769   4.926 -0.3458 -0.1888 -0.0511
  122SOPE  H16X13038   2.401   3.872   4.929  1.9146 -1.0677  1.8321
  122SOPE  H16Y13039   2.251   3.766   4.902 -0.3485 -1.9241  0.0048
  122SOPE  C31713040   2.448   3.693   4.823 -0.3943  0.5391 -0.8935
  122SOPE  H17X13041   2.417   3.587   4.826 -3.2993  1.1883  4.4030
  122SOPE  H17Y13042   2.555   3.701   4.852 -0.9797  0.5592  1.4786
  122SOPE  C31813043   2.434   3.730   4.676 -0.6005 -0.1853  0.4733
  122SOPE  H18X13044   2.337   3.690   4.639  0.7711 -1.4676 -1.9325
  122SOPE  H18Y13045   2.514   3.676   4.622  0.8238  1.4363  0.8829
  122SOPE  H18Z13046   2.443   3.839   4.655  2.3913 -0.0876  1.7365
  123SOPE     N13047   3.757   0.944   2.886 -0.1575  0.5737 -0.1079
  123SOPE   HN113048   3.819   0.861   2.894 -0.0175  0.7615  0.9766
  123SOPE   HN213049   3.684   0.914   2.818 -1.0372  3.8299 -0.7421
  123SOPE   HN313050   3.811   1.024   2.848 -1.4204  1.3114 -0.4148
  123SOPE   C1213051   3.694   0.976   3.016 -0.1967  0.5731 -0.8370
  123SOPE  H12A13052   3.631   1.066   2.998 -1.0788  0.6171  2.0507
  123SOPE  H12B13053   3.773   1.011   3.086  1.0652  1.5439 -2.6507
  123SOPE   C1113054   3.627   0.856   3.079  0.1428  0.4452 -0.0859
  123SOPE  H11A13055   3.576   0.895   3.170  0.2420 -0.4413  0.3517
  123SOPE  H11B13056   3.705   0.787   3.116 -2.0123 -1.5850  0.9206
  123SOPE     P13057   3.545   0.665   2.936 -0.0799  0.3787  0.2953
  123SOPE   O1313058   3.678   0.656   2.863  0.4798 -1.1554 -0.2369
  123SOPE   O1413059   3.424   0.617   2.869 -0.0671  0.0143 -0.5989
  123SOPE   O1213060   3.526   0.806   2.987  0.5797 -0.5958 -0.2694
  123SOPE   O1113061   3.559   0.580   3.067  0.4269 -0.3355 -0.0496
  123SOPE    C113062   3.460   0.593   3.172  0.6161 -0.4986 -0.3196
  123SOPE    HA13063   3.363   0.558   3.131 -2.2680  4.0428  1.7960
  123SOPE    HB13064   3.435   0.698   3.197  0.2646 -0.9583  1.3929
  123SOPE    C213065   3.493   0.507   3.302  0.8052 -0.9384 -0.6801
  123SOPE    HS13066   3.402   0.510   3.365  2.0388 -2.4276  1.3313
  123SOPE   O2113067   3.604   0.566   3.378 -0.2486 -0.0389 -0.5423
  123SOPE   C2113068   3.569   0.674   3.444 -0.4154 -0.3603  0.3432
  123SOPE   O2213069   3.460   0.729   3.447 -0.1568  0.6277 -0.7833
  123SOPE   C2213070   3.692   0.737   3.515  0.4640 -0.6232 -0.3229
  123SOPE   H2R13071   3.721   0.823   3.452  0.2553 -0.8846 -0.7801
  123SOPE   H2S13072   3.777   0.666   3.532  0.3501 -0.4150  1.2496
  123SOPE    C313073   3.533   0.358   3.283  0.0690 -0.5643 -0.3761
  123SOPE    HX13074   3.642   0.353   3.263  1.0465 -0.9785  4.0476
  123SOPE    HY13075   3.474   0.326   3.194 -0.0151 -0.2810 -0.4250
  123SOPE   O3113076   3.495   0.280   3.400  0.4246 -0.6954  0.2684
  123SOPE   C3113077   3.541   0.161   3.402 -0.6630 -0.3078 -0.0861
  123SOPE   O3213078   3.603   0.110   3.310  0.0005  0.3086  0.9415
  123SOPE   C3213079   3.496   0.086   3.528  0.2045 -0.4179  0.4805
  123SOPE   H2X13080   3.589   0.053   3.580 -0.5976 -0.1399  2.1685
  123SOPE   H2Y13081   3.445  -0.012   3.512 -0.0148 -0.6828  2.5264
  123SOPE   C2313082   3.657   0.792   3.646 -0.0806 -0.8413  0.5674
  123SOPE   H3R13083   3.610   0.720   3.716 -1.1235 -0.3408  0.4008
  123SOPE   H3S13084   3.584   0.875   3.636  0.5906 -0.5568 -3.9255
  123SOPE   C2413085   3.783   0.849   3.719  0.3167  0.8087 -0.3769
  123SOPE   H4R13086   3.867   0.778   3.702 -1.3801 -1.4447  0.2155
  123SOPE   H4S13087   3.822   0.944   3.678  3.5637 -0.0616  0.3686
  123SOPE   C2513088   3.766   0.862   3.871  0.7931  0.1950 -0.2353
  123SOPE   H5R13089   3.697   0.944   3.899  1.4578 -0.2236  2.9286
  123SOPE   H5S13090   3.730   0.770   3.922  0.4761  0.1497 -0.5390
  123SOPE   C2613091   3.900   0.884   3.946  0.6314  0.8882  0.6877
  123SOPE   H6R13092   3.951   0.785   3.944 -1.8049 -0.6132  3.3398
  123SOPE   H6S13093   3.957   0.967   3.899  1.8946  0.1697  0.8916
  123SOPE   C2713094   3.866   0.918   4.088 -0.3009  0.1389 -0.1052
  123SOPE   H7R13095   3.806   1.011   4.095 -0.9154 -0.3660  1.7781
  123SOPE   H7S13096   3.800   0.835   4.122 -0.8373  1.4900  2.3944
  123SOPE   C2813097   3.987   0.929   4.183 -0.3826 -0.3483  1.0722
  123SOPE   H8R13098   4.065   0.988   4.129  0.4062 -2.9067 -0.7553
  123SOPE   H8S13099   3.949   1.008   4.251  3.4720  4.0629 -1.3167
  123SOPE   C2913100   4.028   0.797   4.246 -0.6680 -1.2359 -0.0072
  123SOPE   H9113101   4.055   0.721   4.171  0.5952 -2.3397  1.5126
  123SOPE  C21013102   4.042   0.757   4.368 -0.0577 -0.5286 -0.2365
  123SOPE  H10113103   4.051   0.650   4.390  0.7069  0.1769  3.4718
  123SOPE  C21113104   4.016   0.842   4.489  0.2149  0.7761  0.4293
  123SOPE  H11R13105   3.990   0.948   4.467  0.5972  0.7726 -0.0454
  123SOPE  H11S13106   4.106   0.862   4.551  1.8823 -4.2883  0.0683
  123SOPE  C21213107   3.896   0.799   4.575  0.4174  0.7284 -0.1607
  123SOPE  H12R13108   3.898   0.849   4.674  2.5740 -0.2445  0.3357
  123SOPE  H12S13109   3.913   0.693   4.606  1.4978  0.6217 -1.0497
  123SOPE  C21313110   3.757   0.813   4.504 -0.7095 -0.5075 -0.1733
  123SOPE  H13R13111   3.735   0.731   4.433 -1.3505 -1.5765  1.2123
  123SOPE  H13S13112   3.746   0.906   4.443 -1.4167  0.3229  1.1667
  123SOPE  C21413113   3.649   0.808   4.608  0.3376  0.4132  0.2222
  123SOPE  H14R13114   3.691   0.854   4.700 -0.7505 -0.2719  1.0846
  123SOPE  H14S13115   3.639   0.703   4.640  2.5657 -1.3862 -4.0709
  123SOPE  C21513116   3.511   0.847   4.569  0.8560 -0.1533  0.0279
  123SOPE  H15R13117   3.485   0.776   4.487 -0.8349 -0.6500  0.9485
  123SOPE  H15S13118   3.508   0.951   4.528  1.0521 -0.6045 -1.1726
  123SOPE  C21613119   3.399   0.836   4.680  0.6938  0.2958  0.2856
  123SOPE  H16R13120   3.381   0.730   4.708  0.4506  0.1396 -0.4380
  123SOPE  H16S13121   3.304   0.881   4.643  1.8286  1.2053 -1.6254
  123SOPE  C21713122   3.428   0.916   4.805  0.2946 -0.5004 -0.4665
  123SOPE  H17R13123   3.461   1.016   4.771 -0.8156  0.2619  0.6107
  123SOPE  H17S13124   3.507   0.867   4.866  1.0100 -0.8490 -1.6472
  123SOPE  C21813125   3.303   0.948   4.888  0.2640 -0.2862 -0.5128
  123SOPE  H18R13126   3.327   1.019   4.970  1.9758 -2.6745  1.1906
  123SOPE  H18S13127   3.272   0.852   4.933  0.7271 -0.1851  0.0257
  123SOPE  H18T13128   3.223   0.997   4.827 -0.4704 -0.5566  0.2136
  123SOPE   C3313129   3.416   0.169   3.625 -0.0306 -0.7516  0.0366
  123SOPE   H3X13130   3.319   0.200   3.582  1.0584 -0.1612 -2.1219
  123SOPE   H3Y13131   3.455   0.272   3.638  1.2345 -0.9872 -1.5769
  123SOPE   C3413132   3.396   0.113   3.770 -0.1378  0.2783 -0.1963
  123SOPE   H4X13133   3.498   0.089   3.808 -0.3791 -0.4670 -0.0087
  123SOPE   H4Y13134   3.344   0.015   3.777 -0.3382  0.3573 -0.5354
  123SOPE   C3513135   3.327   0.218   3.871 -0.4417 -0.1942 -0.0320
  123SOPE   H5X13136   3.224   0.231   3.831 -0.1194  2.8847 -0.1478
  123SOPE   H5Y13137   3.368   0.320   3.859 -0.8941 -0.2878 -3.0653
  123SOPE   C3613138   3.321   0.174   4.014 -0.4179  0.8268 -0.0135
  123SOPE   H6X13139   3.421   0.146   4.053 -0.3485  0.7723 -0.2315
  123SOPE   H6Y13140   3.260   0.081   4.016  0.2686  0.3892  1.1540
  123SOPE   C3713141   3.273   0.279   4.110 -0.2529  0.8017  0.3452
  123SOPE   H7X13142   3.178   0.321   4.073 -0.1027  0.9931  0.1743
  123SOPE   H7Y13143   3.351   0.359   4.113 -0.2722  1.0367 -2.5562
  123SOPE   C3813144   3.251   0.232   4.260 -0.6577 -0.2487  1.0656
  123SOPE   H8X13145   3.340   0.179   4.301  1.4421  1.7365 -0.6767
  123SOPE   H8Y13146   3.169   0.159   4.244  0.7071 -1.4617 -0.7681
  123SOPE   C3913147   3.210   0.348   4.349  0.5699 -0.0991 -0.1279
  123SOPE   H9X13148   3.120   0.407   4.319  0.7140 -0.1955 -0.7822
  123SOPE   H9Y13149   3.287   0.427   4.360 -1.9941  2.3463  1.3391
  123SOPE  C31013150   3.177   0.306   4.493  0.4561  0.0995 -0.0251
  123SOPE  H10X13151   3.264   0.263   4.547  1.9504  0.9677 -1.6482
  123SOPE  H10Y13152   3.090   0.238   4.496 -0.1985  0.8942 -0.5978
  123SOPE  C31113153   3.149   0.427   4.585  0.2307  0.2455  1.0542
  123SOPE  H11X13154   3.059   0.475   4.539 -0.1286 -2.0961 -0.8978
  123SOPE  H11Y13155   3.233   0.499   4.579  1.0274 -0.6014  1.8323
  123SOPE  C31213156   3.116   0.397   4.724 -0.2525  0.2176 -0.7300
  123SOPE  H12X13157   3.024   0.335   4.728  0.4583 -1.0142 -2.2394
  123SOPE  H12Y13158   3.105   0.486   4.788  0.3309 -1.4302  1.8124
  123SOPE  C31313159   3.210   0.312   4.810 -0.3435  0.0750  0.4415
  123SOPE  H13X13160   3.228   0.210   4.771 -2.3487 -0.4560  0.8285
  123SOPE  H13Y13161   3.183   0.287   4.915  2.3506  2.2138  1.8024
  123SOPE  C31413162   3.349   0.373   4.822 -0.1403 -0.4404 -0.1266
  123SOPE  H14X13163   3.362   0.446   4.739  1.9138 -0.4001  0.1977
  123SOPE  H14Y13164   3.418   0.288   4.808  0.0889 -0.0283 -1.6665
  123SOPE  C31513165   3.380   0.444   4.956  0.6091 -0.0478  0.2334
  123SOPE  H15X13166   3.374   0.355   5.022 -0.3446 -0.3833 -0.2860
  123SOPE  H15Y13167   3.301   0.517   4.985  0.0431 -0.2354 -0.8116
  123SOPE  C31613168   3.520   0.507   4.949  0.5288  1.3515  0.3145
  123SOPE  H16X13169   3.519   0.574   4.860 -0.0623  2.9934  1.5068
  123SOPE  H16Y13170   3.599   0.431   4.934 -0.9953 -0.0060 -1.2347
  123SOPE  C31713171   3.543   0.608   5.054 -0.2798  0.1424  0.3484
  123SOPE  H17X13172   3.455   0.676   5.058 -1.0964 -0.8433 -0.4306
  123SOPE  H17Y13173   3.631   0.665   5.017 -0.6795 -0.0354 -0.8972
  123SOPE  C31813174   3.560   0.553   5.193  0.7999 -0.0187 -0.3760
  123SOPE  H18X13175   3.548   0.635   5.268 -0.0769 -0.1703 -0.3452
  123SOPE  H18Y13176   3.658   0.507   5.217  0.1577 -0.8699  0.7174
  123SOPE  H18Z13177   3.480   0.479   5.212  1.7398 -1.1704 -0.8101
  124SOPE     N13178   1.430   3.874   2.804 -0.4015  0.1360  0.3380
  124SOPE   HN113179   1.460   3.875   2.904 -0.6289 -0.7049  0.4270
  124SOPE   HN213180   1.327   3.863   2.795 -0.2645 -0.4946 -0.5956
  124SOPE   HN313181   1.478   3.787   2.773 -2.6529 -1.1094  0.1796
  124SOPE   C1213182   1.466   4.000   2.725  0.0751 -0.1750 -0.1971
  124SOPE  H12A13183   1.404   3.991   2.633  0.9377  0.5370 -0.8660
  124SOPE  H12B13184   1.573   3.999   2.695  0.2162  1.4981  0.1358
  124SOPE   C1113185   1.441   4.129   2.795  0.1708 -0.9110 -0.1631
  124SOPE  H11A13186   1.486   4.207   2.729  1.2693 -0.3714  1.1574
  124SOPE  H11B13187   1.495   4.155   2.889  0.2700  0.6242 -0.6129
  124SOPE     P13188   1.233   4.123   2.952 -0.0541  0.1532  0.1100
  124SOPE   O1313189   1.308   4.010   3.019 -0.1371  0.2732  0.3327
  124SOPE   O1413190   1.090   4.093   2.928  0.1279  0.6172  0.4130
  124SOPE   O1213191   1.309   4.158   2.815  0.2160  0.0665  0.2107
  124SOPE   O1113192   1.246   4.245   3.053 -0.0096  0.0486  0.1930
  124SOPE    C113193   1.366   4.327   3.046  0.0739 -0.1169 -0.1129
  124SOPE    HA13194   1.373   4.363   2.941 -1.8785  0.6162 -0.0299
  124SOPE    HB13195   1.456   4.274   3.084 -0.1793  0.6103  1.5868
  124SOPE    C213196   1.337   4.458   3.127  0.1912  0.3321  0.1753
  124SOPE    HS13197   1.414   4.537   3.116  0.5379  0.6461  3.6362
  124SOPE   O2113198   1.326   4.423   3.264 -0.9533  0.3305 -0.0292
  124SOPE   C2113199   1.446   4.414   3.331  0.4702  0.0437 -0.0864
  124SOPE   O2213200   1.553   4.423   3.279 -0.1712  0.6592  0.1221
  124SOPE   C2213201   1.428   4.391   3.477  0.4616 -0.1717 -0.3639
  124SOPE   H2R13202   1.440   4.282   3.494 -1.7065 -0.3157  0.4846
  124SOPE   H2S13203   1.324   4.406   3.511 -0.0069 -0.8662 -1.4275
  124SOPE    C313204   1.200   4.525   3.078 -0.1729  0.4448 -1.0685
  124SOPE    HX13205   1.123   4.446   3.076 -0.5676  0.7358  0.7403
  124SOPE    HY13206   1.202   4.562   2.973 -1.1424 -0.6805 -1.5069
  124SOPE   O3113207   1.153   4.632   3.160 -0.8967  0.1858  0.9338
  124SOPE   C3113208   1.211   4.755   3.143 -0.0235 -0.4675 -0.0452
  124SOPE   O3213209   1.303   4.781   3.071  0.0044  0.0176  0.2452
  124SOPE   C3213210   1.118   4.861   3.211  0.0465  0.2510 -0.2965
  124SOPE   H2X13211   1.023   4.817   3.247 -0.6380  2.8502  1.3070
  124SOPE   H2Y13212   1.094   4.936   3.133  0.4848  0.0427 -0.6378
  124SOPE   C2313213   1.518   4.485   3.563  0.5171  0.1888  0.1002
  124SOPE   H3R13214   1.503   4.590   3.531  2.3766 -0.7048 -4.5758
  124SOPE   H3S13215   1.627   4.467   3.552  0.6797  2.0150 -1.7614
  124SOPE   C2413216   1.479   4.470   3.710  0.4589  1.1476 -0.3009
  124SOPE   H4R13217   1.368   4.466   3.715  0.5240 -0.1706  0.8731
  124SOPE   H4S13218   1.516   4.376   3.756  0.6752  1.2354 -0.2955
  124SOPE   C2513219   1.516   4.593   3.785  0.5827 -0.3813  0.0901
  124SOPE   H5R13220   1.626   4.607   3.782  1.1296 -3.0898  2.6828
  124SOPE   H5S13221   1.461   4.684   3.751  0.4391 -0.0235  1.2385
  124SOPE   C2613222   1.494   4.581   3.940 -0.1644  0.5327  0.0545
  124SOPE   H6R13223   1.577   4.524   3.987  0.7068  0.6219 -1.3184
  124SOPE   H6S13224   1.503   4.680   3.990  4.0068 -0.0597  0.8388
  124SOPE   C2713225   1.364   4.522   3.989 -0.1115  0.0199 -0.7652
  124SOPE   H7R13226   1.284   4.545   3.915 -0.3253 -2.7036 -1.5017
  124SOPE   H7S13227   1.368   4.411   3.992  0.5215  0.0404 -0.7867
  124SOPE   C2813228   1.315   4.586   4.121  0.6277 -0.3157  0.1405
  124SOPE   H8R13229   1.335   4.692   4.096  1.8235 -0.4869  0.3399
  124SOPE   H8S13230   1.205   4.571   4.126  0.6046  0.2218  1.5282
  124SOPE   C2913231   1.381   4.530   4.248 -0.1168 -0.4267  0.3497
  124SOPE   H9113232   1.346   4.435   4.292 -1.8162 -0.6983 -1.4423
  124SOPE  C21013233   1.494   4.576   4.302 -0.7851 -0.6753 -0.7738
  124SOPE  H10113234   1.532   4.536   4.397 -1.9572  1.2343  0.5583
  124SOPE  C21113235   1.575   4.699   4.273 -0.3653  0.4133  0.7827
  124SOPE  H11R13236   1.528   4.757   4.191 -0.1273 -1.4865 -0.7774
  124SOPE  H11S13237   1.674   4.668   4.234  0.5341 -0.6702  3.6007
  124SOPE  C21213238   1.606   4.776   4.403  0.0372 -0.6429  0.8811
  124SOPE  H12R13239   1.656   4.874   4.387 -1.8411  0.6799  2.6709
  124SOPE  H12S13240   1.673   4.711   4.464  2.1685 -0.2065 -0.8616
  124SOPE  C21313241   1.483   4.809   4.492  0.9991 -0.4850  0.5568
  124SOPE  H13R13242   1.451   4.712   4.537  1.1444 -0.7021  0.2043
  124SOPE  H13S13243   1.399   4.839   4.426  0.5498 -1.9631  0.4128
  124SOPE  C21413244   1.511   4.918   4.597  0.1646 -0.2582 -0.2237
  124SOPE  H14R13245   1.431   4.941   4.671  1.0788  1.7649  0.1948
  124SOPE  H14S13246   1.529   5.012   4.541  1.4078  0.0478  0.6489
  124SOPE  C21513247   1.626   4.875   4.692  0.4617 -0.3147  0.0856
  124SOPE  H15R13248   1.726   4.908   4.658  0.5670 -1.2711 -0.5541
  124SOPE  H15S13249   1.617   4.765   4.703 -1.9277 -0.0322  1.9111
  124SOPE  C21613250   1.602   4.940   4.834  0.0663  0.2640  0.2402
  124SOPE  H16R13251   1.508   4.911   4.886 -0.4301 -0.1963 -0.8887
  124SOPE  H16S13252   1.600   5.050   4.847  4.3892  0.4956  0.3808
  124SOPE  C21713253   1.732   4.899   4.913  0.0340  0.4301 -0.3485
  124SOPE  H17R13254   1.821   4.923   4.850 -1.1003  1.7835 -1.4872
  124SOPE  H17S13255   1.721   4.790   4.931  2.7633  0.1766  0.2610
  124SOPE  C21813256   1.752   4.978   5.042 -0.2879 -0.2820 -0.0335
  124SOPE  H18R13257   1.763   5.080   5.000 -3.1767 -0.5954 -1.9064
  124SOPE  H18S13258   1.846   4.945   5.091 -0.1919 -0.3686 -0.2762
  124SOPE  H18T13259   1.658   4.977   5.102 -0.6187  0.7157 -0.5072
  124SOPE   C3313260   1.189   4.925   3.327  0.1038 -0.5443  0.2289
  124SOPE   H3X13261   1.135   5.021   3.342 -1.2451 -1.1413 -0.6805
  124SOPE   H3Y13262   1.297   4.944   3.309  0.0506 -0.6933 -0.2514
  124SOPE   C3413263   1.176   4.836   3.452  0.1622  0.2102 -0.0370
  124SOPE   H4X13264   1.252   4.754   3.449  2.1603  1.9722  0.2877
  124SOPE   H4Y13265   1.075   4.789   3.454 -0.1528  0.7897 -1.2109
  124SOPE   C3513266   1.175   4.921   3.579 -0.5097 -0.0753  0.1467
  124SOPE   H5X13267   1.102   5.005   3.576  0.5525  0.8988  0.6439
  124SOPE   H5Y13268   1.276   4.967   3.590  0.5364 -2.3567  0.7152
  124SOPE   C3613269   1.153   4.840   3.708 -0.3503  0.0223  0.3859
  124SOPE   H6X13270   1.230   4.761   3.697 -0.3431  0.2445 -1.5641
  124SOPE   H6Y13271   1.058   4.784   3.710 -0.0791 -0.4254  0.8338
  124SOPE   C3713272   1.184   4.935   3.821 -0.0269  0.0986 -0.3202
  124SOPE   H7X13273   1.123   5.028   3.816 -0.0678  0.0667 -0.4074
  124SOPE   H7Y13274   1.286   4.979   3.822  0.5852 -1.0308  3.3587
  124SOPE   C3813275   1.158   4.861   3.953 -0.1857 -0.3374  0.3610
  124SOPE   H8X13276   1.221   4.769   3.941 -0.8103 -0.8976  1.2812
  124SOPE   H8Y13277   1.051   4.830   3.959 -0.4624  0.7354  1.1668
  124SOPE   C3913278   1.205   4.943   4.080  0.0890 -1.0850 -0.0611
  124SOPE   H9X13279   1.157   5.043   4.080  2.2360  0.0225 -0.0447
  124SOPE   H9Y13280   1.314   4.969   4.082 -0.1732  0.1489 -0.5641
  124SOPE  C31013281   1.162   4.886   4.213 -0.2659 -0.5086 -0.2673
  124SOPE  H10X13282   1.218   4.795   4.244 -0.6784 -1.3688 -1.9020
  124SOPE  H10Y13283   1.058   4.848   4.203 -0.6729 -0.1743  2.1229
  124SOPE  C31113284   1.153   4.991   4.328  0.2846  0.2906 -0.2337
  124SOPE  H11X13285   1.090   5.069   4.280  0.1902  0.6621  0.4949
  124SOPE  H11Y13286   1.257   5.021   4.353  1.3967 -2.2667 -1.4064
  124SOPE  C31213287   1.104   4.935   4.462 -0.2329 -0.1169 -0.2302
  124SOPE  H12X13288   1.174   4.860   4.503 -0.4787  0.8594  2.1158
  124SOPE  H12Y13289   1.011   4.878   4.443 -0.4519  0.0080  0.4408
  124SOPE  C31313290   1.084   5.047   4.563 -0.8923 -0.2852 -0.4125
  124SOPE  H13X13291   1.018   5.122   4.514 -1.8717 -0.7745  0.1323
  124SOPE  H13Y13292   1.185   5.090   4.578 -0.8668 -0.4044 -0.2503
  124SOPE  C31413293   1.043   5.009   4.700  0.3568  0.4609  1.1068
  124SOPE  H14X13294   1.108   4.926   4.736 -0.5405 -0.1014  1.4456
  124SOPE  H14Y13295   0.939   4.972   4.689  0.9820 -0.8107 -1.1780
  124SOPE  C31513296   1.058   5.120   4.805  0.6990 -0.1445  0.4833
  124SOPE  H15X13297   0.980   5.110   4.884 -0.2912 -1.9704 -0.6546
  124SOPE  H15Y13298   1.030   5.213   4.751  0.1195 -0.0161  0.9900
  124SOPE  C31613299   1.203   5.137   4.856 -0.5607 -0.0809  0.3618
  124SOPE  H16X13300   1.255   5.168   4.763 -2.1696  1.9105  0.0458
  124SOPE  H16Y13301   1.245   5.040   4.890 -2.0743 -0.1813  2.1128
  124SOPE  C31713302   1.222   5.246   4.967  0.2537 -0.1817  0.6886
  124SOPE  H17X13303   1.172   5.203   5.056 -2.7342 -0.8359 -1.1697
  124SOPE  H17Y13304   1.153   5.324   4.930  0.2485 -1.4611 -2.2644
  124SOPE  C31813305   1.363   5.299   4.993  0.1431 -0.8171 -0.1188
  124SOPE  H18X13306   1.436   5.215   4.995  0.8338 -0.2228  0.3008
  124SOPE  H18Y13307   1.375   5.354   5.089 -0.3610  2.0135 -1.5937
  124SOPE  H18Z13308   1.381   5.376   4.916  2.6648  0.6024  1.7567
  125SOPE     N13309   1.044   6.094   2.411 -0.3681 -0.9413  0.4144
  125SOPE   HN113310   0.942   6.079   2.421 -0.8195  0.2671 -1.7218
  125SOPE   HN213311   1.068   6.173   2.348 -2.2458 -0.8221 -0.2121
  125SOPE   HN313312   1.075   6.012   2.354  0.6797 -0.3634  0.1224
  125SOPE   C1213313   1.130   6.087   2.534  0.4143  1.1977 -0.3369
  125SOPE  H12A13314   1.206   6.168   2.534 -0.7969  2.3609 -0.2348
  125SOPE  H12B13315   1.195   5.997   2.523  1.1728  1.6305  0.4990
  125SOPE   C1113316   1.048   6.103   2.670 -0.2644 -0.2294  0.6320
  125SOPE  H11A13317   1.006   6.205   2.676 -1.4121 -0.3364 -3.1568
  125SOPE  H11B13318   1.119   6.096   2.755 -1.1128  0.8593  1.4607
  125SOPE     P13319   0.961   5.857   2.708 -0.0321 -0.0668  0.6463
  125SOPE   O1313320   0.988   5.792   2.575 -0.4669 -0.4581 -0.1335
  125SOPE   O1413321   0.849   5.807   2.781 -0.0338  0.1273  0.5720
  125SOPE   O1213322   0.938   6.011   2.685 -0.2883 -0.8735 -0.2071
  125SOPE   O1113323   1.098   5.849   2.801  0.7260  0.3852  0.6504
  125SOPE    C113324   1.098   5.749   2.904  0.1808 -0.2268  0.6076
  125SOPE    HA13325   1.208   5.737   2.915  0.6871  2.6893 -0.3435
  125SOPE    HB13326   1.062   5.649   2.874 -1.9523  1.2294 -2.1415
  125SOPE    C213327   1.039   5.799   3.038 -0.2891  0.1376  0.0930
  125SOPE    HS13328   0.930   5.818   3.024 -0.0768  3.0397  1.7077
  125SOPE   O2113329   1.099   5.919   3.084  0.3241  0.4368  0.0099
  125SOPE   C2113330   1.017   5.997   3.157 -0.0246  0.2375 -0.1194
  125SOPE   O2213331   0.898   5.979   3.162  0.7440  0.8453  0.9088
  125SOPE   C2213332   1.086   6.116   3.218 -0.2585 -1.2625  0.6152
  125SOPE   H2R13333   1.082   6.194   3.139 -4.1266 -2.8858 -1.0382
  125SOPE   H2S13334   1.191   6.084   3.237  0.2960  0.8432  1.4796
  125SOPE    C313335   1.058   5.685   3.144 -0.6509 -0.2919  0.0190
  125SOPE    HX13336   1.167   5.670   3.138 -0.5146  0.1638  1.0426
  125SOPE    HY13337   1.011   5.590   3.109 -0.2577 -1.9894  3.6905
  125SOPE   O3113338   1.026   5.706   3.283  0.0747 -0.2472 -0.0389
  125SOPE   C3113339   0.896   5.696   3.304  0.0418 -0.0933 -0.2585
  125SOPE   O3213340   0.807   5.688   3.220 -0.5192  0.2100 -0.0241
  125SOPE   C3213341   0.874   5.720   3.456  0.1323 -0.2373  0.2144
  125SOPE   H2X13342   0.827   5.817   3.482 -1.4833 -1.5069  2.3860
  125SOPE   H2Y13343   0.975   5.709   3.500  0.7230  0.2756 -0.9662
  125SOPE   C2313344   1.009   6.176   3.339 -0.4650 -0.0176 -0.4399
  125SOPE   H3R13345   0.900   6.192   3.322 -1.4071 -1.1367  3.6013
  125SOPE   H3S13346   1.046   6.278   3.364  0.4152 -0.1801 -1.0410
  125SOPE   C2413347   1.034   6.086   3.459  0.0194  0.4137  0.2968
  125SOPE   H4R13348   1.025   5.981   3.426  3.0636  0.0912  0.2275
  125SOPE   H4S13349   1.140   6.098   3.491  0.6305 -1.5638 -0.8724
  125SOPE   C2513350   0.934   6.114   3.578 -0.9355  0.4871 -0.8564
  125SOPE   H5R13351   0.939   6.225   3.589  1.4499  0.2202  2.0678
  125SOPE   H5S13352   0.827   6.093   3.557 -1.6047 -1.2669  3.2075
  125SOPE   C2613353   0.960   6.044   3.713  0.5765  0.0740  0.1413
  125SOPE   H6R13354   0.951   5.934   3.698  1.0096  0.1748 -0.9477
  125SOPE   H6S13355   1.066   6.062   3.742  0.4532 -1.1025  1.4615
  125SOPE   C2713356   0.865   6.075   3.828  0.8452  0.6725 -0.6774
  125SOPE   H7R13357   0.860   6.182   3.856  1.7431  1.0518 -1.8877
  125SOPE   H7S13358   0.769   6.050   3.779  1.2620 -1.5507 -0.4946
  125SOPE   C2813359   0.870   5.972   3.942 -0.5802 -0.2991  0.1841
  125SOPE   H8R13360   0.860   5.873   3.892 -2.2045  0.5340 -1.2777
  125SOPE   H8S13361   0.976   5.988   3.968  0.1196  1.4697 -3.2039
  125SOPE   C2913362   0.777   5.994   4.054  1.0557 -0.6332 -0.4508
  125SOPE   H9113363   0.800   6.091   4.101 -1.3370 -1.9049  3.9769
  125SOPE  C21013364   0.674   5.925   4.108 -0.0904  0.5555 -0.0344
  125SOPE  H10113365   0.616   5.964   4.192 -0.7645 -2.5322  1.0765
  125SOPE  C21113366   0.639   5.780   4.073 -1.0432  0.1593 -0.8275
  125SOPE  H11R13367   0.702   5.747   3.987  1.0316  0.4505  0.4902
  125SOPE  H11S13368   0.534   5.776   4.039 -1.5282  0.3368  0.5996
  125SOPE  C21213369   0.662   5.679   4.189 -0.4900  0.5321 -0.5192
  125SOPE  H12R13370   0.769   5.664   4.213 -0.8782 -1.0242  0.3858
  125SOPE  H12S13371   0.619   5.584   4.152  0.5245 -0.2227  0.2077
  125SOPE  C21313372   0.597   5.723   4.323 -0.6144 -0.2967  0.3447
  125SOPE  H13R13373   0.501   5.775   4.302 -0.2842  1.3486  2.5893
  125SOPE  H13S13374   0.676   5.788   4.365  1.6912 -1.8031 -1.3369
  125SOPE  C21413375   0.573   5.609   4.421 -0.1347  0.1036 -0.6305
  125SOPE  H14R13376   0.664   5.545   4.427 -1.0445 -1.2906 -1.1218
  125SOPE  H14S13377   0.499   5.541   4.373 -0.2704 -0.8670  0.8979
  125SOPE  C21513378   0.527   5.645   4.556  0.6871 -0.0081 -0.5782
  125SOPE  H15R13379   0.429   5.691   4.531 -0.7781 -3.8081 -2.5575
  125SOPE  H15S13380   0.603   5.718   4.594  1.1885 -1.0033  0.3794
  125SOPE  C21613381   0.496   5.528   4.648  0.2647 -0.1564  0.1767
  125SOPE  H16R13382   0.597   5.492   4.676  0.6361  0.5086 -0.2900
  125SOPE  H16S13383   0.452   5.447   4.585  1.0027  0.5837 -1.3298
  125SOPE  C21713384   0.420   5.573   4.771  0.2051 -0.0734  0.7375
  125SOPE  H17R13385   0.428   5.487   4.841  0.9346  0.4588  1.3111
  125SOPE  H17S13386   0.314   5.583   4.738 -0.0106  0.5051  1.5786
  125SOPE  C21813387   0.453   5.710   4.827 -0.3293  0.4024 -0.8075
  125SOPE  H18R13388   0.430   5.794   4.759  0.7315  2.9607  1.7817
  125SOPE  H18S13389   0.561   5.727   4.844 -0.9333  2.6403  1.2623
  125SOPE  H18T13390   0.402   5.719   4.925 -1.4129 -0.1543 -1.3001
  125SOPE   C3313391   0.772   5.620   3.516 -0.1900 -0.5976  0.6343
  125SOPE   H3X13392   0.812   5.517   3.503  0.7936 -0.1132 -0.3446
  125SOPE   H3Y13393   0.680   5.609   3.454  0.7041 -2.7218 -0.4351
  125SOPE   C3413394   0.736   5.649   3.662 -0.1359  0.3944  0.0828
  125SOPE   H4X13395   0.692   5.750   3.677 -1.0079  0.1902 -0.9657
  125SOPE   H4Y13396   0.826   5.646   3.726 -0.3108  0.5576  0.3371
  125SOPE   C3513397   0.631   5.549   3.719  0.3526  0.4471 -0.9382
  125SOPE   H5X13398   0.644   5.545   3.829 -1.5178  0.1764 -0.6940
  125SOPE   H5Y13399   0.654   5.448   3.678 -1.2088 -0.5937  0.6137
  125SOPE   C3613400   0.488   5.598   3.703  0.0315  0.3528  0.3208
  125SOPE   H6X13401   0.468   5.612   3.594  2.5899 -1.0178 -0.4098
  125SOPE   H6Y13402   0.482   5.694   3.757 -0.7917  0.5557 -0.1033
  125SOPE   C3713403   0.388   5.496   3.758 -0.4302  0.3108  0.0254
  125SOPE   H7X13404   0.414   5.465   3.861  0.1142 -1.5227 -0.6304
  125SOPE   H7Y13405   0.382   5.406   3.692  1.8954  0.5379 -0.5766
  125SOPE   C3813406   0.248   5.563   3.770  0.6863 -0.3406  0.8290
  125SOPE   H8X13407   0.197   5.522   3.680  1.1807 -1.6988  1.1502
  125SOPE   H8Y13408   0.255   5.673   3.756 -0.3835 -0.2433  0.9759
  125SOPE   C3913409   0.174   5.536   3.901 -0.5342  0.2096 -1.3337
  125SOPE   H9X13410   0.150   5.429   3.917 -1.5498  0.4506 -1.1995
  125SOPE   H9Y13411   0.076   5.588   3.897 -0.8934 -0.2657  0.5159
  125SOPE  C31013412   0.254   5.596   4.028  0.6532 -0.8245 -0.2279
  125SOPE  H10X13413   0.256   5.703   3.996 -0.7676 -0.5122  0.6010
  125SOPE  H10Y13414   0.359   5.562   4.029  1.7093  1.9548 -2.5529
  125SOPE  C31113415   0.191   5.571   4.167 -0.4943  0.4286 -0.1135
  125SOPE  H11X13416   0.255   5.511   4.235  0.2697  2.6786  1.2725
  125SOPE  H11Y13417   0.103   5.504   4.152  0.3955 -0.4060 -1.9539
  125SOPE  C31213418   0.153   5.698   4.241  0.7312  0.5215  0.0007
  125SOPE  H12X13419   0.106   5.758   4.160  0.0774 -2.1189 -1.6799
  125SOPE  H12Y13420   0.253   5.739   4.266  0.8104 -0.5569  1.5533
  125SOPE  C31313421   0.056   5.678   4.363  0.1101  0.1700  0.1629
  125SOPE  H13X13422   0.111   5.609   4.431 -1.9537  0.8935  2.7308
  125SOPE  H13Y13423  -0.043   5.637   4.333 -1.0492  3.0724 -0.3580
  125SOPE  C31413424   0.030   5.800   4.448  0.0527 -0.3492 -0.7329
  125SOPE  H14X13425  -0.044   5.860   4.391 -0.7833 -0.7169 -0.0417
  125SOPE  H14Y13426   0.120   5.864   4.460 -0.6541  0.5702 -0.1894
  125SOPE  C31513427  -0.038   5.765   4.589  0.0790  0.6771  0.6215
  125SOPE  H15X13428  -0.107   5.678   4.584  1.3399 -0.3150 -0.1865
  125SOPE  H15Y13429  -0.093   5.854   4.624 -0.0831  0.7209  0.2626
  125SOPE  C31613430   0.071   5.729   4.699  0.8862 -0.3172  0.4934
  125SOPE  H16X13431   0.148   5.809   4.701  0.6554 -0.0475  3.6541
  125SOPE  H16Y13432   0.119   5.632   4.678 -2.7632 -2.0057 -0.9531
  125SOPE  C31713433   0.017   5.743   4.847 -0.1255 -0.0428 -0.8714
  125SOPE  H17X13434  -0.069   5.675   4.862 -0.5702  0.5387 -0.7433
  125SOPE  H17Y13435  -0.026   5.845   4.854 -1.5557 -0.7186  0.9396
  125SOPE  C31813436   0.116   5.726   4.949  0.4023  0.2001  0.2012
  125SOPE  H18X13437   0.200   5.789   4.915 -0.2998  0.7837 -0.5069
  125SOPE  H18Y13438   0.145   5.620   4.968  1.2780  0.1459 -1.2770
  125SOPE  H18Z13439   0.074   5.761   5.046 -1.1565  0.3647 -0.4996
  126SOPE     N13440   3.963   2.577   3.195  0.7297 -0.4316 -0.0732
  126SOPE   HN113441   3.948   2.679   3.209 -1.8497 -0.6109 -1.0380
  126SOPE   HN213442   4.065   2.558   3.196  0.9101  0.4694 -0.7431
  126SOPE   HN313443   3.918   2.564   3.102 -0.9054  0.4363  0.5578
  126SOPE   C1213444   3.882   2.491   3.282  0.3875  0.2651 -0.5887
  126SOPE  H12A13445   3.777   2.514   3.254  0.1356  0.5316  0.5308
  126SOPE  H12B13446   3.892   2.508   3.391 -1.3637 -1.6329 -0.0516
  126SOPE   C1113447   3.908   2.347   3.254 -0.5204  0.5067  0.5995
  126SOPE  H11A13448   3.828   2.277   3.286 -2.4830  1.6818 -1.4511
  126SOPE  H11B13449   3.999   2.322   3.313  0.3808  2.0065 -0.0983
  126SOPE     P13450   4.017   2.203   3.076  0.1032 -0.0119  0.4491
  126SOPE   O1313451   4.062   2.225   2.934  0.0088 -0.5961  0.2115
  126SOPE   O1413452   3.945   2.082   3.109  0.1907  0.1001 -0.0253
  126SOPE   O1213453   3.925   2.322   3.113  0.5289 -0.3756 -0.6192
  126SOPE   O1113454   4.139   2.223   3.172  0.0966  0.0135 -0.9939
  126SOPE    C113455   4.242   2.124   3.196 -0.0603  0.0659  0.1566
  126SOPE    HA13456   4.341   2.157   3.156  0.2350 -0.0512  0.7743
  126SOPE    HB13457   4.214   2.020   3.168  3.5359 -1.1513  0.4600
  126SOPE    C213458   4.278   2.115   3.354 -0.2827  0.4109  0.6545
  126SOPE    HS13459   4.380   2.072   3.357  0.4387  2.0764  1.1196
  126SOPE   O2113460   4.182   2.028   3.421 -0.2556  0.3037  0.1007
  126SOPE   C2113461   4.218   1.895   3.429 -0.5685 -1.1107  0.1105
  126SOPE   O2213462   4.321   1.848   3.375 -0.5953  0.1897  0.1508
  126SOPE   C2213463   4.119   1.829   3.517  0.0010 -0.2101  0.3655
  126SOPE   H2R13464   4.040   1.775   3.460  0.7021 -1.7237  0.7861
  126SOPE   H2S13465   4.072   1.896   3.591  3.5456 -0.7067  3.3222
  126SOPE    C313466   4.275   2.252   3.412 -0.0851 -0.2967 -0.5121
  126SOPE    HX13467   4.183   2.299   3.372 -0.2148 -1.6050 -1.8286
  126SOPE    HY13468   4.360   2.316   3.378 -0.4533  1.0946  1.0588
  126SOPE   O3113469   4.291   2.245   3.556 -0.1994 -0.9204  0.3874
  126SOPE   C3113470   4.174   2.268   3.624 -1.0615  0.3744  0.4933
  126SOPE   O3213471   4.062   2.265   3.575  0.5907 -0.2770  0.0370
  126SOPE   C3213472   4.215   2.296   3.772 -0.2842 -0.0134  0.7224
  126SOPE   H2X13473   4.250   2.402   3.771 -1.9800  0.5786  1.2658
  126SOPE   H2Y13474   4.297   2.225   3.796 -0.9757 -0.8850  0.5438
  126SOPE   C2313475   4.192   1.722   3.606  0.5067 -0.0397 -0.3955
  126SOPE   H3R13476   4.260   1.654   3.549 -0.2443 -0.7608 -0.4514
  126SOPE   H3S13477   4.118   1.650   3.647  1.5693 -0.3714  1.0184
  126SOPE   C2413478   4.271   1.778   3.722  0.1236 -0.0185  0.5010
  126SOPE   H4R13479   4.329   1.702   3.779  0.8869  0.0155 -0.2144
  126SOPE   H4S13480   4.341   1.853   3.680 -0.8816 -0.2817 -1.7936
  126SOPE   C2513481   4.176   1.850   3.821 -0.6355  0.7387 -0.4223
  126SOPE   H5R13482   4.111   1.928   3.775 -0.6736  0.0340 -1.6072
  126SOPE   H5S13483   4.105   1.772   3.857  1.2600 -0.7506  0.2624
  126SOPE   C2613484   4.224   1.909   3.955  0.4345 -0.2398  0.0400
  126SOPE   H6R13485   4.287   1.996   3.927 -0.0843  0.3590  0.7116
  126SOPE   H6S13486   4.135   1.941   4.013 -0.6565 -0.7567 -1.3118
  126SOPE   C2713487   4.300   1.814   4.050 -0.6054  0.5502 -0.0672
  126SOPE   H7R13488   4.237   1.725   4.071  0.3587  0.7025  4.6153
  126SOPE   H7S13489   4.391   1.789   3.992 -0.0384  1.2782  0.4782
  126SOPE   C2813490   4.348   1.874   4.184 -0.3243  0.3187 -0.2052
  126SOPE   H8R13491   4.415   1.799   4.230  0.5414  0.7325 -0.7646
  126SOPE   H8S13492   4.419   1.954   4.153  0.4050 -0.4828 -0.6403
  126SOPE   C2913493   4.232   1.910   4.276 -0.2297 -0.4142  0.0691
  126SOPE   H9113494   4.133   1.867   4.255 -1.1651  1.0097  1.3486
  126SOPE  C21013495   4.255   1.990   4.384  0.6418 -0.3873 -0.0797
  126SOPE  H10113496   4.178   2.018   4.457  1.4463 -0.9457  1.0211
  126SOPE  C21113497   4.387   2.041   4.440  0.2117  0.3380  1.2362
  126SOPE  H11R13498   4.398   2.151   4.427 -0.2534  0.4755  1.9825
  126SOPE  H11S13499   4.472   1.998   4.382 -1.0197 -0.4541 -0.0389
  126SOPE  C21213500   4.412   2.012   4.584 -0.6723 -0.0689  0.7602
  126SOPE  H12R13501   4.522   2.014   4.597 -0.4467 -1.3367 -0.7762
  126SOPE  H12S13502   4.393   1.908   4.619 -0.2280 -0.6406 -0.6671
  126SOPE  C21313503   4.344   2.106   4.677  0.0708 -0.3569 -0.7626
  126SOPE  H13R13504   4.239   2.070   4.679 -1.1987  2.9023  2.9169
  126SOPE  H13S13505   4.338   2.205   4.627 -3.0384 -0.1199 -0.1120
  126SOPE  C21413506   4.402   2.108   4.816 -0.7826 -0.0260  0.2762
  126SOPE  H14R13507   4.474   2.191   4.831 -0.5281  0.7681 -4.0505
  126SOPE  H14S13508   4.467   2.018   4.825  1.4776  1.5420  0.6724
  126SOPE  C21513509   4.304   2.115   4.939 -0.5146  0.2443  0.6705
  126SOPE  H15R13510   4.246   2.020   4.933  0.6009 -0.6339  2.7394
  126SOPE  H15S13511   4.230   2.196   4.926  1.3597  1.8145 -0.7439
  126SOPE  C21613512   4.384   2.128   5.067 -0.1694  0.2934  0.5324
  126SOPE  H16R13513   4.438   2.224   5.054  0.3060 -0.2491 -1.9054
  126SOPE  H16S13514   4.463   2.050   5.059 -0.2960  0.2467 -0.3926
  126SOPE  C21713515   4.305   2.110   5.199  0.0682  0.1302  0.0250
  126SOPE  H17R13516   4.233   2.193   5.216 -0.8292 -0.8324  1.0817
  126SOPE  H17S13517   4.377   2.107   5.284  2.1179  0.4777 -1.6291
  126SOPE  C21813518   4.224   1.987   5.192 -0.2416 -0.5244 -0.3345
  126SOPE  H18R13519   4.285   1.908   5.143  1.1719  0.7699 -0.7458
  126SOPE  H18S13520   4.127   2.004   5.139 -1.0455  1.1066  1.5412
  126SOPE  H18T13521   4.200   1.948   5.293  0.1017 -1.1036 -0.4743
  126SOPE   C3313522   4.099   2.262   3.863  0.0478 -0.3563 -0.5206
  126SOPE   H3X13523   4.067   2.157   3.843 -2.8521  0.3011  0.1221
  126SOPE   H3Y13524   4.021   2.338   3.839  0.1253  0.3529  1.2681
  126SOPE   C3413525   4.138   2.267   4.015  0.0623 -0.0417 -0.0598
  126SOPE   H4X13526   4.184   2.172   4.048  1.8168  1.6695  2.7968
  126SOPE   H4Y13527   4.050   2.288   4.080  0.9851  0.2078  1.1442
  126SOPE   C3513528   4.236   2.380   4.058  0.3449  0.2289 -0.1213
  126SOPE   H5X13529   4.192   2.468   4.008  2.0641  1.7411  0.9115
  126SOPE   H5Y13530   4.336   2.360   4.016  0.5632  1.4620 -0.2093
  126SOPE   C3613531   4.227   2.413   4.210  0.0129 -0.6944 -0.1235
  126SOPE   H6X13532   4.233   2.319   4.269 -0.0062 -0.5872  0.0525
  126SOPE   H6Y13533   4.126   2.459   4.209 -0.0551 -0.8042 -2.1588
  126SOPE   C3713534   4.336   2.506   4.272 -0.0429  0.6245 -0.5708
  126SOPE   H7X13535   4.338   2.590   4.199 -1.2195  2.9522  1.9187
  126SOPE   H7Y13536   4.437   2.459   4.264  0.0745  0.2639  2.0394
  126SOPE   C3813537   4.306   2.543   4.410  0.3719  0.7123 -0.5163
  126SOPE   H8X13538   4.312   2.456   4.479 -1.1096  1.0562  0.0873
  126SOPE   H8Y13539   4.202   2.581   4.402  0.3188  0.4832 -0.9527
  126SOPE   C3913540   4.387   2.644   4.476 -0.7686 -0.2521 -0.5003
  126SOPE   H9X13541   4.374   2.729   4.405  1.0548 -0.1732 -0.7903
  126SOPE   H9Y13542   4.497   2.625   4.476 -0.5694  0.4864  2.1189
  126SOPE  C31013543   4.329   2.683   4.612 -0.5194  0.6659  0.5121
  126SOPE  H10X13544   4.218   2.692   4.611 -0.7348 -1.3821 -0.0955
  126SOPE  H10Y13545   4.372   2.782   4.635 -1.4354  0.5226  3.1835
  126SOPE  C31113546   4.353   2.578   4.718  0.6413  0.3112 -0.3280
  126SOPE  H11X13547   4.460   2.550   4.708  1.5322  3.3795 -0.6197
  126SOPE  H11Y13548   4.287   2.494   4.688  0.3390  0.5423 -0.3150
  126SOPE  C31213549   4.320   2.614   4.861 -0.2778  0.0881 -0.5839
  126SOPE  H12X13550   4.243   2.694   4.858  0.2914  0.7500  1.1742
  126SOPE  H12Y13551   4.419   2.650   4.896 -0.1191 -0.7072 -0.1958
  126SOPE  C31313552   4.268   2.492   4.933 -0.1205  0.5307 -0.0736
  126SOPE  H13X13553   4.341   2.408   4.924 -0.4637  0.2376 -0.1378
  126SOPE  H13Y13554   4.183   2.457   4.871  1.6665 -0.7212 -1.9924
  126SOPE  C31413555   4.239   2.500   5.083 -0.4989  0.5877 -0.5401
  126SOPE  H14X13556   4.190   2.402   5.103  0.1762  0.2620 -0.4331
  126SOPE  H14Y13557   4.166   2.583   5.095  0.1560  1.0924  0.0176
  126SOPE  C31513558   4.372   2.507   5.159  0.0874  0.4909 -0.4493
  126SOPE  H15X13559   4.438   2.571   5.096 -0.9476 -0.1286 -2.2473
  126SOPE  H15Y13560   4.430   2.412   5.153 -1.4134 -0.5467  0.7351
  126SOPE  C31613561   4.366   2.554   5.305  0.2480 -0.2175  0.3062
  126SOPE  H16X13562   4.267   2.602   5.318 -1.5485 -3.5734  0.0517
  126SOPE  H16Y13563   4.454   2.620   5.323  1.8460 -1.9613 -0.8067
  126SOPE  C31713564   4.372   2.445   5.409 -0.3177 -0.0908  0.1895
  126SOPE  H17X13565   4.475   2.407   5.392 -1.1248 -1.9518 -0.8478
  126SOPE  H17Y13566   4.304   2.368   5.368 -0.4195  1.0259 -1.8922
  126SOPE  C31813567   4.348   2.492   5.554 -0.5834  0.5499 -0.1764
  126SOPE  H18X13568   4.274   2.574   5.547 -3.8360 -2.0800  0.7278
  126SOPE  H18Y13569   4.443   2.523   5.602  1.9364 -0.6708 -3.9021
  126SOPE  H18Z13570   4.295   2.413   5.612  0.8247  1.9250  3.2163
  127SOPE     N13571   5.001   3.882   3.033 -0.2806  0.2296 -0.0464
  127SOPE   HN113572   5.063   3.947   2.981 -0.2004  0.1500 -0.0519
  127SOPE   HN213573   4.903   3.894   3.001 -0.1321 -0.5637 -0.8374
  127SOPE   HN313574   4.993   3.912   3.132 -3.5802  0.3132 -0.2096
  127SOPE   C1213575   5.052   3.744   3.002  0.0275  0.3134  0.1947
  127SOPE  H12A13576   5.160   3.743   3.028  0.1851 -1.6614 -0.3935
  127SOPE  H12B13577   5.043   3.737   2.892 -0.2741 -1.9203  0.3145
  127SOPE   C1113578   4.973   3.639   3.084  0.3999 -0.7010  0.3310
  127SOPE  H11A13579   4.973   3.662   3.193  0.4380  2.2770 -0.2003
  127SOPE  H11B13580   5.024   3.543   3.061 -1.2171 -1.5984  0.3417
  127SOPE     P13581   4.722   3.554   3.109  0.4304 -0.1277  0.1237
  127SOPE   O1313582   4.757   3.415   3.154 -0.0218  0.5482 -0.7581
  127SOPE   O1413583   4.610   3.559   3.007  0.0439  0.5490  0.0473
  127SOPE   O1213584   4.843   3.634   3.034  0.6082 -0.5951  0.5488
  127SOPE   O1113585   4.692   3.631   3.238 -0.8230 -0.3133 -0.7130
  127SOPE    C113586   4.679   3.777   3.232 -0.5227 -0.2408  0.0335
  127SOPE    HA13587   4.580   3.790   3.183 -2.2492  1.2899  3.6271
  127SOPE    HB13588   4.758   3.830   3.175 -2.1536  0.7663 -1.3826
  127SOPE    C213589   4.681   3.834   3.382  0.3282 -0.5204 -0.3058
  127SOPE    HS13590   4.681   3.945   3.384  1.5293 -0.5135 -0.3408
  127SOPE   O2113591   4.795   3.803   3.456 -0.3403 -0.0116 -0.1482
  127SOPE   C2113592   4.913   3.822   3.411  0.6192  0.2526 -0.2323
  127SOPE   O2213593   4.946   3.882   3.314  0.0164 -0.3269  0.2781
  127SOPE   C2213594   5.015   3.771   3.512 -0.5332  0.4325 -0.8885
  127SOPE   H2R13595   4.965   3.699   3.581  2.4284 -0.3150  0.6532
  127SOPE   H2S13596   5.040   3.850   3.585 -1.2901 -1.2709  1.3629
  127SOPE    C313597   4.553   3.776   3.451 -0.9052 -0.0299 -0.3101
  127SOPE    HX13598   4.570   3.666   3.444 -1.2805 -0.0695 -0.6197
  127SOPE    HY13599   4.460   3.807   3.399 -0.2092 -0.0716 -1.6307
  127SOPE   O3113600   4.556   3.832   3.587  0.6863 -0.3207 -0.2301
  127SOPE   C3113601   4.493   3.763   3.670  1.3082  0.0469 -0.5717
  127SOPE   O3213602   4.422   3.663   3.653 -0.1382 -0.4996  0.6031
  127SOPE   C3213603   4.483   3.846   3.802  0.6581  0.2623 -0.7978
  127SOPE   H2X13604   4.519   3.945   3.767  1.7235 -0.4514 -1.8275
  127SOPE   H2Y13605   4.562   3.806   3.870  0.7101 -1.8090 -1.9937
  127SOPE   C2313606   5.135   3.695   3.439  0.0784  0.3605 -0.4252
  127SOPE   H3R13607   5.170   3.770   3.364  0.0788 -0.3221 -1.1156
  127SOPE   H3S13608   5.079   3.615   3.386 -0.0343 -0.5761  1.0371
  127SOPE   C2413609   5.243   3.641   3.537  0.2316 -0.2213  0.4562
  127SOPE   H4R13610   5.340   3.615   3.491  0.9567  2.3674  0.3582
  127SOPE   H4S13611   5.256   3.711   3.623 -1.1537  0.7743 -0.1043
  127SOPE   C2513612   5.187   3.515   3.598 -0.5238  0.6616  0.4682
  127SOPE   H5R13613   5.077   3.524   3.612 -0.6336 -0.4667  0.4387
  127SOPE   H5S13614   5.193   3.427   3.531  1.6441 -0.1121  1.5988
  127SOPE   C2613615   5.251   3.490   3.732  0.1698 -0.3692 -0.1327
  127SOPE   H6R13616   5.246   3.578   3.799 -1.9564 -0.7635  0.2986
  127SOPE   H6S13617   5.186   3.418   3.785  1.5242 -0.5917  1.2926
  127SOPE   C2713618   5.390   3.435   3.719  0.4803  0.1273 -0.8453
  127SOPE   H7R13619   5.395   3.350   3.647 -0.3106 -0.4548 -0.2370
  127SOPE   H7S13620   5.449   3.519   3.676  1.7169 -1.0281 -1.5020
  127SOPE   C2813621   5.459   3.404   3.857 -0.0993 -0.0191  0.4617
  127SOPE   H8R13622   5.410   3.311   3.890  0.2730  0.8725  3.9328
  127SOPE   H8S13623   5.565   3.382   3.833 -0.2308  0.5682 -0.7120
  127SOPE   C2913624   5.459   3.511   3.963 -0.2946  0.6739 -0.0683
  127SOPE   H9113625   5.487   3.609   3.923 -2.9931  0.8914 -1.6781
  127SOPE  C21013626   5.408   3.505   4.085 -0.2610  0.0740  0.4036
  127SOPE  H10113627   5.390   3.597   4.143  0.1953 -0.1779  0.9470
  127SOPE  C21113628   5.347   3.393   4.158 -0.1048 -0.2082  0.2960
  127SOPE  H11R13629   5.332   3.300   4.100  0.7464 -1.4070  1.9050
  127SOPE  H11S13630   5.242   3.420   4.184 -1.1278 -1.3504 -2.2702
  127SOPE  C21213631   5.414   3.364   4.288  0.2391  0.0325 -0.9367
  127SOPE  H12R13632   5.352   3.299   4.353  2.6353 -1.4625 -0.0116
  127SOPE  H12S13633   5.421   3.460   4.344  2.0098 -0.9973  0.7000
  127SOPE  C21313634   5.558   3.316   4.281  0.1718 -0.0547 -0.3612
  127SOPE  H13R13635   5.608   3.389   4.213  0.8625  0.5871  0.7941
  127SOPE  H13S13636   5.574   3.210   4.253 -0.2846 -0.1241 -0.3531
  127SOPE  C21413637   5.630   3.331   4.412 -0.1802 -0.1903 -0.7144
  127SOPE  H14R13638   5.584   3.290   4.504  1.4969  0.6047  0.5282
  127SOPE  H14S13639   5.650   3.438   4.431 -0.3932 -0.0853 -1.0721
  127SOPE  C21513640   5.773   3.258   4.414  0.1208  0.0985  0.0250
  127SOPE  H15R13641   5.799   3.233   4.309 -1.8063 -1.8258 -0.0681
  127SOPE  H15S13642   5.754   3.156   4.454  1.4507  0.1637  0.8788
  127SOPE  C21613643   5.887   3.325   4.492  0.3687 -0.7429 -0.5637
  127SOPE  H16R13644   5.866   3.359   4.596 -0.5230 -0.0127 -0.9709
  127SOPE  H16S13645   5.921   3.420   4.447  1.2281 -1.3249 -1.1873
  127SOPE  C21713646   6.014   3.236   4.501 -0.4207 -0.2480  0.5127
  127SOPE  H17R13647   5.995   3.144   4.562 -1.7759  0.1905  0.7894
  127SOPE  H17S13648   6.078   3.311   4.551  0.3324 -0.0970 -0.6346
  127SOPE  C21813649   6.072   3.189   4.372 -0.4880 -0.2863  0.2187
  127SOPE  H18R13650   6.005   3.124   4.311  1.9749 -0.3422 -2.6406
  127SOPE  H18S13651   6.168   3.135   4.382  0.0531  0.5154 -0.4540
  127SOPE  H18T13652   6.097   3.279   4.311 -0.2043 -1.8194 -2.0431
  127SOPE   C3313653   4.340   3.853   3.872  0.7104 -0.9280 -0.3316
  127SOPE   H3X13654   4.336   3.772   3.948 -0.8301 -0.9682 -0.4280
  127SOPE   H3Y13655   4.265   3.826   3.794  0.2826 -0.4592 -0.0898
  127SOPE   C3413656   4.308   3.996   3.929 -0.4593 -0.7870  0.5706
  127SOPE   H4X13657   4.283   4.066   3.847  1.1099 -0.0451  0.7004
  127SOPE   H4Y13658   4.402   4.028   3.977  0.6759 -1.2320 -1.2684
  127SOPE   C3513659   4.192   4.001   4.026 -0.4753 -0.5958 -0.4410
  127SOPE   H5X13660   4.216   3.929   4.107  0.1430 -0.2403 -0.3012
  127SOPE   H5Y13661   4.098   3.964   3.980 -1.3924 -1.2330  1.7950
  127SOPE   C3613662   4.175   4.137   4.104  0.0426 -0.1953  0.3488
  127SOPE   H6X13663   4.114   4.193   4.030 -2.1315 -2.1139  0.5777
  127SOPE   H6Y13664   4.277   4.175   4.125  0.5421 -1.2718 -0.0454
  127SOPE   C3713665   4.087   4.129   4.224  0.0777  0.0672  0.0001
  127SOPE   H7X13666   4.118   4.047   4.293 -0.5883 -0.3138 -0.1403
  127SOPE   H7Y13667   3.990   4.105   4.176  0.6443  0.1920 -1.2229
  127SOPE   C3813668   4.087   4.263   4.303  0.4075  0.7721 -0.0343
  127SOPE   H8X13669   4.003   4.275   4.374 -0.1611 -0.3209 -0.4907
  127SOPE   H8Y13670   4.057   4.341   4.231 -0.2068 -0.8043 -1.5666
  127SOPE   C3913671   4.220   4.287   4.384  0.1449 -1.0471  0.1078
  127SOPE   H9X13672   4.300   4.250   4.318  0.6170  0.1788 -0.0436
  127SOPE   H9Y13673   4.223   4.219   4.472  0.8811 -0.3568  0.6354
  127SOPE  C31013674   4.249   4.434   4.414 -0.1671 -0.3321 -0.1217
  127SOPE  H10X13675   4.262   4.492   4.320  2.9724 -0.7055 -0.0410
  127SOPE  H10Y13676   4.344   4.442   4.472 -0.8070  3.0514  0.7134
  127SOPE  C31113677   4.150   4.518   4.499  0.9165 -0.9546  0.6193
  127SOPE  H11X13678   4.042   4.510   4.472  0.9362  0.9670 -0.2236
  127SOPE  H11Y13679   4.171   4.627   4.500  0.0548 -0.6905 -2.1591
  127SOPE  C31213680   4.163   4.472   4.647  0.0787 -0.8567 -0.3786
  127SOPE  H12X13681   4.152   4.362   4.635 -0.0961 -0.7843 -0.9452
  127SOPE  H12Y13682   4.075   4.509   4.703 -0.6502 -0.3631 -1.7975
  127SOPE  C31313683   4.290   4.512   4.721  0.1994 -0.2849  0.4760
  127SOPE  H13X13684   4.283   4.622   4.739  1.5381  0.0159 -0.6428
  127SOPE  H13Y13685   4.382   4.506   4.659  0.1324 -0.8028  0.4235
  127SOPE  C31413686   4.316   4.439   4.852 -0.9108  0.1345 -0.4017
  127SOPE  H14X13687   4.311   4.329   4.843 -1.2344  0.1602 -0.5584
  127SOPE  H14Y13688   4.246   4.465   4.935 -0.9197 -0.1865 -0.3090
  127SOPE  C31513689   4.458   4.474   4.906 -0.3954  0.1767  0.3015
  127SOPE  H15X13690   4.477   4.580   4.931 -0.9289 -0.1703  2.4228
  127SOPE  H15Y13691   4.535   4.449   4.830 -0.6272 -0.3672  0.2366
  127SOPE  C31613692   4.491   4.415   5.040  0.7098  0.3948  0.0506
  127SOPE  H16X13693   4.579   4.349   5.024 -1.6578 -2.6288 -1.9321
  127SOPE  H16Y13694   4.420   4.337   5.075  2.3784 -1.8868 -1.3469
  127SOPE  C31713695   4.497   4.512   5.149  0.6607  0.5198 -0.6279
  127SOPE  H17X13696   4.410   4.580   5.161  0.1541 -0.0495 -1.0154
  127SOPE  H17Y13697   4.585   4.580   5.138 -0.1694  1.4312 -1.9983
  127SOPE  C31813698   4.518   4.446   5.285  0.3793  0.3022  0.0002
  127SOPE  H18X13699   4.529   4.533   5.353 -0.2621 -1.8800  3.1139
  127SOPE  H18Y13700   4.613   4.390   5.278  0.3119  0.4016 -3.2680
  127SOPE  H18Z13701   4.438   4.382   5.329  0.1791  0.5536  0.0047
  128SOPE     N13702   2.326   1.225   3.309  0.1590  0.2587 -0.4992
  128SOPE   HN113703   2.265   1.308   3.326  2.1795  1.7600 -0.1504
  128SOPE   HN213704   2.332   1.160   3.390 -0.1875 -2.2233 -2.3321
  128SOPE   HN313705   2.419   1.270   3.295  0.0643  1.2904  1.7282
  128SOPE   C1213706   2.267   1.162   3.191  0.0958  0.0700  0.2036
  128SOPE  H12A13707   2.289   1.227   3.105 -0.3433 -2.2596 -1.7846
  128SOPE  H12B13708   2.157   1.152   3.204 -0.4929  0.2490 -3.5121
  128SOPE   C1113709   2.314   1.021   3.163  0.6412  0.1647  0.0067
  128SOPE  H11A13710   2.331   0.965   3.258  2.1826 -0.6410 -0.7091
  128SOPE  H11B13711   2.416   1.031   3.119  0.7044  1.0931  0.3347
  128SOPE     P13712   2.134   0.839   3.115  0.4178  0.6407 -0.0734
  128SOPE   O1313713   2.116   0.751   2.992 -0.3990 -0.0812  0.2384
  128SOPE   O1413714   2.012   0.901   3.168 -0.6914  0.4147 -0.1232
  128SOPE   O1213715   2.225   0.959   3.075  0.0759  0.5561  0.3197
  128SOPE   O1113716   2.213   0.763   3.228 -0.3800 -0.4543 -0.9373
  128SOPE    C113717   2.144   0.710   3.349 -0.4064  0.2275 -0.0437
  128SOPE    HA13718   2.176   0.604   3.359 -2.3376 -0.5256 -1.1507
  128SOPE    HB13719   2.034   0.699   3.334 -0.5032 -1.8088  1.6001
  128SOPE    C213720   2.175   0.786   3.479  0.1113 -0.1898  0.2551
  128SOPE    HS13721   2.127   0.733   3.564  0.4519  1.0824  1.2803
  128SOPE   O2113722   2.118   0.918   3.461 -0.4776  0.2275 -0.1258
  128SOPE   C2113723   1.993   0.939   3.465  0.0153  0.8928  0.8846
  128SOPE   O2213724   1.905   0.853   3.466 -0.0636 -0.5463 -0.0844
  128SOPE   C2213725   1.970   1.091   3.475  1.1615  0.4795 -0.1602
  128SOPE   H2R13726   1.995   1.132   3.374 -1.8623  1.0710 -0.7526
  128SOPE   H2S13727   2.037   1.145   3.545  0.1798  1.1184  0.3062
  128SOPE    C313728   2.326   0.804   3.508  0.3536 -0.3677 -0.0927
  128SOPE    HX13729   2.370   0.857   3.421 -1.1618 -1.2213 -1.4381
  128SOPE    HY13730   2.369   0.702   3.511 -0.2206 -0.6726 -1.4768
  128SOPE   O3113731   2.353   0.869   3.634  0.4252 -0.7471  0.2490
  128SOPE   C3113732   2.355   1.004   3.627 -0.1865 -0.2039 -0.0698
  128SOPE   O3213733   2.345   1.068   3.523  0.5901 -0.1212 -0.6386
  128SOPE   C3213734   2.367   1.068   3.762 -0.1659  0.1046  0.3721
  128SOPE   H2X13735   2.464   1.043   3.811  0.5912  1.6442 -0.2815
  128SOPE   H2Y13736   2.282   1.038   3.826 -2.1719 -0.3702 -2.3349
  128SOPE   C2313737   1.819   1.121   3.489 -0.2088  0.0120  0.5701
  128SOPE   H3R13738   1.762   1.054   3.422 -0.7017  0.4133  0.5791
  128SOPE   H3S13739   1.789   1.224   3.458 -1.3179 -0.6238 -0.5347
  128SOPE   C2413740   1.775   1.104   3.635 -0.3845 -0.2627  0.4161
  128SOPE   H4R13741   1.664   1.105   3.629 -0.4068  0.0186  0.8576
  128SOPE   H4S13742   1.803   1.009   3.685 -2.1332  1.2579  4.7829
  128SOPE   C2513743   1.808   1.231   3.714 -0.2298  0.5288  0.1989
  128SOPE   H5R13744   1.915   1.259   3.702 -0.4594  1.2224 -0.2765
  128SOPE   H5S13745   1.745   1.318   3.685 -0.9751  0.3491  1.2206
  128SOPE   C2613746   1.779   1.198   3.865  0.2788  0.0442 -0.3844
  128SOPE   H6R13747   1.669   1.190   3.881  0.0781  1.6371 -0.8426
  128SOPE   H6S13748   1.820   1.096   3.881 -0.5705 -0.6354 -2.2490
  128SOPE   C2713749   1.843   1.300   3.960  0.5338 -0.8697 -0.3798
  128SOPE   H7R13750   1.954   1.295   3.951  0.6135  0.3911 -0.3640
  128SOPE   H7S13751   1.817   1.405   3.933  1.1730 -0.4691  0.4951
  128SOPE   C2813752   1.818   1.288   4.109 -0.3714  0.6459 -0.1736
  128SOPE   H8R13753   1.711   1.259   4.105  0.3218 -2.1084 -0.8656
  128SOPE   H8S13754   1.878   1.199   4.137 -1.7927  0.0824  1.1929
  128SOPE   C2913755   1.843   1.414   4.191 -0.0125  0.0392 -0.8000
  128SOPE   H9113756   1.940   1.460   4.166 -0.0242 -0.2114 -1.3116
  128SOPE  C21013757   1.760   1.463   4.286  0.1631  0.7149 -0.4353
  128SOPE  H10113758   1.799   1.544   4.348  0.2370 -0.2168  0.7792
  128SOPE  C21113759   1.636   1.404   4.328  0.1900  0.4522  0.4572
  128SOPE  H11R13760   1.632   1.305   4.277  2.6720  1.4260 -1.8347
  128SOPE  H11S13761   1.557   1.464   4.278  0.0826 -0.3505 -0.3746
  128SOPE  C21213762   1.615   1.395   4.475 -1.2477  0.1850  0.5259
  128SOPE  H12R13763   1.675   1.320   4.531 -2.2684 -0.9140  0.1731
  128SOPE  H12S13764   1.514   1.354   4.493 -1.6691  0.9178 -0.1368
  128SOPE  C21313765   1.608   1.532   4.547  0.8121  0.4177 -0.0824
  128SOPE  H13R13766   1.557   1.606   4.481 -0.2329 -1.8917 -1.9973
  128SOPE  H13S13767   1.710   1.570   4.564 -0.0055  2.5507  0.3919
  128SOPE  C21413768   1.542   1.540   4.686  0.5172 -0.1133 -0.0380
  128SOPE  H14R13769   1.443   1.490   4.674  0.1946  0.7718 -1.2401
  128SOPE  H14S13770   1.512   1.643   4.716 -2.1742 -0.3017 -1.7062
  128SOPE  C21513771   1.621   1.472   4.795  0.9435  0.2474  0.0691
  128SOPE  H15R13772   1.729   1.488   4.776  0.9796 -1.3132 -1.2767
  128SOPE  H15S13773   1.599   1.363   4.787 -2.1128  0.6818  1.0932
  128SOPE  C21613774   1.595   1.520   4.937 -0.5494 -0.3438 -0.3328
  128SOPE  H16R13775   1.489   1.503   4.967 -0.4464 -1.3574 -0.4982
  128SOPE  H16S13776   1.628   1.626   4.947  2.5660 -1.1466 -0.9828
  128SOPE  C21713777   1.680   1.434   5.038  0.1123  0.3920  0.4230
  128SOPE  H17R13778   1.787   1.455   5.017  1.0425 -1.8914  2.3925
  128SOPE  H17S13779   1.655   1.327   5.023  0.2299  0.1188  1.9322
  128SOPE  C21813780   1.629   1.459   5.176  0.7349 -0.7189 -0.4472
  128SOPE  H18R13781   1.642   1.569   5.188 -3.0306 -0.1631 -0.5047
  128SOPE  H18S13782   1.673   1.395   5.255 -0.7021 -1.7564 -0.4686
  128SOPE  H18T13783   1.521   1.450   5.200  0.9656 -0.6211  0.6751
  128SOPE   C3313784   2.377   1.221   3.749  0.3021  0.1560 -0.6040
  128SOPE   H3X13785   2.321   1.258   3.661 -0.8501  1.6686  0.7135
  128SOPE   H3Y13786   2.483   1.251   3.739  0.8786 -0.8654  1.8040
  128SOPE   C3413787   2.315   1.298   3.862  0.5393 -0.5691  0.1476
  128SOPE   H4X13788   2.208   1.267   3.869 -0.3420  2.4054  1.7134
  128SOPE   H4Y13789   2.308   1.403   3.826 -2.5551 -0.0998  1.8040
  128SOPE   C3513790   2.392   1.287   3.993 -0.3453 -0.3223 -0.1930
  128SOPE   H5X13791   2.498   1.314   3.971 -1.1303  2.5299 -0.9207
  128SOPE   H5Y13792   2.398   1.187   4.040  0.0095  0.2664  1.0708
  128SOPE   C3613793   2.334   1.388   4.093 -0.5620 -0.2772 -1.1470
  128SOPE   H6X13794   2.224   1.384   4.109 -0.5748 -1.2944 -1.4565
  128SOPE   H6Y13795   2.345   1.497   4.070 -2.4152  0.2310  0.1583
  128SOPE   C3713796   2.390   1.364   4.234  0.8115  0.1511 -0.8394
  128SOPE   H7X13797   2.499   1.385   4.236  0.7936  0.2028  0.9551
  128SOPE   H7Y13798   2.378   1.256   4.259  2.0926 -0.0904 -1.1839
  128SOPE   C3813799   2.326   1.458   4.345  0.0869  0.0724 -0.8805
  128SOPE   H8X13800   2.219   1.430   4.359  0.8017 -2.8813 -0.7030
  128SOPE   H8Y13801   2.326   1.565   4.313  0.2340  0.6466  0.9089
  128SOPE   C3913802   2.401   1.428   4.487  0.6367 -0.5062  0.7376
  128SOPE   H9X13803   2.359   1.334   4.530 -0.0006 -0.0331  1.1551
  128SOPE   H9Y13804   2.365   1.504   4.559  0.1036 -2.3043  2.4687
  128SOPE  C31013805   2.554   1.420   4.480 -0.2631  0.3651  0.3257
  128SOPE  H10X13806   2.608   1.496   4.419  1.1785 -0.0111  1.0971
  128SOPE  H10Y13807   2.585   1.323   4.436 -3.5332 -0.7424  0.1938
  128SOPE  C31113808   2.615   1.416   4.620 -0.5513 -0.2023  0.0199
  128SOPE  H11X13809   2.537   1.367   4.681 -2.1101  1.6790 -0.3421
  128SOPE  H11Y13810   2.615   1.521   4.658  1.5352  0.1428 -0.7831
  128SOPE  C31213811   2.754   1.357   4.628  0.5510  0.1671 -0.1382
  128SOPE  H12X13812   2.836   1.403   4.568  1.7637  1.1023  2.1036
  128SOPE  H12Y13813   2.756   1.247   4.612 -2.9765  0.0285 -0.3028
  128SOPE  C31313814   2.803   1.359   4.780  0.0986 -0.5519  0.6775
  128SOPE  H13X13815   2.889   1.289   4.781  0.9768  0.4776 -0.5237
  128SOPE  H13Y13816   2.722   1.325   4.848  0.1374  0.0926  1.0459
  128SOPE  C31413817   2.842   1.498   4.825 -0.3164  0.3858  0.3251
  128SOPE  H14X13818   2.749   1.559   4.823 -0.9383 -0.4668  1.7653
  128SOPE  H14Y13819   2.898   1.541   4.739 -0.3015  0.7299  0.5036
  128SOPE  C31513820   2.913   1.506   4.958  0.2411  0.0181 -0.0965
  128SOPE  H15X13821   2.993   1.428   4.961  0.7130  0.5184  0.9101
  128SOPE  H15Y13822   2.846   1.467   5.037 -0.3827  2.6018  0.7433
  128SOPE  C31613823   2.963   1.647   5.000  0.3968  0.5522  0.2685
  128SOPE  H16X13824   2.879   1.714   4.973  0.2567  0.4156  0.3671
  128SOPE  H16Y13825   3.054   1.670   4.940  0.3295 -1.1302 -0.5435
  128SOPE  C31713826   3.001   1.655   5.148 -0.1209 -0.5894 -0.0351
  128SOPE  H17X13827   3.077   1.579   5.175  0.4602 -0.4229 -1.1454
  128SOPE  H17Y13828   2.907   1.625   5.198 -0.6639 -0.5138 -0.9829
  128SOPE  C31813829   3.055   1.790   5.185  0.3178  0.0283 -0.1286
  128SOPE  H18X13830   3.164   1.791   5.163 -0.0498 -0.8444 -2.2554
  128SOPE  H18Y13831   3.027   1.812   5.290  2.2090 -0.8161  0.5961
  128SOPE  H18Z13832   3.013   1.864   5.114 -1.3372 -0.3687  0.4107
  129OSM      N13833   5.806   4.753   7.758  0.4473 -0.1384 -0.0306
  129OSM    C1513834   5.784   4.889   7.704  0.6040  0.1497  0.5093
  129OSM   H15A13835   5.862   4.961   7.723 -0.0623  1.7130 -2.0096
  129OSM   H15B13836   5.695   4.945   7.732  1.0126  2.2908 -2.0096
  129OSM   H15C13837   5.786   4.880   7.596 -1.5724  0.5766  0.3696
  129OSM    C1413838   5.830   4.757   7.905 -0.0238 -0.3195  0.1981
  129OSM   H14A13839   5.831   4.654   7.940  1.0411 -1.0242 -1.7261
  129OSM   H14B13840   5.753   4.814   7.953 -1.7495  0.5262 -3.2716
  129OSM   H14C13841   5.925   4.804   7.927  0.2497 -1.8645  2.7629
  129OSM    C1313842   5.675   4.675   7.735  0.0619 -0.0791  0.0144
  129OSM   H13A13843   5.667   4.665   7.628 -1.0370  0.0863  0.0698
  129OSM   H13B13844   5.589   4.735   7.760  0.9443  1.3951 -0.3568
  129OSM   H13C13845   5.666   4.579   7.783 -3.5624 -0.0344 -0.2775
  129OSM    C1213846   5.912   4.670   7.693  0.6030 -0.0787 -0.8604
  129OSM   H12A13847   5.915   4.572   7.737  2.4657  0.7259  0.9664
  129OSM   H12B13848   6.007   4.716   7.714  0.6263 -0.8329  0.7636
  129OSM    C1113849   5.901   4.665   7.538 -0.5701 -0.4643  0.3972
  129OSM   H11A13850   5.998   4.639   7.491 -1.3654 -0.2850 -1.4290
  129OSM   H11B13851   5.882   4.767   7.499  0.2343 -0.5715 -0.3047
  129OSM      P13852   5.831   4.424   7.478  0.0525  0.3988 -0.0833
  129OSM    O1313853   5.974   4.385   7.491  0.3163 -0.0240  0.3538
  129OSM    O1413854   5.736   4.345   7.553 -0.0798 -0.1982 -0.2915
  129OSM    O1113855   5.798   4.424   7.327  0.4712 -0.6058  1.0016
  129OSM    O1213856   5.800   4.578   7.497 -0.3975 -0.0838  0.6265
  129OSM    C1S13857   5.844   4.530   7.244 -0.0618  0.3376 -1.0037
  129OSM    H1S13858   5.943   4.568   7.276  0.7159 -1.0849 -1.5991
  129OSM    H1T13859   5.785   4.624   7.250  1.6168  1.7117 -3.8659
  129OSM     NF13860   5.887   4.608   7.016  0.2087 -0.0027 -0.5656
  129OSM    HNF13861   5.827   4.661   6.957 -0.8282 -0.9985 -0.4482
  129OSM    C2S13862   5.829   4.499   7.092 -0.0291  0.7400  0.1162
  129OSM    H2S13863   5.897   4.411   7.090  1.6670  1.9982 -0.5237
  129OSM    C3S13864   5.687   4.458   7.046 -0.1470  0.5932 -0.1681
  129OSM    H3S13865   5.625   4.550   7.035 -1.1833 -0.1405 -0.7175
  129OSM     O313866   5.611   4.377   7.137 -0.1671  0.1785  0.2385
  129OSM    HO313867   5.643   4.407   7.223  3.0436  0.2645 -0.8807
  129OSM    C4S13868   5.700   4.396   6.909  0.0964 -0.3514  0.1111
  129OSM    H4S13869   5.713   4.471   6.828 -1.2546  0.6994  0.8176
  129OSM    C5S13870   5.696   4.260   6.880  0.3203 -0.2713  0.1346
  129OSM    H5S13871   5.677   4.190   6.963 -0.5169 -0.8044 -0.4874
  129OSM    C6S13872   5.711   4.209   6.739  0.3762  0.3070 -0.0304
  129OSM    H6S13873   5.637   4.131   6.711  0.5038  0.0408  0.3687
  129OSM    H6T13874   5.810   4.159   6.736  0.3301  0.2237 -0.1700
  129OSM    C7S13875   5.711   4.321   6.628  0.2029  0.2675  0.2373
  129OSM    H7S13876   5.783   4.403   6.649  0.7766 -0.1551 -0.0437
  129OSM    H7T13877   5.604   4.350   6.621  0.2090  0.3144  0.3486
  129OSM    C8S13878   5.751   4.258   6.490 -0.6334  0.3907 -0.0761
  129OSM    H8S13879   5.663   4.198   6.458 -0.2120 -0.2057 -0.1331
  129OSM    H8T13880   5.830   4.181   6.505  0.2664  1.3364  0.1970
  129OSM    C9S13881   5.801   4.351   6.386  0.2207  0.3317  0.0224
  129OSM    H9S13882   5.893   4.399   6.425 -0.0322 -0.2947  1.4892
  129OSM    H9T13883   5.731   4.423   6.340  0.1999 -1.3949 -2.8936
  129OSM   C10S13884   5.865   4.269   6.268 -0.0915 -0.0668 -0.1993
  129OSM   H10S13885   5.781   4.220   6.214  0.1918 -1.1261  0.3008
  129OSM   H10T13886   5.930   4.191   6.314  2.3874  1.0665 -1.5827
  129OSM   C11S13887   5.947   4.350   6.166  0.9939 -0.0809  0.1508
  129OSM   H11S13888   6.047   4.378   6.206  0.1562  0.9420  1.6352
  129OSM   H11T13889   5.877   4.435   6.154  0.9535 -0.2698 -1.0901
  129OSM   C12S13890   5.947   4.291   6.025 -0.0857 -0.3254  0.1654
  129OSM   H12S13891   5.841   4.264   6.005  0.5584 -3.2864  0.2859
  129OSM   H12T13892   5.999   4.193   6.021  0.2753 -0.2218  1.6480
  129OSM   C13S13893   6.011   4.388   5.918  0.3269 -0.1389  0.2574
  129OSM   H13S13894   6.116   4.412   5.944  0.6284 -1.5270  0.3944
  129OSM   H13T13895   5.951   4.481   5.915 -0.7495 -0.8279 -1.2846
  129OSM   C14S13896   5.998   4.336   5.776 -0.4509 -0.2469 -0.3107
  129OSM   H14S13897   5.908   4.273   5.770 -0.2964 -0.4382 -0.6428
  129OSM   H14T13898   6.080   4.263   5.761  0.1839 -0.1154  2.0381
  129OSM   C15S13899   6.004   4.434   5.657 -0.6380 -0.4495 -0.0038
  129OSM   H15S13900   6.099   4.490   5.668 -2.1624  1.9624  2.2274
  129OSM   H15T13901   5.932   4.519   5.661  0.3814  0.4980 -1.0685
  129OSM   C16S13902   5.996   4.362   5.518 -0.0395  0.1514  0.3635
  129OSM   H16S13903   6.004   4.436   5.436  0.8150  2.0176  2.0682
  129OSM   H16T13904   5.890   4.327   5.508 -0.7826  2.7434 -2.0236
  129OSM   C17S13905   6.098   4.251   5.491  0.2530  0.1251 -1.1139
  129OSM   H17S13906   6.075   4.164   5.556  1.6250  0.3665 -0.2592
  129OSM   H17T13907   6.200   4.290   5.510 -0.5933  0.9372  2.5653
  129OSM   C18S13908   6.090   4.217   5.346 -0.0082  0.1259  0.3709
  129OSM   H18S13909   6.184   4.161   5.328  0.1617  0.3175  0.6501
  129OSM   H18T13910   6.101   4.302   5.275 -2.0626  0.3403  0.2223
  129OSM   H18U13911   6.001   4.156   5.318  0.1707 -1.3921  2.8409
  129OSM    C1F13912   6.013   4.639   7.006 -0.0051  0.5300 -0.2531
  129OSM     OF13913   6.090   4.582   7.082 -0.1118  0.4441  0.0397
  129OSM    C2F13914   6.051   4.731   6.897 -0.7649  0.0437 -0.2564
  129OSM    H2F13915   5.983   4.819   6.904 -0.5719  0.3723 -2.0629
  129OSM    H2G13916   6.038   4.678   6.800 -0.6805  1.6800 -1.2024
  129OSM    C3F13917   6.200   4.772   6.902  0.4506  0.3410 -0.0160
  129OSM    H3F13918   6.261   4.682   6.924 -0.6202  0.0640  2.1006
  129OSM    H3G13919   6.220   4.841   6.987 -0.2789  0.2428  0.2459
  129OSM    C4F13920   6.255   4.846   6.780  0.0724 -0.6755 -0.2159
  129OSM    H4F13921   6.357   4.888   6.790 -0.4015  0.5711 -0.4386
  129OSM    H4G13922   6.194   4.938   6.765  1.6852  0.8746  2.1030
  129OSM    C5F13923   6.263   4.760   6.659 -0.3150 -0.0195  1.2780
  129OSM    H5F13924   6.162   4.717   6.641  0.6318 -0.9878 -2.7730
  129OSM    H5G13925   6.341   4.682   6.664  1.1281  1.0656 -1.5426
  129OSM    C6F13926   6.307   4.841   6.531  1.2192 -0.3731 -0.5149
  129OSM    H6F13927   6.401   4.899   6.543 -0.3091  2.1817 -0.0439
  129OSM    H6G13928   6.229   4.919   6.520  0.5132 -1.0023 -0.0576
  129OSM    C7F13929   6.319   4.764   6.401 -0.3332  0.5448  0.0484
  129OSM    H7F13930   6.227   4.701   6.401  0.8900 -1.3868  1.9974
  129OSM    H7G13931   6.415   4.708   6.396  1.4585  3.1461  2.6384
  129OSM    C8F13932   6.344   4.857   6.281 -0.2630  0.9857 -0.6606
  129OSM    H8F13933   6.442   4.907   6.296 -0.5153  1.5216 -0.7630
  129OSM    H8G13934   6.253   4.922   6.280 -0.6703  0.4303 -1.8092
  129OSM    C9F13935   6.352   4.781   6.149 -0.0760  0.8032 -0.2440
  129OSM    H9F13936   6.299   4.685   6.153  0.0135  0.6484 -2.1489
  129OSM   C10F13937   6.412   4.822   6.037 -0.1835 -0.0980  0.1527
  129OSM   H10F13938   6.396   4.761   5.947 -0.2591 -2.1449  1.4860
  129OSM   C11F13939   6.474   4.958   6.020  0.5479  0.3975  0.3736
  129OSM   H11F13940   6.580   4.934   5.998 -0.2314 -1.2428 -1.9780
  129OSM   H11G13941   6.472   5.032   6.103 -1.2127  1.5438 -0.6262
  129OSM   C12F13942   6.401   5.037   5.904  0.1594 -0.9025  1.0496
  129OSM   H12F13943   6.306   5.077   5.946 -0.3495 -2.5052  1.5236
  129OSM   H12G13944   6.387   4.971   5.816  1.0818 -0.8978  0.8918
  129OSM   C13F13945   6.483   5.155   5.846 -0.1491  0.0398 -0.2591
  129OSM   H13F13946   6.583   5.112   5.825 -1.2641 -2.3267 -1.0615
  129OSM   H13G13947   6.489   5.242   5.916  1.1058 -0.7229  0.6220
  129OSM   C14F13948   6.424   5.203   5.709  0.3095 -0.3493 -0.0410
  129OSM   H14F13949   6.464   5.305   5.693 -0.4212 -0.0979 -0.3000
  129OSM   H14G13950   6.313   5.209   5.707  0.3504  1.0990  0.4888
  129OSM   C15F13951   6.466   5.121   5.589  0.3459 -0.1595 -0.3465
  129OSM   H15F13952   6.410   5.025   5.595 -0.1278  0.1546  0.3934
  129OSM   H15G13953   6.570   5.085   5.602 -0.5662 -2.3590  1.5979
  129OSM   C16F13954   6.434   5.195   5.456  0.3251  0.2954  0.0635
  129OSM   H16F13955   6.510   5.273   5.438 -0.6729  1.1980 -0.3546
  129OSM   H16G13956   6.330   5.235   5.461 -0.3247 -1.2141 -0.5950
  129OSM   C17F13957   6.427   5.104   5.334  0.3095  0.2984  0.6441
  129OSM   H17F13958   6.359   5.018   5.353  0.5590 -0.1013 -0.1823
  129OSM   H17G13959   6.528   5.059   5.321 -0.2086 -0.9170  0.6571
  129OSM   C18F13960   6.399   5.165   5.200 -0.3948  0.0377 -0.4810
  129OSM   H18F13961   6.399   5.100   5.110 -0.6353 -1.0275  0.2692
  129OSM   H18G13962   6.480   5.237   5.179 -0.1571 -0.4418 -1.2652
  129OSM   H18H13963   6.309   5.229   5.190 -0.5732 -0.4699 -2.8806
  130OSM      N13964   6.554   5.188   8.017  0.0982 -0.0676 -0.0556
  130OSM    C1513965   6.470   5.106   7.930  0.1973 -0.4150  0.5828
  130OSM   H15A13966   6.525   5.070   7.845 -3.2933 -1.0077 -1.6310
  130OSM   H15B13967   6.388   5.161   7.886 -1.4371 -2.0870  1.3838
  130OSM   H15C13968   6.436   5.016   7.980  0.6881  0.4546  2.5750
  130OSM    C1413969   6.469   5.238   8.129 -0.0509  0.1420  0.2459
  130OSM   H14A13970   6.526   5.312   8.184  1.0265  0.9514 -1.8257
  130OSM   H14B13971   6.442   5.157   8.195  1.5123 -1.9509 -1.5243
  130OSM   H14C13972   6.377   5.287   8.100 -0.9566 -2.2209 -1.1865
  130OSM    C1313973   6.674   5.107   8.058  0.5859 -0.2609 -0.2737
  130OSM   H13A13974   6.637   5.029   8.122  0.2818  0.7710  0.8530
  130OSM   H13B13975   6.741   5.179   8.104 -0.8529  1.3502 -0.5724
  130OSM   H13C13976   6.724   5.061   7.974 -0.2156 -0.9427 -0.3874
  130OSM    C1213977   6.603   5.310   7.937 -0.3479 -0.2989 -0.2167
  130OSM   H12A13978   6.516   5.370   7.913  1.5569  1.9471 -2.0543
  130OSM   H12B13979   6.639   5.279   7.840  0.5402  0.6378 -0.2108
  130OSM    C1113980   6.711   5.399   7.999  0.5376 -0.8208 -0.3409
  130OSM   H11A13981   6.676   5.431   8.099  0.8387  0.8946 -0.7479
  130OSM   H11B13982   6.706   5.491   7.937  1.5688  0.4818  1.3920
  130OSM      P13983   6.922   5.341   7.861  0.0373 -0.0637 -0.1561
  130OSM    O1313984   6.991   5.474   7.849  0.1319 -0.3134 -0.3261
  130OSM    O1413985   7.017   5.225   7.846  0.1311  0.3925 -0.0440
  130OSM    O1113986   6.816   5.336   7.750  0.4209 -0.0080  0.7679
  130OSM    O1213987   6.840   5.334   7.997  0.2442 -0.0996  0.1860
  130OSM    C1S13988   6.846   5.288   7.619  0.1774 -0.6846 -0.6930
  130OSM    H1S13989   6.858   5.178   7.626  1.5712 -0.4422  1.6764
  130OSM    H1T13990   6.945   5.325   7.585  0.0081  0.7776  0.2861
  130OSM     NF13991   6.761   5.249   7.394  0.3864  0.5160 -0.5078
  130OSM    HNF13992   6.816   5.292   7.323  0.1227  1.2593 -0.2760
  130OSM    C2S13993   6.739   5.328   7.513 -0.4131 -0.3497 -0.9359
  130OSM    H2S13994   6.641   5.293   7.552  0.1211 -0.2143  0.5754
  130OSM    C3S13995   6.726   5.484   7.501 -0.9296  0.3029 -0.3370
  130OSM    H3S13996   6.824   5.523   7.465 -0.5353  0.2430  0.6478
  130OSM     O313997   6.697   5.539   7.627 -0.0184  0.4263 -0.3957
  130OSM    HO313998   6.707   5.474   7.697  0.3681 -0.3041 -1.1175
  130OSM    C4S13999   6.610   5.517   7.412 -0.0392  0.1087 -0.2900
  130OSM    H4S14000   6.512   5.472   7.437 -0.3487 -0.0526 -1.7213
  130OSM    C5S14001   6.624   5.579   7.290  0.3403 -0.1310  0.2816
  130OSM    H5S14002   6.718   5.628   7.259  0.5197  2.4127  4.1036
  130OSM    C6S14003   6.508   5.585   7.191  0.5706 -0.4018 -0.1800
  130OSM    H6S14004   6.421   5.636   7.238  0.1340 -0.6003 -0.7527
  130OSM    H6T14005   6.473   5.485   7.159  3.1525 -1.6366  0.6243
  130OSM    C7S14006   6.525   5.670   7.059  0.9946  0.7920  0.4211
  130OSM    H7S14007   6.629   5.647   7.027  0.8103  0.0485  0.3205
  130OSM    H7T14008   6.524   5.776   7.090 -1.4931  1.0558 -0.3765
  130OSM    C8S14009   6.406   5.654   6.954 -0.8501 -0.1796  0.0352
  130OSM    H8S14010   6.304   5.675   6.990 -1.0634  0.0079 -0.6705
  130OSM    H8T14011   6.398   5.549   6.916  0.7471 -0.8096  1.3299
  130OSM    C9S14012   6.435   5.748   6.832 -0.9388 -0.5502 -0.1776
  130OSM    H9S14013   6.537   5.730   6.791 -0.6505 -0.3886  0.4547
  130OSM    H9T14014   6.432   5.855   6.863 -1.1876 -0.0366 -1.8288
  130OSM   C10S14015   6.330   5.726   6.714  0.2898  0.3840 -0.1021
  130OSM   H10S14016   6.231   5.751   6.758  2.2418  0.7939  4.6222
  130OSM   H10T14017   6.321   5.619   6.684  2.4932  0.5124 -1.4636
  130OSM   C11S14018   6.373   5.828   6.605  0.4985  0.3514  0.2467
  130OSM   H11S14019   6.479   5.816   6.572  0.5440 -3.8258  1.3664
  130OSM   H11T14020   6.352   5.924   6.657 -1.3963  0.6745 -1.0040
  130OSM   C12S14021   6.276   5.821   6.483  0.6697 -0.1059  0.2546
  130OSM   H12S14022   6.177   5.861   6.512  0.3346 -1.4724  1.0484
  130OSM   H12T14023   6.261   5.718   6.444 -1.6870  2.0235 -5.4818
  130OSM   C13S14024   6.326   5.907   6.364 -0.0854 -0.0340  1.0909
  130OSM   H13S14025   6.420   5.879   6.311 -1.2510  2.2346 -2.5019
  130OSM   H13T14026   6.345   6.012   6.394  1.3578 -0.8997  3.6190
  130OSM   C14S14027   6.221   5.905   6.244 -0.1064 -0.4363 -0.2741
  130OSM   H14S14028   6.123   5.942   6.282 -1.9728 -3.2122 -2.0133
  130OSM   H14T14029   6.207   5.796   6.227 -1.3817 -0.3311 -0.0248
  130OSM   C15S14030   6.263   5.955   6.103 -0.1072 -0.0719  0.1043
  130OSM   H15S14031   6.348   5.896   6.064  0.1648  1.2172 -1.3608
  130OSM   H15T14032   6.291   6.061   6.123 -3.1067  0.3444  3.0337
  130OSM   C16S14033   6.151   5.961   5.998  0.1937 -0.7277 -0.2434
  130OSM   H16S14034   6.072   6.033   6.028  0.0069 -0.5684 -1.1016
  130OSM   H16T14035   6.103   5.861   5.992 -1.6093  0.1724 -1.6417
  130OSM   C17S14036   6.192   6.009   5.864  0.2412  0.9288 -0.0100
  130OSM   H17S14037   6.291   5.964   5.839  0.0837  1.1489 -1.0621
  130OSM   H17T14038   6.227   6.114   5.872 -1.4648  1.4106  1.5956
  130OSM   C18S14039   6.096   5.993   5.747  0.1105  0.1209  0.6825
  130OSM   H18S14040   6.062   5.888   5.741 -1.4983  0.4935  2.3398
  130OSM   H18T14041   6.151   6.012   5.653  4.4016 -0.9626  2.7115
  130OSM   H18U14042   6.006   6.058   5.741  0.1919  0.1071 -1.2489
  130OSM    C1F14043   6.747   5.123   7.395  0.5577  0.2997 -0.1126
  130OSM     OF14044   6.716   5.063   7.497  0.3406  0.3837 -0.5198
  130OSM    C2F14045   6.783   5.060   7.261 -1.0487 -0.0927 -0.4417
  130OSM    H2F14046   6.894   5.055   7.261 -0.9852  0.9657 -0.0606
  130OSM    H2G14047   6.753   5.122   7.173 -2.8384 -2.8922 -1.9285
  130OSM    C3F14048   6.721   4.921   7.246 -0.0901 -0.0523 -0.1924
  130OSM    H3F14049   6.610   4.926   7.255 -0.0755 -1.0597  0.6529
  130OSM    H3G14050   6.756   4.856   7.328 -0.1015 -0.7979 -0.7632
  130OSM    C4F14051   6.758   4.884   7.103  0.7672  0.0815 -0.1297
  130OSM    H4F14052   6.869   4.883   7.109  0.7446  0.1611  0.3347
  130OSM    H4G14053   6.726   4.952   7.021  0.9713 -0.0466 -0.3174
  130OSM    C5F14054   6.712   4.741   7.079 -1.2399 -0.4874  0.0643
  130OSM    H5F14055   6.605   4.726   7.102 -1.7039 -0.4984 -1.8994
  130OSM    H5G14056   6.770   4.676   7.148  0.2111  0.4798 -0.1826
  130OSM    C6F14057   6.723   4.693   6.931 -0.1783 -1.1982 -0.3883
  130OSM    H6F14058   6.664   4.761   6.864 -0.9757 -0.9751  0.5159
  130OSM    H6G14059   6.679   4.591   6.919 -2.9446 -0.2785  1.0243
  130OSM    C7F14060   6.868   4.699   6.872 -0.0698  0.8486  0.2067
  130OSM    H7F14061   6.932   4.640   6.940 -1.9326 -1.2340  0.3003
  130OSM    H7G14062   6.906   4.803   6.872  0.8008  0.5344  0.6159
  130OSM    C8F14063   6.878   4.645   6.727  0.2116 -0.1276 -0.4282
  130OSM    H8F14064   6.974   4.675   6.680  0.3887  0.4725  0.3030
  130OSM    H8G14065   6.802   4.699   6.667 -1.2290 -0.3164  1.1390
  130OSM    C9F14066   6.849   4.498   6.720 -0.4846 -0.8875 -0.9849
  130OSM    H9F14067   6.925   4.451   6.785 -0.1696  2.0782  1.0143
  130OSM   C10F14068   6.766   4.431   6.634 -0.6977  1.2004  0.1904
  130OSM   H10F14069   6.754   4.322   6.635 -0.4307  1.1699  0.1068
  130OSM   C11F14070   6.668   4.477   6.527  0.9683  0.4213  0.3913
  130OSM   H11F14071   6.654   4.587   6.533  1.5958  0.5217  0.0375
  130OSM   H11G14072   6.568   4.431   6.545  0.3002  1.1595 -1.2047
  130OSM   C12F14073   6.702   4.445   6.382  0.0200 -0.0363  0.4739
  130OSM   H12F14074   6.633   4.497   6.312  1.1269  1.0111  0.1354
  130OSM   H12G14075   6.694   4.337   6.356  0.0969  0.0477  0.1029
  130OSM   C13F14076   6.843   4.486   6.331  0.3366 -0.0540  0.2165
  130OSM   H13F14077   6.919   4.436   6.396  2.6324  4.0473  1.0201
  130OSM   H13G14078   6.842   4.591   6.367 -2.9081 -0.0382  0.2954
  130OSM   C14F14079   6.860   4.465   6.181 -0.4764 -0.1761  0.3177
  130OSM   H14F14080   6.777   4.513   6.125  0.3701 -0.0074 -0.8199
  130OSM   H14G14081   6.858   4.358   6.151 -1.7150  0.3603 -1.7267
  130OSM   C15F14082   6.983   4.536   6.127  0.0366 -0.2351  0.0330
  130OSM   H15F14083   7.016   4.610   6.204 -0.7836 -0.8182  0.9652
  130OSM   H15G14084   6.965   4.598   6.037 -0.8364  1.1712  1.1231
  130OSM   C16F14085   7.091   4.434   6.093 -0.7415  0.1607 -0.2980
  130OSM   H16F14086   7.063   4.355   6.021  1.8174 -0.9664 -0.1889
  130OSM   H16G14087   7.116   4.377   6.185 -0.1322 -3.0129 -2.2916
  130OSM   C17F14088   7.227   4.484   6.033 -0.7167 -0.7004 -0.4286
  130OSM   H17F14089   7.289   4.393   6.018 -0.8863 -1.0415  0.8751
  130OSM   H17G14090   7.272   4.552   6.108  1.5103 -0.8067 -1.5796
  130OSM   C18F14091   7.215   4.566   5.901 -0.1107  0.1853 -0.2694
  130OSM   H18F14092   7.119   4.623   5.900 -0.4274 -0.3367 -1.5192
  130OSM   H18G14093   7.214   4.490   5.820  1.4735 -0.0601 -0.0918
  130OSM   H18H14094   7.302   4.632   5.883 -0.4930  0.0869 -2.9117
  131OSM      N14095   6.643   0.079   7.730 -0.2552  0.3981  0.2302
  131OSM    C1514096   6.754   0.171   7.702 -0.2518 -0.7516  0.0279
  131OSM   H15A14097   6.773   0.236   7.786 -1.2063  1.3217 -1.2735
  131OSM   H15B14098   6.734   0.236   7.617 -0.2990 -0.9038 -0.0778
  131OSM   H15C14099   6.851   0.129   7.680  0.4534  1.0935 -0.6051
  131OSM    C1414100   6.675  -0.023   7.828  0.3377 -0.3170 -0.5683
  131OSM   H14A14101   6.742  -0.098   7.787 -0.5512 -0.9146 -0.9580
  131OSM   H14B14102   6.584  -0.067   7.865 -0.0088  1.9532  1.5106
  131OSM   H14C14103   6.716   0.018   7.919  1.2452 -0.8119 -0.7360
  131OSM    C1314104   6.523   0.157   7.782  0.5545  0.8106 -0.6115
  131OSM   H13A14105   6.497   0.240   7.719 -3.8070  0.3906  0.2992
  131OSM   H13B14106   6.553   0.211   7.871  2.0357 -1.1795  0.1680
  131OSM   H13C14107   6.430   0.103   7.792  0.7015  0.6309 -0.1879
  131OSM    C1214108   6.604   0.009   7.602  0.4326  0.8443 -0.7299
  131OSM   H12A14109   6.573   0.082   7.529 -0.8406 -0.0470 -1.1134
  131OSM   H12B14110   6.514  -0.043   7.630 -0.3781  1.9280 -1.2404
  131OSM    C1114111   6.706  -0.085   7.525  0.1812  0.3654  0.0047
  131OSM   H11A14112   6.798  -0.029   7.497  0.3863 -0.6359 -1.4553
  131OSM   H11B14113   6.670  -0.107   7.422  0.4482  0.8606 -0.2015
  131OSM      P14114   6.674  -0.336   7.587  0.0604  0.1539  0.0655
  131OSM    O1314115   6.752  -0.454   7.636 -0.0717  0.0195 -0.3137
  131OSM    O1414116   6.537  -0.332   7.636 -0.3544 -0.1672  0.2439
  131OSM    O1114117   6.667  -0.347   7.429 -0.3530 -0.0203  0.4000
  131OSM    O1214118   6.748  -0.196   7.614  0.1633  0.2179  0.0793
  131OSM    C1S14119   6.784  -0.358   7.354 -0.3307 -0.7506  0.1991
  131OSM    H1S14120   6.857  -0.437   7.380  0.0323  0.1091  1.9959
  131OSM    H1T14121   6.845  -0.271   7.386  0.1588 -1.5409  1.4832
  131OSM     NF14122   6.889  -0.353   7.129 -0.0478  0.3341 -0.6979
  131OSM    HNF14123   6.901  -0.277   7.066 -3.3926  1.4238 -0.2132
  131OSM    C2S14124   6.764  -0.366   7.197  0.8443  0.0395 -0.2830
  131OSM    H2S14125   6.726  -0.468   7.174  2.2880 -0.7711  0.7615
  131OSM    C3S14126   6.653  -0.270   7.150  0.1684 -0.7303 -0.0972
  131OSM    H3S14127   6.683  -0.166   7.175  1.5044 -0.0559 -3.8604
  131OSM     O314128   6.528  -0.274   7.221 -0.0059  0.4779  0.0898
  131OSM    HO314129   6.551  -0.319   7.303  1.0452 -0.7706 -0.8405
  131OSM    C4S14130   6.643  -0.290   6.998  0.2054 -0.6982  0.2866
  131OSM    H4S14131   6.708  -0.223   6.939 -0.7276  0.4912  0.5494
  131OSM    C5S14132   6.562  -0.366   6.927 -0.0245  0.7766  0.2041
  131OSM    H5S14133   6.492  -0.435   6.978 -1.2291 -0.4074 -2.8330
  131OSM    C6S14134   6.549  -0.383   6.777 -0.2424 -0.1724  0.0520
  131OSM    H6S14135   6.446  -0.359   6.742  0.7039  4.3523 -0.3015
  131OSM    H6T14136   6.566  -0.485   6.738 -0.2316 -0.2522  0.2640
  131OSM    C7S14137   6.642  -0.292   6.698  0.0619 -1.0215 -0.0467
  131OSM    H7S14138   6.749  -0.304   6.724  1.0263  0.2084 -3.0330
  131OSM    H7T14139   6.614  -0.187   6.722  0.1916 -0.4446 -2.2363
  131OSM    C8S14140   6.611  -0.301   6.549 -0.6916  0.2571  0.1952
  131OSM    H8S14141   6.602  -0.409   6.525 -1.2154  0.7348 -2.0244
  131OSM    H8T14142   6.687  -0.267   6.475 -1.4886 -1.4599 -1.5127
  131OSM    C9S14143   6.482  -0.245   6.501  0.3031 -0.2018  0.7441
  131OSM    H9S14144   6.434  -0.172   6.570 -0.8332 -0.4449  0.2333
  131OSM    H9T14145   6.410  -0.329   6.497 -0.0176  0.1202 -0.8706
  131OSM   C10S14146   6.483  -0.206   6.354  0.5498 -0.2500  0.7147
  131OSM   H10S14147   6.545  -0.115   6.335 -1.4201  0.7868 -1.2579
  131OSM   H10T14148   6.380  -0.178   6.323  0.5456  0.0272  0.9744
  131OSM   C11S14149   6.534  -0.324   6.264  0.6689 -1.2409 -0.5378
  131OSM   H11S14150   6.454  -0.400   6.263 -0.6506  0.0948 -0.9192
  131OSM   H11T14151   6.623  -0.374   6.308 -0.5525 -1.7012  1.5539
  131OSM   C12S14152   6.567  -0.284   6.122  0.3097  0.4155  0.2103
  131OSM   H12S14153   6.653  -0.342   6.080 -0.7898 -1.0574 -0.0685
  131OSM   H12T14154   6.598  -0.177   6.113 -0.1970  0.6093  0.7542
  131OSM   C13S14155   6.456  -0.304   6.025 -0.3206 -0.3650  0.3156
  131OSM   H13S14156   6.364  -0.246   6.045 -0.7160 -1.7136  2.8198
  131OSM   H13T14157   6.424  -0.411   6.029  0.3272 -0.5429  0.8960
  131OSM   C14S14158   6.506  -0.268   5.882 -0.2550  0.1865  1.0074
  131OSM   H14S14159   6.611  -0.302   5.866 -0.4167 -0.1578  0.6601
  131OSM   H14T14160   6.521  -0.158   5.880 -2.8892  0.6817  2.8536
  131OSM   C15S14161   6.419  -0.331   5.767 -0.7164 -0.8565 -0.2708
  131OSM   H15S14162   6.314  -0.321   5.800 -0.4788  0.9479  0.0093
  131OSM   H15T14163   6.447  -0.439   5.773  3.3437  0.1093  2.2635
  131OSM   C16S14164   6.451  -0.277   5.626 -0.4401  0.1342 -0.3196
  131OSM   H16S14165   6.386  -0.333   5.556 -1.0524  0.5455 -0.0839
  131OSM   H16T14166   6.560  -0.294   5.612  0.0781  0.3651  2.6795
  131OSM   C17S14167   6.429  -0.128   5.606 -0.1189 -0.2794 -0.1700
  131OSM   H17S14168   6.499  -0.074   5.673 -0.0827 -0.2312 -0.2473
  131OSM   H17T14169   6.321  -0.114   5.631 -0.4051 -1.2647 -0.7869
  131OSM   C18S14170   6.453  -0.107   5.458 -0.2089 -0.7564  0.5613
  131OSM   H18S14171   6.389  -0.174   5.396 -0.6095 -0.5483  0.7512
  131OSM   H18T14172   6.559  -0.131   5.435 -0.7179 -0.5127 -2.4472
  131OSM   H18U14173   6.443  -0.003   5.419  0.1401 -0.8991  0.0795
  131OSM    C1F14174   6.987  -0.445   7.135 -0.2327 -0.9150  0.4681
  131OSM     OF14175   6.960  -0.555   7.181  0.0620  0.1074 -0.0947
  131OSM    C2F14176   7.123  -0.414   7.074  0.3892  0.6740 -0.3038
  131OSM    H2F14177   7.197  -0.400   7.155  0.3108 -1.5296  0.1999
  131OSM    H2G14178   7.116  -0.332   6.999 -1.9047 -0.4102 -1.3786
  131OSM    C3F14179   7.178  -0.532   6.990  0.7950  0.1767 -0.0474
  131OSM    H3F14180   7.170  -0.627   7.046 -3.3299 -0.1524 -0.8752
  131OSM    H3G14181   7.287  -0.515   6.977  0.7493 -1.0195 -2.3659
  131OSM    C4F14182   7.101  -0.550   6.854  1.2986 -0.0612  0.1381
  131OSM    H4F14183   6.992  -0.568   6.866  0.9102  2.3418  0.6176
  131OSM    H4G14184   7.138  -0.640   6.799  0.0735 -1.1476  1.0172
  131OSM    C5F14185   7.111  -0.439   6.751 -0.1826 -0.4031  0.3845
  131OSM    H5F14186   7.219  -0.440   6.726  0.0675  1.8452  1.1693
  131OSM    H5G14187   7.086  -0.343   6.801  0.7868  0.3740 -0.5791
  131OSM    C6F14188   7.030  -0.454   6.617 -0.5624 -0.1785  0.0560
  131OSM    H6F14189   6.925  -0.425   6.636 -0.4564  0.2677 -0.0114
  131OSM    H6G14190   7.036  -0.559   6.584 -1.8252 -0.0313 -0.6902
  131OSM    C7F14191   7.082  -0.362   6.502  0.5768  0.9289 -0.8734
  131OSM    H7F14192   7.191  -0.377   6.487  0.4825  0.0090 -0.6996
  131OSM    H7G14193   7.062  -0.255   6.525 -4.1656  0.9029 -3.4141
  131OSM    C8F14194   6.996  -0.385   6.375  0.8868  0.0499 -0.4644
  131OSM    H8F14195   6.894  -0.353   6.406 -0.3132 -2.4765 -1.5296
  131OSM    H8G14196   6.973  -0.494   6.365  1.9048 -0.1416 -0.7745
  131OSM    C9F14197   7.047  -0.320   6.241 -0.2017  0.2959 -0.4176
  131OSM    H9F14198   7.106  -0.228   6.252 -0.9496  0.8624 -1.0537
  131OSM   C10F14199   7.033  -0.353   6.110  0.3090  0.4709 -0.4429
  131OSM   H10F14200   7.083  -0.297   6.029  2.2238 -0.6866 -0.1094
  131OSM   C11F14201   6.961  -0.478   6.062 -0.0383 -0.2479 -0.0677
  131OSM   H11F14202   6.873  -0.433   6.010 -0.4873  0.6859  1.4491
  131OSM   H11G14203   6.924  -0.539   6.148 -0.4140  0.4523  0.2773
  131OSM   C12F14204   7.048  -0.562   5.961 -0.4208  0.3025 -0.1779
  131OSM   H12F14205   7.005  -0.664   5.962 -2.1498  0.9768  0.7520
  131OSM   H12G14206   7.147  -0.563   6.011 -1.5982 -2.1926  2.3828
  131OSM   C13F14207   7.053  -0.494   5.826  0.4665 -0.2001 -0.1020
  131OSM   H13F14208   7.153  -0.511   5.781 -0.3363 -0.9317 -1.6988
  131OSM   H13G14209   7.037  -0.385   5.839 -0.1098  0.1181 -2.7645
  131OSM   C14F14210   6.954  -0.556   5.721 -0.3628 -0.3644 -0.3275
  131OSM   H14F14211   6.852  -0.578   5.760 -0.7129 -0.3228 -1.1965
  131OSM   H14G14212   6.991  -0.660   5.705 -0.6274 -0.9424  2.3996
  131OSM   C15F14213   6.963  -0.483   5.589 -0.0441  0.6530 -0.6730
  131OSM   H15F14214   7.065  -0.469   5.549  1.3768 -3.0831  1.1742
  131OSM   H15G14215   6.907  -0.388   5.601 -0.6541  0.4050 -1.4913
  131OSM   C16F14216   6.895  -0.561   5.472  0.0555 -0.6622 -0.5977
  131OSM   H16F14217   6.788  -0.556   5.502  0.3111 -1.2292  0.4500
  131OSM   H16G14218   6.931  -0.663   5.448 -3.3377 -1.1593 -4.8904
  131OSM   C17F14219   6.914  -0.481   5.340 -0.6111 -0.2031 -0.4333
  131OSM   H17F14220   7.021  -0.493   5.312  0.1368  1.5833  1.4347
  131OSM   H17G14221   6.884  -0.375   5.350  0.5739 -0.0264  1.7039
  131OSM   C18F14222   6.824  -0.542   5.229 -0.1069 -0.0025  0.4668
  131OSM   H18F14223   6.843  -0.495   5.130  0.2882 -1.1347 -0.0132
  131OSM   H18G14224   6.715  -0.535   5.252 -0.1468 -1.0245  0.6647
  131OSM   H18H14225   6.857  -0.647   5.210 -0.0885  0.2720 -1.1595
  132OSM      N14226   6.666   2.596   7.223  0.4150  0.2396 -0.1262
  132OSM    C1514227   6.540   2.522   7.210  0.2645  0.2096  0.0582
  132OSM   H15A14228   6.536   2.439   7.141 -1.9237 -1.3816  1.9627
  132OSM   H15B14229   6.461   2.585   7.172 -1.0888 -1.4925 -0.0383
  132OSM   H15C14230   6.499   2.487   7.303  0.8047  1.2152  0.6920
  132OSM    C1414231   6.661   2.677   7.354 -0.1303  0.2975  0.0500
  132OSM   H14A14232   6.631   2.621   7.442  0.8246  1.8780  1.4649
  132OSM   H14B14233   6.593   2.761   7.348 -1.1296 -0.6100 -2.0890
  132OSM   H14C14234   6.760   2.719   7.367 -0.5303  1.2606  0.0873
  132OSM    C1314235   6.765   2.491   7.256  0.4511  0.7693 -0.2500
  132OSM   H13A14236   6.789   2.429   7.171 -4.3808 -1.6373 -0.1937
  132OSM   H13B14237   6.737   2.428   7.340 -1.3406  2.2127  0.3039
  132OSM   H13C14238   6.861   2.532   7.287  1.2551 -2.0492  1.4224
  132OSM    C1214239   6.711   2.681   7.110 -0.1531  0.6210 -0.0667
  132OSM   H12A14240   6.639   2.759   7.089  0.3204  1.0984  0.0560
  132OSM   H12B14241   6.727   2.619   7.023  1.8663 -2.8582  2.5605
  132OSM    C1114242   6.838   2.760   7.124  0.7378 -0.1748 -0.2804
  132OSM   H11A14243   6.817   2.822   7.213  0.0001 -0.0082 -0.5585
  132OSM   H11B14244   6.849   2.828   7.037 -1.9497  1.6090  0.6617
  132OSM      P14245   7.014   2.603   7.019 -0.0854 -0.1026 -0.0770
  132OSM    O1314246   7.114   2.510   7.070  0.4673  0.7389 -0.2687
  132OSM    O1414247   6.911   2.543   6.936 -0.1394 -0.1067  0.3518
  132OSM    O1114248   7.085   2.710   6.933  0.0141  0.6907 -0.8648
  132OSM    O1214249   6.947   2.673   7.142  0.5612  0.0129 -0.0194
  132OSM    C1S14250   7.185   2.669   6.834 -0.1714  0.2815  0.4474
  132OSM    H1S14251   7.189   2.568   6.787 -0.5388  0.8364 -0.8066
  132OSM    H1T14252   7.289   2.683   6.871 -0.1610 -0.3298  0.6644
  132OSM     NF14253   7.304   2.727   6.612  0.5003 -0.0709  0.4713
  132OSM    HNF14254   7.360   2.801   6.576  0.1353 -0.3648 -0.7646
  132OSM    C2S14255   7.192   2.760   6.707  0.3788  0.0517  0.4509
  132OSM    H2S14256   7.105   2.727   6.645  1.4216 -1.0471 -0.4752
  132OSM    C3S14257   7.167   2.913   6.732 -0.3894 -0.1606  0.1308
  132OSM    H3S14258   7.261   2.940   6.786 -0.3198 -3.6755  2.0576
  132OSM     O314259   7.054   2.940   6.816 -0.5799  0.2240 -0.7391
  132OSM    HO314260   7.037   2.853   6.854  1.1691  0.2799  0.2517
  132OSM    C4S14261   7.142   2.988   6.605 -0.0272 -0.0174  0.7934
  132OSM    H4S14262   7.215   3.070   6.595  0.8652 -0.9735 -0.9850
  132OSM    C5S14263   7.031   2.991   6.524  0.7491  0.1990  0.0535
  132OSM    H5S14264   6.945   2.927   6.548 -3.0116  4.2915 -1.1686
  132OSM    C6S14265   7.001   3.082   6.403  0.4768  0.0019  0.1465
  132OSM    H6S14266   6.917   3.152   6.426  2.8002  2.7054  0.9395
  132OSM    H6T14267   6.971   3.020   6.315 -1.8214  0.2240  0.7090
  132OSM    C7S14268   7.124   3.168   6.349 -0.3414  0.4479  1.2925
  132OSM    H7S14269   7.206   3.113   6.299 -0.9820  0.0017  0.7142
  132OSM    H7T14270   7.174   3.218   6.434  2.0903  0.6878 -0.1646
  132OSM    C8S14271   7.075   3.276   6.256  0.4009  0.3010 -0.4229
  132OSM    H8S14272   7.156   3.351   6.241  0.2359  0.5236 -0.1974
  132OSM    H8T14273   6.984   3.315   6.305 -0.6105 -1.4822 -0.8244
  132OSM    C9S14274   7.034   3.223   6.113  0.0129 -0.1823 -0.0418
  132OSM    H9S14275   6.963   3.302   6.081  1.3647  1.2232  0.2892
  132OSM    H9T14276   6.992   3.121   6.126 -0.0154 -0.1149  0.4172
  132OSM   C10S14277   7.151   3.191   6.022 -0.1165  0.0691  0.9201
  132OSM   H10S14278   7.215   3.121   6.079 -0.5044 -1.3958 -0.3527
  132OSM   H10T14279   7.206   3.287   6.011  0.4660 -0.4341 -1.1037
  132OSM   C11S14280   7.114   3.149   5.877 -0.4106 -0.9631  0.1116
  132OSM   H11S14281   7.065   3.237   5.830  0.6072  1.1350  2.7224
  132OSM   H11T14282   7.052   3.057   5.866  0.3080 -1.1938 -2.8234
  132OSM   C12S14283   7.243   3.126   5.797  0.4110 -0.6071 -0.2263
  132OSM   H12S14284   7.237   3.032   5.738  2.1835 -1.2080  0.4677
  132OSM   H12T14285   7.328   3.119   5.869  2.6136 -0.4552 -2.6601
  132OSM   C13S14286   7.274   3.238   5.693 -0.7083 -0.4981  0.3392
  132OSM   H13S14287   7.372   3.212   5.647 -1.0731 -3.5478  1.0916
  132OSM   H13T14288   7.296   3.335   5.742  0.4545  0.2219 -1.4849
  132OSM   C14S14289   7.179   3.269   5.579 -0.4978  0.4163 -0.2003
  132OSM   H14S14290   7.214   3.355   5.519 -0.6911  0.2804 -0.5140
  132OSM   H14T14291   7.081   3.303   5.619  0.8062  3.6793  0.4716
  132OSM   C15S14292   7.177   3.166   5.465 -0.1482 -0.4702 -0.0872
  132OSM   H15S14293   7.144   3.067   5.503 -0.6451 -0.6864 -1.0361
  132OSM   H15T14294   7.282   3.163   5.430  1.7244  1.1620  4.5757
  132OSM   C16S14295   7.102   3.205   5.335 -0.4714 -0.0162 -0.2214
  132OSM   H16S14296   7.103   3.121   5.262 -2.5419  0.6627 -1.1301
  132OSM   H16T14297   7.158   3.294   5.300 -1.3270  0.6236  0.0047
  132OSM   C17S14298   6.953   3.230   5.352 -0.0842 -0.4290  0.3925
  132OSM   H17S14299   6.929   3.321   5.410 -1.2213  0.5809 -1.5424
  132OSM   H17T14300   6.910   3.142   5.404  0.4183 -0.7279  0.3141
  132OSM   C18S14301   6.881   3.261   5.220  0.4066  0.2300 -0.3561
  132OSM   H18S14302   6.914   3.193   5.138 -0.9540  0.3938 -1.0699
  132OSM   H18T14303   6.906   3.366   5.194 -1.0940  0.9861  1.0739
  132OSM   H18U14304   6.771   3.261   5.239  0.1842  3.0448 -1.1025
  132OSM    C1F14305   7.326   2.608   6.558  0.4475  1.0790  0.8370
  132OSM     OF14306   7.265   2.504   6.588  0.3453 -0.2782 -0.7173
  132OSM    C2F14307   7.421   2.599   6.441 -0.9681 -0.6375 -0.5296
  132OSM    H2F14308   7.423   2.492   6.409 -0.9568 -0.4911 -1.0367
  132OSM    H2G14309   7.519   2.627   6.485 -2.3396  0.2498  2.1177
  132OSM    C3F14310   7.387   2.702   6.330 -0.8025 -0.1338  0.4435
  132OSM    H3F14311   7.475   2.685   6.264  0.4109 -0.7333  2.1519
  132OSM    H3G14312   7.400   2.807   6.365 -1.2337 -0.0362  0.3151
  132OSM    C4F14313   7.245   2.675   6.276  0.1220 -0.3603  1.0726
  132OSM    H4F14314   7.167   2.699   6.351  0.7975  0.2389  1.5958
  132OSM    H4G14315   7.227   2.566   6.265 -2.0406 -0.0503  1.2641
  132OSM    C5F14316   7.213   2.744   6.144 -0.1492 -0.2296  0.0956
  132OSM    H5F14317   7.244   2.850   6.159 -1.2331  0.1272 -0.0887
  132OSM    H5G14318   7.103   2.741   6.129 -0.1651  1.5802 -0.4611
  132OSM    C6F14319   7.283   2.689   6.017 -0.6245 -0.5357 -0.6429
  132OSM    H6F14320   7.259   2.581   6.010 -0.6814 -0.7940  2.5180
  132OSM    H6G14321   7.392   2.706   6.032  0.0503 -3.7114 -1.2006
  132OSM    C7F14322   7.264   2.774   5.888  0.6227  0.1848 -0.7942
  132OSM    H7F14323   7.304   2.876   5.908  3.0299 -0.3359 -2.4929
  132OSM    H7G14324   7.154   2.781   5.875  0.7917 -0.4474 -3.0272
  132OSM    C8F14325   7.332   2.714   5.772 -0.5002  0.4260 -0.2186
  132OSM    H8F14326   7.256   2.644   5.732 -1.0572  1.3057 -0.7368
  132OSM    H8G14327   7.428   2.661   5.789 -0.5119  0.2047 -0.8004
  132OSM    C9F14328   7.366   2.824   5.664 -0.2946 -0.1640 -0.1264
  132OSM    H9F14329   7.422   2.910   5.703  2.0295 -0.6997 -2.0406
  132OSM   C10F14330   7.330   2.827   5.531  0.1919  0.9534  0.5527
  132OSM   H10F14331   7.359   2.909   5.464 -0.7929  1.5438  0.8234
  132OSM   C11F14332   7.254   2.722   5.456  0.2054 -0.3165  0.1760
  132OSM   H11F14333   7.160   2.688   5.505 -0.9328 -0.6959 -2.0969
  132OSM   H11G14334   7.316   2.630   5.447  1.1494  0.1971  1.3085
  132OSM   C12F14335   7.213   2.764   5.317 -0.1076 -0.0152  0.0450
  132OSM   H12F14336   7.300   2.785   5.250  0.2181  0.0097  0.4751
  132OSM   H12G14337   7.145   2.850   5.305 -1.0720 -0.5564  1.4408
  132OSM   C13F14338   7.131   2.650   5.253 -0.0471  0.0216  0.4961
  132OSM   H13F14339   7.044   2.627   5.318  1.4607 -1.8286  2.0010
  132OSM   H13G14340   7.199   2.562   5.247  0.3950  0.3068  1.1875
  132OSM   C14F14341   7.084   2.696   5.114 -0.4496 -0.0512  1.1787
  132OSM   H14F14342   7.165   2.736   5.049 -0.9061 -1.3960 -0.3041
  132OSM   H14G14343   7.013   2.777   5.137 -2.7103 -1.9818  1.3803
  132OSM   C15F14344   6.996   2.585   5.043 -0.4431 -0.1393  0.0677
  132OSM   H15F14345   6.985   2.611   4.936 -0.9213 -1.3682 -0.1931
  132OSM   H15G14346   6.898   2.584   5.096  0.9227  3.5182  3.1647
  132OSM   C16F14347   7.061   2.445   5.053 -0.1190  0.7324  0.1463
  132OSM   H16F14348   7.086   2.417   5.157  2.4093 -0.8982 -0.7868
  132OSM   H16G14349   7.160   2.452   5.002 -0.7503 -3.4829 -2.1163
  132OSM   C17F14350   6.979   2.328   4.990 -0.6740  0.3189 -0.3968
  132OSM   H17F14351   6.942   2.368   4.894  2.4998  0.6674 -1.6029
  132OSM   H17G14352   6.893   2.300   5.055  0.0394 -1.8556 -0.2861
  132OSM   C18F14353   7.064   2.201   4.953 -0.8959 -0.3893  0.2921
  132OSM   H18F14354   7.004   2.124   4.900 -2.2958  0.5646  0.4275
  132OSM   H18G14355   7.114   2.154   5.040  1.2683 -0.3445 -0.8409
  132OSM   H18H14356   7.149   2.243   4.894 -0.7580 -0.2775  0.5699
  133OSM      N14357   4.925   3.800   7.320  0.6393 -0.1990 -0.0589
  133OSM    C1514358   4.846   3.689   7.392  0.1812 -0.3392 -0.4814
  133OSM   H15A14359   4.852   3.603   7.327 -1.7896 -0.8077 -0.1160
  133OSM   H15B14360   4.742   3.714   7.411  1.0012  3.1663 -0.0043
  133OSM   H15C14361   4.884   3.674   7.492 -0.4826  2.4697  0.2958
  133OSM    C1414362   4.863   3.818   7.187  0.3979 -0.3689 -0.0799
  133OSM   H14A14363   4.925   3.887   7.132 -0.4184  0.6996  0.3117
  133OSM   H14B14364   4.761   3.852   7.198  0.1446 -0.7007 -1.3064
  133OSM   H14C14365   4.857   3.725   7.133  1.0200 -1.2155  1.2638
  133OSM    C1314366   4.917   3.927   7.395  0.2630 -0.6560 -0.3428
  133OSM   H13A14367   4.975   4.011   7.359 -2.2315  2.1807  1.6945
  133OSM   H13B14368   4.949   3.914   7.497 -0.0615  1.0655  0.0065
  133OSM   H13C14369   4.818   3.970   7.391 -0.5211 -2.2589  0.7877
  133OSM    C1214370   5.072   3.766   7.298  0.2419  0.0707 -0.2331
  133OSM   H12A14371   5.112   3.754   7.398 -1.8306 -1.2415  0.5057
  133OSM   H12B14372   5.122   3.849   7.250  1.6144  0.0767  1.1324
  133OSM    C1114373   5.102   3.640   7.214  0.4799 -0.2259 -0.0546
  133OSM   H11A14374   5.213   3.637   7.209  0.4308 -0.8403 -1.1112
  133OSM   H11B14375   5.067   3.675   7.114 -0.8641 -0.4133  0.3235
  133OSM      P14376   5.145   3.403   7.312 -0.4525  0.0955  0.2369
  133OSM    O1314377   5.217   3.433   7.439  0.6955 -0.3563 -0.6492
  133OSM    O1414378   5.079   3.274   7.322  0.2635 -0.0965  0.5185
  133OSM    O1114379   5.259   3.400   7.208 -0.2164 -1.1087 -0.4624
  133OSM    O1214380   5.044   3.519   7.259  0.0976  0.1896  0.6282
  133OSM    C1S14381   5.215   3.366   7.074 -0.1997 -0.3305  0.1601
  133OSM    H1S14382   5.105   3.365   7.055 -0.2637  0.2657  0.4690
  133OSM    H1T14383   5.243   3.261   7.051  0.4082  0.0123 -0.6967
  133OSM     NF14384   5.227   3.443   6.835 -0.3518  0.4209  0.3656
  133OSM    HNF14385   5.267   3.381   6.769 -3.4117 -0.1459 -1.1290
  133OSM    C2S14386   5.290   3.462   6.970  0.4264  0.8044  0.1731
  133OSM    H2S14387   5.276   3.569   6.993  1.4573  0.9789  0.0200
  133OSM    C3S14388   5.443   3.441   6.977  0.1067 -0.2066 -0.0864
  133OSM    H3S14389   5.468   3.340   6.940  0.4050 -0.5579  1.0227
  133OSM     O314390   5.500   3.436   7.113 -0.1896 -0.2523  0.8325
  133OSM    HO314391   5.419   3.438   7.164 -1.4337 -1.9066 -0.9234
  133OSM    C4S14392   5.516   3.533   6.886  0.2356 -0.1848 -0.5596
  133OSM    H4S14393   5.529   3.497   6.783  2.4406  0.0515 -0.4061
  133OSM    C5S14394   5.544   3.665   6.919  0.0691 -0.7820  0.4932
  133OSM    H5S14395   5.519   3.694   7.022 -0.8256  1.7234 -0.3586
  133OSM    C6S14396   5.595   3.778   6.829 -0.0330  0.1289 -0.8404
  133OSM    H6S14397   5.695   3.809   6.867  0.2973 -1.7371 -0.0507
  133OSM    H6T14398   5.535   3.870   6.848  1.7265  0.8373  1.8763
  133OSM    C7S14399   5.593   3.731   6.680  0.3334  0.4282  0.6131
  133OSM    H7S14400   5.496   3.682   6.658  1.1373 -1.3328  0.7623
  133OSM    H7T14401   5.668   3.650   6.664 -0.5179  0.1920 -3.0969
  133OSM    C8S14402   5.643   3.839   6.579 -0.1331  0.0201 -0.4297
  133OSM    H8S14403   5.749   3.861   6.605  0.1055 -0.4360 -0.9996
  133OSM    H8T14404   5.568   3.919   6.594  0.3320  0.6171 -1.2603
  133OSM    C9S14405   5.651   3.784   6.435 -0.8137 -0.2984 -0.7500
  133OSM    H9S14406   5.546   3.756   6.409 -1.2991  0.6076  0.1567
  133OSM    H9T14407   5.709   3.690   6.434 -1.7500 -1.1197  3.4335
  133OSM   C10S14408   5.715   3.890   6.345 -0.0938 -0.2810 -0.2841
  133OSM   H10S14409   5.825   3.900   6.356 -0.0134 -0.5908 -0.8074
  133OSM   H10T14410   5.661   3.986   6.362 -0.8805 -0.5854 -0.9784
  133OSM   C11S14411   5.690   3.853   6.197  0.0758 -0.6721  0.1613
  133OSM   H11S14412   5.582   3.834   6.185 -0.2645  0.3088  1.5124
  133OSM   H11T14413   5.743   3.757   6.181  1.2296 -0.0814  0.3100
  133OSM   C12S14414   5.750   3.943   6.089 -0.0268 -0.2779  0.7889
  133OSM   H12S14415   5.860   3.945   6.095  0.0352  1.8794 -0.2003
  133OSM   H12T14416   5.716   4.048   6.095  0.9117  0.1644 -0.8444
  133OSM   C13S14417   5.724   3.890   5.947 -0.0765  0.1110 -0.1918
  133OSM   H13S14418   5.614   3.872   5.939 -0.4300  1.8888  0.2460
  133OSM   H13T14419   5.761   3.788   5.926 -1.0229 -0.3680  0.3612
  133OSM   C14S14420   5.761   3.983   5.838 -0.3176  0.3205  0.0833
  133OSM   H14S14421   5.871   3.999   5.845 -0.3643  0.9583 -0.5639
  133OSM   H14T14422   5.713   4.082   5.847  2.4403  1.8640 -0.9681
  133OSM   C15S14423   5.732   3.937   5.696 -0.4472 -0.0587 -0.3797
  133OSM   H15S14424   5.623   3.927   5.679 -0.6339  1.8197 -0.5052
  133OSM   H15T14425   5.790   3.844   5.674  1.3710  0.9532 -0.0807
  133OSM   C16S14426   5.778   4.048   5.596 -0.4844 -0.4788 -0.3353
  133OSM   H16S14427   5.889   4.039   5.595 -0.4304  0.1960 -1.4858
  133OSM   H16T14428   5.747   4.148   5.632  0.1987  0.1708 -1.4926
  133OSM   C17S14429   5.716   4.035   5.459  0.0335 -0.4887 -0.4546
  133OSM   H17S14430   5.775   4.094   5.385 -2.4331  1.4191 -1.0206
  133OSM   H17T14431   5.619   4.089   5.458  0.3529  0.1231  0.2251
  133OSM   C18S14432   5.710   3.896   5.403 -0.3464 -0.0131  0.2527
  133OSM   H18S14433   5.676   3.895   5.297 -0.1684  1.0522  0.1752
  133OSM   H18T14434   5.635   3.834   5.456  0.7257 -2.6143 -1.0762
  133OSM   H18U14435   5.804   3.838   5.421 -1.2964 -1.1090  1.9748
  133OSM    C1F14436   5.103   3.491   6.812  0.2471  0.3529  0.4914
  133OSM     OF14437   5.050   3.574   6.888 -0.0622 -0.4090  0.0002
  133OSM    C2F14438   5.029   3.440   6.688  0.4574  0.7929  0.1435
  133OSM    H2F14439   4.958   3.360   6.716  2.1350 -1.7901 -2.4614
  133OSM    H2G14440   5.102   3.399   6.615 -1.1987  1.1001 -1.7548
  133OSM    C3F14441   4.961   3.552   6.611 -0.0402 -0.8970  0.0148
  133OSM    H3F14442   5.043   3.617   6.574  0.0929 -0.6118  0.7865
  133OSM    H3G14443   4.899   3.603   6.688  1.7963  0.7041  0.4948
  133OSM    C4F14444   4.875   3.502   6.493  0.8491 -0.0515  0.2417
  133OSM    H4F14445   4.812   3.591   6.468 -0.8507 -1.1465  0.4423
  133OSM    H4G14446   4.805   3.417   6.508  0.2110  0.4598  0.2276
  133OSM    C5F14447   4.952   3.479   6.361  0.1163  0.3035 -0.0799
  133OSM    H5F14448   5.010   3.385   6.366  0.4380  0.3730 -1.8991
  133OSM    H5G14449   5.035   3.553   6.354  1.1848 -0.9125 -0.6218
  133OSM    C6F14450   4.875   3.492   6.230  0.2074 -0.9509 -0.3381
  133OSM    H6F14451   4.814   3.585   6.235  1.8574  0.0939  1.3922
  133OSM    H6G14452   4.801   3.409   6.225 -0.2348 -0.6031  0.2545
  133OSM    C7F14453   4.954   3.489   6.105 -0.3921 -0.0647 -0.5164
  133OSM    H7F14454   4.891   3.471   6.015 -1.7832  1.3360  0.1275
  133OSM    H7G14455   5.020   3.400   6.099 -0.9741 -0.4597 -1.2733
  133OSM    C8F14456   5.058   3.603   6.084 -1.2154 -0.5861 -0.3098
  133OSM    H8F14457   5.115   3.585   5.990  0.8860 -2.3347  1.1735
  133OSM    H8G14458   5.133   3.601   6.166 -1.6900  0.7309  0.1727
  133OSM    C9F14459   4.988   3.736   6.086  0.3200 -0.5222  0.0918
  133OSM    H9F14460   4.969   3.777   6.186  1.6095  0.2460  0.0347
  133OSM   C10F14461   4.964   3.821   5.981  0.6817  0.0443 -0.0616
  133OSM   H10F14462   4.907   3.912   6.005 -2.9618 -1.9973 -0.3738
  133OSM   C11F14463   4.982   3.791   5.838  0.6449 -0.0934  0.8894
  133OSM   H11F14464   4.900   3.787   5.763  2.5075 -1.0187 -1.2218
  133OSM   H11G14465   5.036   3.695   5.821  1.3806  0.2810  1.0894
  133OSM   C12F14466   5.071   3.906   5.781 -0.3648  0.4387  0.5475
  133OSM   H12F14467   5.169   3.904   5.833  0.3387 -0.4730 -0.7546
  133OSM   H12G14468   5.022   4.002   5.805  2.0984  1.8337  0.3430
  133OSM   C13F14469   5.085   3.909   5.630  0.1269  0.5467 -0.1797
  133OSM   H13F14470   4.989   3.915   5.575 -1.2000 -1.2871  1.7762
  133OSM   H13G14471   5.134   3.813   5.603 -0.6950 -0.4276  1.5917
  133OSM   C14F14472   5.180   4.025   5.578 -0.8029 -0.0919  0.1534
  133OSM   H14F14473   5.272   4.016   5.639 -1.7508 -2.6817  1.3465
  133OSM   H14G14474   5.149   4.124   5.617  2.0936  1.2216 -0.6935
  133OSM   C15F14475   5.199   4.036   5.428 -0.4012 -0.5181  0.6854
  133OSM   H15F14476   5.118   4.093   5.378  0.9401 -0.1957 -1.2285
  133OSM   H15G14477   5.214   3.940   5.375  0.0304  0.5934 -1.2762
  133OSM   C16F14478   5.325   4.124   5.404 -0.2891  0.5154  0.0879
  133OSM   H16F14479   5.403   4.098   5.479 -0.3480 -0.4617 -0.1680
  133OSM   H16G14480   5.299   4.232   5.406 -3.0257 -0.0554 -0.5802
  133OSM   C17F14481   5.376   4.087   5.262 -0.1541  0.5053 -0.6082
  133OSM   H17F14482   5.282   4.093   5.204 -0.5030  0.5675 -0.0478
  133OSM   H17G14483   5.419   3.985   5.266  1.5070  1.1999  1.1309
  133OSM   C18F14484   5.481   4.176   5.196  0.0641 -0.2364  0.2338
  133OSM   H18F14485   5.587   4.167   5.226 -0.2691 -2.8285  0.8491
  133OSM   H18G14486   5.454   4.282   5.214  1.2071  0.1004  0.0000
  133OSM   H18H14487   5.477   4.141   5.091 -1.7383  0.1640  0.1308
  134OSM      N14488   5.665   2.145   7.174 -0.2348 -0.0191  0.6110
  134OSM    C1514489   5.805   2.199   7.185  0.6992  0.5350 -0.3038
  134OSM   H15A14490   5.838   2.207   7.287 -2.0784 -0.6761  0.7870
  134OSM   H15B14491   5.809   2.295   7.136  3.5474 -0.0579 -1.4637
  134OSM   H15C14492   5.865   2.142   7.114 -0.7642  0.4504 -1.5253
  134OSM    C1414493   5.655   2.001   7.184 -0.0639  0.0973  0.1328
  134OSM   H14A14494   5.724   1.961   7.111 -2.2241 -0.9206 -1.5170
  134OSM   H14B14495   5.555   1.971   7.154 -0.5057  2.2384 -0.6678
  134OSM   H14C14496   5.675   1.965   7.284 -2.2122 -1.2850  0.1430
  134OSM    C1314497   5.581   2.201   7.294 -0.4127  0.5709 -0.3421
  134OSM   H13A14498   5.473   2.191   7.289 -0.7280  3.5656 -1.3418
  134OSM   H13B14499   5.601   2.306   7.309  0.2596  0.5434 -0.9785
  134OSM   H13C14500   5.619   2.156   7.384  0.2236  0.2766 -0.7522
  134OSM    C1214501   5.604   2.199   7.048 -0.1573 -0.9852  0.1781
  134OSM   H12A14502   5.574   2.302   7.060  0.9478 -0.6031 -0.2403
  134OSM   H12B14503   5.517   2.136   7.035  1.0087 -2.6368  0.0699
  134OSM    C1114504   5.683   2.183   6.922 -0.1297  0.4979  0.1774
  134OSM   H11A14505   5.769   2.253   6.912  0.5845 -0.5151 -1.0828
  134OSM   H11B14506   5.625   2.201   6.828 -1.9477 -2.3710  0.6109
  134OSM      P14507   5.840   2.008   6.820  0.0952  0.2985  0.0504
  134OSM    O1314508   5.969   2.055   6.888  0.1788  0.3313 -0.4090
  134OSM    O1414509   5.820   1.865   6.781 -0.1536  0.6219  0.2686
  134OSM    O1114510   5.812   2.105   6.695 -0.2120 -0.1217 -0.1483
  134OSM    O1214511   5.724   2.051   6.911  0.2952  0.1754  0.0402
  134OSM    C1S14512   5.882   2.104   6.573  0.5413 -0.7258  0.3704
  134OSM    H1S14513   5.916   2.001   6.548 -2.9201 -1.8810 -0.1033
  134OSM    H1T14514   5.974   2.162   6.596 -0.1574 -1.0170  4.7238
  134OSM     NF14515   5.873   2.162   6.328  0.1524  0.2529  0.0982
  134OSM    HNF14516   5.921   2.244   6.298 -0.7578  1.6158  2.1434
  134OSM    C2S14517   5.800   2.180   6.462 -0.1438  1.0916  0.3596
  134OSM    H2S14518   5.698   2.138   6.470  0.2757  0.3379  2.2154
  134OSM    C3S14519   5.776   2.324   6.500  0.0123 -0.2309 -0.2138
  134OSM    H3S14520   5.868   2.384   6.494  1.4777 -2.1591  1.4786
  134OSM     O314521   5.719   2.345   6.629  0.5765 -0.0324 -0.3883
  134OSM    HO314522   5.716   2.258   6.670  0.5538 -0.4069 -1.1654
  134OSM    C4S14523   5.689   2.393   6.402 -0.4427  0.5409  0.3890
  134OSM    H4S14524   5.587   2.415   6.437 -0.3687  0.9959  0.3241
  134OSM    C5S14525   5.733   2.448   6.288  0.5460 -1.3373 -0.2928
  134OSM    H5S14526   5.841   2.447   6.268  0.5065 -1.4083 -0.5050
  134OSM    C6S14527   5.655   2.526   6.189 -0.2849  0.7204  0.2835
  134OSM    H6S14528   5.707   2.624   6.183  0.3415  0.4312  0.9191
  134OSM    H6T14529   5.546   2.519   6.207 -0.2372  1.0679  0.7091
  134OSM    C7S14530   5.670   2.454   6.055 -0.2519  0.2487  0.1497
  134OSM    H7S14531   5.616   2.357   6.047  3.8248 -2.1425 -0.7665
  134OSM    H7T14532   5.774   2.433   6.024 -0.7339 -1.3005 -0.4622
  134OSM    C8S14533   5.620   2.534   5.942 -0.0809 -0.0432  0.1172
  134OSM    H8S14534   5.687   2.622   5.936 -0.5953  0.5064  1.7819
  134OSM    H8T14535   5.522   2.583   5.961  0.9445  1.9239  0.6268
  134OSM    C9S14536   5.609   2.459   5.806 -0.3504  0.0167  0.2255
  134OSM    H9S14537   5.543   2.515   5.737  1.4486 -0.0652 -1.6832
  134OSM    H9T14538   5.570   2.357   5.824  0.9332 -0.4850  0.3183
  134OSM   C10S14539   5.743   2.426   5.740 -0.0299 -0.2644  0.2781
  134OSM   H10S14540   5.802   2.354   5.800  1.2880 -0.5239 -1.2558
  134OSM   H10T14541   5.803   2.519   5.732  0.7276 -0.7920 -0.2584
  134OSM   C11S14542   5.728   2.360   5.600 -0.1412  0.4677  0.3859
  134OSM   H11S14543   5.696   2.256   5.619  2.5890 -0.8929 -1.7370
  134OSM   H11T14544   5.832   2.353   5.563 -0.5388 -2.8427 -0.4353
  134OSM   C12S14545   5.634   2.435   5.501 -0.0292  1.3380 -0.0244
  134OSM   H12S14546   5.653   2.544   5.501 -0.4287  1.4089  0.3229
  134OSM   H12T14547   5.531   2.411   5.534  0.3998  0.0211  0.4368
  134OSM   C13S14548   5.656   2.393   5.347  0.5741 -0.3443 -0.4731
  134OSM   H13S14549   5.581   2.452   5.290 -1.3325 -1.9937  0.2367
  134OSM   H13T14550   5.629   2.287   5.326  0.6672 -1.3321  3.6733
  134OSM   C14S14551   5.796   2.434   5.288  0.4356 -0.3139 -0.7440
  134OSM   H14S14552   5.869   2.358   5.324  1.4888  0.7100 -0.6805
  134OSM   H14T14553   5.822   2.530   5.337  1.9545 -0.8305 -0.4863
  134OSM   C15S14554   5.794   2.441   5.136  0.6287 -0.4989 -0.0231
  134OSM   H15S14555   5.887   2.497   5.112  0.8041 -1.0455 -0.6352
  134OSM   H15T14556   5.711   2.507   5.101 -0.0876 -0.7404  1.1714
  134OSM   C16S14557   5.803   2.310   5.064 -0.2555  0.3947 -0.6209
  134OSM   H16S14558   5.728   2.245   5.112 -0.3804  0.6150 -0.5190
  134OSM   H16T14559   5.895   2.252   5.084 -0.7358 -0.4241 -0.7552
  134OSM   C17S14560   5.784   2.326   4.922 -0.1484 -1.0038 -0.2708
  134OSM   H17S14561   5.843   2.408   4.876 -1.0386  0.6157  1.3480
  134OSM   H17T14562   5.684   2.374   4.918  0.4306  0.4142  1.3307
  134OSM   C18S14563   5.796   2.205   4.831 -0.3147  0.2880 -0.6826
  134OSM   H18S14564   5.742   2.228   4.736 -1.4934 -0.1046 -0.1271
  134OSM   H18T14565   5.753   2.112   4.875  0.0765 -0.4316 -1.7701
  134OSM   H18U14566   5.902   2.184   4.805 -0.3667 -1.1256  0.1410
  134OSM    C1F14567   5.876   2.042   6.276  0.0373  0.0468 -0.1313
  134OSM     OF14568   5.827   1.942   6.333 -0.5616 -0.6615  1.2781
  134OSM    C2F14569   5.955   2.025   6.147  0.2236 -0.4263  0.1020
  134OSM    H2F14570   6.012   1.930   6.155  1.8058  0.4952  0.2445
  134OSM    H2G14571   6.020   2.114   6.135  0.3764  0.0779  3.5883
  134OSM    C3F14572   5.870   2.028   6.015 -0.6869 -0.0264  0.1636
  134OSM    H3F14573   5.835   2.133   6.010 -0.8972 -0.1375 -1.5852
  134OSM    H3G14574   5.783   1.959   6.011 -0.0726 -0.7900 -0.6097
  134OSM    C4F14575   5.965   2.004   5.890  0.2744 -0.1069 -0.2889
  134OSM    H4F14576   6.021   1.911   5.913 -0.8844 -0.6436  0.4630
  134OSM    H4G14577   6.033   2.092   5.883  0.1712  0.4706  3.7928
  134OSM    C5F14578   5.875   1.987   5.760 -0.5802  0.2415  0.2626
  134OSM    H5F14579   5.811   2.077   5.754  0.0949  0.7268  0.2368
  134OSM    H5G14580   5.800   1.905   5.765 -1.6505  1.0766 -1.3629
  134OSM    C6F14581   5.957   1.971   5.633 -0.0810 -0.6130  0.5283
  134OSM    H6F14582   6.028   1.885   5.637 -1.3787 -1.8683 -1.3460
  134OSM    H6G14583   6.014   2.064   5.612  1.5590 -1.7808 -0.5281
  134OSM    C7F14584   5.868   1.952   5.512 -0.2172 -0.3438 -0.1958
  134OSM    H7F14585   5.767   1.996   5.523 -0.7553 -1.9686  2.4230
  134OSM    H7G14586   5.846   1.843   5.518 -1.3500 -0.1591 -0.7833
  134OSM    C8F14587   5.930   1.989   5.376 -0.3761  0.0605  0.2171
  134OSM    H8F14588   5.944   2.099   5.370  2.0668 -0.1425  1.0296
  134OSM    H8G14589   5.858   1.963   5.296 -1.2575 -1.5744  1.4908
  134OSM    C9F14590   6.060   1.918   5.349 -0.5539  0.0862 -0.1213
  134OSM    H9F14591   6.099   1.847   5.424  2.2266 -1.2096 -2.6180
  134OSM   C10F14592   6.153   1.950   5.261  0.4345 -0.4024  0.9910
  134OSM   H10F14593   6.248   1.894   5.265  0.4004 -0.8698 -2.3872
  134OSM   C11F14594   6.134   2.035   5.136  0.1913  0.1064  0.5468
  134OSM   H11F14595   6.173   2.138   5.156  0.4312  0.2494 -0.5813
  134OSM   H11G14596   6.028   2.037   5.103  0.1255 -2.0329  0.4836
  134OSM   C12F14597   6.192   1.981   5.000 -0.3377  0.3748 -0.6555
  134OSM   H12F14598   6.192   1.870   5.007 -2.5684  0.4350  3.0654
  134OSM   H12G14599   6.297   2.016   4.995 -0.0820 -0.4410 -1.2979
  134OSM   C13F14600   6.102   2.012   4.882  0.5388  0.0142  0.3355
  134OSM   H13F14601   6.078   2.120   4.875  0.4747  0.0974  1.6818
  134OSM   H13G14602   6.005   1.957   4.889  0.2257  0.4107 -0.6135
  134OSM   C14F14603   6.166   1.977   4.741 -0.3030  0.3303 -0.6069
  134OSM   H14F14604   6.271   2.013   4.744 -0.7831  1.8044 -0.6567
  134OSM   H14G14605   6.119   2.028   4.654 -0.1151 -0.2904 -1.0779
  134OSM   C15F14606   6.162   1.828   4.709 -0.2577 -0.0459 -0.3881
  134OSM   H15F14607   6.194   1.765   4.794  1.0839  1.1325  0.0261
  134OSM   H15G14608   6.228   1.807   4.623 -1.6392 -1.2215 -1.2080
  134OSM   C16F14609   6.022   1.784   4.667  0.4160 -0.3349 -0.4645
  134OSM   H16F14610   5.987   1.850   4.585 -2.0343 -0.4642  0.4182
  134OSM   H16G14611   5.963   1.798   4.760  1.2958  0.3197  0.0167
  134OSM   C17F14612   6.013   1.639   4.614  0.0055 -0.7054  0.6864
  134OSM   H17F14613   6.085   1.579   4.673  2.2888  2.1480  1.0014
  134OSM   H17G14614   6.068   1.659   4.520  0.4781  0.3820  1.1672
  134OSM   C18F14615   5.876   1.579   4.599  0.1703  0.2793 -0.4487
  134OSM   H18F14616   5.824   1.579   4.698 -0.7330 -1.2554 -0.8954
  134OSM   H18G14617   5.871   1.475   4.561  1.5210 -0.2571  0.7243
  134OSM   H18H14618   5.809   1.630   4.527 -0.5683  1.1019  0.7714
  135OSM      N14619   4.315   0.127   7.264  0.1493 -0.1634  0.1303
  135OSM    C1514620   4.273   0.118   7.412  0.2332 -0.2651 -0.5447
  135OSM   H15A14621   4.223   0.211   7.436  1.5837  0.9037 -1.9521
  135OSM   H15B14622   4.354   0.118   7.483 -0.0946  3.2492  0.0368
  135OSM   H15C14623   4.203   0.039   7.434 -1.1902  1.4252  1.3382
  135OSM    C1414624   4.397   0.010   7.249  0.5950  0.4835  0.4833
  135OSM   H14A14625   4.349  -0.078   7.290  1.8973  0.7847  2.8094
  135OSM   H14B14626   4.487   0.021   7.307  1.5772 -0.6957 -0.7327
  135OSM   H14C14627   4.431  -0.011   7.148  3.5283 -0.2032  1.5223
  135OSM    C1314628   4.191   0.120   7.171 -0.3197 -0.1488 -0.1636
  135OSM   H13A14629   4.209   0.105   7.066 -2.8500  1.3187 -0.9153
  135OSM   H13B14630   4.130   0.209   7.186 -0.1351 -0.2153  1.1417
  135OSM   H13C14631   4.124   0.041   7.201  0.2210 -0.0700  1.3318
  135OSM    C1214632   4.377   0.267   7.255  0.2054 -0.1714  0.9129
  135OSM   H12A14633   4.304   0.336   7.296 -0.0579  0.1007  0.0158
  135OSM   H12B14634   4.397   0.280   7.149 -0.6093 -0.0392  0.7700
  135OSM    C1114635   4.502   0.290   7.340  0.5771 -0.0670 -0.5158
  135OSM   H11A14636   4.586   0.216   7.339  0.6234 -0.0254 -1.8613
  135OSM   H11B14637   4.469   0.288   7.446  2.4205  1.5858  0.1491
  135OSM      P14638   4.666   0.466   7.239  0.3291  0.2844  0.2904
  135OSM    O1314639   4.718   0.595   7.291 -0.1514  0.1504  0.3174
  135OSM    O1414640   4.759   0.353   7.244  0.3664  0.2078  0.2167
  135OSM    O1114641   4.598   0.477   7.098  0.1306 -0.9653 -0.4369
  135OSM    O1214642   4.541   0.423   7.329  0.3694  0.6811  0.2485
  135OSM    C1S14643   4.503   0.576   7.066 -0.3832 -0.2452 -0.3718
  135OSM    H1S14644   4.537   0.677   7.097 -1.6531 -0.0876  0.5916
  135OSM    H1T14645   4.409   0.563   7.124  0.3689  0.4184  1.0693
  135OSM     NF14646   4.428   0.698   6.867  0.1589 -0.4094  0.2758
  135OSM    HNF14647   4.329   0.691   6.859  0.0738  1.7385 -1.3155
  135OSM    C2S14648   4.487   0.575   6.912  0.1863 -0.4699 -0.0885
  135OSM    H2S14649   4.588   0.577   6.867 -0.1552 -1.3208 -0.9592
  135OSM    C3S14650   4.420   0.448   6.866 -0.0378 -0.1016  0.0935
  135OSM    H3S14651   4.321   0.441   6.916 -1.4408 -0.7030 -2.5482
  135OSM     O314652   4.492   0.335   6.893  0.9837 -0.3627 -0.3887
  135OSM    HO314653   4.557   0.369   6.955  0.0882  0.1425  0.2796
  135OSM    C4S14654   4.408   0.452   6.720 -0.1022  0.0720  0.2877
  135OSM    H4S14655   4.497   0.493   6.668  1.0514  1.9242  3.4557
  135OSM    C5S14656   4.288   0.454   6.659  0.2220  0.1836 -0.4079
  135OSM    H5S14657   4.201   0.473   6.723  2.0010  4.0741  1.1673
  135OSM    C6S14658   4.266   0.478   6.513 -0.5341 -0.0970  0.5241
  135OSM    H6S14659   4.251   0.378   6.466 -0.1660 -0.0331  0.2759
  135OSM    H6T14660   4.356   0.512   6.458 -0.5821 -0.5970  0.1271
  135OSM    C7S14661   4.146   0.574   6.470  0.0379 -0.4139 -0.1358
  135OSM    H7S14662   4.165   0.670   6.521  1.4250 -0.3283 -0.7626
  135OSM    H7T14663   4.052   0.540   6.519 -2.0380  3.3556 -1.1487
  135OSM    C8S14664   4.122   0.596   6.325  0.0534  0.0648 -0.4847
  135OSM    H8S14665   4.215   0.642   6.285 -0.0491 -0.4374 -1.3271
  135OSM    H8T14666   4.045   0.676   6.317 -1.2962 -1.2791 -1.8218
  135OSM    C9S14667   4.070   0.475   6.258  0.4342  0.0402  0.1280
  135OSM    H9S14668   3.985   0.438   6.320  0.3707 -1.1952 -0.6601
  135OSM    H9T14669   4.149   0.397   6.271  1.9803  1.4888 -0.3260
  135OSM   C10S14670   4.015   0.479   6.111 -0.1146 -0.5288  1.0772
  135OSM   H10S14671   3.939   0.398   6.098 -0.8024 -0.1502  2.5461
  135OSM   H10T14672   4.104   0.457   6.047 -0.9541  1.4471 -0.8899
  135OSM   C11S14673   3.971   0.616   6.066  0.5263  0.1950  0.4774
  135OSM   H11S14674   4.040   0.695   6.102  0.8746  0.1162 -0.0063
  135OSM   H11T14675   3.872   0.637   6.110 -0.6011 -0.8427 -1.4364
  135OSM   C12S14676   3.972   0.631   5.910  0.3486  0.0611  0.3668
  135OSM   H12S14677   3.883   0.578   5.869  1.1797 -1.9927  1.1056
  135OSM   H12T14678   4.060   0.586   5.861  1.4831  2.4441  0.0687
  135OSM   C13S14679   3.962   0.773   5.856  0.4861 -0.3405 -1.0502
  135OSM   H13S14680   4.051   0.836   5.879 -1.7313  2.1452  1.6859
  135OSM   H13T14681   3.888   0.829   5.918  0.6402  0.2344 -1.3804
  135OSM   C14S14682   3.923   0.790   5.709 -0.0431 -0.0975  0.1268
  135OSM   H14S14683   3.881   0.892   5.703 -0.6145 -0.4047 -1.8600
  135OSM   H14T14684   3.856   0.711   5.667  0.8500 -0.7212 -0.1629
  135OSM   C15S14685   4.050   0.815   5.619 -0.5576  0.3747 -0.8569
  135OSM   H15S14686   4.089   0.712   5.600  2.3378  0.7090  2.3007
  135OSM   H15T14687   4.123   0.873   5.678 -1.3276  2.2473 -1.6897
  135OSM   C16S14688   4.020   0.885   5.491 -0.6408 -0.3235 -0.5727
  135OSM   H16S14689   3.946   0.967   5.505  0.1171  0.2988 -0.1046
  135OSM   H16T14690   3.977   0.810   5.421  1.8019 -1.2748 -1.1337
  135OSM   C17S14691   4.147   0.949   5.421 -0.3669  0.1237 -0.2871
  135OSM   H17S14692   4.220   0.865   5.415  0.0006  0.2084  1.9651
  135OSM   H17T14693   4.202   1.030   5.474 -1.0169  1.0523 -1.0179
  135OSM   C18S14694   4.112   1.012   5.288 -0.0923  0.7839  0.7371
  135OSM   H18S14695   4.077   1.115   5.311 -1.4241  0.2910  0.9807
  135OSM   H18T14696   4.029   0.960   5.235  0.9201 -2.8346  2.4019
  135OSM   H18U14697   4.204   1.016   5.225 -0.5774  0.3744 -0.0198
  135OSM    C1F14698   4.484   0.821   6.877  0.5799  0.4925  0.5812
  135OSM     OF14699   4.604   0.843   6.895  0.1587  0.3626  0.1861
  135OSM    C2F14700   4.385   0.924   6.853 -0.7283 -0.1297 -0.1161
  135OSM    H2F14701   4.316   0.925   6.940 -1.9899 -2.5330 -1.0062
  135OSM    H2G14702   4.321   0.920   6.763  0.6816  2.8973 -1.3954
  135OSM    C3F14703   4.439   1.064   6.845  0.7992 -0.2190  0.6712
  135OSM    H3F14704   4.520   1.074   6.769  0.2353  2.7751  0.3169
  135OSM    H3G14705   4.485   1.081   6.945  2.3113  1.5301 -0.2414
  135OSM    C4F14706   4.338   1.168   6.808  0.4814 -0.4518  0.1836
  135OSM    H4F14707   4.246   1.153   6.867  1.4296  1.0597  2.1643
  135OSM    H4G14708   4.369   1.270   6.837  2.0085 -0.7848 -0.1445
  135OSM    C5F14709   4.300   1.181   6.649 -0.5359 -0.3277  0.1904
  135OSM    H5F14710   4.241   1.095   6.612 -0.8535  0.1429 -0.4058
  135OSM    H5G14711   4.394   1.198   6.592 -2.3312  1.6177 -2.3676
  135OSM    C6F14712   4.205   1.298   6.628  0.5172  0.2114 -0.6016
  135OSM    H6F14713   4.253   1.385   6.679  2.2372 -1.1451  0.1766
  135OSM    H6G14714   4.107   1.283   6.679  0.4993 -0.2809 -0.7803
  135OSM    C7F14715   4.179   1.344   6.482 -0.0749 -0.6216 -0.9629
  135OSM    H7F14716   4.271   1.371   6.428 -0.3935  2.7883 -0.0306
  135OSM    H7G14717   4.120   1.438   6.490 -1.5497 -1.6387  1.9895
  135OSM    C8F14718   4.104   1.252   6.393  0.2459  1.0716 -0.0803
  135OSM    H8F14719   4.147   1.150   6.403  0.0126  1.1329  2.2627
  135OSM    H8G14720   4.112   1.285   6.288  1.0460  2.0849  0.2806
  135OSM    C9F14721   3.954   1.249   6.432 -0.0989  0.8042 -0.5747
  135OSM    H9F14722   3.926   1.169   6.502  0.7459 -0.0418 -1.1792
  135OSM   C10F14723   3.856   1.342   6.399 -0.7063  0.4329  0.2115
  135OSM   H10F14724   3.756   1.306   6.427 -0.6311 -0.4146 -0.5436
  135OSM   C11F14725   3.858   1.458   6.301 -0.1753 -0.0303  0.0949
  135OSM   H11F14726   3.943   1.454   6.229  0.0657 -0.3743  0.4010
  135OSM   H11G14727   3.882   1.548   6.361 -0.0139 -0.2952  0.4254
  135OSM   C12F14728   3.726   1.493   6.221  0.1970  0.2373  0.2634
  135OSM   H12F14729   3.661   1.552   6.289  0.4865  0.7662  0.0863
  135OSM   H12G14730   3.673   1.398   6.200 -0.4363  1.0275 -2.0155
  135OSM   C13F14731   3.753   1.577   6.097 -0.7008 -0.4626  0.2385
  135OSM   H13F14732   3.830   1.653   6.122 -1.0570 -0.0755  0.1768
  135OSM   H13G14733   3.663   1.640   6.083 -1.8496 -1.4516  2.5900
  135OSM   C14F14734   3.789   1.494   5.971  0.0438  0.2329 -0.8338
  135OSM   H14F14735   3.696   1.441   5.944 -0.4044  0.3998  0.3121
  135OSM   H14G14736   3.857   1.415   6.008  2.8849  2.9305  0.1910
  135OSM   C15F14737   3.844   1.572   5.851  0.0680  0.9816 -0.2545
  135OSM   H15F14738   3.901   1.503   5.786 -2.3543  0.8670 -2.4198
  135OSM   H15G14739   3.905   1.658   5.886 -0.3392  0.7392  1.1384
  135OSM   C16F14740   3.734   1.644   5.776  0.4735 -0.1303  0.9952
  135OSM   H16F14741   3.791   1.693   5.694  1.3311 -2.2031  0.2892
  135OSM   H16G14742   3.694   1.723   5.843 -0.8433 -2.6497  3.3778
  135OSM   C17F14743   3.637   1.557   5.705 -0.0624  0.1418  0.5335
  135OSM   H17F14744   3.577   1.503   5.782 -1.8325 -0.5364 -1.2455
  135OSM   H17G14745   3.691   1.477   5.649 -1.1962  0.9131 -1.7503
  135OSM   C18F14746   3.546   1.638   5.610  0.3663 -0.5147 -0.5088
  135OSM   H18F14747   3.596   1.667   5.515 -3.8935  2.6533 -2.0942
  135OSM   H18G14748   3.521   1.734   5.660  0.1341  0.0476 -1.6657
  135OSM   H18H14749   3.454   1.581   5.585  0.3039 -1.0205  0.7878
  136OSM      N14750   0.767   1.887   7.477 -0.2188  0.0638  0.1743
  136OSM    C1514751   0.888   1.891   7.568 -0.6194 -0.1695  0.4624
  136OSM   H15A14752   0.872   1.902   7.674 -0.2824  0.1813  0.4780
  136OSM   H15B14753   0.952   1.968   7.528 -1.5181  0.6480  0.5443
  136OSM   H15C14754   0.935   1.794   7.567 -2.6772 -1.3052  2.6618
  136OSM    C1414755   0.658   1.799   7.529  0.1523 -0.2064 -0.0647
  136OSM   H14A14756   0.702   1.718   7.585 -1.2371 -0.2276  1.0520
  136OSM   H14B14757   0.599   1.742   7.459 -0.1526 -0.2624  0.2413
  136OSM   H14C14758   0.598   1.851   7.602  1.0766 -0.5684  0.9741
  136OSM    C1314759   0.715   2.029   7.474 -0.4298 -0.1045  0.7167
  136OSM   H13A14760   0.793   2.098   7.442 -0.4623 -1.5430 -2.9651
  136OSM   H13B14761   0.674   2.057   7.569 -0.0619 -1.5084  1.3012
  136OSM   H13C14762   0.635   2.044   7.404 -0.9147 -0.1344  1.2637
  136OSM    C1214763   0.809   1.836   7.340  0.4892  0.1582 -0.0011
  136OSM   H12A14764   0.723   1.807   7.282  0.8771  0.1233 -0.5659
  136OSM   H12B14765   0.855   1.740   7.357  2.6837  0.8085 -1.7059
  136OSM    C1114766   0.892   1.925   7.248  0.2839 -0.2231  0.8387
  136OSM   H11A14767   0.842   2.019   7.215  3.3401  1.4423  0.5778
  136OSM   H11B14768   0.918   1.865   7.159 -0.6030  0.2004  0.2817
  136OSM      P14769   1.074   2.097   7.331  0.0017  0.3183  0.3512
  136OSM    O1314770   0.980   2.182   7.406  0.0003  1.0681  0.0417
  136OSM    O1414771   1.213   2.088   7.384  0.4348  0.2819 -0.0830
  136OSM    O1114772   1.084   2.164   7.187  0.2090 -0.5141 -0.2594
  136OSM    O1214773   1.012   1.949   7.317  0.2312  0.0204  0.6820
  136OSM    C1S14774   1.157   2.108   7.076  0.4718 -0.0923  0.1592
  136OSM    H1S14775   1.151   1.997   7.071 -2.1088  0.0477 -2.4211
  136OSM    H1T14776   1.267   2.123   7.084  0.3897  0.1278  0.9446
  136OSM     NF14777   1.161   2.093   6.820  0.8172  0.4930  0.7385
  136OSM    HNF14778   1.242   2.138   6.783  0.8935  0.7146  1.1725
  136OSM    C2S14779   1.102   2.157   6.937 -0.4813  0.4677  0.3765
  136OSM    H2S14780   0.993   2.135   6.931 -0.0512 -1.6044 -0.4969
  136OSM    C3S14781   1.117   2.305   6.933 -0.4838 -0.8260  0.3017
  136OSM    H3S14782   1.225   2.330   6.928 -0.6111 -0.2197  0.5175
  136OSM     O314783   1.073   2.375   7.050  0.8284 -0.3533  0.1332
  136OSM    HO314784   1.046   2.300   7.103  2.2390 -1.0260 -0.0634
  136OSM    C4S14785   1.049   2.366   6.820 -0.2511 -0.0369 -0.2731
  136OSM    H4S14786   0.940   2.356   6.830 -0.1199 -1.4097  0.0494
  136OSM    C5S14787   1.100   2.445   6.717  0.3830 -0.2643  0.5492
  136OSM    H5S14788   1.207   2.470   6.715  1.3785 -3.7670  1.3350
  136OSM    C6S14789   1.008   2.520   6.623 -0.0024  0.4299  0.1072
  136OSM    H6S14790   1.058   2.519   6.524 -0.8842 -0.7000 -0.3503
  136OSM    H6T14791   0.999   2.624   6.659 -1.1911 -0.4334  2.5024
  136OSM    C7S14792   0.871   2.451   6.592 -0.2875 -0.6561  0.1202
  136OSM    H7S14793   0.825   2.522   6.520 -0.5696 -1.5925 -0.6370
  136OSM    H7T14794   0.801   2.443   6.678  0.1865  1.2749  0.7381
  136OSM    C8S14795   0.882   2.323   6.523  0.6937 -0.3558 -0.3689
  136OSM    H8S14796   0.933   2.252   6.591 -0.9632 -0.5164  0.7699
  136OSM    H8T14797   0.933   2.350   6.428 -1.5971 -0.2384 -1.6367
  136OSM    C9S14798   0.740   2.265   6.491 -0.4100  0.0218 -0.1281
  136OSM    H9S14799   0.686   2.341   6.431  0.7269 -0.1252 -1.3745
  136OSM    H9T14800   0.680   2.250   6.584 -1.4432 -2.5742 -1.1030
  136OSM   C10S14801   0.747   2.132   6.412  0.1057  0.3347  0.0695
  136OSM   H10S14802   0.645   2.088   6.409  1.0717 -2.0362 -1.3950
  136OSM   H10T14803   0.807   2.058   6.468 -0.0442 -0.6792 -1.0563
  136OSM   C11S14804   0.779   2.157   6.266  0.8619 -0.3032  0.5489
  136OSM   H11S14805   0.882   2.199   6.259  0.8045 -0.1387  0.6739
  136OSM   H11T14806   0.699   2.219   6.220  1.1048 -1.2378 -1.2490
  136OSM   C12S14807   0.778   2.032   6.183 -0.7642  0.5033  0.4102
  136OSM   H12S14808   0.673   1.995   6.193 -0.3296 -0.8522  0.1723
  136OSM   H12T14809   0.847   1.954   6.222 -0.2127  0.2787 -0.9426
  136OSM   C13S14810   0.813   2.057   6.036  0.0858 -0.5265  0.0175
  136OSM   H13S14811   0.905   2.117   6.022  2.3183 -3.9735 -1.4997
  136OSM   H13T14812   0.729   2.118   5.997 -1.4742 -0.9811  2.4355
  136OSM   C14S14813   0.804   1.925   5.964 -0.1905 -0.2157 -0.1352
  136OSM   H14S14814   0.707   1.873   5.977  0.9514 -2.8174 -1.3068
  136OSM   H14T14815   0.880   1.851   5.997 -2.1388 -1.0695  2.8657
  136OSM   C15S14816   0.812   1.940   5.815  0.0675 -0.1715 -0.0813
  136OSM   H15S14817   0.907   1.993   5.792  0.2371 -0.2098  0.5272
  136OSM   H15T14818   0.723   1.999   5.784 -1.4487 -1.7893  1.0002
  136OSM   C16S14819   0.797   1.803   5.747 -0.0406 -0.0125  0.7489
  136OSM   H16S14820   0.707   1.753   5.788 -1.1693 -0.5205 -2.1136
  136OSM   H16T14821   0.892   1.750   5.771  0.2859 -0.3725 -1.1852
  136OSM   C17S14822   0.792   1.819   5.596  0.1057 -0.6743  1.1090
  136OSM   H17S14823   0.875   1.889   5.575 -0.5346 -0.1403  0.3031
  136OSM   H17T14824   0.693   1.863   5.571  0.2172 -1.3398 -0.6979
  136OSM   C18S14825   0.801   1.684   5.521 -0.1013 -0.0637 -0.1791
  136OSM   H18S14826   0.904   1.643   5.537  0.1080  0.8492  1.0293
  136OSM   H18T14827   0.797   1.688   5.410  1.4552  1.0047 -0.2453
  136OSM   H18U14828   0.726   1.616   5.566  0.6261 -1.0390 -0.4204
  136OSM    C1F14829   1.136   1.965   6.793  0.4471 -0.7453  0.2252
  136OSM     OF14830   1.068   1.893   6.867  0.4238 -0.4228 -0.3079
  136OSM    C2F14831   1.207   1.910   6.675  0.1047 -0.3452 -0.4133
  136OSM    H2F14832   1.237   1.809   6.709  0.0090  0.2966  1.7376
  136OSM    H2G14833   1.297   1.974   6.662 -1.4164  1.8795 -0.4779
  136OSM    C3F14834   1.127   1.881   6.546  0.3981 -0.0390 -0.7840
  136OSM    H3F14835   1.054   1.962   6.527 -1.0528 -0.9056  0.8123
  136OSM    H3G14836   1.063   1.793   6.567 -0.9351  1.4552  1.8789
  136OSM    C4F14837   1.216   1.841   6.433 -0.2430  0.2140  0.2001
  136OSM    H4F14838   1.241   1.733   6.436  0.9931  0.5072  0.7557
  136OSM    H4G14839   1.306   1.905   6.437  1.2447 -1.3858 -3.4909
  136OSM    C5F14840   1.143   1.842   6.299 -0.4548  0.0590  0.6507
  136OSM    H5F14841   1.121   1.949   6.276 -0.4651  0.0462  0.6010
  136OSM    H5G14842   1.048   1.788   6.311 -0.4234 -0.6157 -1.5860
  136OSM    C6F14843   1.231   1.780   6.187 -0.2630 -0.1354  0.5961
  136OSM    H6F14844   1.260   1.676   6.212  0.8757  0.6054  2.5921
  136OSM    H6G14845   1.323   1.841   6.187 -1.1877  1.3426  2.1081
  136OSM    C7F14846   1.158   1.783   6.054 -0.4844  0.5701  0.4290
  136OSM    H7F14847   1.101   1.875   6.028 -0.0603  1.2114  1.6795
  136OSM    H7G14848   1.089   1.696   6.057  0.6652 -0.3670  0.4121
  136OSM    C8F14849   1.251   1.745   5.930  0.8787 -0.4528  0.1927
  136OSM    H8F14850   1.283   1.638   5.931  0.2721 -0.6375  1.4401
  136OSM    H8G14851   1.342   1.808   5.942  0.5728 -0.1617  1.0953
  136OSM    C9F14852   1.177   1.775   5.803  0.0857 -0.0166 -0.2896
  136OSM    H9F14853   1.108   1.693   5.777  1.5860 -1.4884  0.1813
  136OSM   C10F14854   1.185   1.882   5.722  0.7774  0.5082 -0.1448
  136OSM   H10F14855   1.144   1.879   5.620  2.9329 -1.5208 -1.0533
  136OSM   C11F14856   1.270   1.997   5.751  0.6429 -0.1390  0.1518
  136OSM   H11F14857   1.340   2.002   5.665  2.2608 -0.1530  1.4077
  136OSM   H11G14858   1.340   1.970   5.833  1.5198 -0.2941 -0.6318
  136OSM   C12F14859   1.203   2.139   5.768  0.2380  0.4573 -0.0230
  136OSM   H12F14860   1.122   2.164   5.696  0.1201 -0.6667 -0.2959
  136OSM   H12G14861   1.288   2.212   5.770  0.9976 -0.3950 -0.3771
  136OSM   C13F14862   1.145   2.156   5.908  0.1830  0.2390  0.6193
  136OSM   H13F14863   1.070   2.074   5.916 -1.0331  0.8598 -2.8631
  136OSM   H13G14864   1.093   2.254   5.916  2.2521  1.2209  3.4839
  136OSM   C14F14865   1.246   2.147   6.025  0.2417  0.2505  0.1376
  136OSM   H14F14866   1.323   2.069   6.007 -0.5882 -0.5634  0.0455
  136OSM   H14G14867   1.199   2.120   6.122  0.5191 -2.2436 -0.3605
  136OSM   C15F14868   1.318   2.285   6.038  0.9597  0.0097  0.0445
  136OSM   H15F14869   1.233   2.356   6.038 -0.0369 -1.0951  1.6799
  136OSM   H15G14870   1.384   2.304   5.952 -0.1724  0.2054 -0.8068
  136OSM   C16F14871   1.389   2.315   6.169 -0.2723  0.8456  0.3792
  136OSM   H16F14872   1.445   2.411   6.170  0.8470  0.2036  0.8625
  136OSM   H16G14873   1.471   2.242   6.189  0.6867  1.8871  0.3538
  136OSM   C17F14874   1.299   2.304   6.296  0.1972 -0.0827 -0.2793
  136OSM   H17F14875   1.251   2.204   6.302 -1.3209  0.5244 -1.5890
  136OSM   H17G14876   1.223   2.381   6.271  0.2084  0.5017  1.3760
  136OSM   C18F14877   1.370   2.338   6.421 -0.0064  0.3962  1.0756
  136OSM   H18F14878   1.302   2.399   6.484 -3.6810 -2.2571  0.0197
  136OSM   H18G14879   1.465   2.393   6.405 -0.0468  0.0088 -0.7120
  136OSM   H18H14880   1.398   2.238   6.459  1.8315 -0.4082 -2.0616
  137OSM      N14881   4.007   6.571   7.868 -0.5819  0.0763  0.4737
  137OSM    C1514882   3.955   6.713   7.888  1.0116 -0.4072  0.3634
  137OSM   H15A14883   3.992   6.756   7.980 -0.0541  3.0715 -0.6615
  137OSM   H15B14884   3.847   6.713   7.889  0.9833 -0.9203 -0.8221
  137OSM   H15C14885   3.992   6.769   7.803  1.8646 -0.0418  0.9602
  137OSM    C1414886   4.142   6.574   7.810 -0.6344 -0.4385 -0.0151
  137OSM   H14A14887   4.186   6.476   7.803 -0.7953 -0.7703  2.7989
  137OSM   H14B14888   4.207   6.633   7.873  0.6175 -1.7114 -0.0601
  137OSM   H14C14889   4.143   6.621   7.712  1.4372 -0.3052  0.0274
  137OSM    C1314890   4.020   6.501   8.002  0.1949 -0.5783  0.3102
  137OSM   H13A14891   4.052   6.400   7.981 -1.6615 -0.7266 -2.1376
  137OSM   H13B14892   3.923   6.509   8.047 -0.1202  1.4634 -0.6087
  137OSM   H13C14893   4.095   6.553   8.061 -0.4911 -1.1052  1.6827
  137OSM    C1214894   3.921   6.497   7.771  0.0903 -0.2487 -0.7173
  137OSM   H12A14895   3.959   6.395   7.772 -1.7168 -0.9557 -0.6234
  137OSM   H12B14896   3.926   6.535   7.671 -0.3044 -0.8841 -0.9822
  137OSM    C1114897   3.776   6.473   7.818 -0.7568  0.0578 -0.3574
  137OSM   H11A14898   3.777   6.416   7.913 -1.9405 -0.9974 -0.9493
  137OSM   H11B14899   3.723   6.405   7.748 -1.0909  1.3091 -1.3513
  137OSM      P14900   3.539   6.595   7.818  0.0006 -0.0645  0.2424
  137OSM    O1314901   3.498   6.506   7.929  0.0491  1.0629 -0.2243
  137OSM    O1414902   3.486   6.735   7.820  0.6628 -0.3748  0.2675
  137OSM    O1114903   3.509   6.528   7.676  0.2564  0.4258 -0.3624
  137OSM    O1214904   3.702   6.598   7.824  0.4445 -0.4816  0.1715
  137OSM    C1S14905   3.483   6.602   7.558  0.1215  0.1785  0.1759
  137OSM    H1S14906   3.529   6.704   7.565  0.1312  0.3447 -1.7617
  137OSM    H1T14907   3.374   6.606   7.540 -0.1659 -1.1204  1.4191
  137OSM     NF14908   3.497   6.613   7.313 -0.2332 -0.3943 -0.1194
  137OSM    HNF14909   3.422   6.584   7.255  1.3940 -0.9262 -2.0683
  137OSM    C2S14910   3.530   6.527   7.429  0.1168 -0.0754  0.4602
  137OSM    H2S14911   3.639   6.511   7.443  0.2869  0.6169  0.0320
  137OSM    C3S14912   3.442   6.395   7.421 -0.3652  0.1115  0.4836
  137OSM    H3S14913   3.334   6.421   7.424 -1.1215 -2.5590 -0.9691
  137OSM     O314914   3.462   6.300   7.519  0.4508 -0.2944 -0.6100
  137OSM    HO314915   3.528   6.339   7.578  1.1328 -1.0352 -0.8644
  137OSM    C4S14916   3.464   6.324   7.286  0.1310  0.7741  0.1613
  137OSM    H4S14917   3.565   6.282   7.275 -0.8230 -1.4164 -0.7900
  137OSM    C5S14918   3.376   6.292   7.188  0.0679 -0.2343 -0.4532
  137OSM    H5S14919   3.268   6.296   7.209  0.2759 -3.5157  2.0963
  137OSM    C6S14920   3.417   6.231   7.057  0.1012  0.0899  0.3191
  137OSM    H6S14921   3.371   6.132   7.038  0.7295 -0.7727  2.8795
  137OSM    H6T14922   3.526   6.208   7.061 -0.6677 -4.2118  1.7393
  137OSM    C7S14923   3.374   6.310   6.937  0.6021 -0.6983 -0.1320
  137OSM    H7S14924   3.406   6.415   6.956 -2.2046  0.6417 -2.0269
  137OSM    H7T14925   3.263   6.319   6.933  0.5944  0.4404  1.5079
  137OSM    C8S14926   3.427   6.261   6.806  0.1221  0.0478  0.2251
  137OSM    H8S14927   3.501   6.180   6.826 -0.1887 -0.1059  0.7895
  137OSM    H8T14928   3.486   6.346   6.765  0.4009 -0.5495 -0.6446
  137OSM    C9S14929   3.316   6.240   6.699 -0.6330 -0.0020  0.2230
  137OSM    H9S14930   3.231   6.310   6.714 -0.5525  0.5117 -1.4692
  137OSM    H9T14931   3.279   6.135   6.706  1.4582 -0.7334  0.8526
  137OSM   C10S14932   3.383   6.268   6.562  0.4103  0.3389  0.8092
  137OSM   H10S14933   3.479   6.219   6.535 -0.0995  0.4935 -1.5188
  137OSM   H10T14934   3.423   6.368   6.590  2.8055 -0.6387  1.1339
  137OSM   C11S14935   3.286   6.261   6.442  0.1022 -0.0905  0.4628
  137OSM   H11S14936   3.183   6.298   6.460 -2.2968 -4.1182 -3.2053
  137OSM   H11T14937   3.279   6.153   6.418  1.3481 -0.3789  1.2849
  137OSM   C12S14938   3.340   6.327   6.315 -0.1129  0.6041 -0.0729
  137OSM   H12S14939   3.432   6.267   6.298 -0.3212 -0.1732  1.3790
  137OSM   H12T14940   3.362   6.433   6.338  1.3729  0.1537  0.7333
  137OSM   C13S14941   3.238   6.316   6.201 -0.3984 -0.5173  0.4285
  137OSM   H13S14942   3.136   6.339   6.240 -0.5219  0.9155 -0.6285
  137OSM   H13T14943   3.251   6.207   6.181  0.7936 -0.6839  1.9455
  137OSM   C14S14944   3.283   6.380   6.073 -0.6880 -0.0906  0.3056
  137OSM   H14S14945   3.381   6.340   6.040  1.2661  2.4548  2.4860
  137OSM   H14T14946   3.313   6.484   6.100  0.6346 -0.3832  0.0337
  137OSM   C15S14947   3.186   6.360   5.958 -0.1666  0.2653  0.1351
  137OSM   H15S14948   3.087   6.402   5.988  0.2298  0.1600  1.6748
  137OSM   H15T14949   3.164   6.251   5.959  2.0534 -0.2161  0.4705
  137OSM   C16S14950   3.237   6.418   5.825  1.1822  0.1960 -0.0451
  137OSM   H16S14951   3.320   6.348   5.800  1.4056 -0.9460  3.3746
  137OSM   H16T14952   3.278   6.520   5.841  2.8153 -0.5777  1.0160
  137OSM   C17S14953   3.143   6.414   5.700 -0.5294 -0.3613  1.1144
  137OSM   H17S14954   3.212   6.451   5.622 -2.4847 -0.9419 -1.0275
  137OSM   H17T14955   3.055   6.481   5.712 -1.2052 -0.3836 -2.5530
  137OSM   C18S14956   3.102   6.267   5.664  0.1679 -0.5900  0.0067
  137OSM   H18S14957   3.197   6.216   5.638  1.1318  1.2878 -0.3546
  137OSM   H18T14958   3.041   6.291   5.574 -1.8331  0.8117  1.6188
  137OSM   H18U14959   3.040   6.228   5.748 -0.3944  0.1999 -0.0290
  137OSM    C1F14960   3.552   6.725   7.291  0.3804  0.3216 -0.4743
  137OSM     OF14961   3.665   6.753   7.333 -0.2937 -0.0220 -0.0520
  137OSM    C2F14962   3.477   6.821   7.203  0.1200  0.5615  0.2036
  137OSM    H2F14963   3.427   6.876   7.285 -1.7013 -0.2583 -0.3114
  137OSM    H2G14964   3.396   6.778   7.141 -1.2359  1.1989  1.4833
  137OSM    C3F14965   3.569   6.901   7.110 -0.1870 -0.2467 -0.3084
  137OSM    H3F14966   3.643   6.953   7.175 -0.3678 -0.7869  0.3408
  137OSM    H3G14967   3.499   6.965   7.053 -0.7705 -0.7106 -0.1211
  137OSM    C4F14968   3.653   6.815   7.011  0.1860  0.4276 -0.3938
  137OSM    H4F14969   3.714   6.733   7.055  0.5287  1.2082  0.6247
  137OSM    H4G14970   3.735   6.879   6.972  0.2283  0.5713 -0.0768
  137OSM    C5F14971   3.564   6.744   6.906  0.6613  0.0833 -0.6247
  137OSM    H5F14972   3.508   6.829   6.862 -0.6325 -0.6292 -0.4085
  137OSM    H5G14973   3.495   6.677   6.962 -0.2812  1.9372  0.5564
  137OSM    C6F14974   3.638   6.661   6.809 -0.3262  0.3891  0.8388
  137OSM    H6F14975   3.577   6.582   6.761 -0.8997  2.1926 -1.6299
  137OSM    H6G14976   3.718   6.619   6.873 -1.4199  1.8936  3.3597
  137OSM    C7F14977   3.710   6.734   6.694  0.7595  0.4344  0.2372
  137OSM    H7F14978   3.806   6.681   6.674  0.2702 -0.5677  0.4826
  137OSM    H7G14979   3.744   6.838   6.717  0.1953  0.6540  0.1086
  137OSM    C8F14980   3.636   6.749   6.559 -0.6214 -0.4577 -0.1151
  137OSM    H8F14981   3.694   6.826   6.503 -1.8391  1.3896  1.0553
  137OSM    H8G14982   3.536   6.794   6.572 -0.9185 -1.4967  1.3702
  137OSM    C9F14983   3.630   6.625   6.480  0.2982 -0.4799  0.4729
  137OSM    H9F14984   3.630   6.529   6.534  0.7864 -1.0528 -0.5169
  137OSM   C10F14985   3.610   6.624   6.348  0.2248  0.1157 -0.1960
  137OSM   H10F14986   3.616   6.520   6.313  0.4369 -0.1250  0.5421
  137OSM   C11F14987   3.608   6.727   6.243  0.4524 -0.3210  0.2528
  137OSM   H11F14988   3.632   6.826   6.288  0.4192 -0.7556  1.2431
  137OSM   H11G14989   3.506   6.744   6.200  1.3146  2.3081 -0.9778
  137OSM   C12F14990   3.701   6.695   6.124 -0.6132  0.3134 -0.6219
  137OSM   H12F14991   3.807   6.672   6.149 -0.0415  3.3716  0.1580
  137OSM   H12G14992   3.715   6.786   6.062 -0.2529  0.7463  0.0700
  137OSM   C13F14993   3.653   6.592   6.020  0.6617  0.2033 -0.1221
  137OSM   H13F14994   3.610   6.506   6.075  1.0461 -1.1271 -1.8007
  137OSM   H13G14995   3.740   6.559   5.958 -1.1967  0.9353 -3.3268
  137OSM   C14F14996   3.561   6.645   5.902  0.1992  0.6418 -0.1692
  137OSM   H14F14997   3.467   6.691   5.939 -1.4965 -3.5612  1.3927
  137OSM   H14G14998   3.524   6.551   5.856 -0.6463  1.2875 -0.8382
  137OSM   C15F14999   3.635   6.727   5.798 -1.0573 -0.0355  0.2901
  137OSM   H15F15000   3.722   6.671   5.758 -1.2300 -0.4795  0.5275
  137OSM   H15G15001   3.672   6.823   5.838 -2.5554 -0.2062  2.2553
  137OSM   C16F15002   3.553   6.769   5.680  0.1172  0.2020  0.1766
  137OSM   H16F15003   3.606   6.846   5.621 -1.1738  1.1342  0.1872
  137OSM   H16G15004   3.478   6.836   5.728 -0.5673 -2.4995  3.2655
  137OSM   C17F15005   3.487   6.664   5.598 -0.1997  0.1402 -0.7195
  137OSM   H17F15006   3.409   6.609   5.657  1.5043 -0.2665  1.2825
  137OSM   H17G15007   3.564   6.595   5.557 -0.3976  0.5528 -1.7911
  137OSM   C18F15008   3.413   6.728   5.477 -0.2196  0.2634 -0.4028
  137OSM   H18F15009   3.470   6.790   5.404  1.5727  1.0895  1.6167
  137OSM   H18G15010   3.322   6.782   5.511 -0.0877  0.4376 -0.3263
  137OSM   H18H15011   3.371   6.643   5.419 -1.9374  0.8285 -0.0492
  138OSM      N15012   0.444   6.574   7.580  0.3615 -1.2041 -0.5182
  138OSM    C1515013   0.526   6.701   7.593  0.6489 -0.0136  0.4636
  138OSM   H15A15014   0.494   6.780   7.660 -1.1599  1.4693 -1.9994
  138OSM   H15B15015   0.525   6.751   7.498  0.0487 -0.9128 -0.0101
  138OSM   H15C15016   0.626   6.674   7.625  0.2611 -0.2647  1.5141
  138OSM    C1415017   0.507   6.490   7.476 -0.2368  0.1713 -0.4902
  138OSM   H14A15018   0.534   6.557   7.396  0.2523  2.2405  1.3132
  138OSM   H14B15019   0.439   6.410   7.450  0.6883 -0.1830 -1.9342
  138OSM   H14C15020   0.599   6.441   7.505 -0.2852 -0.2596 -1.0438
  138OSM    C1315021   0.459   6.502   7.710  0.3624 -0.3040 -0.2088
  138OSM   H13A15022   0.401   6.549   7.788  0.8303 -0.1932  0.0792
  138OSM   H13B15023   0.558   6.492   7.752 -0.5904 -0.9249  2.0927
  138OSM   H13C15024   0.421   6.402   7.698  0.8951 -0.4313 -0.8658
  138OSM    C1215025   0.296   6.604   7.551 -0.0495  0.5730  0.2732
  138OSM   H12A15026   0.259   6.674   7.626 -1.6092  1.8823 -1.6050
  138OSM   H12B15027   0.242   6.511   7.550  0.9188  0.0049  0.2737
  138OSM    C1115028   0.267   6.680   7.416 -0.3519  0.0143 -0.1431
  138OSM   H11A15029   0.160   6.670   7.389 -0.7645 -0.8718  1.7043
  138OSM   H11B15030   0.311   6.622   7.332  1.2548  0.4905  0.3178
  138OSM      P15031   0.223   6.933   7.452  0.3222  0.2069  0.0974
  138OSM    O1315032   0.168   6.928   7.587  0.0925 -0.3420 -0.1276
  138OSM    O1415033   0.293   7.055   7.419  0.5327  0.0323  0.4870
  138OSM    O1115034   0.105   6.915   7.347  0.4172 -0.4157 -0.2850
  138OSM    O1215035   0.318   6.811   7.417  0.5284  0.6201 -0.2661
  138OSM    C1S15036   0.135   6.926   7.206 -0.3683  0.1864  0.1125
  138OSM    H1S15037   0.181   6.831   7.170  2.3382  0.9940  1.1501
  138OSM    H1T15038   0.210   7.003   7.176  0.4220 -1.6353 -3.0711
  138OSM     NF15039   0.031   6.952   6.985  0.6885 -0.0390 -0.3592
  138OSM    HNF15040   0.014   7.040   6.941  0.6665 -0.1033 -0.4781
  138OSM    C2S15041   0.002   6.944   7.128 -0.4914  0.0739  0.0818
  138OSM    H2S15042  -0.068   6.858   7.139 -1.4687  0.8786  0.3817
  138OSM    C3S15043  -0.072   7.069   7.177 -0.8494  0.1423 -0.1018
  138OSM    H3S15044  -0.004   7.152   7.149 -0.1280 -1.1325 -2.4642
  138OSM     O315045  -0.095   7.074   7.319  0.0722  0.1411  0.0354
  138OSM    HO315046  -0.036   7.005   7.349 -0.0412 -0.3923 -0.9193
  138OSM    C4S15047  -0.203   7.086   7.100  0.7480  0.0935 -0.3652
  138OSM    H4S15048  -0.199   7.180   7.043  2.3483  0.0008 -0.4571
  138OSM    C5S15049  -0.315   7.009   7.120  0.1975  0.1484  0.0630
  138OSM    H5S15050  -0.325   6.925   7.190  0.2586  0.5956  0.6165
  138OSM    C6S15051  -0.438   7.052   7.040  0.2933 -0.4066  0.5836
  138OSM    H6S15052  -0.429   7.143   6.977  1.3656 -1.6225 -1.1058
  138OSM    H6T15053  -0.520   7.076   7.111  0.2380 -1.4890  0.9001
  138OSM    C7S15054  -0.481   6.940   6.957  0.0959  0.6826 -0.5238
  138OSM    H7S15055  -0.581   6.967   6.918 -0.0950 -0.4118 -0.8402
  138OSM    H7T15056  -0.495   6.854   7.026 -0.2155  1.1929  0.0588
  138OSM    C8S15057  -0.392   6.922   6.831 -0.0910  0.4835  0.2964
  138OSM    H8S15058  -0.442   6.840   6.775  0.6699  0.3923 -0.2651
  138OSM    H8T15059  -0.290   6.885   6.854 -0.4504 -1.4893 -0.9996
  138OSM    C9S15060  -0.381   7.051   6.742  0.5304  0.4538  0.1524
  138OSM    H9S15061  -0.292   7.110   6.772  0.3390  0.4742  0.6913
  138OSM    H9T15062  -0.463   7.125   6.755  1.0796  1.2105 -0.6110
  138OSM   C10S15063  -0.370   7.022   6.586  0.1168 -0.3042 -0.0354
  138OSM   H10S15064  -0.461   6.967   6.552  0.2959 -0.2952 -0.5394
  138OSM   H10T15065  -0.285   6.957   6.557 -1.0389 -1.3415 -1.2504
  138OSM   C11S15066  -0.376   7.151   6.505  0.2138 -0.3284  0.6156
  138OSM   H11S15067  -0.299   7.217   6.550  1.3695 -0.2787 -1.3476
  138OSM   H11T15068  -0.471   7.209   6.512  0.5194  0.7205 -2.2651
  138OSM   C12S15069  -0.345   7.130   6.361  0.0557  0.1374 -0.8018
  138OSM   H12S15070  -0.244   7.088   6.341 -0.0113 -0.1807 -0.4958
  138OSM   H12T15071  -0.334   7.226   6.307 -1.5423  1.0225  0.3430
  138OSM   C13S15072  -0.459   7.065   6.285 -1.0199  0.9153 -0.2258
  138OSM   H13S15073  -0.552   7.122   6.309 -0.2229  1.4624  1.7539
  138OSM   H13T15074  -0.487   6.960   6.308  0.2050  0.4604 -0.7708
  138OSM   C14S15075  -0.432   7.077   6.133  0.8780  0.0362 -0.4492
  138OSM   H14S15076  -0.362   6.993   6.117  1.4167  0.3062  0.4218
  138OSM   H14T15077  -0.386   7.165   6.083  0.9579 -0.5992 -1.5321
  138OSM   C15S15078  -0.561   7.046   6.052  0.2174 -0.2247  0.2812
  138OSM   H15S15079  -0.626   7.136   6.043  0.9353  0.1077 -2.5308
  138OSM   H15T15080  -0.617   6.966   6.106 -1.7215  2.5816  2.7886
  138OSM   C16S15081  -0.536   7.000   5.906  0.3651 -0.4483 -0.5500
  138OSM   H16S15082  -0.620   6.930   5.888  1.0648 -0.9879 -1.8263
  138OSM   H16T15083  -0.448   6.932   5.903 -0.4291 -1.5717  0.5324
  138OSM   C17S15084  -0.540   7.099   5.794 -0.1112 -0.0428  0.4564
  138OSM   H17S15085  -0.540   7.036   5.702  0.3892 -0.2496  0.5959
  138OSM   H17T15086  -0.457   7.172   5.797 -0.4492  0.3173  1.8267
  138OSM   C18S15087  -0.677   7.173   5.803  0.2183 -0.2318  0.4877
  138OSM   H18S15088  -0.701   7.213   5.702  0.1085 -0.2155  0.5201
  138OSM   H18T15089  -0.677   7.257   5.875  1.5311 -0.4651  0.7937
  138OSM   H18U15090  -0.756   7.100   5.830 -0.8434 -0.2650 -2.3407
  138OSM    C1F15091   0.061   6.845   6.912 -0.2088 -0.0538  0.0941
  138OSM     OF15092   0.040   6.734   6.948 -0.3725 -0.0418  0.6972
  138OSM    C2F15093   0.112   6.880   6.779 -0.0998 -0.3058 -0.1037
  138OSM    H2F15094   0.202   6.818   6.761  1.3161  1.8726 -0.8345
  138OSM    H2G15095   0.150   6.984   6.786  3.0148 -1.2926 -0.9790
  138OSM    C3F15096   0.022   6.857   6.657  0.5681  0.1872 -0.1595
  138OSM    H3F15097  -0.082   6.895   6.661  0.5100  0.2654 -1.9550
  138OSM    H3G15098   0.005   6.748   6.644 -1.4252  0.3138  0.9456
  138OSM    C4F15099   0.079   6.901   6.515 -0.6961 -0.2265  0.3467
  138OSM    H4F15100   0.167   6.834   6.506 -0.2690  0.5068 -1.1880
  138OSM    H4G15101   0.117   7.005   6.521  1.1311 -0.9152  1.6611
  138OSM    C5F15102  -0.008   6.867   6.391 -0.2855 -0.0134 -0.3042
  138OSM    H5F15103  -0.112   6.900   6.412 -0.9273 -1.1885 -1.4752
  138OSM    H5G15104  -0.033   6.761   6.367 -2.6897  0.5837 -0.7071
  138OSM    C6F15105   0.043   6.932   6.262  0.4491 -0.7359  1.1181
  138OSM    H6F15106   0.135   6.878   6.229 -0.1662 -1.0439 -0.1554
  138OSM    H6G15107   0.065   7.039   6.279  2.6624 -0.7939 -0.8616
  138OSM    C7F15108  -0.059   6.917   6.144 -0.2155 -0.1279  0.1299
  138OSM    H7F15109  -0.149   6.976   6.168 -0.5342  0.4494 -2.2482
  138OSM    H7G15110  -0.086   6.810   6.131 -1.1384  0.0620  0.4539
  138OSM    C8F15111   0.001   6.974   6.012 -0.0093 -0.7486  0.2729
  138OSM    H8F15112   0.099   6.924   5.996 -0.0745 -1.2705  1.4287
  138OSM    H8G15113   0.022   7.081   6.033 -0.5021 -0.6887  0.4537
  138OSM    C9F15114  -0.099   6.962   5.896  0.0126  0.1416  0.4885
  138OSM    H9F15115  -0.155   7.055   5.878  3.5709  2.4225  0.3318
  138OSM   C10F15116  -0.094   6.872   5.797 -0.2871 -1.2070  0.1193
  138OSM   H10F15117  -0.159   6.891   5.710  0.1122  1.6155  0.3423
  138OSM   C11F15118  -0.009   6.747   5.797 -0.1873 -0.2883  0.3013
  138OSM   H11F15119  -0.075   6.660   5.779 -1.1043  0.2609  0.8760
  138OSM   H11G15120   0.044   6.730   5.894 -0.0509  2.1971  0.7307
  138OSM   C12F15121   0.108   6.747   5.687 -0.4329 -0.1622  0.5379
  138OSM   H12F15122   0.161   6.649   5.690  1.0911  0.5827 -0.8952
  138OSM   H12G15123   0.181   6.822   5.725  0.7258 -0.8485 -0.3000
  138OSM   C13F15124   0.069   6.783   5.546  0.7046  1.1003 -0.7194
  138OSM   H13F15125   0.031   6.887   5.539 -2.0845  0.2341  0.0970
  138OSM   H13G15126  -0.027   6.732   5.521  0.8273  0.9157 -0.8177
  138OSM   C14F15127   0.171   6.746   5.437  0.3350 -0.5552  0.4462
  138OSM   H14F15128   0.196   6.638   5.444 -3.1439 -1.5752 -0.8730
  138OSM   H14G15129   0.274   6.787   5.446 -0.3368  1.8420 -1.6519
  138OSM   C15F15130   0.110   6.777   5.301  0.1116  0.2243  0.1329
  138OSM   H15F15131   0.116   6.884   5.272 -0.3593  0.6478  1.4963
  138OSM   H15G15132   0.005   6.753   5.329  0.5592  0.2870  2.0606
  138OSM   C16F15133   0.168   6.693   5.187  0.5661  0.7163  0.2260
  138OSM   H16F15134   0.168   6.586   5.216 -2.1985  0.6475  0.1513
  138OSM   H16G15135   0.274   6.726   5.174  0.5592  0.6695  0.0506
  138OSM   C17F15136   0.099   6.712   5.054 -0.2251  0.6032  0.0945
  138OSM   H17F15137   0.081   6.818   5.027 -2.0905 -0.3954 -3.1599
  138OSM   H17G15138  -0.009   6.685   5.058  0.2223 -1.5206 -1.1048
  138OSM   C18F15139   0.170   6.637   4.936 -0.2225 -0.2548  0.0037
  138OSM   H18F15140   0.269   6.687   4.923 -0.7854  0.4748 -1.9362
  138OSM   H18G15141   0.111   6.651   4.843  0.1048  1.1625 -0.0094
  138OSM   H18H15142   0.179   6.530   4.963 -1.0822 -0.0303  1.2447
  139OSM      N15143   4.015   2.137   7.466 -0.1747  0.5426  0.2959
  139OSM    C1515144   3.998   1.998   7.413 -0.2092 -0.0762 -0.0241
  139OSM   H15A15145   4.043   1.986   7.315  2.9002  0.8056  1.1588
  139OSM   H15B15146   3.892   1.980   7.402 -0.1118 -0.1621 -0.9016
  139OSM   H15C15147   4.035   1.923   7.481 -0.3552 -0.7294 -0.6513
  139OSM    C1415148   4.160   2.166   7.470  0.1610 -0.3406  0.8407
  139OSM   H14A15149   4.201   2.183   7.371 -0.3817 -1.3898  0.4130
  139OSM   H14B15150   4.219   2.086   7.513  1.0606  0.0260  0.3115
  139OSM   H14C15151   4.163   2.258   7.526 -2.5457  2.5514 -3.2063
  139OSM    C1315152   3.942   2.226   7.371 -0.2851 -0.0423  0.0842
  139OSM   H13A15153   3.966   2.326   7.402 -0.2638 -1.0153  3.6858
  139OSM   H13B15154   3.836   2.206   7.380 -0.5834  0.7632 -1.2462
  139OSM   H13C15155   3.965   2.210   7.266 -2.2307  1.6932 -0.6728
  139OSM    C1215156   3.952   2.134   7.601 -0.0402 -0.5492  0.8004
  139OSM   H12A15157   3.987   2.212   7.667  0.1066  0.7324 -0.7605
  139OSM   H12B15158   3.974   2.041   7.652  1.1495 -0.6058  0.2169
  139OSM    C1115159   3.794   2.142   7.610  0.4387 -0.0412 -0.3685
  139OSM   H11A15160   3.753   2.231   7.558  1.3091  1.9808  2.1612
  139OSM   H11B15161   3.751   2.165   7.710  1.5580  1.6167 -0.2391
  139OSM      P15162   3.726   1.900   7.635 -0.2642  0.2262  0.4124
  139OSM    O1315163   3.843   1.885   7.727  0.5600 -0.5963  0.6659
  139OSM    O1415164   3.589   1.892   7.698 -0.4328  0.8915  0.4366
  139OSM    O1115165   3.741   1.795   7.523 -0.1158  0.8545  0.5560
  139OSM    O1215166   3.737   2.027   7.550 -0.1408 -0.5010 -0.6376
  139OSM    C1S15167   3.630   1.751   7.445 -0.3944  0.5784 -0.1590
  139OSM    H1S15168   3.537   1.809   7.467 -1.7139 -0.2490 -3.0227
  139OSM    H1T15169   3.613   1.648   7.482  1.0609  0.1919 -0.5018
  139OSM     NF15170   3.543   1.739   7.204 -0.7519 -0.0859 -0.2927
  139OSM    HNF15171   3.523   1.655   7.154  0.2094 -0.7127  0.3477
  139OSM    C2S15172   3.667   1.749   7.286  0.1971 -0.2039 -0.0204
  139OSM    H2S15173   3.721   1.840   7.253  1.4285  0.0233  2.3885
  139OSM    C3S15174   3.774   1.640   7.259  0.9521 -0.4134 -0.0526
  139OSM    H3S15175   3.724   1.543   7.279 -2.0129  0.7241 -1.3629
  139OSM     O315176   3.888   1.660   7.349 -0.1337 -0.2773 -0.1714
  139OSM    HO315177   3.860   1.716   7.421 -1.8979 -1.6881  0.2865
  139OSM    C4S15178   3.810   1.643   7.110 -0.3970 -0.3537 -0.1206
  139OSM    H4S15179   3.820   1.745   7.070 -1.1194 -0.3442 -0.2914
  139OSM    C5S15180   3.802   1.536   7.029 -0.4312 -0.3871  0.6347
  139OSM    H5S15181   3.790   1.436   7.073  0.5391 -0.3347  1.0374
  139OSM    C6S15182   3.831   1.536   6.881 -0.5319 -0.2768 -0.2979
  139OSM    H6S15183   3.753   1.479   6.826  0.8304 -0.9573 -1.5898
  139OSM    H6T15184   3.927   1.484   6.861 -1.5417 -1.7988 -1.4307
  139OSM    C7S15185   3.840   1.672   6.813  0.4779  0.3571 -0.0183
  139OSM    H7S15186   3.921   1.726   6.866  1.7365 -0.3007 -1.2116
  139OSM    H7T15187   3.738   1.714   6.818 -0.4544 -1.3128 -2.6727
  139OSM    C8S15188   3.888   1.669   6.670 -0.5996  0.1666 -0.0333
  139OSM    H8S15189   3.822   1.609   6.604 -1.2278  1.6067 -0.7539
  139OSM    H8T15190   3.983   1.616   6.648 -0.0652  2.0007 -2.5625
  139OSM    C9S15191   3.912   1.814   6.606 -0.4487 -0.1422  0.6588
  139OSM    H9S15192   3.965   1.874   6.683  2.2116 -1.8149  0.2870
  139OSM    H9T15193   3.814   1.860   6.582  0.3061  0.8247 -0.6503
  139OSM   C10S15194   3.997   1.811   6.477 -0.7056  0.1086 -0.4812
  139OSM   H10S15195   3.965   1.726   6.412  2.8134 -0.0100 -2.3089
  139OSM   H10T15196   4.096   1.769   6.504 -1.2538 -0.8989  0.0394
  139OSM   C11S15197   3.998   1.934   6.391  0.6804  0.1667 -0.0579
  139OSM   H11S15198   4.044   2.018   6.447  0.4829 -0.5679  1.2653
  139OSM   H11T15199   3.893   1.968   6.381 -0.0912 -1.9361  0.2869
  139OSM   C12S15200   4.060   1.907   6.252  0.3934  0.7443  0.3409
  139OSM   H12S15201   4.032   1.801   6.233  1.0134  0.7265 -0.5323
  139OSM   H12T15202   4.171   1.913   6.262  0.3571 -0.4392  1.9715
  139OSM   C13S15203   4.011   1.991   6.136 -0.3354 -0.1450  0.2232
  139OSM   H13S15204   4.054   2.093   6.147  0.2122 -0.1838 -1.2826
  139OSM   H13T15205   3.901   1.998   6.152 -0.6129 -1.2957 -1.0253
  139OSM   C14S15206   4.043   1.934   5.985  0.5140 -0.3076  0.0695
  139OSM   H14S15207   3.989   1.995   5.909 -0.7045  0.9613  1.8734
  139OSM   H14T15208   4.005   1.832   5.965 -0.7151  0.1369  0.0652
  139OSM   C15S15209   4.191   1.949   5.939 -0.3570 -1.2385 -1.0238
  139OSM   H15S15210   4.268   1.944   6.018  1.1102  0.7711 -2.2484
  139OSM   H15T15211   4.193   2.055   5.907 -0.6679 -1.1555 -0.7658
  139OSM   C16S15212   4.225   1.857   5.829  0.0066 -0.1535  0.2286
  139OSM   H16S15213   4.131   1.819   5.783 -0.1652 -1.3543  1.5102
  139OSM   H16T15214   4.290   1.770   5.851  0.7571  0.2941 -0.1536
  139OSM   C17S15215   4.291   1.930   5.705 -0.3110 -0.9631 -0.2093
  139OSM   H17S15216   4.399   1.949   5.727 -0.3995  0.4565 -0.8479
  139OSM   H17T15217   4.245   2.031   5.693  3.4850  1.4454  2.8169
  139OSM   C18S15218   4.280   1.850   5.576  0.3140 -0.2505 -0.3994
  139OSM   H18S15219   4.289   1.740   5.593  1.2789  0.0974  1.7005
  139OSM   H18T15220   4.373   1.875   5.521  1.6244  0.5281  1.9892
  139OSM   H18U15221   4.190   1.880   5.519 -0.2492  1.9676  1.5079
  139OSM    C1F15222   3.454   1.831   7.187  1.2156 -0.2562  0.3453
  139OSM     OF15223   3.441   1.930   7.264  0.1203  0.6155  0.5705
  139OSM    C2F15224   3.348   1.806   7.080 -0.6018  0.8056 -0.2204
  139OSM    H2F15225   3.282   1.724   7.115  1.8055 -1.4498 -0.6271
  139OSM    H2G15226   3.388   1.755   6.989 -1.8431 -2.8317  1.1091
  139OSM    C3F15227   3.272   1.935   7.052 -0.9180  0.7476  0.0236
  139OSM    H3F15228   3.330   2.028   7.039  0.9568 -0.4298 -0.3475
  139OSM    H3G15229   3.208   1.941   7.143 -0.1861 -2.6999  0.9254
  139OSM    C4F15230   3.182   1.909   6.928 -0.5584  0.0168  0.0572
  139OSM    H4F15231   3.117   1.828   6.968 -0.1341  1.1280  3.2807
  139OSM    H4G15232   3.238   1.878   6.837  0.5993  2.2872 -0.0558
  139OSM    C5F15233   3.086   2.021   6.897 -0.5965  0.5802 -0.2143
  139OSM    H5F15234   3.141   2.106   6.850  1.1165 -0.9283 -1.0496
  139OSM    H5G15235   3.042   2.057   6.992 -0.6435  0.6277 -0.2534
  139OSM    C6F15236   2.983   1.985   6.784  1.2238  0.6085 -0.6997
  139OSM    H6F15237   2.925   2.079   6.773  2.7591  1.7008  0.1433
  139OSM    H6G15238   2.918   1.899   6.811 -0.7501  2.1704 -0.2619
  139OSM    C7F15239   3.047   1.957   6.654  0.6178  0.2421  0.8476
  139OSM    H7F15240   3.098   1.859   6.665 -1.0165 -0.6195  1.0377
  139OSM    H7G15241   3.136   2.020   6.630  0.7603 -0.7609 -1.4319
  139OSM    C8F15242   2.954   1.961   6.531  0.2972  0.3060 -0.5689
  139OSM    H8F15243   2.868   1.898   6.563 -0.5341  3.2138  3.9467
  139OSM    H8G15244   3.002   1.921   6.440 -0.5062  0.5054 -1.0958
  139OSM    C9F15245   2.907   2.103   6.487 -0.1006 -0.6351 -0.4886
  139OSM    H9F15246   2.818   2.133   6.546  0.5277 -0.8168  0.5847
  139OSM   C10F15247   2.963   2.182   6.394  0.4371 -0.1772  0.0102
  139OSM   H10F15248   2.910   2.278   6.381  0.0300 -0.4122 -0.0959
  139OSM   C11F15249   3.091   2.162   6.313 -0.4807  0.1485  0.4037
  139OSM   H11F15250   3.075   2.165   6.203  1.3367  0.0689  0.1025
  139OSM   H11G15251   3.137   2.063   6.332  1.1186  0.7168 -0.2983
  139OSM   C12F15252   3.205   2.258   6.353  0.5095 -0.6821 -1.0824
  139OSM   H12F15253   3.187   2.368   6.350 -1.1520 -0.7572  1.8727
  139OSM   H12G15254   3.301   2.246   6.299  0.4086  0.3154 -1.5109
  139OSM   C13F15255   3.247   2.237   6.502  0.0355 -0.0962  0.7343
  139OSM   H13F15256   3.264   2.127   6.511  1.9196  0.2447  2.1237
  139OSM   H13G15257   3.158   2.255   6.565 -0.5466 -3.5774  1.0895
  139OSM   C14F15258   3.368   2.311   6.557  0.4951  0.4259  0.5671
  139OSM   H14F15259   3.345   2.419   6.563  0.0767  0.2690  2.2100
  139OSM   H14G15260   3.457   2.315   6.490  0.6219  2.3714  0.7943
  139OSM   C15F15261   3.398   2.259   6.697  0.3625  0.2301 -0.1114
  139OSM   H15F15262   3.315   2.271   6.769  1.9223  0.6626  1.6771
  139OSM   H15G15263   3.478   2.320   6.746 -0.5250  1.0609  0.3281
  139OSM   C16F15264   3.455   2.116   6.700 -0.4451  0.7395  0.4714
  139OSM   H16F15265   3.519   2.113   6.610 -0.6364  0.2734  0.3498
  139OSM   H16G15266   3.382   2.032   6.701  0.3494 -0.1068 -2.6145
  139OSM   C17F15267   3.540   2.096   6.830  0.3018 -0.0356 -0.6337
  139OSM   H17F15268   3.460   2.111   6.905 -0.5918 -4.4478 -0.4815
  139OSM   H17G15269   3.608   2.184   6.841 -0.0271  0.3399 -1.4942
  139OSM   C18F15270   3.621   1.962   6.843  0.2221 -0.4749 -0.5180
  139OSM   H18F15271   3.706   1.973   6.913 -0.7988 -2.4318  1.1635
  139OSM   H18G15272   3.663   1.944   6.742 -0.3354  2.5929 -1.3965
  139OSM   H18H15273   3.560   1.874   6.873  0.8415 -0.4696  0.8075
  140OSM      N15274   2.219   6.297   7.878  0.5284  0.3211  0.1431
  140OSM    C1515275   2.151   6.203   7.775 -0.3453 -0.5663 -0.2485
  140OSM   H15A15276   2.045   6.189   7.786 -0.9891  1.3114 -3.1422
  140OSM   H15B15277   2.197   6.109   7.750 -1.2736 -0.5855 -2.0315
  140OSM   H15C15278   2.169   6.267   7.690  1.4479  0.2132  0.6521
  140OSM    C1415279   2.150   6.427   7.871  0.2243 -0.2256 -0.0949
  140OSM   H14A15280   2.179   6.487   7.786 -1.6163  0.2745 -0.4257
  140OSM   H14B15281   2.156   6.483   7.963 -1.6551  1.5411 -0.9665
  140OSM   H14C15282   2.042   6.418   7.863  0.2740 -0.3501 -0.7423
  140OSM    C1315283   2.193   6.231   8.010 -0.4480 -0.3345  0.2760
  140OSM   H13A15284   2.255   6.144   8.027  0.9168  0.0536 -2.2450
  140OSM   H13B15285   2.093   6.190   8.014 -0.8193  0.5617  0.3727
  140OSM   H13C15286   2.194   6.308   8.086  0.5172  1.3757 -1.3976
  140OSM    C1215287   2.370   6.309   7.858  0.5007 -0.2112 -0.6783
  140OSM   H12A15288   2.424   6.215   7.854  0.6921 -0.2429  1.5441
  140OSM   H12B15289   2.412   6.354   7.946 -0.9414 -1.6570  0.8327
  140OSM    C1115290   2.421   6.387   7.738 -0.3688 -0.1396 -0.3310
  140OSM   H11A15291   2.375   6.348   7.644 -0.5561 -0.1607 -0.2322
  140OSM   H11B15292   2.525   6.352   7.754 -0.6238 -1.4588 -1.3145
  140OSM      P15293   2.513   6.635   7.706 -0.5754 -0.2310  0.2464
  140OSM    O1315294   2.458   6.776   7.716  0.1662 -0.0501  0.2748
  140OSM    O1415295   2.645   6.598   7.766 -0.1531  0.0639 -0.0435
  140OSM    O1115296   2.523   6.601   7.550 -0.1298 -0.1721  1.1814
  140OSM    O1215297   2.409   6.532   7.758  0.3014 -0.0108  0.7894
  140OSM    C1S15298   2.409   6.620   7.461  0.4796 -0.6943  0.3017
  140OSM    H1S15299   2.338   6.692   7.507  1.1704 -0.1815  0.5818
  140OSM    H1T15300   2.338   6.536   7.444 -1.1914  0.8523 -0.6231
  140OSM     NF15301   2.333   6.697   7.235  0.2672  0.2916 -0.3488
  140OSM    HNF15302   2.298   6.633   7.167  0.1170  0.7916 -0.7484
  140OSM    C2S15303   2.449   6.673   7.319 -0.1977 -0.0378 -0.1128
  140OSM    H2S15304   2.507   6.767   7.336  0.3791  0.2680 -3.2827
  140OSM    C3S15305   2.549   6.565   7.262  0.4852 -0.5662  0.6514
  140OSM    H3S15306   2.487   6.476   7.236 -0.6579 -0.2652  2.2011
  140OSM     O315307   2.653   6.517   7.344  0.2028  0.1432  0.1779
  140OSM    HO315308   2.624   6.542   7.432 -0.2811 -0.3501  0.1663
  140OSM    C4S15309   2.610   6.618   7.138  0.5946 -1.0038 -0.2277
  140OSM    H4S15310   2.637   6.724   7.148 -0.0025 -0.5154 -2.9178
  140OSM    C5S15311   2.615   6.554   7.019  0.0886 -0.0250  0.5348
  140OSM    H5S15312   2.564   6.457   7.005  0.3055 -0.2486  1.2417
  140OSM    C6S15313   2.663   6.617   6.893 -0.1219  0.7941  0.2593
  140OSM    H6S15314   2.724   6.534   6.851 -0.2718 -0.2161  1.9493
  140OSM    H6T15315   2.721   6.706   6.924  0.6636 -0.3613  2.2347
  140OSM    C7S15316   2.547   6.649   6.801 -0.0058  0.4815 -0.5667
  140OSM    H7S15317   2.479   6.718   6.856 -0.8627 -1.0607  0.3658
  140OSM    H7T15318   2.480   6.564   6.775 -0.4626  0.9312 -0.8942
  140OSM    C8S15319   2.592   6.708   6.673 -0.3709 -0.4934  0.3809
  140OSM    H8S15320   2.617   6.648   6.583 -0.1493  1.3265 -0.8333
  140OSM    H8T15321   2.693   6.752   6.689 -0.7844 -0.0722  1.9267
  140OSM    C9S15322   2.513   6.826   6.622  0.2193  0.6119 -0.1718
  140OSM    H9S15323   2.582   6.908   6.594  0.1342  0.2024 -1.6930
  140OSM    H9T15324   2.456   6.857   6.712  1.1275  0.7138  0.3745
  140OSM   C10S15325   2.412   6.793   6.509  0.3747  0.4944 -0.1430
  140OSM   H10S15326   2.341   6.877   6.495  0.0924  0.3109  0.1862
  140OSM   H10T15327   2.353   6.701   6.533  0.4306  0.5633  0.2630
  140OSM   C11S15328   2.468   6.769   6.370  0.7841  0.1457 -0.0989
  140OSM   H11S15329   2.387   6.743   6.299  0.8066 -0.0417 -0.0593
  140OSM   H11T15330   2.538   6.683   6.382  0.1514 -0.0974  2.3916
  140OSM   C12S15331   2.534   6.891   6.308  0.0199 -0.0738 -0.5602
  140OSM   H12S15332   2.613   6.925   6.378 -0.6992 -1.7513  1.1761
  140OSM   H12T15333   2.461   6.973   6.291 -1.8223 -1.1754  1.5492
  140OSM   C13S15334   2.598   6.865   6.176  0.1873  0.2060 -0.5593
  140OSM   H13S15335   2.651   6.768   6.184  0.1741  0.2148 -0.3603
  140OSM   H13T15336   2.666   6.953   6.181 -1.8860  1.8537  0.0443
  140OSM   C14S15337   2.506   6.876   6.054  0.0625 -0.9803 -0.3246
  140OSM   H14S15338   2.454   6.974   6.056  0.7502 -0.5629 -1.6072
  140OSM   H14T15339   2.429   6.796   6.055 -2.8767  1.6766 -0.5056
  140OSM   C15S15340   2.589   6.877   5.934 -0.3231 -0.5811 -0.7113
  140OSM   H15S15341   2.656   6.789   5.930 -0.2409 -0.5867  0.4114
  140OSM   H15T15342   2.657   6.965   5.940 -1.0676 -0.0626  0.9903
  140OSM   C16S15343   2.514   6.900   5.804  0.4656  0.1442 -0.3605
  140OSM   H16S15344   2.460   6.995   5.786 -1.1932 -0.7888 -0.5197
  140OSM   H16T15345   2.452   6.811   5.777 -0.6747  0.5802  0.7270
  140OSM   C17S15346   2.619   6.904   5.685  0.1555 -0.3068 -0.1431
  140OSM   H17S15347   2.688   6.819   5.704 -0.3564  0.0060  4.2565
  140OSM   H17T15348   2.667   7.005   5.682 -1.8042  0.6806 -2.9783
  140OSM   C18S15349   2.557   6.870   5.547  0.8609 -1.0381 -0.1655
  140OSM   H18S15350   2.487   6.949   5.512  1.1126 -1.1814 -0.9936
  140OSM   H18T15351   2.510   6.770   5.541  0.2476 -0.6484 -3.1556
  140OSM   H18U15352   2.639   6.854   5.474  0.9741 -0.1787 -0.2418
  140OSM    C1F15353   2.254   6.802   7.262 -0.0345  0.0329 -0.6039
  140OSM     OF15354   2.284   6.883   7.351 -0.4715  0.0488  0.4504
  140OSM    C2F15355   2.133   6.815   7.174 -0.0433  0.3050 -0.4166
  140OSM    H2F15356   2.051   6.746   7.204 -2.2230  2.2926 -1.4210
  140OSM    H2G15357   2.147   6.800   7.065 -2.6173  1.2754 -0.9739
  140OSM    C3F15358   2.065   6.953   7.180 -0.2732  0.0738 -0.0008
  140OSM    H3F15359   2.148   7.022   7.154  0.3796 -0.8777 -0.5135
  140OSM    H3G15360   2.019   6.975   7.278  1.0612  1.2775  0.3864
  140OSM    C4F15361   1.967   6.979   7.058  0.6445 -1.0657  0.2087
  140OSM    H4F15362   1.872   6.923   7.063 -0.3131  0.2667 -1.6445
  140OSM    H4G15363   2.024   6.950   6.967 -1.0085 -1.6955 -0.6711
  140OSM    C5F15364   1.930   7.126   7.047 -0.0735 -0.3117  0.1419
  140OSM    H5F15365   2.019   7.192   7.049 -0.2942 -0.0082  0.0768
  140OSM    H5G15366   1.879   7.154   7.141 -0.8822 -1.5109  0.0850
  140OSM    C6F15367   1.834   7.158   6.934 -0.0165  0.2463 -0.1661
  140OSM    H6F15368   1.752   7.084   6.949  2.8230 -3.2656 -0.5992
  140OSM    H6G15369   1.884   7.124   6.841 -0.4862 -1.5728  0.2092
  140OSM    C7F15370   1.782   7.305   6.930  0.1064 -0.1423  0.1875
  140OSM    H7F15371   1.752   7.339   7.031  0.9301  1.8347 -0.1922
  140OSM    H7G15372   1.692   7.320   6.866  0.5821  0.5332 -0.3358
  140OSM    C8F15373   1.889   7.412   6.878  0.1288 -0.2399 -0.3695
  140OSM    H8F15374   1.959   7.443   6.959  0.4782  0.5853 -0.9617
  140OSM    H8G15375   1.819   7.495   6.855 -0.8411 -0.4758  1.5712
  140OSM    C9F15376   1.961   7.370   6.755  0.2280 -0.2935 -0.6674
  140OSM    H9F15377   2.038   7.299   6.789 -1.1579 -0.8919  1.4953
  140OSM   C10F15378   1.956   7.407   6.622  0.3455  0.3483 -0.0358
  140OSM   H10F15379   2.031   7.358   6.558  0.1850 -0.1144  0.1280
  140OSM   C11F15380   1.866   7.513   6.563 -0.3293  0.5181 -0.2889
  140OSM   H11F15381   1.928   7.605   6.560  2.6486 -1.3259  0.5679
  140OSM   H11G15382   1.778   7.521   6.630  0.2078  1.5798  0.3146
  140OSM   C12F15383   1.834   7.485   6.417  0.5222 -0.4202  0.0137
  140OSM   H12F15384   1.749   7.413   6.419  0.7216 -0.6393  0.7943
  140OSM   H12G15385   1.914   7.431   6.361 -0.1734 -0.0867 -1.3489
  140OSM   C13F15386   1.785   7.617   6.348 -0.2951  0.0604 -0.8297
  140OSM   H13F15387   1.875   7.660   6.300  1.1323  0.7092  2.1656
  140OSM   H13G15388   1.736   7.694   6.411  0.2864  1.8334 -2.4634
  140OSM   C14F15389   1.697   7.591   6.226 -0.6910 -0.7600 -0.4062
  140OSM   H14F15390   1.663   7.689   6.186  1.0421  0.5349  1.1390
  140OSM   H14G15391   1.605   7.539   6.260  0.8717 -2.2205  1.8433
  140OSM   C15F15392   1.766   7.507   6.122  0.4102  0.2933  0.4567
  140OSM   H15F15393   1.762   7.397   6.136 -2.8529  0.3226  0.7233
  140OSM   H15G15394   1.866   7.545   6.094  0.3905 -0.2498 -0.3681
  140OSM   C16F15395   1.686   7.515   5.987 -0.9386 -0.4680 -0.7492
  140OSM   H16F15396   1.652   7.618   5.963 -2.1145 -0.9990 -1.4299
  140OSM   H16G15397   1.593   7.458   6.004 -0.3367 -1.8090 -1.7811
  140OSM   C17F15398   1.749   7.467   5.866  0.5139  0.2789 -0.5495
  140OSM   H17F15399   1.805   7.548   5.815 -1.0761  0.9898 -1.2406
  140OSM   H17G15400   1.678   7.448   5.782 -0.2117  2.3941 -0.4840
  140OSM   C18F15401   1.822   7.339   5.886  0.3271  0.1441 -0.6626
  140OSM   H18F15402   1.873   7.298   5.797  0.3511 -3.4814  0.8358
  140OSM   H18G15403   1.750   7.263   5.924 -0.6086  1.4469  0.2549
  140OSM   H18H15404   1.894   7.349   5.970 -1.0653 -0.2167  0.6373
  141OSM      N15405   0.897   6.844   7.082  0.0091 -0.2485 -0.2715
  141OSM    C1515406   0.963   6.834   7.215 -0.6267  0.3504  0.3270
  141OSM   H15A15407   1.009   6.737   7.221 -2.3440 -0.4890  0.4959
  141OSM   H15B15408   0.901   6.831   7.303  1.0525  0.1753  1.5358
  141OSM   H15C15409   1.038   6.910   7.229  0.7567 -0.6199 -1.4275
  141OSM    C1415410   0.801   6.729   7.065 -0.1633  0.0365  0.4543
  141OSM   H14A15411   0.853   6.635   7.054 -0.6566  0.0181 -2.5764
  141OSM   H14B15412   0.745   6.741   6.974  2.6093  3.1509 -1.0046
  141OSM   H14C15413   0.735   6.715   7.150 -0.6877  1.3214  0.2832
  141OSM    C1315414   0.822   6.974   7.078  1.0923 -0.0582 -0.1728
  141OSM   H13A15415   0.766   6.975   6.986 -1.7373 -0.1505  1.4442
  141OSM   H13B15416   0.883   7.063   7.088  1.0245 -0.0585  0.2614
  141OSM   H13C15417   0.750   6.976   7.159 -0.9478  0.7919 -1.9042
  141OSM    C1215418   0.998   6.845   6.970 -0.2514 -0.1858 -0.5705
  141OSM   H12A15419   1.052   6.935   6.995 -0.9397 -0.2497  1.3362
  141OSM   H12B15420   0.956   6.844   6.870 -1.4325  2.6688 -0.2167
  141OSM    C1115421   1.106   6.731   6.968 -0.0939  0.1735  0.0920
  141OSM   H11A15422   1.168   6.759   7.056  0.3465  0.9178 -0.4407
  141OSM   H11B15423   1.164   6.750   6.875 -2.5954  1.6771 -1.2657
  141OSM      P15424   1.148   6.477   7.025 -0.1721 -0.1396  0.0032
  141OSM    O1315425   1.163   6.487   7.169  0.7171 -0.1929  0.5239
  141OSM    O1415426   1.103   6.351   6.968 -0.6298 -0.0652  0.0980
  141OSM    O1115427   1.287   6.522   6.955  0.2912 -0.0399  0.1441
  141OSM    O1215428   1.053   6.597   6.979 -0.5344  0.1309 -0.0088
  141OSM    C1S15429   1.319   6.489   6.810  0.4917  0.0362 -0.8289
  141OSM    H1S15430   1.228   6.525   6.757 -1.5424 -0.1978  2.2341
  141OSM    H1T15431   1.338   6.382   6.791  1.7723 -0.2316  1.5869
  141OSM     NF15432   1.465   6.527   6.611 -0.2071  0.4320 -0.0514
  141OSM    HNF15433   1.528   6.451   6.598  0.1856  1.0100 -1.8766
  141OSM    C2S15434   1.444   6.567   6.754 -0.7437  0.3825  0.3931
  141OSM    H2S15435   1.422   6.676   6.750  1.0539  0.7736 -0.0177
  141OSM    C3S15436   1.565   6.548   6.852 -0.8362  0.6486  0.2682
  141OSM    H3S15437   1.575   6.438   6.864  2.0910  0.9542  1.7575
  141OSM     O315438   1.545   6.616   6.978  0.2759 -0.4324 -0.1246
  141OSM    HO315439   1.453   6.609   7.003  0.7913  1.3468  2.6356
  141OSM    C4S15440   1.688   6.606   6.786 -0.5493  0.4361  0.2090
  141OSM    H4S15441   1.734   6.536   6.715 -0.2543 -1.6349  2.3184
  141OSM    C5S15442   1.756   6.722   6.813  0.2692  0.6412 -0.0370
  141OSM    H5S15443   1.725   6.779   6.902  2.7824  0.9522  0.7212
  141OSM    C6S15444   1.896   6.768   6.756  0.7828 -0.3166 -0.3149
  141OSM    H6S15445   1.945   6.689   6.696 -0.6759 -0.1006 -1.8539
  141OSM    H6T15446   1.961   6.803   6.839  0.2815 -0.6779  0.2363
  141OSM    C7S15447   1.870   6.880   6.653  0.8553 -0.1941 -0.1927
  141OSM    H7S15448   1.804   6.962   6.690 -0.1029 -1.8142  1.9389
  141OSM    H7T15449   1.814   6.838   6.567  0.1303  1.3344 -0.5102
  141OSM    C8S15450   2.005   6.930   6.599 -0.4439 -0.0722  0.1064
  141OSM    H8S15451   2.047   6.844   6.542 -0.6580 -0.8742  1.1172
  141OSM    H8T15452   2.064   6.964   6.687  0.5708  0.1499 -0.6470
  141OSM    C9S15453   1.982   7.035   6.504  0.3125  0.4475 -0.2110
  141OSM    H9S15454   1.952   7.128   6.557 -0.6803 -0.7749  1.4834
  141OSM    H9T15455   1.890   7.020   6.444  0.2067  2.7310 -0.7069
  141OSM   C10S15456   2.108   7.051   6.419  0.2770  0.7306 -0.7828
  141OSM   H10S15457   2.166   6.957   6.407 -0.2893  0.3305 -0.4396
  141OSM   H10T15458   2.171   7.124   6.475 -1.4303  0.2209  2.0207
  141OSM   C11S15459   2.091   7.108   6.277  0.0867  0.5231 -0.3143
  141OSM   H11S15460   2.027   7.196   6.299 -1.0766 -0.5166  0.6536
  141OSM   H11T15461   2.034   7.039   6.210 -1.2805  0.1123  1.2239
  141OSM   C12S15462   2.216   7.171   6.219 -0.2305 -0.4971  0.0614
  141OSM   H12S15463   2.298   7.097   6.219  0.7697  0.5622  1.1578
  141OSM   H12T15464   2.259   7.251   6.284 -0.2602 -0.8205  0.4811
  141OSM   C13S15465   2.198   7.218   6.075  0.7169  0.9062  0.4496
  141OSM   H13S15466   2.126   7.303   6.070 -1.0859 -0.5977 -1.8811
  141OSM   H13T15467   2.170   7.131   6.012 -0.5150  0.0442  2.1041
  141OSM   C14S15468   2.329   7.264   6.012 -0.6840  0.5078 -0.0484
  141OSM   H14S15469   2.398   7.181   5.986 -0.0683  0.8390  0.5020
  141OSM   H14T15470   2.381   7.328   6.086 -0.7486 -0.4522  0.8459
  141OSM   C15S15471   2.308   7.351   5.892 -0.2593 -0.2218  0.1342
  141OSM   H15S15472   2.405   7.375   5.842  0.1973  0.9358  1.4829
  141OSM   H15T15473   2.265   7.449   5.921 -0.4999 -0.0501 -0.7897
  141OSM   C16S15474   2.215   7.303   5.779  0.3944 -0.2594  0.1587
  141OSM   H16S15475   2.120   7.261   5.820 -0.1311 -0.6063 -1.3240
  141OSM   H16T15476   2.266   7.210   5.744 -3.6243 -3.1599  1.2578
  141OSM   C17S15477   2.197   7.410   5.671  0.3247  0.6778 -0.1901
  141OSM   H17S15478   2.298   7.434   5.631  0.9631 -0.6767  0.5153
  141OSM   H17T15479   2.159   7.507   5.707  0.1695  0.9502 -1.0505
  141OSM   C18S15480   2.102   7.367   5.563 -0.6198 -0.4706  0.5550
  141OSM   H18S15481   2.111   7.257   5.549 -0.2263 -0.4085  0.3166
  141OSM   H18T15482   2.136   7.422   5.474 -0.0402  2.2863  2.3516
  141OSM   H18U15483   1.999   7.395   5.592 -0.5850  3.5828 -2.4602
  141OSM    C1F15484   1.377   6.556   6.519  0.6355  0.4353  0.1678
  141OSM     OF15485   1.286   6.635   6.540  0.0899 -0.1192  0.0300
  141OSM    C2F15486   1.372   6.467   6.400 -0.0513 -0.0980  0.4237
  141OSM    H2F15487   1.267   6.434   6.384 -0.7111  1.5837  1.0439
  141OSM    H2G15488   1.447   6.385   6.406 -0.4771 -0.4052  2.4575
  141OSM    C3F15489   1.407   6.543   6.270  0.4492 -0.5321 -0.0629
  141OSM    H3F15490   1.497   6.604   6.291  0.1015 -0.0440  0.0163
  141OSM    H3G15491   1.325   6.613   6.245  0.8948 -0.3646 -1.0993
  141OSM    C4F15492   1.443   6.456   6.151 -0.1884  1.1199  0.3125
  141OSM    H4F15493   1.366   6.379   6.130  0.5980 -0.0957  1.6486
  141OSM    H4G15494   1.540   6.405   6.174 -0.4843  1.2185  1.9047
  141OSM    C5F15495   1.455   6.530   6.020  0.5683  0.0965 -0.1697
  141OSM    H5F15496   1.540   6.601   6.027  0.2248  0.4406  0.6390
  141OSM    H5G15497   1.365   6.592   5.998 -0.0430 -0.3627  0.9663
  141OSM    C6F15498   1.451   6.433   5.896  0.1887  0.5313  0.1868
  141OSM    H6F15499   1.353   6.386   5.874 -0.8870  1.7708  2.0369
  141OSM    H6G15500   1.529   6.357   5.918  0.3539  0.5118 -0.4431
  141OSM    C7F15501   1.501   6.497   5.767 -0.3391 -0.0357 -1.0077
  141OSM    H7F15502   1.555   6.418   5.709 -0.6965 -0.6174 -0.5627
  141OSM    H7G15503   1.578   6.572   5.795  1.3353 -1.8690 -0.4518
  141OSM    C8F15504   1.384   6.549   5.676  0.2002  0.6453 -0.4576
  141OSM    H8F15505   1.424   6.622   5.602  2.3402  0.0478  0.0358
  141OSM    H8G15506   1.316   6.615   5.734  0.2106 -0.5199  0.9604
  141OSM    C9F15507   1.316   6.431   5.605 -0.3361  0.7144 -0.1725
  141OSM    H9F15508   1.240   6.387   5.671 -2.7400  2.2000 -1.8089
  141OSM   C10F15509   1.326   6.393   5.477  0.4130 -1.3883  0.1835
  141OSM   H10F15510   1.246   6.329   5.436 -1.1377  0.6867 -0.2332
  141OSM   C11F15511   1.409   6.459   5.373  0.2721  0.4497  0.2386
  141OSM   H11F15512   1.504   6.490   5.422  0.5922 -0.8902  0.5040
  141OSM   H11G15513   1.364   6.557   5.347  0.3643  0.2294 -0.7992
  141OSM   C12F15514   1.462   6.367   5.257 -0.4097  0.0744  0.2226
  141OSM   H12F15515   1.480   6.267   5.303 -0.5115  0.4678  1.1314
  141OSM   H12G15516   1.555   6.400   5.208  0.7315 -0.3054  2.0485
  141OSM   C13F15517   1.359   6.342   5.149  0.3913 -0.2439 -0.2732
  141OSM   H13F15518   1.375   6.421   5.073  0.3758  0.4979  0.4789
  141OSM   H13G15519   1.255   6.357   5.186 -0.4711  0.6120 -2.8401
  141OSM   C14F15520   1.387   6.206   5.087  0.1640  1.3595  0.0789
  141OSM   H14F15521   1.398   6.132   5.169 -0.3381  1.2696  0.0699
  141OSM   H14G15522   1.486   6.214   5.037 -0.1119  2.2559 -0.3581
  141OSM   C15F15523   1.277   6.163   4.985 -0.5040 -0.2427  0.1880
  141OSM   H15F15524   1.181   6.141   5.035  0.6168 -0.4608  2.3610
  141OSM   H15G15525   1.298   6.058   4.955 -1.3686 -0.5521  0.6391
  141OSM   C16F15526   1.257   6.257   4.863  0.3355  0.2952 -0.4722
  141OSM   H16F15527   1.350   6.266   4.804  0.8535  0.3589  0.3435
  141OSM   H16G15528   1.210   6.355   4.887 -1.5408 -0.1433 -2.0457
  141OSM   C17F15529   1.159   6.196   4.756 -0.0345 -0.3684  0.4005
  141OSM   H17F15530   1.064   6.170   4.807 -1.6923  2.5450 -0.9800
  141OSM   H17G15531   1.203   6.106   4.707  0.0265  0.1432 -0.5087
  141OSM   C18F15532   1.111   6.302   4.648 -0.7241  0.1902  0.0347
  141OSM   H18F15533   1.203   6.311   4.586  0.0756 -0.7563  1.0322
  141OSM   H18G15534   1.092   6.396   4.703  0.1431 -0.0632  0.7933
  141OSM   H18H15535   1.030   6.273   4.578 -2.3730  1.9363  1.1293
  142OSM      N15536   1.530   5.614   7.072 -0.4204 -0.1832 -0.0170
  142OSM    C1515537   1.490   5.533   6.953  0.2411  0.2098 -0.6764
  142OSM   H15A15538   1.568   5.527   6.878  0.4555 -1.6265 -0.3577
  142OSM   H15B15539   1.404   5.580   6.908  0.4522 -0.0356 -1.3530
  142OSM   H15C15540   1.467   5.432   6.982  1.1734 -1.1491 -4.1074
  142OSM    C1415541   1.428   5.624   7.174 -0.0719 -0.1710 -0.0988
  142OSM   H14A15542   1.345   5.662   7.116  0.0967 -0.9775 -0.8842
  142OSM   H14B15543   1.451   5.685   7.260 -2.1467  1.1288 -0.3973
  142OSM   H14C15544   1.382   5.532   7.208 -2.1917  0.9312  0.1991
  142OSM    C1315545   1.640   5.539   7.136  0.1920  0.0142 -0.8770
  142OSM   H13A15546   1.724   5.544   7.068 -0.7770  0.4230 -2.0785
  142OSM   H13B15547   1.610   5.437   7.153 -0.7439  0.6825  2.1678
  142OSM   H13C15548   1.682   5.574   7.229 -1.3400 -0.6531  0.1042
  142OSM    C1215549   1.577   5.752   7.028 -0.0400 -0.8431 -0.0240
  142OSM   H12A15550   1.642   5.793   7.105  2.4946 -1.0485 -1.9240
  142OSM   H12B15551   1.494   5.819   7.013 -0.3582 -1.1522  0.3207
  142OSM    C1115552   1.673   5.763   6.910  0.0983 -0.4005  0.9439
  142OSM   H11A15553   1.697   5.871   6.894  0.8179 -0.7181 -0.2816
  142OSM   H11B15554   1.626   5.727   6.816 -0.5899  1.9516  0.3128
  142OSM      P15555   1.910   5.738   7.024 -0.2891  0.0592  0.1189
  142OSM    O1315556   1.866   5.835   7.121 -0.0380 -0.4203  0.4848
  142OSM    O1415557   1.977   5.620   7.082 -0.2917 -0.3129 -0.2744
  142OSM    O1115558   2.005   5.804   6.918  0.0239 -0.4990  0.6564
  142OSM    O1215559   1.796   5.700   6.932 -0.1201  0.4431 -0.3363
  142OSM    C1S15560   2.017   5.761   6.785 -0.3626 -0.1578  0.8319
  142OSM    H1S15561   1.940   5.799   6.714 -0.8696 -1.9819  0.3685
  142OSM    H1T15562   2.005   5.651   6.774 -1.2517  0.0408 -0.4105
  142OSM     NF15563   2.155   5.779   6.573 -0.2952  0.1193 -0.5885
  142OSM    HNF15564   2.207   5.705   6.532 -1.6993 -1.3137  0.1070
  142OSM    C2S15565   2.155   5.793   6.721 -0.0689  0.3812 -0.0418
  142OSM    H2S15566   2.176   5.900   6.746 -1.9860  0.6504  0.5844
  142OSM    C3S15567   2.253   5.698   6.785 -0.0440  0.1542 -0.5892
  142OSM    H3S15568   2.230   5.596   6.746  0.2894 -0.2831  0.3127
  142OSM     O315569   2.245   5.679   6.924 -0.5830  0.0498 -0.6330
  142OSM    HO315570   2.156   5.710   6.941 -0.6239  0.4033 -1.4581
  142OSM    C4S15571   2.398   5.728   6.754  0.2960  0.6463 -0.2463
  142OSM    H4S15572   2.434   5.826   6.788  0.8448  0.1006  0.7881
  142OSM    C5S15573   2.485   5.649   6.686  0.9569  0.2492  0.6104
  142OSM    H5S15574   2.449   5.553   6.645 -0.5636  0.8823  0.4222
  142OSM    C6S15575   2.627   5.684   6.646  0.4475 -0.1762 -0.4022
  142OSM    H6S15576   2.696   5.704   6.731 -0.9097 -0.3202  0.7655
  142OSM    H6T15577   2.619   5.784   6.599 -0.2610 -0.3190 -0.5988
  142OSM    C7S15578   2.690   5.597   6.538 -0.1162 -0.3256  1.0770
  142OSM    H7S15579   2.650   5.494   6.555 -0.0317 -0.5114  0.1928
  142OSM    H7T15580   2.801   5.594   6.543 -0.0544 -1.4198 -0.3588
  142OSM    C8S15581   2.647   5.632   6.403  0.4169 -0.1362  0.1346
  142OSM    H8S15582   2.716   5.714   6.373  0.7219 -0.5843 -0.4130
  142OSM    H8T15583   2.541   5.662   6.389  1.0226  2.3059  0.3259
  142OSM    C9S15584   2.694   5.525   6.295  0.5391 -0.1197  0.0778
  142OSM    H9S15585   2.632   5.437   6.321 -0.3510  0.9476  1.7301
  142OSM    H9T15586   2.803   5.504   6.307  0.3862  0.0097  1.8928
  142OSM   C10S15587   2.664   5.565   6.151 -0.2897 -0.7451  0.2965
  142OSM   H10S15588   2.740   5.639   6.117 -2.1144  2.3253  2.3751
  142OSM   H10T15589   2.563   5.611   6.144  1.4555  3.5327  0.0580
  142OSM   C11S15590   2.648   5.446   6.055 -0.1829  0.0520  0.2462
  142OSM   H11S15591   2.563   5.379   6.079 -0.8547  0.4338 -0.9832
  142OSM   H11T15592   2.740   5.384   6.067 -0.7726 -0.7110  0.9228
  142OSM   C12S15593   2.654   5.494   5.909  0.1542 -0.0068 -0.5359
  142OSM   H12S15594   2.740   5.562   5.892 -0.3984  0.3316 -2.1947
  142OSM   H12T15595   2.561   5.551   5.892  0.5135  0.5508 -0.6497
  142OSM   C13S15596   2.652   5.374   5.809  0.0404  0.2730 -0.9118
  142OSM   H13S15597   2.621   5.414   5.710  1.9963 -0.2113 -1.7640
  142OSM   H13T15598   2.584   5.292   5.839  1.7107 -0.5857  0.7767
  142OSM   C14S15599   2.789   5.302   5.783 -0.0339 -0.1838 -0.8168
  142OSM   H14S15600   2.819   5.279   5.887 -2.0771 -2.4029 -0.6209
  142OSM   H14T15601   2.868   5.370   5.746 -1.2168  1.7021 -0.0495
  142OSM   C15S15602   2.769   5.170   5.708 -1.0034 -0.3172 -0.0292
  142OSM   H15S15603   2.750   5.189   5.601  1.1839  0.6415 -0.2927
  142OSM   H15T15604   2.687   5.107   5.750 -0.2901 -0.1445  1.6995
  142OSM   C16S15605   2.907   5.105   5.691 -0.1962 -0.1414 -0.2586
  142OSM   H16S15606   2.962   5.085   5.786 -1.1633 -0.3064  0.2828
  142OSM   H16T15607   2.967   5.178   5.631  0.4181 -0.0514  0.4459
  142OSM   C17S15608   2.898   4.972   5.611 -0.5748 -0.0455 -0.2348
  142OSM   H17S15609   2.824   4.982   5.530 -0.7134 -1.9062 -0.3920
  142OSM   H17T15610   2.868   4.892   5.682  1.0175 -2.5959 -2.2306
  142OSM   C18S15611   3.039   4.941   5.563 -0.8685  0.2790  0.6975
  142OSM   H18S15612   3.046   4.842   5.512  0.1838 -0.0691  1.4870
  142OSM   H18T15613   3.104   4.928   5.653  1.7170  2.2827 -0.7107
  142OSM   H18U15614   3.069   5.022   5.492 -1.9438 -1.3482 -1.7514
  142OSM    C1F15615   2.082   5.854   6.492  0.4611  0.3210 -0.3603
  142OSM     OF15616   2.025   5.946   6.546  0.2893  0.4753  0.3714
  142OSM    C2F15617   2.099   5.833   6.341 -0.2309  0.3797 -0.3451
  142OSM    H2F15618   2.080   5.727   6.314 -0.0607  1.1561 -4.1356
  142OSM    H2G15619   2.202   5.867   6.315  0.2624 -0.5519  0.3117
  142OSM    C3F15620   1.997   5.926   6.266 -0.5429 -0.4616 -0.2183
  142OSM    H3F15621   2.016   6.036   6.275 -1.2423 -0.4924  2.8793
  142OSM    H3G15622   1.904   5.938   6.325 -0.3370  0.8484 -0.1201
  142OSM    C4F15623   1.970   5.905   6.120 -0.6526  0.0559 -0.2655
  142OSM    H4F15624   2.062   5.897   6.058 -0.2756 -3.9832  0.5244
  142OSM    H4G15625   1.909   5.989   6.079  3.2677  1.7449 -3.3218
  142OSM    C5F15626   1.886   5.782   6.103 -0.5571  0.7458 -0.1646
  142OSM    H5F15627   1.782   5.805   6.137 -0.6656  1.8533 -1.1840
  142OSM    H5G15628   1.923   5.696   6.162  0.6463  0.4912 -1.2471
  142OSM    C6F15629   1.873   5.726   5.964 -0.5941 -0.6388 -0.4103
  142OSM    H6F15630   1.976   5.690   5.941  0.2839  0.4534  1.5095
  142OSM    H6G15631   1.850   5.805   5.889 -0.8149 -1.8811 -1.6751
  142OSM    C7F15632   1.777   5.611   5.952  0.8314 -0.6521  0.6712
  142OSM    H7F15633   1.680   5.637   5.999 -0.8224 -2.8574 -1.2926
  142OSM    H7G15634   1.820   5.530   6.014  2.6025 -0.3225 -0.0750
  142OSM    C8F15635   1.758   5.568   5.801 -0.0103  0.1001 -1.1689
  142OSM    H8F15636   1.707   5.471   5.817  1.2007 -0.4683 -0.5906
  142OSM    H8G15637   1.855   5.547   5.751 -0.3292  1.2721 -2.3393
  142OSM    C9F15638   1.682   5.657   5.709  0.2891  0.3322 -0.6634
  142OSM    H9F15639   1.599   5.717   5.751  0.4839  1.4163 -1.7708
  142OSM   C10F15640   1.711   5.677   5.580 -0.1864 -0.2781 -0.2923
  142OSM   H10F15641   1.651   5.753   5.528 -0.6448  0.6964  1.5790
  142OSM   C11F15642   1.818   5.613   5.500  0.1105  0.1461  0.5367
  142OSM   H11F15643   1.787   5.581   5.398  0.1491  0.5214  0.4067
  142OSM   H11G15644   1.869   5.525   5.546 -0.3320 -1.5096 -1.9243
  142OSM   C12F15645   1.922   5.725   5.478 -0.4494  0.4117 -0.2848
  142OSM   H12F15646   1.894   5.820   5.428 -0.1364 -0.0151 -1.2796
  142OSM   H12G15647   2.015   5.687   5.431 -0.7571 -0.3880 -0.2438
  142OSM   C13F15648   1.983   5.777   5.608  0.3798 -0.3136 -0.4047
  142OSM   H13F15649   2.012   5.685   5.663  1.3833  0.6560  0.7208
  142OSM   H13G15650   1.911   5.843   5.660  0.0007 -0.7297 -0.3917
  142OSM   C14F15651   2.110   5.857   5.573  0.5404  0.2614  0.0642
  142OSM   H14F15652   2.105   5.926   5.486 -0.1867 -1.5909 -1.4333
  142OSM   H14G15653   2.195   5.786   5.562  0.0995 -0.6876  2.2375
  142OSM   C15F15654   2.175   5.948   5.681 -0.7505  0.2464 -0.1654
  142OSM   H15F15655   2.102   6.022   5.718 -0.4359  1.2007 -1.3979
  142OSM   H15G15656   2.267   6.001   5.647 -0.4444 -1.2460 -1.8204
  142OSM   C16F15657   2.225   5.867   5.799  0.4671 -0.2037 -0.0933
  142OSM   H16F15658   2.274   5.772   5.769  0.2351 -0.2749 -0.2441
  142OSM   H16G15659   2.130   5.835   5.846  0.7721 -0.8769  0.0762
  142OSM   C17F15660   2.312   5.953   5.892 -0.4846 -0.0461 -0.6057
  142OSM   H17F15661   2.255   6.047   5.906 -1.4587 -0.9844  2.2468
  142OSM   H17G15662   2.410   5.976   5.844  1.0745  2.9859  3.4572
  142OSM   C18F15663   2.346   5.889   6.026  0.2156  0.2324  0.3569
  142OSM   H18F15664   2.393   5.794   5.992 -0.6970 -0.0688 -0.0868
  142OSM   H18G15665   2.268   5.876   6.104 -0.0429  0.8025  0.2021
  142OSM   H18H15666   2.426   5.954   6.068 -0.8577  0.6871  1.7859
  143OSM      N15667   3.981   1.238   7.566 -0.9165 -0.1019 -0.1539
  143OSM    C1515668   4.083   1.174   7.479  0.5651 -0.7275  0.7933
  143OSM   H15A15669   4.128   1.256   7.426 -0.3300 -0.7527 -0.0148
  143OSM   H15B15670   4.033   1.118   7.402  0.7337  3.0714 -2.3782
  143OSM   H15C15671   4.159   1.129   7.541  1.3318  1.2710  1.3688
  143OSM    C1415672   3.931   1.123   7.652  0.2684  0.5149  0.1397
  143OSM   H14A15673   4.017   1.058   7.663 -0.6116 -0.8529 -0.7950
  143OSM   H14B15674   3.862   1.063   7.595  1.7942 -0.9269 -0.2967
  143OSM   H14C15675   3.888   1.161   7.744  1.8839  0.0507  1.1391
  143OSM    C1315676   4.045   1.347   7.643  0.1797  0.8382 -0.2057
  143OSM   H13A15677   4.134   1.305   7.687 -0.6086 -1.4012 -0.6148
  143OSM   H13B15678   3.978   1.376   7.724  0.1909 -0.7590  0.4067
  143OSM   H13C15679   4.075   1.428   7.578 -0.6606  0.9994 -0.4034
  143OSM    C1215680   3.865   1.289   7.482 -0.3917  0.1996  0.0503
  143OSM   H12A15681   3.901   1.368   7.418  2.2653 -2.1863 -1.6449
  143OSM   H12B15682   3.790   1.328   7.549  0.7740 -2.0618  2.9125
  143OSM    C1115683   3.791   1.183   7.388  0.5137 -0.6199  0.3866
  143OSM   H11A15684   3.863   1.138   7.318 -2.2079  0.2473 -3.2901
  143OSM   H11B15685   3.731   1.246   7.319  0.9585  0.7152  1.1841
  143OSM      P15686   3.570   1.133   7.513  0.1481 -0.0770  0.4602
  143OSM    O1315687   3.510   1.022   7.583  0.1374  0.4347  1.0119
  143OSM    O1415688   3.594   1.249   7.595  0.5654 -0.2838  0.0476
  143OSM    O1115689   3.486   1.177   7.388 -0.3226  0.9407 -0.1069
  143OSM    O1215690   3.711   1.087   7.458 -0.4674  0.5247 -0.2141
  143OSM    C1S15691   3.486   1.081   7.278  0.1940  0.2169  0.3016
  143OSM    H1S15692   3.416   0.997   7.299 -0.4900  0.2692 -1.6030
  143OSM    H1T15693   3.590   1.046   7.257  0.2301 -0.9265  2.1692
  143OSM     NF15694   3.434   1.029   7.045  0.4704  0.5890  0.0848
  143OSM    HNF15695   3.517   1.019   6.990  1.0840 -1.8865  1.2750
  143OSM    C2S15696   3.427   1.139   7.142  0.2611  0.0598  0.0811
  143OSM    H2S15697   3.320   1.166   7.156 -0.0059 -0.0503 -1.5397
  143OSM    C3S15698   3.509   1.263   7.103  0.1867  0.2555  0.3942
  143OSM    H3S15699   3.608   1.224   7.071 -0.3892  0.4892 -1.8599
  143OSM     O315700   3.544   1.364   7.202 -0.0079  0.0418  0.1094
  143OSM    HO315701   3.532   1.319   7.285 -0.8632  1.2097  0.6505
  143OSM    C4S15702   3.460   1.335   6.972  0.4513  0.7783 -0.2480
  143OSM    H4S15703   3.510   1.309   6.878 -1.4925  0.2910 -1.2144
  143OSM    C5S15704   3.368   1.433   6.972 -0.1006 -0.6235 -0.0452
  143OSM    H5S15705   3.315   1.471   7.060  0.4319  1.4585 -0.5834
  143OSM    C6S15706   3.336   1.514   6.850 -0.2417 -0.2609 -0.4444
  143OSM    H6S15707   3.286   1.609   6.879  0.8617  0.5750 -1.2180
  143OSM    H6T15708   3.267   1.455   6.786  0.4787 -0.6910 -0.8428
  143OSM    C7S15709   3.456   1.536   6.749 -0.2989 -0.2416  0.3853
  143OSM    H7S15710   3.473   1.442   6.693  2.6330  0.2695  0.2923
  143OSM    H7T15711   3.553   1.547   6.803  0.1286  0.3942 -0.4938
  143OSM    C8S15712   3.425   1.658   6.661  0.1227 -0.2388  0.2366
  143OSM    H8S15713   3.513   1.663   6.593  0.3111  0.7842  0.5444
  143OSM    H8T15714   3.430   1.752   6.720  1.1406  1.0532 -1.7781
  143OSM    C9S15715   3.297   1.634   6.586 -0.4662  0.5090  0.8480
  143OSM    H9S15716   3.218   1.643   6.664  0.3176 -1.8921  2.0326
  143OSM    H9T15717   3.299   1.529   6.548 -0.8086  0.9002 -0.2896
  143OSM   C10S15718   3.285   1.715   6.457  0.4267  0.5473  0.7752
  143OSM   H10S15719   3.371   1.684   6.393 -1.2111  1.4056 -1.9846
  143OSM   H10T15720   3.281   1.825   6.476 -0.6717  0.2997  2.0666
  143OSM   C11S15721   3.161   1.667   6.382  0.0910 -0.1343 -0.2714
  143OSM   H11S15722   3.071   1.689   6.444  1.0998  0.8004  0.9123
  143OSM   H11T15723   3.164   1.558   6.362 -0.4717 -0.1392 -0.3501
  143OSM   C12S15724   3.154   1.729   6.246 -0.2805 -0.5192  0.3880
  143OSM   H12S15725   3.239   1.710   6.177  2.3252  1.8905  2.6593
  143OSM   H12T15726   3.167   1.839   6.258 -0.0203 -0.1220 -2.7511
  143OSM   C13S15727   3.018   1.704   6.177  0.4015 -0.4447  0.3181
  143OSM   H13S15728   2.979   1.793   6.122 -3.2643 -2.5509 -0.8745
  143OSM   H13T15729   2.939   1.690   6.253 -1.6936 -0.6239 -1.7520
  143OSM   C14S15730   3.023   1.578   6.092  0.5855  0.3347  0.3870
  143OSM   H14S15731   2.918   1.543   6.081  0.0745  1.0341  2.4267
  143OSM   H14T15732   3.084   1.505   6.150 -0.2670 -1.0655 -0.4444
  143OSM   C15S15733   3.092   1.593   5.958 -0.5438  0.3848 -0.1236
  143OSM   H15S15734   3.063   1.505   5.896 -1.4236  0.2892  0.4054
  143OSM   H15T15735   3.202   1.604   5.968 -0.2227 -0.0151 -2.5323
  143OSM   C16S15736   3.057   1.714   5.871 -0.3697  0.1677  0.2511
  143OSM   H16S15737   3.136   1.790   5.886  0.4110 -0.8792  1.5920
  143OSM   H16T15738   2.964   1.768   5.901 -0.3170  0.3082  0.1618
  143OSM   C17S15739   3.024   1.676   5.726 -0.6231 -0.1050  0.0233
  143OSM   H17S15740   2.939   1.606   5.731 -0.2338 -0.5572  0.4098
  143OSM   H17T15741   3.111   1.615   5.692  0.3999  0.5612  1.3400
  143OSM   C18S15742   2.992   1.794   5.635 -0.1094 -0.7713 -0.3159
  143OSM   H18S15743   2.962   1.775   5.529 -1.6520  0.6562 -0.1673
  143OSM   H18T15744   3.088   1.851   5.637 -0.2651 -0.2836 -2.9804
  143OSM   H18U15745   2.911   1.858   5.677 -0.4070 -1.8779  0.8554
  143OSM    C1F15746   3.350   0.923   7.054 -0.2498 -0.6132 -1.0264
  143OSM     OF15747   3.242   0.922   7.112 -0.1124 -0.1266  0.1768
  143OSM    C2F15748   3.392   0.796   6.977  0.7064 -1.1595  0.1920
  143OSM    H2F15749   3.499   0.809   6.948 -0.0187 -0.1940 -2.2844
  143OSM    H2G15750   3.327   0.787   6.888 -0.7137 -0.0885  1.0892
  143OSM    C3F15751   3.394   0.673   7.061 -0.6192  0.5140  0.2579
  143OSM    H3F15752   3.290   0.650   7.093 -1.4674  0.2267 -2.4724
  143OSM    H3G15753   3.457   0.691   7.151 -0.3972 -0.7822  0.3897
  143OSM    C4F15754   3.455   0.556   6.993  0.0164  0.3781  0.3364
  143OSM    H4F15755   3.444   0.466   7.057 -1.0409 -0.7240 -1.3264
  143OSM    H4G15756   3.564   0.572   6.984  0.1505 -0.9024 -0.4116
  143OSM    C5F15757   3.395   0.511   6.856 -0.0298  0.4920 -0.1914
  143OSM    H5F15758   3.417   0.576   6.770  0.1969  2.5393  1.3464
  143OSM    H5G15759   3.289   0.479   6.858  0.7037 -2.1795  0.7266
  143OSM    C6F15760   3.464   0.374   6.826 -0.2404  0.6670 -0.2640
  143OSM    H6F15761   3.439   0.299   6.904 -0.3674  1.4141  0.4247
  143OSM    H6G15762   3.575   0.386   6.825 -0.2202  1.6705  2.8415
  143OSM    C7F15763   3.416   0.326   6.692  0.1562  0.6597  0.8479
  143OSM    H7F15764   3.415   0.409   6.619 -0.7644  0.2270  0.3456
  143OSM    H7G15765   3.317   0.279   6.709  1.0413 -2.5438 -1.7334
  143OSM    C8F15766   3.500   0.219   6.630 -1.0725 -0.4115 -0.6521
  143OSM    H8F15767   3.522   0.138   6.704  0.0306 -0.7525 -1.3317
  143OSM    H8G15768   3.598   0.267   6.609  0.2822 -1.8615  1.8363
  143OSM    C9F15769   3.448   0.171   6.502  0.2561 -0.5388  0.2693
  143OSM    H9F15770   3.366   0.097   6.504  1.2597 -1.7515 -1.2194
  143OSM   C10F15771   3.509   0.195   6.381  0.3213  0.2124 -0.6535
  143OSM   H10F15772   3.467   0.142   6.294  1.8211 -0.2462 -1.1191
  143OSM   C11F15773   3.630   0.283   6.343  0.0545  0.0426  0.2575
  143OSM   H11F15774   3.729   0.233   6.342  1.4642  2.6333 -1.4212
  143OSM   H11G15775   3.638   0.379   6.398 -0.5910  0.0331  0.3837
  143OSM   C12F15776   3.592   0.357   6.210 -0.2285  0.5400 -0.0073
  143OSM   H12F15777   3.669   0.436   6.198  0.0745  0.0993 -1.1054
  143OSM   H12G15778   3.501   0.419   6.219 -0.4775  0.1071  0.4761
  143OSM   C13F15779   3.585   0.269   6.082  0.5538 -0.5196 -0.1410
  143OSM   H13F15780   3.510   0.190   6.100  1.0236 -1.2632 -1.3332
  143OSM   H13G15781   3.687   0.225   6.073  1.2030 -0.1563  3.6748
  143OSM   C14F15782   3.525   0.341   5.962  0.4828 -0.0528 -0.0373
  143OSM   H14F15783   3.428   0.388   5.990 -0.1499 -0.8360 -0.8361
  143OSM   H14G15784   3.501   0.261   5.888 -0.2186  0.0310  0.0884
  143OSM   C15F15785   3.617   0.443   5.899 -0.2181  0.2647  0.9501
  143OSM   H15F15786   3.722   0.418   5.927  0.0630  0.1201 -0.1953
  143OSM   H15G15787   3.592   0.544   5.939 -1.8213 -0.2130  1.2024
  143OSM   C16F15788   3.616   0.439   5.749 -0.1767 -0.7358 -0.3741
  143OSM   H16F15789   3.635   0.331   5.728  1.6902 -0.3761 -0.7135
  143OSM   H16G15790   3.693   0.507   5.708 -0.9496 -0.0697 -0.7655
  143OSM   C17F15791   3.483   0.464   5.685 -0.9501  0.2401  0.6972
  143OSM   H17F15792   3.447   0.567   5.706 -0.0139  0.7909 -0.3007
  143OSM   H17G15793   3.414   0.387   5.726 -0.4212 -0.8432 -0.3873
  143OSM   C18F15794   3.499   0.429   5.533 -0.3397 -0.4840  0.5813
  143OSM   H18F15795   3.567   0.502   5.484 -1.3886  0.4092  0.4218
  143OSM   H18G15796   3.410   0.448   5.469  1.0229  3.1729 -0.5105
  143OSM   H18H15797   3.529   0.327   5.503 -0.9096 -0.1708 -1.1323
  144OSM      N15798   3.282   2.159   7.606 -0.8953 -0.3646  0.0403
  144OSM    C1515799   3.431   2.169   7.619 -0.1903  0.3870  0.3952
  144OSM   H15A15800   3.460   2.236   7.698  2.4340  1.0098 -0.9668
  144OSM   H15B15801   3.480   2.209   7.531 -1.2862  1.7071  0.3659
  144OSM   H15C15802   3.482   2.073   7.624 -1.2150 -0.2009 -0.1489
  144OSM    C1415803   3.230   2.127   7.740 -0.1098  0.0189 -0.0386
  144OSM   H14A15804   3.263   2.032   7.781  0.3117  1.3991  3.0925
  144OSM   H14B15805   3.123   2.123   7.725 -0.0144  0.2248 -0.7970
  144OSM   H14C15806   3.247   2.198   7.819 -2.2391 -2.6890  3.1558
  144OSM    C1315807   3.224   2.292   7.563  0.2135  0.0453 -0.4434
  144OSM   H13A15808   3.117   2.301   7.578  0.0993 -0.9638 -0.5850
  144OSM   H13B15809   3.240   2.321   7.460  1.0945  0.2837 -0.2464
  144OSM   H13C15810   3.274   2.364   7.625 -1.6078  1.6212 -0.7125
  144OSM    C1215811   3.239   2.056   7.504  0.1492  0.3606 -0.6603
  144OSM   H12A15812   3.264   1.958   7.541  2.3513  0.1924 -2.3259
  144OSM   H12B15813   3.290   2.071   7.409 -0.7550  0.8720 -1.0764
  144OSM    C1115814   3.085   2.045   7.469  0.1828 -0.1106 -0.2633
  144OSM   H11A15815   3.072   1.985   7.376 -0.3365 -0.8447  0.2716
  144OSM   H11B15816   3.033   2.139   7.441 -1.4277 -0.4760  1.2996
  144OSM      P15817   3.033   1.825   7.586 -0.0744 -0.0507  0.1225
  144OSM    O1315818   3.170   1.782   7.622 -0.8487 -0.7014 -0.3675
  144OSM    O1415819   2.928   1.775   7.678 -0.0598  0.5949  0.0162
  144OSM    O1115820   2.990   1.776   7.442 -0.1422 -0.4286 -0.0961
  144OSM    O1215821   3.016   1.982   7.578 -0.1269  0.2387  0.4569
  144OSM    C1S15822   2.872   1.832   7.374 -0.3428 -0.1242 -0.1023
  144OSM    H1S15823   2.850   1.937   7.404 -0.4147 -0.0035 -0.5681
  144OSM    H1T15824   2.788   1.773   7.416  1.3995 -1.1720  2.1380
  144OSM     NF15825   2.763   1.883   7.165 -0.3440  0.0800  0.3277
  144OSM    HNF15826   2.674   1.840   7.160 -0.3174  0.1918 -1.7393
  144OSM    C2S15827   2.873   1.808   7.223 -0.8360 -0.9885 -0.7108
  144OSM    H2S15828   2.968   1.846   7.181 -0.6152 -0.2322  0.4243
  144OSM    C3S15829   2.882   1.652   7.197 -0.1000  0.2969 -0.1106
  144OSM    H3S15830   2.805   1.606   7.262  0.9288 -0.1486  0.8230
  144OSM     O315831   3.001   1.589   7.239  0.2087  0.3393  0.4489
  144OSM    HO315832   3.048   1.655   7.292  0.1358 -0.2868  1.3207
  144OSM    C4S15833   2.853   1.617   7.052 -0.2147  0.3306 -0.2486
  144OSM    H4S15834   2.745   1.615   7.034 -0.4847 -0.2744  1.3065
  144OSM    C5S15835   2.941   1.616   6.950 -0.5292  0.1288  0.3455
  144OSM    H5S15836   3.049   1.606   6.971 -0.6101  0.5505  0.9792
  144OSM    C6S15837   2.910   1.607   6.801  0.0046  0.7920  0.3053
  144OSM    H6S15838   2.978   1.528   6.760 -0.7753 -1.4873  3.0422
  144OSM    H6T15839   2.938   1.698   6.744  1.4129 -0.9481 -1.9793
  144OSM    C7S15840   2.761   1.559   6.765  0.0284  0.3639  0.1470
  144OSM    H7S15841   2.687   1.626   6.813  0.1824  1.0307 -0.5266
  144OSM    H7T15842   2.751   1.455   6.802  1.1869 -0.4295 -1.6290
  144OSM    C8S15843   2.727   1.547   6.620 -0.4048  0.6029 -0.3838
  144OSM    H8S15844   2.742   1.646   6.571 -0.6525  0.1708 -1.3630
  144OSM    H8T15845   2.621   1.515   6.609 -0.0245 -0.5108 -0.9141
  144OSM    C9S15846   2.817   1.458   6.535  0.8385  0.7654 -0.5417
  144OSM    H9S15847   2.818   1.353   6.573 -0.2263  1.5414  1.7924
  144OSM    H9T15848   2.925   1.483   6.541  1.1216 -0.2088 -1.3172
  144OSM   C10S15849   2.788   1.454   6.385 -0.1716 -0.1965 -0.5952
  144OSM   H10S15850   2.877   1.402   6.342  1.3767  1.2482  0.7263
  144OSM   H10T15851   2.794   1.559   6.348 -0.0613  0.1725  0.4374
  144OSM   C11S15852   2.663   1.369   6.360  0.0098 -0.2779 -0.1903
  144OSM   H11S15853   2.580   1.429   6.404 -0.4578 -0.9340 -0.1786
  144OSM   H11T15854   2.682   1.274   6.414  3.8155  1.2611  1.5225
  144OSM   C12S15855   2.648   1.351   6.211 -0.5013  0.3367  0.3067
  144OSM   H12S15856   2.566   1.283   6.181  0.2501 -0.6297  0.3913
  144OSM   H12T15857   2.735   1.287   6.186 -0.7270 -0.3030  1.1202
  144OSM   C13S15858   2.628   1.470   6.116  0.0299  0.7096 -0.5435
  144OSM   H13S15859   2.700   1.548   6.146  1.5117 -0.5341 -0.7589
  144OSM   H13T15860   2.526   1.509   6.138 -0.1878 -0.7014  1.1318
  144OSM   C14S15861   2.639   1.443   5.962  0.0667  0.4714 -0.4476
  144OSM   H14S15862   2.743   1.418   5.932 -0.1140  0.5588 -1.1625
  144OSM   H14T15863   2.603   1.540   5.922 -0.8427 -0.2245 -1.3988
  144OSM   C15S15864   2.549   1.337   5.896  0.8683  0.0214  0.5055
  144OSM   H15S15865   2.454   1.353   5.952  0.8513  1.3818  0.1116
  144OSM   H15T15866   2.584   1.237   5.929  3.1729  1.0222  1.3018
  144OSM   C16S15867   2.522   1.330   5.741  0.4650  0.5929 -1.0850
  144OSM   H16S15868   2.445   1.255   5.714  0.1931  0.3894  0.1795
  144OSM   H16T15869   2.608   1.306   5.675  0.9385 -0.1594 -0.2126
  144OSM   C17S15870   2.468   1.460   5.688  0.6067 -0.4458  0.0174
  144OSM   H17S15871   2.544   1.523   5.638 -2.7856  2.2511 -2.2629
  144OSM   H17T15872   2.437   1.521   5.776 -1.1535 -1.4772  0.1659
  144OSM   C18S15873   2.334   1.454   5.608 -0.0751  0.0568 -0.0353
  144OSM   H18S15874   2.244   1.428   5.667  1.0466 -1.9573  0.8867
  144OSM   H18T15875   2.345   1.380   5.526 -1.9289 -0.3558  0.0583
  144OSM   H18U15876   2.319   1.555   5.563  5.1795  1.1072 -0.0760
  144OSM    C1F15877   2.749   2.015   7.157 -0.1944  0.4297  0.5739
  144OSM     OF15878   2.844   2.092   7.165  0.7631 -0.8926 -0.6698
  144OSM    C2F15879   2.610   2.059   7.153  0.1799 -0.2914  0.3068
  144OSM    H2F15880   2.602   2.136   7.233 -1.1083 -2.2369  2.1450
  144OSM    H2G15881   2.546   1.971   7.175 -0.5849  0.3913  0.9154
  144OSM    C3F15882   2.584   2.113   7.008 -0.0335  0.9188  1.1971
  144OSM    H3F15883   2.653   2.192   6.971  0.8777 -0.7722 -0.8979
  144OSM    H3G15884   2.479   2.149   7.013 -0.3402 -0.0041  1.7667
  144OSM    C4F15885   2.594   1.991   6.907  0.0994  0.0238 -0.1097
  144OSM    H4F15886   2.518   1.915   6.937 -0.0831 -0.6252 -2.0846
  144OSM    H4G15887   2.690   1.936   6.903  0.1854  0.1799 -0.2049
  144OSM    C5F15888   2.548   2.029   6.768  0.1843 -0.2032 -0.1050
  144OSM    H5F15889   2.616   2.106   6.726 -1.4005  2.1419  1.4002
  144OSM    H5G15890   2.454   2.088   6.781  0.2538 -0.1131 -0.0146
  144OSM    C6F15891   2.515   1.915   6.678 -0.0949 -0.3787 -0.3836
  144OSM    H6F15892   2.440   1.848   6.726  0.4360 -1.6541 -1.2723
  144OSM    H6G15893   2.611   1.859   6.672  0.4762  0.0000  3.2467
  144OSM    C7F15894   2.466   1.971   6.549  0.0497  0.6764  0.3640
  144OSM    H7F15895   2.545   2.038   6.510  1.6626 -1.0249  0.5743
  144OSM    H7G15896   2.373   2.029   6.569  0.3276  1.2637 -0.0260
  144OSM    C8F15897   2.423   1.870   6.439  0.0937  0.1631 -0.4792
  144OSM    H8F15898   2.367   1.921   6.358  0.0183 -0.4901 -0.8389
  144OSM    H8G15899   2.351   1.805   6.493  1.4618 -1.6022 -0.6878
  144OSM    C9F15900   2.528   1.790   6.381  0.2573 -0.8883  0.2324
  144OSM    H9F15901   2.565   1.700   6.433  4.4072  0.0478 -0.6739
  144OSM   C10F15902   2.611   1.829   6.287  0.1974  0.0242  0.9182
  144OSM   H10F15903   2.693   1.765   6.250 -1.3556 -1.0990 -0.7764
  144OSM   C11F15904   2.602   1.961   6.214 -0.5759  0.9302 -0.5044
  144OSM   H11F15905   2.703   1.988   6.178 -0.2095  0.3067  0.0399
  144OSM   H11G15906   2.575   2.036   6.291 -1.2484 -1.1568  1.4116
  144OSM   C12F15907   2.500   1.950   6.098 -0.1783 -1.1174  0.1170
  144OSM   H12F15908   2.503   2.055   6.063  0.9061  0.1038  3.4242
  144OSM   H12G15909   2.396   1.929   6.131 -0.7609  3.3605  1.8401
  144OSM   C13F15910   2.542   1.857   5.990  0.0048  0.1082  0.3400
  144OSM   H13F15911   2.543   1.750   6.020  0.4390  0.4996  1.7909
  144OSM   H13G15912   2.640   1.881   5.945 -1.6849  0.4053 -3.5435
  144OSM   C14F15913   2.445   1.888   5.874  0.4799  0.1280 -0.3053
  144OSM   H14F15914   2.435   1.997   5.860 -1.5863  0.1009  0.6032
  144OSM   H14G15915   2.349   1.839   5.902  1.4750 -1.5379  0.3620
  144OSM   C15F15916   2.503   1.829   5.747  0.3669  0.3959 -0.6990
  144OSM   H15F15917   2.525   1.720   5.759  1.0903  0.5801 -0.3148
  144OSM   H15G15918   2.607   1.867   5.744  0.9482 -1.0368 -0.0482
  144OSM   C16F15919   2.438   1.871   5.621 -0.1087  0.2693  0.0061
  144OSM   H16F15920   2.434   1.982   5.622 -2.0653  0.2308  0.1450
  144OSM   H16G15921   2.331   1.843   5.622 -0.5200  1.7565  0.5809
  144OSM   C17F15922   2.510   1.832   5.497  0.4130  0.5170 -0.1038
  144OSM   H17F15923   2.448   1.855   5.408 -0.6057  0.3165  0.5360
  144OSM   H17G15924   2.522   1.722   5.487 -1.1055  0.4615 -2.0337
  144OSM   C18F15925   2.653   1.893   5.477  0.5542  0.1001 -0.2729
  144OSM   H18F15926   2.704   1.906   5.575  0.0922  0.3168 -0.0617
  144OSM   H18G15927   2.656   1.991   5.425 -0.9133 -0.6084 -1.7779
  144OSM   H18H15928   2.716   1.824   5.416  0.4646  0.5684 -0.9003
  145OSM      N15929   3.167   4.741   7.504 -0.2922  0.3396  0.0999
  145OSM    C1515930   3.179   4.735   7.359  0.2543 -0.4436 -0.2490
  145OSM   H15A15931   3.135   4.816   7.301  0.9146 -1.5784 -2.4509
  145OSM   H15B15932   3.137   4.642   7.324  1.2968  0.0961 -3.2376
  145OSM   H15C15933   3.283   4.725   7.332  0.3611 -4.4989  1.1011
  145OSM    C1415934   3.031   4.725   7.556 -0.3504  0.1953  0.4628
  145OSM   H14A15935   2.957   4.791   7.515 -0.3523  1.0963  1.8556
  145OSM   H14B15936   3.014   4.749   7.659  1.3615  0.2556  0.7694
  145OSM   H14C15937   2.993   4.626   7.538  1.4181 -0.3875 -0.3131
  145OSM    C1315938   3.237   4.622   7.554 -0.1177  0.6704  0.5070
  145OSM   H13A15939   3.178   4.535   7.533 -1.4754  2.3609 -3.6688
  145OSM   H13B15940   3.258   4.628   7.660  1.5471 -2.0665  0.4212
  145OSM   H13C15941   3.330   4.608   7.501 -0.5979  2.1338 -0.8001
  145OSM    C1215942   3.230   4.870   7.549 -0.4561  0.1407 -0.1548
  145OSM   H12A15943   3.157   4.947   7.525 -0.9351  0.6521  2.5822
  145OSM   H12B15944   3.313   4.897   7.486 -0.5283  2.3492  0.5928
  145OSM    C1115945   3.282   4.878   7.694 -0.9503 -0.0689  0.6639
  145OSM   H11A15946   3.209   4.844   7.770 -2.4743 -0.3903 -0.8830
  145OSM   H11B15947   3.291   4.987   7.712 -1.2834  0.1567 -0.4864
  145OSM      P15948   3.539   4.863   7.664 -0.2623  0.2702  0.1499
  145OSM    O1315949   3.572   4.984   7.744  0.2562 -0.0627  0.4197
  145OSM    O1415950   3.639   4.754   7.663 -0.4033 -0.1487 -0.1167
  145OSM    O1115951   3.518   4.908   7.511  0.7149  0.1589  0.2106
  145OSM    O1215952   3.403   4.811   7.715 -0.5007  0.3531 -0.5465
  145OSM    C1S15953   3.595   4.850   7.407 -0.4748  0.7799 -0.6293
  145OSM    H1S15954   3.595   4.739   7.418 -0.2734  0.6746 -1.6042
  145OSM    H1T15955   3.704   4.869   7.403  0.4214 -3.4048 -1.2302
  145OSM     NF15956   3.572   4.795   7.163 -0.0319  0.2446 -0.4154
  145OSM    HNF15957   3.651   4.812   7.103 -0.0255  0.8601 -0.2452
  145OSM    C2S15958   3.554   4.897   7.264 -0.7567 -0.3365  0.0990
  145OSM    H2S15959   3.444   4.912   7.261 -0.6697  0.1738 -1.4388
  145OSM    C3S15960   3.618   5.034   7.239  0.5210 -0.6758  0.4467
  145OSM    H3S15961   3.727   5.011   7.234  0.8400  0.8327 -0.0244
  145OSM     O315962   3.594   5.133   7.336  0.2837  0.2017 -0.5579
  145OSM    HO315963   3.551   5.077   7.401  1.7191 -1.1431 -0.6980
  145OSM    C4S15964   3.575   5.096   7.111 -0.0937  0.2363  0.9580
  145OSM    H4S15965   3.483   5.155   7.124 -1.4892 -1.5708 -0.3412
  145OSM    C5S15966   3.645   5.087   6.994 -0.0217 -0.5045  0.4520
  145OSM    H5S15967   3.745   5.041   6.991 -0.1896 -0.8989  0.8932
  145OSM    C6S15968   3.604   5.151   6.861  0.1329  0.2631  0.1588
  145OSM    H6S15969   3.592   5.261   6.875 -2.0048  0.6050 -3.2260
  145OSM    H6T15970   3.502   5.116   6.836  0.5935 -1.4878  0.6085
  145OSM    C7S15971   3.704   5.127   6.749  0.0960  0.2159 -0.5174
  145OSM    H7S15972   3.740   5.023   6.733 -1.1056 -0.5075  1.1074
  145OSM    H7T15973   3.793   5.192   6.760 -2.1517  3.3133  1.0880
  145OSM    C8S15974   3.647   5.171   6.616 -0.1836  0.5502 -0.1056
  145OSM    H8S15975   3.628   5.280   6.609 -0.6293  0.6543  1.9397
  145OSM    H8T15976   3.550   5.123   6.594 -0.3132  0.9276 -0.3723
  145OSM    C9S15977   3.731   5.117   6.499 -0.0795 -0.2934  0.6108
  145OSM    H9S15978   3.743   5.008   6.481  1.3771  0.1283 -1.4261
  145OSM    H9T15979   3.836   5.152   6.506  0.3431 -0.3147 -3.3032
  145OSM   C10S15980   3.677   5.171   6.364 -0.1832  0.1069  0.6624
  145OSM   H10S15981   3.692   5.281   6.364 -1.0844  0.2322  0.8431
  145OSM   H10T15982   3.572   5.139   6.347  0.0607 -0.2074 -0.2967
  145OSM   C11S15983   3.748   5.119   6.240  0.4452  0.2889  0.5418
  145OSM   H11S15984   3.732   5.009   6.243  0.9902  0.1044 -1.5023
  145OSM   H11T15985   3.855   5.145   6.253  0.4495 -0.3897  1.9955
  145OSM   C12S15986   3.701   5.181   6.102 -0.1342  0.8255  0.4175
  145OSM   H12S15987   3.717   5.291   6.107  0.7450  0.7245  0.0931
  145OSM   H12T15988   3.593   5.161   6.090  0.6379 -2.7314 -2.3187
  145OSM   C13S15989   3.782   5.123   5.986 -0.1466  0.3142  0.8524
  145OSM   H13S15990   3.768   5.013   5.985  0.0720  0.2822  1.3800
  145OSM   H13T15991   3.892   5.140   5.991  0.0827 -0.7545 -0.0518
  145OSM   C14S15992   3.728   5.171   5.854  0.3633  0.0343  0.2077
  145OSM   H14S15993   3.745   5.280   5.841 -0.1687 -0.1252 -2.2447
  145OSM   H14T15994   3.620   5.152   5.834  0.7659 -0.8663 -1.2521
  145OSM   C15S15995   3.801   5.093   5.734  0.0542  0.2997 -0.2896
  145OSM   H15S15996   3.791   4.985   5.760 -0.1214  0.9740  2.8614
  145OSM   H15T15997   3.906   5.124   5.753 -0.1391  1.1711 -0.6129
  145OSM   C16S15998   3.737   5.132   5.597 -0.7459  0.2640  0.1188
  145OSM   H16S15999   3.727   5.243   5.602  0.9229  0.4449 -0.1538
  145OSM   H16T16000   3.637   5.085   5.595 -0.0583 -1.3265  1.0074
  145OSM   C17S16001   3.822   5.104   5.477 -0.6549 -0.1835 -0.9236
  145OSM   H17S16002   3.821   4.993   5.472 -1.1938 -0.1675 -1.2502
  145OSM   H17T16003   3.929   5.127   5.498 -0.7029 -0.2129 -0.6348
  145OSM   C18S16004   3.784   5.161   5.342  0.0140  1.0619  0.4237
  145OSM   H18S16005   3.858   5.118   5.271 -0.7748 -1.5726  1.0559
  145OSM   H18T16006   3.783   5.272   5.345 -2.1421  1.1390 -0.6626
  145OSM   H18U16007   3.695   5.119   5.290  1.0559  0.9778 -1.3953
  145OSM    C1F16008   3.504   4.684   7.156 -0.2967  0.4737 -0.0932
  145OSM     OF16009   3.440   4.654   7.255 -0.6433 -0.0919 -0.7237
  145OSM    C2F16010   3.519   4.594   7.036  0.1440  0.3184  0.4242
  145OSM    H2F16011   3.629   4.587   7.023  0.1157 -1.2799  0.7988
  145OSM    H2G16012   3.474   4.641   6.946 -0.6823 -0.1883  0.5534
  145OSM    C3F16013   3.468   4.454   7.049 -0.4362 -0.0859 -0.1720
  145OSM    H3F16014   3.359   4.453   7.067 -0.6474  0.6944 -1.2836
  145OSM    H3G16015   3.517   4.411   7.139 -0.9951  1.7059  1.0487
  145OSM    C4F16016   3.507   4.367   6.923  0.4042  0.0884 -0.4455
  145OSM    H4F16017   3.505   4.266   6.969 -1.7151  0.3648  0.2026
  145OSM    H4G16018   3.614   4.387   6.903  0.6850  0.4740  1.2723
  145OSM    C5F16019   3.426   4.375   6.799 -0.0790  0.2362 -0.1208
  145OSM    H5F16020   3.452   4.471   6.751  5.2600 -0.5486  0.6078
  145OSM    H5G16021   3.319   4.369   6.831 -0.3441 -2.4954 -1.2262
  145OSM    C6F16022   3.461   4.275   6.691 -0.1506 -0.5383  0.4307
  145OSM    H6F16023   3.456   4.171   6.731  1.2202 -2.1243 -3.0748
  145OSM    H6G16024   3.571   4.287   6.679  0.2826 -0.4121  3.6305
  145OSM    C7F16025   3.378   4.300   6.564 -0.3611 -0.2822  0.0065
  145OSM    H7F16026   3.384   4.408   6.538 -2.8747 -0.5341 -1.9387
  145OSM    H7G16027   3.271   4.278   6.584 -0.9225  0.7261 -1.6717
  145OSM    C8F16028   3.437   4.219   6.445  0.3024  0.1623 -0.0919
  145OSM    H8F16029   3.453   4.118   6.490 -1.2789  0.1953  0.6034
  145OSM    H8G16030   3.534   4.264   6.418  1.5869 -2.8873 -1.0390
  145OSM    C9F16031   3.338   4.222   6.328 -0.4014  0.0649 -0.3069
  145OSM    H9F16032   3.233   4.243   6.351 -1.3117  0.9187 -4.5619
  145OSM   C10F16033   3.362   4.210   6.195 -0.2344 -0.1898 -0.2727
  145OSM   H10F16034   3.278   4.210   6.124  0.1084  0.1890 -0.6894
  145OSM   C11F16035   3.499   4.193   6.129  0.8093  0.0753  0.4277
  145OSM   H11F16036   3.511   4.084   6.110 -0.5337  0.1290 -0.9506
  145OSM   H11G16037   3.584   4.218   6.195  1.4473  0.3683 -0.4833
  145OSM   C12F16038   3.514   4.267   5.996  0.8729  0.3981  0.2053
  145OSM   H12F16039   3.618   4.281   5.959  0.7337  1.0934  0.0556
  145OSM   H12G16040   3.468   4.368   6.010 -0.8370 -0.3703  0.3827
  145OSM   C13F16041   3.432   4.194   5.884  0.0617 -0.4333  0.0028
  145OSM   H13F16042   3.323   4.208   5.903 -0.1467 -2.2621  0.3398
  145OSM   H13G16043   3.447   4.085   5.901  0.6585 -0.2429  0.7977
  145OSM   C14F16044   3.489   4.240   5.748 -0.0909  0.6321  0.1860
  145OSM   H14F16045   3.536   4.340   5.760 -0.7084  0.7210  2.4920
  145OSM   H14G16046   3.393   4.249   5.694 -0.9263 -1.2237  1.2588
  145OSM   C15F16047   3.579   4.135   5.691 -0.0707 -0.0253 -0.1642
  145OSM   H15F16048   3.520   4.043   5.672 -0.1913 -0.0716  0.4394
  145OSM   H15G16049   3.658   4.106   5.763 -1.2015 -1.4774  0.5438
  145OSM   C16F16050   3.649   4.180   5.558  0.4351 -0.1902  0.6155
  145OSM   H16F16051   3.704   4.270   5.591  0.1432 -0.6789  2.5609
  145OSM   H16G16052   3.572   4.206   5.482  1.3020 -0.1368 -0.2696
  145OSM   C17F16053   3.749   4.075   5.509  0.5276 -0.3609  0.6563
  145OSM   H17F16054   3.690   3.981   5.505 -1.0471  0.5772  0.8845
  145OSM   H17G16055   3.837   4.054   5.574  1.6244 -2.6573 -1.4050
  145OSM   C18F16056   3.802   4.099   5.364  0.1710 -0.4971  0.1299
  145OSM   H18F16057   3.850   4.008   5.322  0.5410  0.6306 -2.0883
  145OSM   H18G16058   3.872   4.186   5.355 -0.8431  0.5446  1.7297
  145OSM   H18H16059   3.714   4.108   5.297  0.1525  0.4971  0.2661
  146OSM      N16060   1.992   4.951   7.217  0.0433 -0.6432 -0.3284
  146OSM    C1516061   2.024   4.815   7.259  0.3583  0.7137 -0.7864
  146OSM   H15A16062   2.126   4.786   7.239 -0.2838 -1.9802 -0.5438
  146OSM   H15B16063   1.966   4.740   7.208  1.3982 -1.4178  1.0229
  146OSM   H15C16064   2.014   4.811   7.367 -1.0206  0.8310 -0.8926
  146OSM    C1416065   1.850   4.985   7.252  0.3615 -0.0965  0.0328
  146OSM   H14A16066   1.788   4.929   7.183 -0.8259  1.9486 -0.6369
  146OSM   H14B16067   1.835   5.090   7.235 -1.0095  0.0048  1.5922
  146OSM   H14C16068   1.820   4.954   7.351  0.1652 -2.0423 -0.5866
  146OSM    C1316069   2.084   5.036   7.297  0.6004  0.1253  0.3018
  146OSM   H13A16070   2.184   4.998   7.301  0.1734 -0.9336  1.9313
  146OSM   H13B16071   2.047   5.019   7.398  1.0587  0.8052  0.5950
  146OSM   H13C16072   2.064   5.140   7.272 -0.8769 -0.4732 -1.2184
  146OSM    C1216073   2.023   4.972   7.065 -0.7637 -0.0929  0.0228
  146OSM   H12A16074   2.130   4.960   7.073 -0.8276  0.0938  1.3991
  146OSM   H12B16075   2.001   5.074   7.036  0.6551 -0.4837 -2.7712
  146OSM    C1116076   1.970   4.871   6.962  0.1462 -0.6066  0.4378
  146OSM   H11A16077   1.984   4.768   7.003 -0.5655 -0.0756  2.1101
  146OSM   H11B16078   2.040   4.874   6.876 -0.5036 -1.5059 -0.1415
  146OSM      P16079   1.819   5.037   6.838  0.2015  0.3419 -0.2159
  146OSM    O1316080   1.676   5.047   6.803 -0.7822 -0.2255 -0.3526
  146OSM    O1416081   1.888   5.151   6.898  0.6923 -0.0618  0.7248
  146OSM    O1116082   1.897   4.986   6.708  0.6745  0.2858  0.4137
  146OSM    O1216083   1.835   4.910   6.934 -0.8119  0.0866  0.1157
  146OSM    C1S16084   1.851   4.867   6.645 -0.1938 -0.9391  0.9410
  146OSM    H1S16085   1.740   4.862   6.646 -0.2555  0.0661  0.4007
  146OSM    H1T16086   1.877   4.772   6.696  0.0181 -0.5254  1.6111
  146OSM     NF16087   1.819   4.786   6.419  0.2469 -0.5232  0.5411
  146OSM    HNF16088   1.866   4.716   6.366  0.7002 -1.0107  1.5594
  146OSM    C2S16089   1.901   4.862   6.503  0.8793  0.1741 -0.1232
  146OSM    H2S16090   1.893   4.962   6.454  0.7263  1.0706  1.6380
  146OSM    C3S16091   2.050   4.814   6.516  0.4512 -0.5028 -0.5113
  146OSM    H3S16092   2.046   4.706   6.539 -4.7985 -0.2671  0.7886
  146OSM     O316093   2.119   4.876   6.629  0.0923 -0.0818  0.2180
  146OSM    HO316094   2.050   4.923   6.678 -0.0024 -1.0846  1.0942
  146OSM    C4S16095   2.127   4.825   6.384  0.1232  1.2759  0.0133
  146OSM    H4S16096   2.148   4.743   6.313  1.6867  1.9214 -0.3131
  146OSM    C5S16097   2.168   4.942   6.332  0.1786  0.1678 -0.2955
  146OSM    H5S16098   2.150   5.037   6.384  0.4093  0.0660 -0.0278
  146OSM    C6S16099   2.242   4.955   6.197 -0.2483 -0.2307 -0.4916
  146OSM    H6S16100   2.320   5.032   6.215  0.7047 -1.0687 -0.9295
  146OSM    H6T16101   2.181   4.993   6.113 -0.4113 -1.6842 -1.0574
  146OSM    C7S16102   2.311   4.830   6.135  0.9502  0.2188  0.9765
  146OSM    H7S16103   2.233   4.752   6.122 -0.3411  1.6929 -0.7450
  146OSM    H7T16104   2.394   4.795   6.199  0.6927  2.7425  2.8275
  146OSM    C8S16105   2.376   4.861   5.996  0.1882 -0.4726  0.1291
  146OSM    H8S16106   2.442   4.779   5.962  1.5962  1.0109 -0.8662
  146OSM    H8T16107   2.451   4.942   6.002  1.0658 -1.0059 -2.4256
  146OSM    C9S16108   2.286   4.892   5.882  0.1264  0.3221 -1.1219
  146OSM    H9S16109   2.237   4.990   5.901 -0.1348 -0.1446  0.8733
  146OSM    H9T16110   2.203   4.818   5.887  0.3846 -0.0339 -1.9702
  146OSM   C10S16111   2.361   4.884   5.756 -0.5996  0.5209 -0.3775
  146OSM   H10S16112   2.404   4.782   5.750  0.4190  0.9735 -0.8646
  146OSM   H10T16113   2.452   4.947   5.766 -0.3990  0.1021  0.5663
  146OSM   C11S16114   2.267   4.910   5.634 -0.0815 -0.4271 -0.1061
  146OSM   H11S16115   2.230   5.011   5.658  3.1706  1.0384 -0.7176
  146OSM   H11T16116   2.171   4.854   5.624 -1.8503  2.4557 -0.2027
  146OSM   C12S16117   2.341   4.927   5.498  0.2042  0.5879 -0.0666
  146OSM   H12S16118   2.429   4.990   5.524 -0.3973  1.1227  0.7262
  146OSM   H12T16119   2.281   4.985   5.425 -1.3038 -0.0605  0.6201
  146OSM   C13S16120   2.381   4.794   5.430  0.1442 -0.2257  0.5587
  146OSM   H13S16121   2.450   4.728   5.487 -0.0413 -1.1238 -0.2412
  146OSM   H13T16122   2.433   4.824   5.337  1.7662  2.8332  2.2657
  146OSM   C14S16123   2.275   4.701   5.395  0.6990  0.2063  0.2374
  146OSM   H14S16124   2.207   4.758   5.329 -0.6257 -2.7350 -1.1118
  146OSM   H14T16125   2.230   4.666   5.490  0.2012  1.5639  0.5188
  146OSM   C15S16126   2.309   4.574   5.315  0.1187 -0.4468 -0.5123
  146OSM   H15S16127   2.332   4.604   5.210  0.2690  1.9227  0.1457
  146OSM   H15T16128   2.215   4.516   5.314 -0.5243  0.5589 -0.0997
  146OSM   C16S16129   2.412   4.482   5.368  0.1271 -0.2271 -0.2660
  146OSM   H16S16130   2.405   4.473   5.479 -3.7122 -4.2336 -0.5757
  146OSM   H16T16131   2.515   4.517   5.346  2.2333 -5.0200  0.6776
  146OSM   C17S16132   2.413   4.337   5.310 -0.1812  0.1582  0.1274
  146OSM   H17S16133   2.414   4.334   5.199 -1.0173  0.6072  0.1010
  146OSM   H17T16134   2.318   4.292   5.346 -0.3401  1.0612  0.9103
  146OSM   C18S16135   2.535   4.269   5.364 -0.1356 -0.2373 -0.1229
  146OSM   H18S16136   2.631   4.294   5.313  0.9342 -2.4381  0.6783
  146OSM   H18T16137   2.536   4.158   5.352 -0.2452 -0.1797 -0.6740
  146OSM   H18U16138   2.540   4.302   5.470 -0.9015 -0.8183  0.1031
  146OSM    C1F16139   1.696   4.816   6.384 -0.3944  0.1677  0.1716
  146OSM     OF16140   1.639   4.913   6.434  0.8260  0.5557  0.5178
  146OSM    C2F16141   1.631   4.738   6.274  0.0043  0.2153  0.3477
  146OSM    H2F16142   1.617   4.633   6.307  2.1496 -0.1082  0.4233
  146OSM    H2G16143   1.688   4.726   6.179 -1.8550  2.8970 -1.2050
  146OSM    C3F16144   1.497   4.806   6.230  0.1671  0.4342  0.2683
  146OSM    H3F16145   1.516   4.913   6.205 -0.4007  0.5893  0.4824
  146OSM    H3G16146   1.429   4.812   6.318 -0.2996 -0.1937 -0.0473
  146OSM    C4F16147   1.426   4.737   6.112  0.1165  0.1231 -0.5806
  146OSM    H4F16148   1.443   4.627   6.117 -0.4696  0.0368 -0.4343
  146OSM    H4G16149   1.470   4.754   6.011 -2.3477  0.1605 -1.7154
  146OSM    C5F16150   1.276   4.775   6.094  0.0689 -0.4381 -0.3459
  146OSM    H5F16151   1.211   4.733   6.173  2.2693 -0.0523  1.8087
  146OSM    H5G16152   1.241   4.738   5.995 -0.7728 -1.8632  0.4471
  146OSM    C6F16153   1.253   4.927   6.078  0.2437 -0.1128  0.1111
  146OSM    H6F16154   1.310   4.962   5.989  1.2162  0.0990  0.7948
  146OSM    H6G16155   1.295   4.980   6.166 -1.1980  1.1100  0.1058
  146OSM    C7F16156   1.112   4.976   6.077 -0.0541  0.3640 -0.0512
  146OSM    H7F16157   1.070   4.965   6.179  0.5860  0.4805  0.2330
  146OSM    H7G16158   1.056   4.913   6.005  1.2780 -1.2954  0.2900
  146OSM    C8F16159   1.084   5.122   6.032 -0.8036  0.1461 -0.3741
  146OSM    H8F16160   1.109   5.123   5.924 -1.3554 -2.4297 -0.5954
  146OSM    H8G16161   1.144   5.191   6.096  2.4974 -3.5029  0.8819
  146OSM    C9F16162   0.940   5.155   6.053  0.0322  0.0757 -0.0781
  146OSM    H9F16163   0.893   5.120   6.146 -3.0702  2.1866 -0.6979
  146OSM   C10F16164   0.858   5.229   5.980 -0.1221 -0.1962 -0.2989
  146OSM   H10F16165   0.754   5.249   6.009 -0.8933 -0.6460 -2.5434
  146OSM   C11F16166   0.891   5.297   5.850  0.0182  0.1822  0.9650
  146OSM   H11F16167   0.820   5.274   5.768 -0.1301  1.4929  0.7039
  146OSM   H11G16168   0.989   5.267   5.806 -0.1199  1.8391 -0.5925
  146OSM   C12F16169   0.884   5.451   5.859  0.0516  0.3619 -0.6882
  146OSM   H12F16170   0.958   5.496   5.928 -0.1450 -1.5040  0.8103
  146OSM   H12G16171   0.785   5.472   5.905 -0.4985  0.9317 -2.0786
  146OSM   C13F16172   0.888   5.527   5.726  0.0333 -0.3447 -0.0285
  146OSM   H13F16173   0.985   5.513   5.675 -1.2141 -0.7367 -2.4616
  146OSM   H13G16174   0.867   5.635   5.737 -4.6675 -1.0868  0.3785
  146OSM   C14F16175   0.791   5.484   5.614  0.0023 -0.4490 -0.2782
  146OSM   H14F16176   0.802   5.378   5.584  0.5144 -0.0106 -1.6844
  146OSM   H14G16177   0.691   5.517   5.651 -0.2695  0.5945 -1.8721
  146OSM   C15F16178   0.829   5.564   5.491 -0.3461 -0.6546  0.4389
  146OSM   H15F16179   0.842   5.670   5.520 -0.4357 -0.4315 -0.3242
  146OSM   H15G16180   0.742   5.560   5.421  1.7793 -0.1100 -2.4195
  146OSM   C16F16181   0.950   5.521   5.410 -0.5309  0.1600  0.2552
  146OSM   H16F16182   1.037   5.501   5.475  0.8511  0.2258 -1.4908
  146OSM   H16G16183   0.987   5.605   5.347 -0.3965 -0.6701 -0.8172
  146OSM   C17F16184   0.923   5.398   5.325  0.4211  0.2475  0.1435
  146OSM   H17F16185   0.835   5.409   5.258  0.5949  0.5249 -0.0386
  146OSM   H17G16186   0.897   5.319   5.400  2.2794 -0.1282  0.4325
  146OSM   C18F16187   1.042   5.358   5.246 -0.0704  0.1561  0.5313
  146OSM   H18F16188   1.073   5.435   5.172 -0.5335  1.2250  1.4310
  146OSM   H18G16189   1.023   5.269   5.182  0.1365 -1.7115  2.9532
  146OSM   H18H16190   1.115   5.316   5.318  0.7706 -1.7042 -1.2873
  147OSM      N16191   4.929   4.483   3.052 -0.6798 -0.8694  0.1509
  147OSM    C1516192   5.056   4.407   3.060 -0.1203 -0.2836  0.5170
  147OSM   H15A16193   5.070   4.353   3.152  0.9790 -2.0031 -0.5961
  147OSM   H15B16194   5.135   4.481   3.052 -0.2548 -0.3656 -2.5578
  147OSM   H15C16195   5.076   4.336   2.982 -2.3955 -1.2209  0.7332
  147OSM    C1416196   4.923   4.580   3.163 -0.1584  0.3927 -0.3274
  147OSM   H14A16197   4.833   4.639   3.150 -0.5467 -0.0515  0.2699
  147OSM   H14B16198   5.004   4.651   3.178  0.1887 -0.3423  1.5053
  147OSM   H14C16199   4.901   4.531   3.256 -3.3166 -1.0217 -1.6846
  147OSM    C1316200   4.925   4.578   2.933 -0.0594 -0.2825 -0.6770
  147OSM   H13A16201   4.992   4.658   2.961  1.2826 -0.9201 -1.8981
  147OSM   H13B16202   4.823   4.612   2.918 -0.4016 -0.3521  1.2898
  147OSM   H13C16203   4.959   4.536   2.839  0.7808  1.9480 -1.4331
  147OSM    C1216204   4.811   4.392   3.048  0.2765  0.4046 -0.4009
  147OSM   H12A16205   4.801   4.355   2.947 -0.7497  1.6098 -0.7722
  147OSM   H12B16206   4.724   4.442   3.087  0.2073  0.0873 -0.1445
  147OSM    C1116207   4.832   4.262   3.135  0.5198  0.4497 -0.4899
  147OSM   H11A16208   4.888   4.274   3.231  0.2197 -2.5649  0.1480
  147OSM   H11B16209   4.897   4.188   3.084  0.5270  0.8312 -1.0386
  147OSM      P16210   4.596   4.277   3.243  0.1426  0.1435 -0.3343
  147OSM    O1316211   4.610   4.423   3.255  0.0347 -0.2886  0.7867
  147OSM    O1416212   4.463   4.227   3.199  0.1198 -0.1972  0.2393
  147OSM    O1116213   4.634   4.210   3.379  0.5072 -0.2247  0.0049
  147OSM    O1216214   4.705   4.213   3.150 -0.4854  0.7916  0.1073
  147OSM    C1S16215   4.637   4.283   3.502  0.4280 -0.0045  0.7163
  147OSM    H1S16216   4.540   4.338   3.508  0.1956 -0.3560  0.2776
  147OSM    H1T16217   4.721   4.355   3.506 -0.1204  0.6310  1.0991
  147OSM     NF16218   4.594   4.252   3.750 -0.1796  1.0207 -0.3967
  147OSM    HNF16219   4.659   4.276   3.821 -1.3583 -0.6405  1.3283
  147OSM    C2S16220   4.645   4.183   3.627  0.4580 -0.8400  0.6154
  147OSM    H2S16221   4.585   4.092   3.606  1.3252 -0.7095 -3.1385
  147OSM    C3S16222   4.788   4.121   3.642  0.1587  0.3078  0.1774
  147OSM    H3S16223   4.852   4.202   3.681  1.5841 -0.3417 -0.7334
  147OSM     O316224   4.853   4.088   3.518 -0.0621 -0.6790  0.2291
  147OSM    HO316225   4.794   4.132   3.456  3.5704  0.9393 -2.5152
  147OSM    C4S16226   4.798   4.004   3.734  0.2492 -0.2302  0.1759
  147OSM    H4S16227   4.745   3.912   3.705  1.3166 -0.9603  0.4938
  147OSM    C5S16228   4.867   3.995   3.846 -1.0556 -0.4721  0.4186
  147OSM    H5S16229   4.902   4.089   3.892  1.1730 -1.4710  0.8904
  147OSM    C6S16230   4.875   3.865   3.923  0.3414 -0.0076  0.5398
  147OSM    H6S16231   4.841   3.784   3.855 -1.9543 -0.3211  1.9551
  147OSM    H6T16232   4.800   3.863   4.005  0.7682  1.1514  0.9791
  147OSM    C7S16233   5.020   3.833   3.982  0.9175  0.8108  0.0130
  147OSM    H7S16234   5.050   3.911   4.056  0.4199  0.7792  0.2547
  147OSM    H7T16235   5.082   3.837   3.890 -1.2237  2.0768 -1.4821
  147OSM    C8S16236   5.022   3.695   4.046  0.5526 -0.3263 -0.9628
  147OSM    H8S16237   5.121   3.667   4.086 -0.6674 -1.9293  1.1815
  147OSM    H8T16238   4.993   3.612   3.977 -0.2503  0.5390 -1.6945
  147OSM    C9S16239   4.943   3.692   4.182 -0.2180 -0.2694  0.6173
  147OSM    H9S16240   4.853   3.626   4.181 -0.0264 -0.5963 -1.7909
  147OSM    H9T16241   4.918   3.796   4.213 -0.0395 -0.4154  1.2560
  147OSM   C10S16242   5.040   3.641   4.292  0.3825 -0.8045 -0.6058
  147OSM   H10S16243   5.105   3.731   4.299  0.7939 -1.0892 -0.7723
  147OSM   H10T16244   5.091   3.551   4.253  1.0960 -1.1318  1.0486
  147OSM   C11S16245   4.977   3.613   4.426  0.4761  0.2238 -0.1324
  147OSM   H11S16246   4.922   3.518   4.409  1.6182 -0.5059  0.0729
  147OSM   H11T16247   4.904   3.690   4.456 -0.0441 -1.3293  3.0473
  147OSM   C12S16248   5.074   3.585   4.551  0.3502 -0.5958 -0.1620
  147OSM   H12S16249   5.137   3.670   4.586 -0.0205 -0.2923 -0.2246
  147OSM   H12T16250   5.144   3.501   4.533  1.0492 -0.4112  1.4854
  147OSM   C13S16251   4.986   3.560   4.670  0.6723  0.8405  0.8075
  147OSM   H13S16252   5.051   3.531   4.756  0.4950 -0.6992  0.4529
  147OSM   H13T16253   4.936   3.465   4.641 -0.4036  0.9233  2.3230
  147OSM   C14S16254   4.881   3.664   4.722 -0.0728  0.2429 -0.4577
  147OSM   H14S16255   4.839   3.621   4.815  1.3089 -2.4387 -0.9910
  147OSM   H14T16256   4.804   3.667   4.642 -1.7921 -0.8038  1.0885
  147OSM   C15S16257   4.943   3.805   4.746 -0.2423  0.2268 -0.0582
  147OSM   H15S16258   4.865   3.882   4.764 -2.3943 -1.4791 -1.5603
  147OSM   H15T16259   4.993   3.824   4.648 -0.2077  1.4929  0.1898
  147OSM   C16S16260   5.057   3.815   4.862 -0.0284 -0.4891 -0.3284
  147OSM   H16S16261   5.135   3.740   4.836 -0.3345 -1.2451  0.8240
  147OSM   H16T16262   5.014   3.777   4.957 -2.3328 -1.6121 -1.7206
  147OSM   C17S16263   5.117   3.955   4.874 -0.4498 -0.9944  0.2638
  147OSM   H17S16264   5.045   4.029   4.916  1.2025  0.5739  0.4511
  147OSM   H17T16265   5.132   3.985   4.769 -0.7484  0.0187  0.5000
  147OSM   C18S16266   5.254   3.948   4.953 -0.3106  0.2241 -0.0592
  147OSM   H18S16267   5.308   4.045   4.958 -2.3940  1.4073  1.3574
  147OSM   H18T16268   5.325   3.887   4.893 -0.5411  1.7312 -1.9409
  147OSM   H18U16269   5.240   3.904   5.054  0.4128  0.5778  0.2051
  147OSM    C1F16270   4.464   4.280   3.767 -0.3105  0.5081  0.0695
  147OSM     OF16271   4.380   4.253   3.684  0.5614  0.2722  0.3816
  147OSM    C2F16272   4.420   4.354   3.898  0.0320 -0.7872 -0.3644
  147OSM    H2F16273   4.507   4.412   3.935 -1.7441  2.2857 -0.6626
  147OSM    H2G16274   4.388   4.277   3.972  2.1904  0.9545  2.6233
  147OSM    C3F16275   4.295   4.443   3.876  0.0534  0.1898  0.2323
  147OSM    H3F16276   4.207   4.387   3.838  0.0273  1.3041 -1.4583
  147OSM    H3G16277   4.320   4.514   3.794 -1.9606  0.5577 -0.1205
  147OSM    C4F16278   4.259   4.517   4.009  0.0715  0.0444 -0.2153
  147OSM    H4F16279   4.346   4.577   4.045 -0.2323  0.1853  0.2985
  147OSM    H4G16280   4.227   4.439   4.080 -1.5469 -0.1635 -1.1185
  147OSM    C5F16281   4.142   4.620   3.995  0.4724  0.2245  0.5344
  147OSM    H5F16282   4.050   4.575   3.953  1.0046 -2.9714  2.4558
  147OSM    H5G16283   4.172   4.707   3.932 -1.7485  1.7085  1.4332
  147OSM    C6F16284   4.118   4.698   4.128  0.6976  0.3303  0.3168
  147OSM    H6F16285   4.105   4.628   4.213 -1.0558  0.8407  0.5106
  147OSM    H6G16286   4.021   4.746   4.104 -0.1367 -1.7846 -0.8510
  147OSM    C7F16287   4.220   4.804   4.161 -0.8921  0.0713 -0.3572
  147OSM    H7F16288   4.232   4.868   4.070  2.9669 -0.3320 -0.3037
  147OSM    H7G16289   4.319   4.753   4.155 -0.3116  0.8832  1.5211
  147OSM    C8F16290   4.215   4.874   4.299  0.2267  0.1388  0.0865
  147OSM    H8F16291   4.317   4.892   4.337  0.6040  0.2101 -0.9158
  147OSM    H8G16292   4.171   4.805   4.374  0.6640 -1.2872 -0.9055
  147OSM    C9F16293   4.143   5.002   4.279  0.3843  0.0292 -0.1520
  147OSM    H9F16294   4.067   5.001   4.199  1.2575  3.0611 -1.1451
  147OSM   C10F16295   4.136   5.098   4.372  0.5262  0.7278  0.7854
  147OSM   H10F16296   4.082   5.186   4.333 -1.0076 -1.5405 -2.7299
  147OSM   C11F16297   4.194   5.098   4.508 -0.1769  0.1787 -0.0761
  147OSM   H11F16298   4.277   5.170   4.527 -1.7342  1.4274  2.6471
  147OSM   H11G16299   4.235   4.997   4.527 -2.1803 -0.4586  1.1996
  147OSM   C12F16300   4.086   5.136   4.616  0.6718  0.3696 -0.2982
  147OSM   H12F16301   4.057   5.243   4.609  0.8757  0.4743  0.4012
  147OSM   H12G16302   4.121   5.121   4.721 -0.0179 -1.8427 -0.3463
  147OSM   C13F16303   3.940   5.072   4.600 -0.5046  0.6485  0.6214
  147OSM   H13F16304   3.913   5.086   4.493 -0.5152  0.6896  0.6294
  147OSM   H13G16305   3.859   5.130   4.649 -0.0824 -0.7198  3.0788
  147OSM   C14F16306   3.923   4.922   4.639 -0.3376  0.5698 -0.3986
  147OSM   H14F16307   4.008   4.865   4.595 -0.0460  0.9647 -0.3572
  147OSM   H14G16308   3.832   4.876   4.595  0.2474  0.1679 -1.2081
  147OSM   C15F16309   3.936   4.899   4.790  0.2332  0.0112 -1.0037
  147OSM   H15F16310   4.042   4.913   4.821 -0.7398 -0.2580  3.0170
  147OSM   H15G16311   3.911   4.793   4.814 -3.4685  1.0251  0.2818
  147OSM   C16F16312   3.847   4.992   4.881  0.3166 -0.8070  0.3154
  147OSM   H16F16313   3.738   4.979   4.862 -0.1187  1.3340  1.1145
  147OSM   H16G16314   3.864   5.097   4.851 -1.0540 -1.0344 -1.3882
  147OSM   C17F16315   3.880   4.978   5.031  0.1318 -0.2938  0.7259
  147OSM   H17F16316   3.851   5.075   5.078 -2.0873 -1.2188  1.3805
  147OSM   H17G16317   3.989   4.961   5.042  0.1994 -0.3754 -0.0010
  147OSM   C18F16318   3.811   4.869   5.099  1.1614  0.2726 -0.9831
  147OSM   H18F16319   3.832   4.864   5.208 -0.8713  0.7649 -0.5237
  147OSM   H18G16320   3.855   4.775   5.059  2.9288  0.6783 -0.0704
  147OSM   H18H16321   3.700   4.876   5.095  1.2268  1.3350 -1.3226
  148OSM      N16322   4.366   2.950   2.907  0.1343 -0.2208 -0.1198
  148OSM    C1516323   4.334   3.039   2.790 -0.4145  0.4253  0.0842
  148OSM   H15A16324   4.229   3.062   2.783 -0.7843 -1.3258 -0.4512
  148OSM   H15B16325   4.373   2.993   2.700  0.1261  1.8626 -0.4458
  148OSM   H15C16326   4.380   3.136   2.802 -0.5135  0.5060 -0.1982
  148OSM    C1416327   4.322   2.806   2.879 -0.5593  0.0244 -0.2352
  148OSM   H14A16328   4.395   2.746   2.828  0.2100  0.8334 -0.1190
  148OSM   H14B16329   4.229   2.812   2.825 -0.3394 -1.3022 -0.7933
  148OSM   H14C16330   4.298   2.760   2.974  1.7841 -0.0826  0.3823
  148OSM    C1316331   4.508   2.933   2.939  0.3033 -0.0581  0.4246
  148OSM   H13A16332   4.525   2.871   3.026 -3.8779 -0.6333  1.0373
  148OSM   H13B16333   4.557   3.028   2.955  1.5081 -0.3372 -1.3932
  148OSM   H13C16334   4.563   2.893   2.855  1.2229 -1.4934  1.6532
  148OSM    C1216335   4.292   3.002   3.027 -0.1029 -0.2990 -0.4366
  148OSM   H12A16336   4.187   3.013   3.008 -0.6729 -0.4296  2.1648
  148OSM   H12B16337   4.316   3.106   3.044 -0.7405 -0.3824  1.1973
  148OSM    C1116338   4.312   2.931   3.164  0.7605  0.1367 -0.1250
  148OSM   H11A16339   4.262   2.994   3.240  0.0374  0.4068 -0.8102
  148OSM   H11B16340   4.422   2.927   3.182  1.0038  1.0755 -1.2922
  148OSM      P16341   4.325   2.675   3.222 -0.0700 -0.0075  0.0975
  148OSM    O1316342   4.226   2.567   3.204 -0.1555 -0.0838  0.1548
  148OSM    O1416343   4.455   2.660   3.152 -0.7494 -0.7549  0.0352
  148OSM    O1116344   4.350   2.710   3.379 -0.7133  0.2336  0.5410
  148OSM    O1216345   4.249   2.806   3.167 -0.4689 -0.5935 -0.1047
  148OSM    C1S16346   4.235   2.742   3.454 -0.3852  0.2272 -0.2954
  148OSM    H1S16347   4.163   2.659   3.470 -0.4008 -0.1557 -2.0391
  148OSM    H1T16348   4.183   2.831   3.412  1.2846  1.0151 -0.8052
  148OSM     NF16349   4.132   2.830   3.654  0.2365  0.3932 -0.1144
  148OSM    HNF16350   4.097   2.922   3.641  3.7183  1.7056 -1.2978
  148OSM    C2S16351   4.265   2.811   3.595 -0.3282  0.0615  0.1921
  148OSM    H2S16352   4.326   2.746   3.662 -0.8206 -1.2230 -0.5796
  148OSM    C3S16353   4.347   2.941   3.569  0.7299 -0.1148  0.3661
  148OSM    H3S16354   4.288   2.993   3.490  5.0761  1.5419 -2.1161
  148OSM     O316355   4.475   2.922   3.496  0.1416 -0.2241 -0.3665
  148OSM    HO316356   4.462   2.831   3.468 -2.8555  0.3239 -1.1112
  148OSM    C4S16357   4.362   3.034   3.686  0.3537 -0.2414  0.3185
  148OSM    H4S16358   4.292   3.116   3.707 -1.8498 -1.5830 -1.3404
  148OSM    C5S16359   4.459   3.016   3.774 -0.0045  0.1883  0.4905
  148OSM    H5S16360   4.510   2.919   3.765 -4.6222 -2.2798 -3.0638
  148OSM    C6S16361   4.456   3.094   3.905 -0.1282  0.2530  0.6401
  148OSM    H6S16362   4.416   3.196   3.887  1.5198  0.9093  0.4701
  148OSM    H6T16363   4.561   3.106   3.939  0.4806 -0.9586 -0.6990
  148OSM    C7S16364   4.372   3.023   4.012  0.2007 -0.2801 -0.4867
  148OSM    H7S16365   4.402   2.916   4.015 -1.3262 -0.7765 -1.6375
  148OSM    H7T16366   4.267   3.026   3.977 -0.0196 -1.1798  0.0575
  148OSM    C8S16367   4.378   3.086   4.148  0.1205 -0.3101  0.3257
  148OSM    H8S16368   4.341   3.190   4.139 -0.6736 -0.6158  0.0381
  148OSM    H8T16369   4.480   3.090   4.193  0.6135  1.3648 -0.8553
  148OSM    C9S16370   4.289   3.022   4.264  0.0687 -1.2751 -0.2836
  148OSM    H9S16371   4.315   2.915   4.275 -0.4024 -1.2008  1.9036
  148OSM    H9T16372   4.182   3.037   4.238 -0.1694 -0.8534  0.8796
  148OSM   C10S16373   4.315   3.100   4.388 -0.3523  0.0131  0.1947
  148OSM   H10S16374   4.275   3.202   4.376 -0.4978  0.4259  3.2826
  148OSM   H10T16375   4.424   3.095   4.408 -0.7120  0.3696  2.4857
  148OSM   C11S16376   4.240   3.032   4.504 -0.4130  0.1842 -0.1782
  148OSM   H11S16377   4.279   2.929   4.514  0.3004  0.1312 -2.7350
  148OSM   H11T16378   4.133   3.014   4.480 -0.8287  0.2100  1.5366
  148OSM   C12S16379   4.252   3.101   4.643 -0.1357  0.9710  0.2780
  148OSM   H12S16380   4.234   3.211   4.636 -3.4025  0.5332  0.2096
  148OSM   H12T16381   4.355   3.082   4.680 -0.6779 -1.0304  0.8294
  148OSM   C13S16382   4.173   3.038   4.758 -0.1948  0.1108  0.8950
  148OSM   H13S16383   4.190   2.928   4.759  0.7129  0.2363  0.6047
  148OSM   H13T16384   4.067   3.063   4.737  0.3783  1.5634 -0.4764
  148OSM   C14S16385   4.201   3.098   4.896 -0.0384 -0.1524 -1.0336
  148OSM   H14S16386   4.282   3.174   4.888  0.0894 -0.4204 -2.5051
  148OSM   H14T16387   4.246   3.012   4.951  2.2822  0.6143 -1.6123
  148OSM   C15S16388   4.060   3.146   4.960  0.0247 -0.1111 -0.7685
  148OSM   H15S16389   3.988   3.061   4.963 -1.3241  0.9978  0.9540
  148OSM   H15T16390   4.019   3.228   4.897  1.5388  0.0232 -1.6226
  148OSM   C16S16391   4.081   3.209   5.098  0.3008 -0.1125  0.3328
  148OSM   H16S16392   3.999   3.275   5.134  1.0345  1.2903 -0.5083
  148OSM   H16T16393   4.175   3.268   5.096 -0.1475  0.6584 -2.6387
  148OSM   C17S16394   4.109   3.113   5.209  0.0960  0.3030 -0.2807
  148OSM   H17S16395   4.197   3.052   5.180  0.3489 -1.0489  2.9137
  148OSM   H17T16396   4.031   3.036   5.226  0.8777 -0.2034  1.1804
  148OSM   C18S16397   4.121   3.180   5.346  0.0326  0.3111  0.1086
  148OSM   H18S16398   4.104   3.105   5.426 -0.5512  0.3484  0.0178
  148OSM   H18T16399   4.037   3.252   5.353 -0.9406 -0.3820 -2.9835
  148OSM   H18U16400   4.213   3.241   5.361  0.6408 -0.6096  0.2276
  148OSM    C1F16401   4.075   2.722   3.709  0.6501 -0.1077  0.2918
  148OSM     OF16402   4.116   2.609   3.703  0.2557 -0.1894 -0.1556
  148OSM    C2F16403   3.960   2.757   3.801  0.1577 -0.4174 -0.6253
  148OSM    H2F16404   3.890   2.828   3.751 -1.2709 -0.8363  0.6871
  148OSM    H2G16405   4.004   2.796   3.895  1.5785  2.8845 -2.4885
  148OSM    C3F16406   3.879   2.626   3.830  0.2671 -0.0654 -0.1939
  148OSM    H3F16407   3.936   2.562   3.901 -2.0547 -1.2094  0.7777
  148OSM    H3G16408   3.860   2.553   3.749  0.4443 -2.3803  1.7314
  148OSM    C4F16409   3.742   2.652   3.892  0.0140 -0.4046 -0.1494
  148OSM    H4F16410   3.695   2.553   3.910 -1.5040  0.1888 -0.7251
  148OSM    H4G16411   3.682   2.695   3.810 -0.7501  0.2862  0.7523
  148OSM    C5F16412   3.744   2.737   4.023 -0.1920 -0.4642  0.1959
  148OSM    H5F16413   3.638   2.770   4.028 -0.3839 -0.7712 -1.1720
  148OSM    H5G16414   3.797   2.833   4.008  0.9723 -1.1483 -0.1919
  148OSM    C6F16415   3.788   2.662   4.153 -0.4353  0.3275  0.3840
  148OSM    H6F16416   3.884   2.611   4.127  0.7284  2.8126 -0.5833
  148OSM    H6G16417   3.722   2.577   4.180  2.0010 -2.2419 -1.1427
  148OSM    C7F16418   3.814   2.750   4.273 -0.0208 -0.4536  0.2881
  148OSM    H7F16419   3.718   2.804   4.287 -0.2336  0.3295 -3.2193
  148OSM    H7G16420   3.891   2.822   4.239 -2.7353  2.2815 -0.5741
  148OSM    C8F16421   3.865   2.677   4.397 -1.0682 -0.2888  0.1210
  148OSM    H8F16422   3.937   2.608   4.348  0.6415 -0.0380  2.1436
  148OSM    H8G16423   3.791   2.610   4.445 -1.0043  0.4607  1.3131
  148OSM    C9F16424   3.928   2.772   4.499 -0.1532 -0.5486  0.2689
  148OSM    H9F16425   3.984   2.859   4.461 -2.6855  0.4508 -1.4243
  148OSM   C10F16426   3.906   2.788   4.623 -0.6361 -0.1653 -0.3817
  148OSM   H10F16427   3.980   2.849   4.677  0.5943 -2.2384  0.3765
  148OSM   C11F16428   3.823   2.694   4.701  0.0630 -0.3348 -0.1972
  148OSM   H11F16429   3.850   2.586   4.695 -0.0422 -0.3066 -1.4262
  148OSM   H11G16430   3.718   2.698   4.665  0.0762 -2.0513 -0.5109
  148OSM   C12F16431   3.813   2.731   4.848  0.6212  0.0844 -0.5555
  148OSM   H12F16432   3.906   2.708   4.904 -0.4481 -1.6891  0.5557
  148OSM   H12G16433   3.732   2.664   4.882  0.3773  0.7740  0.2422
  148OSM   C13F16434   3.768   2.878   4.881  0.2018  0.4213 -0.3663
  148OSM   H13F16435   3.690   2.907   4.807  2.0598  0.7977 -2.2741
  148OSM   H13G16436   3.859   2.940   4.861 -0.0178  0.5732 -0.9209
  148OSM   C14F16437   3.711   2.897   5.022  0.0516  0.1262 -0.3402
  148OSM   H14F16438   3.772   2.841   5.095  0.1590 -0.0317 -0.5506
  148OSM   H14G16439   3.610   2.851   5.016 -0.1570  0.5636 -0.2170
  148OSM   C15F16440   3.705   3.041   5.077  0.4905 -0.4015 -0.1039
  148OSM   H15F16441   3.650   3.104   5.003  1.5662  1.9103  0.9383
  148OSM   H15G16442   3.810   3.079   5.068 -0.0558  1.1453 -0.2565
  148OSM   C16F16443   3.641   3.049   5.218 -0.1177 -0.2312 -0.6279
  148OSM   H16F16444   3.695   2.981   5.287  0.1679  2.4972  2.0711
  148OSM   H16G16445   3.534   3.022   5.229 -0.1976  0.4063  0.2879
  148OSM   C17F16446   3.630   3.199   5.270  0.1661  0.1683 -0.0693
  148OSM   H17F16447   3.549   3.213   5.344 -3.2233 -0.2304 -3.4395
  148OSM   H17G16448   3.596   3.259   5.183 -1.8869 -0.6812  0.0956
  148OSM   C18F16449   3.760   3.255   5.326  0.3486  0.1585  0.2678
  148OSM   H18F16450   3.837   3.280   5.250 -0.3422 -0.4132 -0.6380
  148OSM   H18G16451   3.803   3.180   5.396  2.3509  0.9242 -0.0828
  148OSM   H18H16452   3.749   3.343   5.392 -0.6824  0.4656 -0.2988
  149OSM      N16453   5.631   2.346   2.079  0.3060  0.7192  0.3107
  149OSM    C1516454   5.493   2.365   2.120 -0.0988 -0.2012 -0.4908
  149OSM   H15A16455   5.480   2.472   2.122  0.7992 -0.0933  1.0453
  149OSM   H15B16456   5.469   2.336   2.221 -0.5155  0.3634 -0.4219
  149OSM   H15C16457   5.417   2.330   2.051  0.0018 -2.9822  0.6657
  149OSM    C1416458   5.679   2.206   2.099  0.1375  0.1247  1.2637
  149OSM   H14A16459   5.619   2.137   2.041 -0.3688  1.6178 -0.0698
  149OSM   H14B16460   5.660   2.184   2.203 -1.2145  2.9121  1.6899
  149OSM   H14C16461   5.783   2.194   2.075 -0.0832  2.2432 -1.1026
  149OSM    C1316462   5.659   2.375   1.940 -0.3180 -0.1025 -0.3792
  149OSM   H13A16463   5.646   2.480   1.917 -0.3156 -0.0993 -0.3678
  149OSM   H13B16464   5.609   2.321   1.862  2.9495  0.7987 -3.3520
  149OSM   H13C16465   5.765   2.375   1.919 -0.1763  3.1294 -0.1604
  149OSM    C1216466   5.713   2.433   2.172 -0.1014  0.0745  0.2149
  149OSM   H12A16467   5.817   2.410   2.157 -0.5941 -2.0797 -0.2022
  149OSM   H12B16468   5.689   2.401   2.272 -1.9433 -0.4452 -0.3452
  149OSM    C1116469   5.691   2.587   2.176  0.0706 -0.6801  0.4088
  149OSM   H11A16470   5.717   2.627   2.076  1.9477 -0.3568  0.9827
  149OSM   H11B16471   5.754   2.628   2.258 -0.9941 -1.6534  1.7657
  149OSM      P16472   5.513   2.760   2.256 -0.3064 -0.0983  0.0131
  149OSM    O1316473   5.599   2.861   2.190 -0.2181  0.0657  0.0202
  149OSM    O1416474   5.369   2.777   2.226  0.1533 -0.0997 -0.4689
  149OSM    O1116475   5.538   2.761   2.417 -0.3326 -0.0108  0.1832
  149OSM    O1216476   5.557   2.622   2.205 -0.6041 -0.0873 -0.2093
  149OSM    C1S16477   5.488   2.656   2.495  0.9789 -0.3190 -0.2018
  149OSM    H1S16478   5.529   2.560   2.457  1.3736  0.5682 -2.1324
  149OSM    H1T16479   5.377   2.661   2.494  0.9626 -0.7057 -1.3223
  149OSM     NF16480   5.501   2.571   2.733  0.1144 -0.9132 -0.5242
  149OSM    HNF16481   5.417   2.581   2.787  0.1637 -0.5998 -0.5062
  149OSM    C2S16482   5.538   2.684   2.646  0.0908 -0.5193  0.6846
  149OSM    H2S16483   5.648   2.694   2.643  0.2633 -1.2203  2.8918
  149OSM    C3S16484   5.491   2.826   2.705  0.4885 -0.2335  0.2165
  149OSM    H3S16485   5.382   2.822   2.728  0.7297  1.5106  1.9448
  149OSM     O316486   5.490   2.935   2.615 -0.4127 -0.6297  0.2861
  149OSM    HO316487   5.508   2.904   2.526 -0.6150 -0.9943  0.3689
  149OSM    C4S16488   5.557   2.857   2.838 -0.1209  0.2865 -0.1850
  149OSM    H4S16489   5.667   2.858   2.833 -0.0024  1.8993  1.5250
  149OSM    C5S16490   5.482   2.864   2.952 -0.0394  0.1560  0.6990
  149OSM    H5S16491   5.374   2.847   2.945 -0.4772  2.4583  1.2744
  149OSM    C6S16492   5.532   2.871   3.090 -0.6974  0.1185 -0.0423
  149OSM    H6S16493   5.510   2.972   3.129  0.7945  0.3423  0.2851
  149OSM    H6T16494   5.641   2.851   3.083 -0.8722 -0.4587 -2.0947
  149OSM    C7S16495   5.480   2.765   3.190 -0.3957  0.5372  0.4735
  149OSM    H7S16496   5.519   2.666   3.158 -0.2336  0.4831  0.8384
  149OSM    H7T16497   5.369   2.757   3.187 -0.3244 -0.5710 -1.8345
  149OSM    C8S16498   5.520   2.799   3.329  0.4391  0.6313 -0.0404
  149OSM    H8S16499   5.462   2.888   3.361  0.4635  1.3244 -1.8413
  149OSM    H8T16500   5.630   2.817   3.329  0.5169  0.2931  1.1274
  149OSM    C9S16501   5.496   2.673   3.424  0.4204 -1.1029 -0.5251
  149OSM    H9S16502   5.558   2.589   3.386  1.5733  0.4700 -2.3271
  149OSM    H9T16503   5.386   2.662   3.428 -0.0493  2.6698  1.3664
  149OSM   C10S16504   5.541   2.704   3.562  0.1830  0.2803 -0.1977
  149OSM   H10S16505   5.464   2.762   3.618  1.0477  0.4428  0.8441
  149OSM   H10T16506   5.635   2.762   3.566 -0.6054  1.7113 -1.2552
  149OSM   C11S16507   5.553   2.565   3.643  0.3735 -0.0648  0.3197
  149OSM   H11S16508   5.639   2.508   3.603  1.1275  0.1907  1.5305
  149OSM   H11T16509   5.455   2.513   3.641  0.2073  0.2201  0.7503
  149OSM   C12S16510   5.574   2.597   3.788  0.4130  0.1173 -0.1070
  149OSM   H12S16511   5.489   2.654   3.831 -0.8627  0.0071 -2.3152
  149OSM   H12T16512   5.670   2.653   3.797  0.1313  0.9372 -1.6863
  149OSM   C13S16513   5.580   2.464   3.866 -0.2517  0.6105  0.9158
  149OSM   H13S16514   5.663   2.403   3.826  1.9500  3.7003  0.4465
  149OSM   H13T16515   5.483   2.410   3.861 -0.7443  1.5467 -2.1088
  149OSM   C14S16516   5.618   2.484   4.008  0.1838 -0.2539  0.3713
  149OSM   H14S16517   5.551   2.559   4.056 -1.1822 -0.1265 -1.6509
  149OSM   H14T16518   5.720   2.527   4.016  1.0162 -2.0778  0.1875
  149OSM   C15S16519   5.610   2.357   4.090 -0.3944  0.9327 -0.3821
  149OSM   H15S16520   5.680   2.285   4.042 -0.6030  0.7006 -0.3417
  149OSM   H15T16521   5.505   2.323   4.078 -0.6166  2.0255 -1.7448
  149OSM   C16S16522   5.638   2.362   4.243 -0.0120  0.0094  0.2253
  149OSM   H16S16523   5.744   2.375   4.273 -0.2798 -0.3648  1.3593
  149OSM   H16T16524   5.602   2.266   4.286  1.6048  0.2403  2.2349
  149OSM   C17S16525   5.559   2.472   4.316 -0.3164 -0.2995  0.6103
  149OSM   H17S16526   5.450   2.458   4.297 -0.0011 -3.2014  0.3707
  149OSM   H17T16527   5.585   2.570   4.272 -1.2146 -0.2203  0.2429
  149OSM   C18S16528   5.577   2.472   4.470 -0.8842 -0.1966 -0.2634
  149OSM   H18S16529   5.516   2.548   4.525  1.6116  0.8869  1.1811
  149OSM   H18T16530   5.684   2.490   4.493 -1.3578  1.6309  0.7590
  149OSM   H18U16531   5.554   2.371   4.511  1.0335 -0.7156 -0.3559
  149OSM    C1F16532   5.540   2.445   2.703  0.0299  0.1698  0.8313
  149OSM     OF16533   5.635   2.432   2.627 -0.3084  0.1874 -0.1802
  149OSM    C2F16534   5.460   2.330   2.744  0.4297  0.6644  0.2942
  149OSM    H2F16535   5.402   2.292   2.657  0.3258 -1.4170  1.2097
  149OSM    H2G16536   5.387   2.350   2.824  2.1600 -0.3108  2.2218
  149OSM    C3F16537   5.547   2.205   2.788  0.4760 -0.0508 -0.4943
  149OSM    H3F16538   5.613   2.162   2.710 -1.8367  0.0903 -2.6500
  149OSM    H3G16539   5.479   2.119   2.811  2.0261 -1.1926  0.0207
  149OSM    C4F16540   5.626   2.250   2.916 -0.5338  0.3392 -0.1929
  149OSM    H4F16541   5.559   2.307   2.984  0.9626  3.6457 -1.3049
  149OSM    H4G16542   5.702   2.326   2.887  1.0038 -1.1133 -0.1365
  149OSM    C5F16543   5.686   2.138   3.005  0.4387  0.5048  0.6214
  149OSM    H5F16544   5.760   2.078   2.948 -1.4208 -1.4105  0.0857
  149OSM    H5G16545   5.601   2.070   3.025 -0.2013  0.3703 -2.1345
  149OSM    C6F16546   5.759   2.196   3.125 -0.4124 -0.0205 -0.4495
  149OSM    H6F16547   5.694   2.264   3.185  0.2472  0.5886 -0.4138
  149OSM    H6G16548   5.838   2.270   3.101 -0.7215 -0.0559 -1.6115
  149OSM    C7F16549   5.807   2.095   3.228  0.4649  0.6398  1.1515
  149OSM    H7F16550   5.896   2.051   3.178  0.6220  2.6607 -0.4509
  149OSM    H7G16551   5.737   2.010   3.244  0.4558  0.3607 -0.2603
  149OSM    C8F16552   5.873   2.159   3.354  0.1121 -0.5655  0.2765
  149OSM    H8F16553   5.949   2.234   3.326 -0.7267 -0.3612 -1.5948
  149OSM    H8G16554   5.936   2.086   3.409  0.4364 -1.0512 -0.7309
  149OSM    C9F16555   5.776   2.228   3.439 -0.1972 -0.0937 -0.3978
  149OSM    H9F16556   5.709   2.299   3.389 -0.4875  0.1782  0.3517
  149OSM   C10F16557   5.754   2.222   3.572 -0.5705 -0.2320  0.2624
  149OSM   H10F16558   5.664   2.275   3.607 -0.8721  0.2536 -1.1527
  149OSM   C11F16559   5.811   2.121   3.670  0.3989 -0.2333 -0.3033
  149OSM   H11F16560   5.894   2.068   3.619 -0.4148 -0.4479 -1.4425
  149OSM   H11G16561   5.731   2.051   3.702  0.1512 -0.1738 -0.7742
  149OSM   C12F16562   5.880   2.191   3.790  0.7397  0.7579  0.2115
  149OSM   H12F16563   5.812   2.270   3.828  0.8666  1.4112 -0.8784
  149OSM   H12G16564   5.976   2.237   3.756  2.1432 -1.8734  0.3218
  149OSM   C13F16565   5.937   2.084   3.889  0.3304 -0.3407 -0.1901
  149OSM   H13F16566   5.993   2.009   3.830 -3.6355 -1.6296 -2.7121
  149OSM   H13G16567   5.863   2.027   3.949  0.1584  1.4187  1.3699
  149OSM   C14F16568   6.023   2.166   3.984  0.1258  0.5547  0.3220
  149OSM   H14F16569   5.983   2.268   4.005  3.3886  2.3009 -1.1511
  149OSM   H14G16570   6.123   2.179   3.938 -0.1874 -0.2655 -0.6292
  149OSM   C15F16571   6.023   2.091   4.120  0.3628  0.0166 -0.4157
  149OSM   H15F16572   6.108   2.113   4.188 -0.0199 -0.4712  0.2234
  149OSM   H15G16573   6.048   1.984   4.105  0.7477  0.0952 -0.3563
  149OSM   C16F16574   5.889   2.105   4.204  0.2887  0.5010 -0.2965
  149OSM   H16F16575   5.812   2.041   4.157  1.5299 -1.2605 -0.0226
  149OSM   H16G16576   5.848   2.208   4.214 -0.2795  0.5306 -2.4215
  149OSM   C17F16577   5.913   2.051   4.337  0.3821 -0.1932 -0.3584
  149OSM   H17F16578   5.994   2.105   4.392  0.7432  0.1433 -1.2050
  149OSM   H17G16579   5.940   1.945   4.322 -1.1266 -0.8708  1.3225
  149OSM   C18F16580   5.776   2.063   4.422 -0.8216  0.3194  0.1460
  149OSM   H18F16581   5.773   2.168   4.458  1.9347  0.3097  0.6273
  149OSM   H18G16582   5.785   1.994   4.508  0.6732 -0.1570 -0.3476
  149OSM   H18H16583   5.687   2.032   4.363 -0.2162 -2.6752  0.6599
  150OSM      N16584   1.720   3.483   2.199  0.1664  0.4103 -0.1261
  150OSM    C1516585   1.675   3.546   2.070 -0.6666  0.8189 -0.4634
  150OSM   H15A16586   1.744   3.537   1.988  0.3589  1.0887  0.3502
  150OSM   H15B16587   1.646   3.650   2.084 -0.4995  0.8771 -0.5440
  150OSM   H15C16588   1.590   3.490   2.034 -0.5617  0.6290 -0.4137
  150OSM    C1416589   1.824   3.563   2.261 -0.6070 -0.0022 -0.8443
  150OSM   H14A16590   1.857   3.511   2.350 -0.2260 -0.8931 -1.4859
  150OSM   H14B16591   1.780   3.659   2.283  0.0405 -0.0598  0.8359
  150OSM   H14C16592   1.909   3.560   2.194 -1.0181  0.3547 -1.3866
  150OSM    C1316593   1.597   3.463   2.290  0.4787  0.0544  0.2119
  150OSM   H13A16594   1.628   3.403   2.374  0.2726  0.7704  0.8075
  150OSM   H13B16595   1.511   3.421   2.240 -0.6421  1.0045  1.2680
  150OSM   H13C16596   1.558   3.558   2.324  1.4506  0.5365  0.0193
  150OSM    C1216597   1.769   3.341   2.172 -1.0753 -0.2556 -0.1939
  150OSM   H12A16598   1.832   3.343   2.085 -0.6344 -2.7386 -0.0035
  150OSM   H12B16599   1.686   3.289   2.127 -0.6760 -1.3290  0.2748
  150OSM    C1116600   1.854   3.262   2.275 -0.1192  0.9827 -0.6697
  150OSM   H11A16601   1.939   3.326   2.304  0.0427  0.4134  0.1611
  150OSM   H11B16602   1.890   3.166   2.232  0.4098  0.9775 -0.2302
  150OSM      P16603   1.662   3.139   2.408  0.2544  0.5404 -0.0834
  150OSM    O1316604   1.558   3.206   2.495 -0.1288 -0.0341  0.1265
  150OSM    O1416605   1.611   3.091   2.274 -1.0874 -0.3297  0.1155
  150OSM    O1116606   1.712   3.013   2.489 -0.2601  0.1099 -0.0179
  150OSM    O1216607   1.780   3.238   2.390  0.1615  0.3365 -0.2870
  150OSM    C1S16608   1.800   3.027   2.600 -0.3704  0.8987 -0.6421
  150OSM    H1S16609   1.874   3.109   2.585  0.5430 -0.0313 -1.3987
  150OSM    H1T16610   1.860   2.934   2.603  1.3451  1.7168 -4.0605
  150OSM     NF16611   1.839   3.102   2.839  0.1637 -0.0558  0.2393
  150OSM    HNF16612   1.894   3.039   2.893 -2.2100 -4.0181 -1.5173
  150OSM    C2S16613   1.736   3.045   2.745  0.1861 -0.2182 -0.0102
  150OSM    H2S16614   1.657   3.123   2.744  0.4888  0.1197  0.9944
  150OSM    C3S16615   1.672   2.910   2.790  0.3020 -0.4949 -0.9859
  150OSM    H3S16616   1.746   2.828   2.805  2.2972  1.4748  0.6695
  150OSM     O316617   1.581   2.861   2.693 -0.2343 -0.2923 -0.0025
  150OSM    HO316618   1.606   2.898   2.609  2.0120 -3.1808 -0.7746
  150OSM    C4S16619   1.588   2.932   2.917 -0.3495  0.5911 -0.4155
  150OSM    H4S16620   1.479   2.943   2.908 -0.2191  0.3752 -3.1106
  150OSM    C5S16621   1.640   2.926   3.045 -0.4620  0.3005  0.0679
  150OSM    H5S16622   1.749   2.918   3.063 -0.5976  1.1832  1.4361
  150OSM    C6S16623   1.563   2.926   3.177  0.1081 -0.5897  0.0804
  150OSM    H6S16624   1.621   2.862   3.247  3.0553 -0.0190 -1.6410
  150OSM    H6T16625   1.463   2.881   3.160 -0.2237 -0.1304  0.7443
  150OSM    C7S16626   1.540   3.065   3.232  0.5570 -0.3068 -0.4590
  150OSM    H7S16627   1.485   3.128   3.158 -0.9897  0.1741  1.0434
  150OSM    H7T16628   1.635   3.111   3.264  0.7287  0.0345 -1.4104
  150OSM    C8S16629   1.437   3.054   3.352  0.5678  0.3668 -0.2816
  150OSM    H8S16630   1.354   2.986   3.325  0.2995  0.7203 -0.3604
  150OSM    H8T16631   1.392   3.155   3.366 -1.8615 -0.4907 -1.4338
  150OSM    C9S16632   1.503   3.022   3.488  0.8577  0.6161  0.4835
  150OSM    H9S16633   1.587   3.092   3.503 -0.1531  1.7416  1.0815
  150OSM    H9T16634   1.547   2.919   3.485 -1.0991 -0.2931  1.1126
  150OSM   C10S16635   1.407   3.026   3.608 -0.6391  0.2986 -0.3641
  150OSM   H10S16636   1.332   2.946   3.588 -1.1359  0.2101  1.6315
  150OSM   H10T16637   1.359   3.126   3.615 -0.1418  0.8152 -3.1255
  150OSM   C11S16638   1.490   2.990   3.730 -0.7608 -0.3868 -0.2835
  150OSM   H11S16639   1.577   3.059   3.735 -0.1642 -1.2066  1.9780
  150OSM   H11T16640   1.530   2.887   3.723 -1.5572 -0.6417 -1.2646
  150OSM   C12S16641   1.417   2.994   3.862  0.5915 -0.4093  0.0991
  150OSM   H12S16642   1.445   2.910   3.930  3.2810 -0.7299 -1.2609
  150OSM   H12T16643   1.307   2.987   3.847  0.8756 -0.8780 -2.1808
  150OSM   C13S16644   1.447   3.124   3.937  0.3760  0.8221 -0.5233
  150OSM   H13S16645   1.431   3.215   3.875  0.5279  0.6132 -0.8695
  150OSM   H13T16646   1.555   3.116   3.962  0.4016  0.0118 -0.8611
  150OSM   C14S16647   1.381   3.128   4.074  0.4704  0.4850 -0.7336
  150OSM   H14S16648   1.441   3.191   4.144  1.0891 -1.5004  0.6004
  150OSM   H14T16649   1.391   3.025   4.114 -0.3818  0.3626 -0.8328
  150OSM   C15S16650   1.236   3.185   4.070 -0.1544 -0.5893 -0.3443
  150OSM   H15S16651   1.170   3.138   3.994 -2.4051  2.3347 -0.3866
  150OSM   H15T16652   1.247   3.285   4.023 -2.3398  1.0723  2.3397
  150OSM   C16S16653   1.173   3.182   4.210 -0.7226 -0.3067  0.3044
  150OSM   H16S16654   1.063   3.195   4.196 -0.8318 -2.3582 -1.1657
  150OSM   H16T16655   1.218   3.252   4.283  0.8954 -0.4923 -0.4764
  150OSM   C17S16656   1.174   3.038   4.275 -0.0857  0.0456 -0.0880
  150OSM   H17S16657   1.273   2.987   4.273 -1.1560 -2.1095 -0.8818
  150OSM   H17T16658   1.097   2.975   4.226 -0.4917  1.9439 -2.0548
  150OSM   C18S16659   1.154   3.050   4.426 -0.3419 -0.8676 -0.0157
  150OSM   H18S16660   1.063   3.105   4.458 -0.0239 -0.4496  0.1758
  150OSM   H18T16661   1.236   3.109   4.474  0.7035 -2.1570 -0.1548
  150OSM   H18U16662   1.155   2.945   4.462  0.2040 -1.1686 -0.8733
  150OSM    C1F16663   1.888   3.226   2.823 -0.0045 -0.2365  0.5357
  150OSM     OF16664   1.836   3.304   2.742 -0.1219 -0.3258 -0.2495
  150OSM    C2F16665   2.011   3.270   2.895 -0.2710  0.2264  0.4489
  150OSM    H2F16666   2.107   3.238   2.848 -0.0904  0.9665  0.3074
  150OSM    H2G16667   2.005   3.218   2.993 -0.8477 -0.1240  0.2337
  150OSM    C3F16668   2.024   3.427   2.909  0.4763  0.4465 -0.0787
  150OSM    H3F16669   1.924   3.474   2.920  0.4218  1.5411 -3.9207
  150OSM    H3G16670   2.056   3.460   2.808  0.2261 -1.0659 -0.6836
  150OSM    C4F16671   2.116   3.481   3.017  0.0809  0.3628 -0.2275
  150OSM    H4F16672   2.148   3.587   3.006  1.3449 -0.1065 -1.2434
  150OSM    H4G16673   2.206   3.420   2.994 -0.2800  0.2500 -1.4027
  150OSM    C5F16674   2.073   3.478   3.167 -0.0014  0.2336  0.7393
  150OSM    H5F16675   2.062   3.372   3.201 -1.5502  0.3421  0.6631
  150OSM    H5G16676   1.967   3.511   3.171 -1.1440 -2.0957 -3.5597
  150OSM    C6F16677   2.175   3.545   3.262  0.5938  0.0185 -0.5212
  150OSM    H6F16678   2.159   3.654   3.247 -2.5137 -0.4550 -1.4004
  150OSM    H6G16679   2.277   3.514   3.233  1.0545  2.2540 -1.5302
  150OSM    C7F16680   2.141   3.502   3.411  0.6611 -0.2068  0.5560
  150OSM    H7F16681   2.137   3.391   3.416 -0.7248 -0.3328 -1.8944
  150OSM    H7G16682   2.043   3.539   3.445  0.9507  1.7605 -0.6175
  150OSM    C8F16683   2.242   3.556   3.505  0.6656  0.3368  0.0225
  150OSM    H8F16684   2.341   3.518   3.472  0.8575 -0.2754  1.2411
  150OSM    H8G16685   2.224   3.504   3.601  3.3812  1.8513  1.4596
  150OSM    C9F16686   2.241   3.699   3.525 -0.5845  0.9982  0.4712
  150OSM    H9F16687   2.251   3.756   3.432  1.0664 -0.4286 -0.2721
  150OSM   C10F16688   2.225   3.765   3.637 -0.1612  0.0403 -0.4291
  150OSM   H10F16689   2.225   3.874   3.622  2.1658  0.4208  1.4696
  150OSM   C11F16690   2.207   3.704   3.781 -0.5183  0.1774  0.1828
  150OSM   H11F16691   2.307   3.717   3.827  0.6897  2.8363 -2.8553
  150OSM   H11G16692   2.191   3.594   3.768  3.2272 -0.2152 -2.6319
  150OSM   C12F16693   2.101   3.765   3.865  0.8233  0.3596 -0.0707
  150OSM   H12F16694   2.003   3.734   3.825  0.5005  0.5441  0.5694
  150OSM   H12G16695   2.110   3.875   3.853  0.9516  0.4416  0.6874
  150OSM   C13F16696   2.100   3.717   4.011  0.3988  0.0611 -0.1368
  150OSM   H13F16697   2.077   3.608   4.010 -4.0445  0.7999  0.2664
  150OSM   H13G16698   2.012   3.771   4.052 -0.7136 -0.7510 -1.3740
  150OSM   C14F16699   2.219   3.760   4.092  0.6719 -0.5812  0.5112
  150OSM   H14F16700   2.241   3.868   4.087  0.2475 -0.5261 -0.3985
  150OSM   H14G16701   2.306   3.710   4.045 -1.5775 -3.3804 -1.0330
  150OSM   C15F16702   2.210   3.719   4.240 -0.3206  0.1828 -0.0976
  150OSM   H15F16703   2.304   3.753   4.290 -1.7375 -2.1061  4.7517
  150OSM   H15G16704   2.209   3.608   4.244 -0.7819  0.0938 -1.8118
  150OSM   C16F16705   2.101   3.773   4.324  0.0414 -0.1351  0.1171
  150OSM   H16F16706   2.000   3.729   4.306  0.3361 -1.2121  0.9332
  150OSM   H16G16707   2.096   3.881   4.303 -1.3977 -0.3476 -0.7836
  150OSM   C17F16708   2.138   3.761   4.474  0.6042 -0.0876 -0.2880
  150OSM   H17F16709   2.219   3.836   4.488  0.7348 -0.1689 -0.5989
  150OSM   H17G16710   2.166   3.656   4.495 -1.9763 -0.2053  3.6174
  150OSM   C18F16711   2.013   3.782   4.575  0.6460 -0.2952 -0.8855
  150OSM   H18F16712   1.967   3.881   4.554  1.2283 -0.0354 -0.9372
  150OSM   H18G16713   2.036   3.765   4.682  0.0898 -0.2141 -0.7508
  150OSM   H18H16714   1.932   3.710   4.551  0.3305  0.4112 -2.0213
  151OSM      N16715   2.449   2.759   2.628  0.2320  0.1257  0.1378
  151OSM    C1516716   2.490   2.885   2.558  0.1414 -0.0283 -0.1382
  151OSM   H15A16717   2.525   2.871   2.457 -0.3729  1.4812 -0.5576
  151OSM   H15B16718   2.553   2.948   2.618 -1.6023  1.6412  0.0563
  151OSM   H15C16719   2.402   2.945   2.541 -1.1296 -1.2106  1.9077
  151OSM    C1416720   2.337   2.695   2.560 -0.4767 -0.3919 -0.4869
  151OSM   H14A16721   2.319   2.609   2.623  1.3547 -1.3253 -1.1681
  151OSM   H14B16722   2.352   2.660   2.459 -0.2850 -1.7816 -0.0113
  151OSM   H14C16723   2.247   2.754   2.565  0.8317  1.7296 -0.8564
  151OSM    C1316724   2.567   2.662   2.626 -0.0235  0.0372 -0.1785
  151OSM   H13A16725   2.601   2.637   2.526  0.8328 -0.8530  0.3158
  151OSM   H13B16726   2.549   2.570   2.680 -0.9581  0.3337  0.0212
  151OSM   H13C16727   2.649   2.700   2.685 -0.9977  0.5450  0.8778
  151OSM    C1216728   2.416   2.807   2.772 -0.5403  0.4494 -0.8994
  151OSM   H12A16729   2.343   2.887   2.771  0.3702  1.3820  1.2488
  151OSM   H12B16730   2.514   2.837   2.807 -0.7485  0.9371 -0.7229
  151OSM    C1116731   2.364   2.698   2.871  0.0728  0.3888  0.3811
  151OSM   H11A16732   2.362   2.748   2.970 -0.8433  4.3652 -1.4500
  151OSM   H11B16733   2.440   2.618   2.858  0.7756  1.3071 -1.5318
  151OSM      P16734   2.111   2.760   2.853 -0.3714  0.1479 -0.2004
  151OSM    O1316735   2.120   2.864   2.754 -0.4759 -0.1430 -0.3060
  151OSM    O1416736   1.983   2.686   2.849  0.1870 -0.1240 -0.3504
  151OSM    O1116737   2.122   2.822   2.998 -0.3359 -0.4787  0.2852
  151OSM    O1216738   2.232   2.659   2.836 -0.1575  0.2317  0.5141
  151OSM    C1S16739   2.129   2.738   3.112 -0.1554  0.1612 -0.4464
  151OSM    H1S16740   2.229   2.689   3.115  0.7904  1.9602 -0.9886
  151OSM    H1T16741   2.050   2.660   3.111 -0.7617  0.7683 -0.7031
  151OSM     NF16742   2.087   2.699   3.347 -0.4322  0.0778  0.2730
  151OSM    HNF16743   1.992   2.691   3.375 -0.9441  2.7754 -0.3342
  151OSM    C2S16744   2.103   2.806   3.244 -0.1779  0.3071 -0.9355
  151OSM    H2S16745   2.200   2.857   3.261 -1.1508  2.3179 -1.1300
  151OSM    C3S16746   1.991   2.913   3.250 -0.0785  0.4052 -0.1535
  151OSM    H3S16747   1.902   2.847   3.240  0.1188  0.0673  0.3222
  151OSM     O316748   1.994   2.998   3.138  0.1409 -0.2406  0.0501
  151OSM    HO316749   2.057   2.958   3.078 -0.1010 -1.6004  0.6691
  151OSM    C4S16750   2.003   2.997   3.376  0.1264  0.5364 -0.3850
  151OSM    H4S16751   2.096   3.057   3.379 -0.0322  0.7693 -0.0473
  151OSM    C5S16752   1.906   3.001   3.470  0.6234  0.5123 -0.1692
  151OSM    H5S16753   1.828   2.923   3.470  0.4268  0.6755  1.4317
  151OSM    C6S16754   1.927   3.080   3.598 -0.0807  0.6595 -0.0709
  151OSM    H6S16755   2.025   3.067   3.650  0.5520 -2.8087 -1.8843
  151OSM    H6T16756   1.847   3.040   3.663 -0.0389  0.5618 -0.0801
  151OSM    C7S16757   1.914   3.230   3.575  0.0547 -0.5286 -0.7270
  151OSM    H7S16758   1.808   3.254   3.553  0.6952  2.2459 -1.1029
  151OSM    H7T16759   1.979   3.256   3.489 -1.4671  0.2874 -1.6583
  151OSM    C8S16760   1.942   3.321   3.690 -0.1766 -0.0545 -0.5590
  151OSM    H8S16761   1.921   3.423   3.653  0.7846 -0.1441 -1.3834
  151OSM    H8T16762   2.052   3.314   3.708 -0.1959  0.8444 -0.0303
  151OSM    C9S16763   1.867   3.291   3.822 -0.0599 -0.8998 -0.8880
  151OSM    H9S16764   1.884   3.183   3.841  1.7614 -0.5030 -0.1100
  151OSM    H9T16765   1.757   3.299   3.803 -0.1721 -0.6020 -0.1231
  151OSM   C10S16766   1.898   3.385   3.941 -0.6418  1.2348  0.6249
  151OSM   H10S16767   1.840   3.480   3.951 -1.2897  1.1001 -1.3536
  151OSM   H10T16768   2.005   3.414   3.937 -0.1162 -0.7177 -1.1074
  151OSM   C11S16769   1.898   3.298   4.068  0.0875  0.4459 -0.8610
  151OSM   H11S16770   1.983   3.227   4.058  0.3452  0.6412 -0.0505
  151OSM   H11T16771   1.804   3.239   4.063 -0.4218  1.3431 -2.7885
  151OSM   C12S16772   1.915   3.389   4.193 -0.1819 -0.7379 -0.0710
  151OSM   H12S16773   1.817   3.435   4.217 -1.0839 -3.4007  1.6972
  151OSM   H12T16774   1.990   3.469   4.177 -1.0063  0.4059  1.5050
  151OSM   C13S16775   1.958   3.308   4.318  0.2634  0.1686  0.1128
  151OSM   H13S16776   2.054   3.256   4.296 -1.0015 -1.8646 -0.9717
  151OSM   H13T16777   1.883   3.227   4.328 -0.9161  0.9300 -1.9228
  151OSM   C14S16778   1.959   3.391   4.432 -0.2759 -0.5309  0.5053
  151OSM   H14S16779   1.866   3.452   4.429  0.2514  0.2397 -2.0083
  151OSM   H14T16780   2.030   3.472   4.404 -0.5131 -1.2432 -2.4749
  151OSM   C15S16781   1.979   3.323   4.563 -0.1626 -0.1220 -0.6310
  151OSM   H15S16782   2.077   3.273   4.556 -0.3267 -0.2947 -2.0662
  151OSM   H15T16783   1.911   3.235   4.572  0.2257 -0.4723 -1.0780
  151OSM   C16S16784   1.968   3.414   4.687 -0.1512 -0.3259  0.0323
  151OSM   H16S16785   1.893   3.371   4.756  0.0017  2.3899  2.0657
  151OSM   H16T16786   1.910   3.505   4.661  1.9095  1.3063  0.8140
  151OSM   C17S16787   2.101   3.444   4.758  0.3222 -0.7929  0.2294
  151OSM   H17S16788   2.172   3.493   4.689 -1.3191 -1.3828 -1.9999
  151OSM   H17T16789   2.155   3.351   4.788  2.1029 -0.2709 -1.1705
  151OSM   C18S16790   2.085   3.511   4.894  0.1971 -0.6363 -0.1396
  151OSM   H18S16791   2.037   3.611   4.888 -1.5050 -1.3715  0.3671
  151OSM   H18T16792   2.185   3.524   4.939  0.0450 -1.2341  0.3910
  151OSM   H18U16793   2.020   3.446   4.957 -0.0129  0.2952  0.6388
  151OSM    C1F16794   2.184   2.618   3.389  0.4332 -0.3420 -0.4445
  151OSM     OF16795   2.303   2.637   3.368  0.3004  0.0738  0.0017
  151OSM    C2F16796   2.130   2.507   3.471 -0.5350 -0.2124  0.5748
  151OSM    H2F16797   2.191   2.417   3.445 -0.6234 -0.3020  0.6811
  151OSM    H2G16798   2.028   2.480   3.437 -1.4082  2.0985  1.2464
  151OSM    C3F16799   2.150   2.521   3.620 -0.2607  0.2551 -1.3387
  151OSM    H3F16800   2.256   2.523   3.654 -0.5295 -0.7305 -0.3818
  151OSM    H3G16801   2.121   2.429   3.675  1.7916  1.1158  1.4594
  151OSM    C4F16802   2.100   2.644   3.702  0.0956  0.3359  0.7687
  151OSM    H4F16803   1.989   2.637   3.705  0.1667 -3.6553  0.0277
  151OSM    H4G16804   2.132   2.739   3.654 -2.1794 -0.2861 -2.2735
  151OSM    C5F16805   2.163   2.639   3.850  0.0690 -0.0286  0.3832
  151OSM    H5F16806   2.271   2.663   3.841 -0.5533  3.1928  0.1137
  151OSM    H5G16807   2.136   2.546   3.903  0.5204  0.8934  2.3275
  151OSM    C6F16808   2.122   2.772   3.932 -0.5740  0.2680 -0.5868
  151OSM    H6F16809   2.158   2.868   3.888 -1.9356  0.6197 -0.9716
  151OSM    H6G16810   2.181   2.773   4.026  0.9137 -2.7323 -1.3644
  151OSM    C7F16811   1.971   2.771   3.946 -0.2078 -0.1986  0.2515
  151OSM    H7F16812   1.947   2.685   4.012  0.3395 -0.3009  0.3270
  151OSM    H7G16813   1.912   2.750   3.854 -1.6124 -1.4191  1.3841
  151OSM    C8F16814   1.917   2.903   4.021  0.6789 -0.5062  0.1850
  151OSM    H8F16815   1.807   2.900   4.038  0.7652 -1.2226  0.6692
  151OSM    H8G16816   1.934   2.990   3.954 -0.6994 -1.2420 -1.1701
  151OSM    C9F16817   1.981   2.942   4.153  0.7369  0.0501 -0.3631
  151OSM    H9F16818   2.068   3.009   4.147  0.1392  0.8372 -0.3788
  151OSM   C10F16819   1.928   2.930   4.275 -0.7267 -0.3009 -0.5438
  151OSM   H10F16820   1.986   2.975   4.357  0.2432 -2.5415  0.0696
  151OSM   C11F16821   1.804   2.855   4.313 -0.4793  0.0173  0.4034
  151OSM   H11F16822   1.825   2.781   4.393  0.7608 -0.3703 -0.2390
  151OSM   H11G16823   1.778   2.788   4.229  1.2311  0.2609 -0.3711
  151OSM   C12F16824   1.685   2.932   4.369  0.3577  0.0103  0.5802
  151OSM   H12F16825   1.666   3.022   4.307 -0.2212 -1.5472 -1.6485
  151OSM   H12G16826   1.714   2.981   4.464 -2.0857  1.0297  0.8680
  151OSM   C13F16827   1.558   2.853   4.381  0.7691 -0.2944  0.0556
  151OSM   H13F16828   1.539   2.802   4.284 -3.3296  1.1265 -0.0766
  151OSM   H13G16829   1.476   2.926   4.398  0.5226 -0.4346 -0.4990
  151OSM   C14F16830   1.539   2.752   4.496  0.2919 -0.3597  0.1152
  151OSM   H14F16831   1.619   2.674   4.495  2.2230  1.5397 -0.2223
  151OSM   H14G16832   1.444   2.698   4.474 -0.0427 -1.1884  3.0910
  151OSM   C15F16833   1.525   2.829   4.628  0.0250  0.1603 -0.4264
  151OSM   H15F16834   1.438   2.899   4.627 -2.1760 -2.3208  1.9347
  151OSM   H15G16835   1.615   2.889   4.652  0.4125 -1.0818  1.4627
  151OSM   C16F16836   1.512   2.734   4.749 -0.1272  0.3234  0.0080
  151OSM   H16F16837   1.596   2.662   4.758  1.9883  2.7574  0.9258
  151OSM   H16G16838   1.422   2.671   4.731  0.9381 -1.5324  0.8182
  151OSM   C17F16839   1.490   2.795   4.883  0.1039  0.5782 -0.4804
  151OSM   H17F16840   1.423   2.729   4.943  0.3426 -0.7234 -1.6120
  151OSM   H17G16841   1.446   2.896   4.871 -2.1117 -0.3091 -0.2183
  151OSM   C18F16842   1.620   2.827   4.952 -0.4374 -0.4205 -0.9711
  151OSM   H18F16843   1.689   2.886   4.887 -1.0462  3.4255  1.5190
  151OSM   H18G16844   1.678   2.737   4.981 -1.7492 -1.8422 -2.5865
  151OSM   H18H16845   1.600   2.879   5.048 -2.1279 -0.1324 -1.4488
  152OSM      N16846   3.737   3.414   3.008 -0.8585 -0.3007  0.4075
  152OSM    C1516847   3.859   3.410   2.918  0.1787 -0.1247 -0.2521
  152OSM   H15A16848   3.938   3.351   2.962  1.1136  1.2832 -0.0044
  152OSM   H15B16849   3.900   3.508   2.900  2.3715 -0.9386  0.1029
  152OSM   H15C16850   3.840   3.365   2.821 -1.4531 -0.7023  0.2917
  152OSM    C1416851   3.622   3.484   2.948  0.5531 -0.2998  0.3572
  152OSM   H14A16852   3.610   3.448   2.847  1.8719 -0.3565  0.2053
  152OSM   H14B16853   3.627   3.592   2.949  0.6533 -0.3078  0.9042
  152OSM   H14C16854   3.535   3.461   3.008 -0.2698 -3.0530 -1.7033
  152OSM    C1316855   3.691   3.276   3.050 -0.2723 -0.0424  0.1525
  152OSM   H13A16856   3.602   3.287   3.109  1.5872  0.2330  3.0909
  152OSM   H13B16857   3.766   3.236   3.117  0.1236  0.3303 -0.0591
  152OSM   H13C16858   3.665   3.223   2.960  1.8907  0.2033 -0.6961
  152OSM    C1216859   3.771   3.500   3.127  0.2656  0.0598 -0.8213
  152OSM   H12A16860   3.694   3.481   3.200  0.0698  0.4984 -0.9082
  152OSM   H12B16861   3.777   3.605   3.101  1.9937  0.2600  0.2107
  152OSM    C1116862   3.897   3.462   3.209  0.2867  0.0843 -0.4493
  152OSM   H11A16863   3.893   3.504   3.311 -0.6817 -2.3507  0.5980
  152OSM   H11B16864   3.984   3.503   3.154  0.3829 -1.0130 -1.1691
  152OSM      P16865   4.035   3.227   3.205  0.0533  0.0183  0.3271
  152OSM    O1316866   4.033   3.121   3.308 -0.3560 -0.2444 -0.2129
  152OSM    O1416867   4.037   3.179   3.065  0.2225  0.2911 -0.4792
  152OSM    O1116868   4.162   3.317   3.230  0.2100  0.0403 -0.1315
  152OSM    O1216869   3.910   3.322   3.227 -0.0790 -0.2656 -0.0755
  152OSM    C1S16870   4.177   3.373   3.363 -0.1368 -0.4951  0.4652
  152OSM    H1S16871   4.079   3.375   3.415 -0.5995 -0.2282 -0.4070
  152OSM    H1T16872   4.197   3.482   3.364 -1.7667 -0.1800  1.4368
  152OSM     NF16873   4.293   3.364   3.574 -0.1113 -0.6342 -0.3748
  152OSM    HNF16874   4.374   3.419   3.592 -0.6821 -0.1353  0.8542
  152OSM    C2S16875   4.285   3.305   3.449 -0.2406  0.8293 -0.0437
  152OSM    H2S16876   4.255   3.200   3.466 -1.2522  0.2957 -4.0441
  152OSM    C3S16877   4.423   3.303   3.370  0.3650 -0.3269 -0.9233
  152OSM    H3S16878   4.448   3.407   3.338  0.4259  0.6489  1.9751
  152OSM     O316879   4.412   3.223   3.262  0.3893 -0.2122  0.5398
  152OSM    HO316880   4.318   3.212   3.243  0.5062 -1.1805  0.4746
  152OSM    C4S16881   4.538   3.263   3.449 -0.6579  0.3426 -0.4256
  152OSM    H4S16882   4.512   3.177   3.512 -3.7226  3.0073  2.3430
  152OSM    C5S16883   4.656   3.331   3.459  0.4462 -0.4274 -0.2395
  152OSM    H5S16884   4.677   3.416   3.392 -0.2753 -1.1772 -1.4487
  152OSM    C6S16885   4.773   3.301   3.546 -0.1521 -0.1728 -0.1585
  152OSM    H6S16886   4.856   3.262   3.484 -0.7615  1.1892 -1.8989
  152OSM    H6T16887   4.745   3.214   3.609 -1.0787  0.8693  0.9211
  152OSM    C7S16888   4.829   3.418   3.630  0.3585 -0.0710 -0.4819
  152OSM    H7S16889   4.852   3.497   3.556  0.3130  1.4458  1.0759
  152OSM    H7T16890   4.924   3.382   3.676 -0.2873  1.1489  1.9790
  152OSM    C8S16891   4.733   3.472   3.741 -0.1749  0.1865 -0.1708
  152OSM    H8S16892   4.641   3.507   3.689  0.6982  0.4643 -1.5722
  152OSM    H8T16893   4.803   3.540   3.792  2.6916 -2.8440  0.2733
  152OSM    C9S16894   4.684   3.361   3.837  0.1348 -0.4786  0.0664
  152OSM    H9S16895   4.765   3.286   3.852  0.6844  0.4317  1.9715
  152OSM    H9T16896   4.589   3.320   3.797 -1.3442  1.9342  0.8847
  152OSM   C10S16897   4.658   3.426   3.976  0.1269  0.0830  0.2645
  152OSM   H10S16898   4.590   3.512   3.965 -0.3124 -0.1720  0.9275
  152OSM   H10T16899   4.755   3.463   4.016  0.5478 -1.0163  0.2962
  152OSM   C11S16900   4.624   3.335   4.093  0.9355  0.2894  0.1053
  152OSM   H11S16901   4.680   3.241   4.074  0.6957  0.0934  0.3526
  152OSM   H11T16902   4.513   3.323   4.090  0.9310  0.3611 -0.0609
  152OSM   C12S16903   4.664   3.393   4.228 -0.0175  0.3455  0.5196
  152OSM   H12S16904   4.611   3.490   4.241 -2.5960 -0.5194 -2.1953
  152OSM   H12T16905   4.774   3.405   4.233 -0.1003  2.0666 -0.8372
  152OSM   C13S16906   4.603   3.311   4.345  0.4062  0.4731 -0.3391
  152OSM   H13S16907   4.620   3.202   4.333 -0.1094  0.4840 -1.2740
  152OSM   H13T16908   4.495   3.337   4.355  0.6999  2.3107 -1.4595
  152OSM   C14S16909   4.660   3.362   4.480 -0.5453  0.1494 -0.1262
  152OSM   H14S16910   4.656   3.473   4.480  0.9347  0.2245 -0.3304
  152OSM   H14T16911   4.768   3.339   4.471 -0.9635 -1.7513 -0.8610
  152OSM   C15S16912   4.587   3.301   4.604  0.2262 -0.0463  0.0613
  152OSM   H15S16913   4.578   3.190   4.593  1.4259 -0.1858  0.3387
  152OSM   H15T16914   4.488   3.350   4.611  0.0152 -0.5714  1.0208
  152OSM   C16S16915   4.656   3.332   4.745  0.3798  0.1617  0.6348
  152OSM   H16S16916   4.679   3.440   4.756 -1.3999  1.1673 -3.3797
  152OSM   H16T16917   4.747   3.271   4.763  0.2902  0.1358  1.0036
  152OSM   C17S16918   4.563   3.312   4.855  0.2984  0.2581  0.0386
  152OSM   H17S16919   4.538   3.205   4.872  0.0722  0.1816 -0.7338
  152OSM   H17T16920   4.459   3.346   4.835 -0.5798 -2.2220  0.0543
  152OSM   C18S16921   4.611   3.367   4.994  0.1359 -0.2287  0.9144
  152OSM   H18S16922   4.719   3.345   5.012  0.1666  0.4238  1.5424
  152OSM   H18T16923   4.542   3.324   5.069 -1.0332 -1.1412 -0.6247
  152OSM   H18U16924   4.584   3.474   5.000 -3.0818 -0.8605 -0.3031
  152OSM    C1F16925   4.190   3.368   3.664 -0.4048  0.0071  0.1028
  152OSM     OF16926   4.088   3.305   3.649  0.1078  0.7311 -0.1688
  152OSM    C2F16927   4.220   3.446   3.791 -0.2405 -0.2363 -0.0114
  152OSM    H2F16928   4.173   3.546   3.784 -0.7494 -0.3111  1.9054
  152OSM    H2G16929   4.329   3.460   3.807 -0.0637  1.9132 -2.3487
  152OSM    C3F16930   4.176   3.375   3.924  0.2508  0.2628  0.1835
  152OSM    H3F16931   4.217   3.272   3.918 -1.7614 -0.5793  0.0934
  152OSM    H3G16932   4.066   3.375   3.934  0.2644 -0.3827  0.4296
  152OSM    C4F16933   4.229   3.459   4.043  0.0112 -0.3656 -0.2398
  152OSM    H4F16934   4.205   3.566   4.027 -0.4663 -0.7227 -2.1300
  152OSM    H4G16935   4.339   3.447   4.039  0.1236  0.7337 -0.5469
  152OSM    C5F16936   4.161   3.428   4.175  0.0086  0.1038 -0.4116
  152OSM    H5F16937   4.176   3.321   4.200  0.1275  0.1179 -0.4218
  152OSM    H5G16938   4.050   3.435   4.177  0.0902  2.7297  3.0496
  152OSM    C6F16939   4.200   3.523   4.286  0.1978  0.1188 -0.0602
  152OSM    H6F16940   4.182   3.630   4.261  2.2101  0.1441 -1.7128
  152OSM    H6G16941   4.310   3.519   4.306  0.4178  2.2682 -0.5805
  152OSM    C7F16942   4.135   3.484   4.419 -0.4627 -0.4786 -0.2951
  152OSM    H7F16943   4.180   3.384   4.441 -1.7782 -0.4184  3.4421
  152OSM    H7G16944   4.025   3.473   4.410 -0.4769 -2.0381  1.2201
  152OSM    C8F16945   4.169   3.579   4.541 -0.2121  0.3079  0.0862
  152OSM    H8F16946   4.280   3.587   4.543 -0.0421 -0.8302 -1.8281
  152OSM    H8G16947   4.130   3.538   4.636 -1.1956 -0.2997 -0.5573
  152OSM    C9F16948   4.104   3.711   4.515 -0.6627 -0.4808  0.5153
  152OSM    H9F16949   4.018   3.717   4.448 -0.2615  0.3128  0.0558
  152OSM   C10F16950   4.153   3.828   4.559 -0.6070  0.4146 -0.2089
  152OSM   H10F16951   4.091   3.917   4.539  0.3895  1.4716  1.1869
  152OSM   C11F16952   4.275   3.854   4.647  0.2929  0.0397  0.4172
  152OSM   H11F16953   4.319   3.767   4.701 -0.2020  0.8130  2.1288
  152OSM   H11G16954   4.236   3.931   4.718 -0.3196  2.6242 -2.4873
  152OSM   C12F16955   4.394   3.915   4.561  0.3627  0.0016  0.1163
  152OSM   H12F16956   4.463   3.943   4.644 -0.4037  0.4849  0.6051
  152OSM   H12G16957   4.349   4.006   4.516  0.7305 -0.3987 -1.0843
  152OSM   C13F16958   4.454   3.821   4.459 -0.0923 -0.7994 -0.7728
  152OSM   H13F16959   4.374   3.750   4.428 -0.7501 -1.4557  2.1247
  152OSM   H13G16960   4.538   3.767   4.507  0.1778  0.2839  0.0333
  152OSM   C14F16961   4.524   3.897   4.340 -0.7884  0.3721 -0.6273
  152OSM   H14F16962   4.443   3.942   4.279 -0.7585 -0.1189 -1.0445
  152OSM   H14G16963   4.578   3.819   4.282  1.7987  0.1526  1.8407
  152OSM   C15F16964   4.612   4.012   4.388 -0.0402 -0.3476  0.0060
  152OSM   H15F16965   4.549   4.096   4.422 -1.5167 -0.1146 -2.9477
  152OSM   H15G16966   4.671   4.041   4.299 -2.2529 -0.8993 -1.7438
  152OSM   C16F16967   4.729   3.985   4.495  0.5644  0.5608 -0.2578
  152OSM   H16F16968   4.788   3.895   4.468  0.0101 -0.0920  0.6190
  152OSM   H16G16969   4.677   3.977   4.593 -1.4945 -0.8225 -1.3936
  152OSM   C17F16970   4.822   4.104   4.498 -0.4920 -0.6556 -0.0757
  152OSM   H17F16971   4.844   4.140   4.395 -2.3542  0.3772 -0.1544
  152OSM   H17G16972   4.918   4.074   4.546  0.6966  2.3975 -0.3459
  152OSM   C18F16973   4.765   4.227   4.571 -0.7490  0.6215  0.3764
  152OSM   H18F16974   4.825   4.320   4.560 -0.5004  0.2263 -2.1756
  152OSM   H18G16975   4.751   4.186   4.674  2.0011 -0.9013  0.2358
  152OSM   H18H16976   4.663   4.246   4.532 -0.5973 -0.2450 -0.4793
  153OSM      N16977   2.203   4.781   2.781 -0.9906 -0.4326 -0.0918
  153OSM    C1516978   2.160   4.893   2.689 -0.4222  0.2908  0.6921
  153OSM   H15A16979   2.063   4.936   2.705  0.4744  1.8801  2.2430
  153OSM   H15B16980   2.160   4.850   2.590 -1.1770 -0.4703  1.0152
  153OSM   H15C16981   2.234   4.972   2.690 -0.6425  0.5033  0.2028
  153OSM    C1416982   2.173   4.830   2.914  0.0264 -0.1626 -0.5572
  153OSM   H14A16983   2.220   4.925   2.938 -2.7167  1.6555 -1.9074
  153OSM   H14B16984   2.189   4.754   2.990  0.4580 -1.0070 -1.4763
  153OSM   H14C16985   2.071   4.862   2.928  0.1273 -0.4282  0.9355
  153OSM    C1316986   2.117   4.666   2.750  0.0782 -0.4306  0.2837
  153OSM   H13A16987   2.115   4.648   2.644  1.0236  0.4431  0.0959
  153OSM   H13B16988   2.014   4.688   2.776  0.5360  1.2493  0.8061
  153OSM   H13C16989   2.143   4.575   2.801  2.6108  0.0302 -0.0261
  153OSM    C1216990   2.345   4.729   2.757 -0.3949 -0.2890  0.0960
  153OSM   H12A16991   2.362   4.690   2.658  1.7215 -0.3282  0.4380
  153OSM   H12B16992   2.343   4.644   2.824 -1.4483  0.7068  1.3790
  153OSM    C1116993   2.465   4.818   2.802  0.2472 -0.2627  0.6926
  153OSM   H11A16994   2.562   4.770   2.774  1.8211  2.7349  0.6278
  153OSM   H11B16995   2.462   4.841   2.911 -0.2655  2.5113  0.1545
  153OSM      P16996   2.540   5.014   2.634 -0.2390  0.1361  0.4416
  153OSM    O1316997   2.596   4.914   2.540 -0.5334 -0.8702 -0.9716
  153OSM    O1416998   2.465   5.127   2.573 -0.2143  0.6800  0.0980
  153OSM    O1116999   2.664   5.067   2.718  0.2041  0.1948  0.1656
  153OSM    O1217000   2.452   4.949   2.746  0.3286  0.8261 -0.1305
  153OSM    C1S17001   2.672   5.155   2.828  0.9167  0.6182 -0.6249
  153OSM    H1S17002   2.580   5.218   2.829 -0.2339 -0.9774  1.0711
  153OSM    H1T17003   2.752   5.228   2.804  1.2098  0.0588 -1.3922
  153OSM     NF17004   2.698   5.185   3.066 -0.3168 -0.3420  0.3566
  153OSM    HNF17005   2.791   5.186   3.103 -0.7450  2.6196  1.7205
  153OSM    C2S17006   2.688   5.080   2.963 -0.4033  0.0393 -0.1995
  153OSM    H2S17007   2.595   5.028   2.994 -1.0429 -0.1444 -2.2371
  153OSM    C3S17008   2.801   4.977   2.956 -0.2203  0.2049  0.1743
  153OSM    H3S17009   2.887   5.042   2.931 -0.0112  0.1657  0.7876
  153OSM     O317010   2.776   4.871   2.861  0.2906  0.4472 -0.3735
  153OSM    HO317011   2.730   4.920   2.792  0.9644  2.0751  0.2805
  153OSM    C4S17012   2.829   4.918   3.096  0.2863 -0.1639  0.9440
  153OSM    H4S17013   2.920   4.956   3.145  0.1585  0.3627  0.7821
  153OSM    C5S17014   2.769   4.821   3.159  0.7749 -0.0865 -0.3691
  153OSM    H5S17015   2.687   4.759   3.120  0.3218 -0.5092  1.1981
  153OSM    C6S17016   2.810   4.770   3.300  0.1911 -0.0178  0.1180
  153OSM    H6S17017   2.900   4.705   3.309 -1.5994 -2.5211  1.0218
  153OSM    H6T17018   2.731   4.700   3.334 -0.3147  1.1231  1.3929
  153OSM    C7S17019   2.821   4.879   3.409 -0.3901  0.3275 -0.0154
  153OSM    H7S17020   2.733   4.947   3.404 -0.4290  0.2306 -0.6217
  153OSM    H7T17021   2.903   4.951   3.387  0.1945 -0.5591 -0.8351
  153OSM    C8S17022   2.832   4.843   3.564  0.6120  0.5459 -0.4393
  153OSM    H8S17023   2.931   4.795   3.572  0.3945  0.1772  0.0651
  153OSM    H8T17024   2.769   4.754   3.589  1.7106  0.3269  1.7387
  153OSM    C9S17025   2.817   4.955   3.653 -0.7694 -0.0374 -0.4901
  153OSM    H9S17026   2.855   5.038   3.589  0.7039  0.2487  0.6860
  153OSM    H9T17027   2.877   4.943   3.745 -3.8276 -1.4482  1.4806
  153OSM   C10S17028   2.673   4.976   3.703  0.0882 -0.1818 -0.0339
  153OSM   H10S17029   2.611   4.975   3.611  0.1072 -1.6181 -0.0598
  153OSM   H10T17030   2.678   5.077   3.749  0.0010 -0.4418  0.5623
  153OSM   C11S17031   2.624   4.875   3.806 -0.4613 -0.2376 -0.8715
  153OSM   H11S17032   2.622   4.767   3.779 -0.3650 -0.2114 -0.9832
  153OSM   H11T17033   2.519   4.895   3.836 -1.0918 -0.4431 -2.7951
  153OSM   C12S17034   2.698   4.879   3.946 -0.3981 -0.1783 -1.0166
  153OSM   H12S17035   2.802   4.856   3.914  0.7257  1.2093  1.4282
  153OSM   H12T17036   2.659   4.802   4.015  0.2960  2.9149  3.1881
  153OSM   C13S17037   2.698   5.005   4.020  0.3095 -0.4321 -0.5172
  153OSM   H13S17038   2.599   5.056   4.026  0.6671  0.2466 -0.2306
  153OSM   H13T17039   2.748   5.083   3.958  0.8277  0.3687  0.8549
  153OSM   C14S17040   2.742   4.991   4.167  0.4994  0.1892 -0.5286
  153OSM   H14S17041   2.755   5.091   4.214 -1.8592  0.1737  0.2580
  153OSM   H14T17042   2.841   4.941   4.169  1.2023  1.4955  2.3897
  153OSM   C15S17043   2.637   4.916   4.249 -0.8716 -0.2613 -0.0278
  153OSM   H15S17044   2.642   4.807   4.228 -0.5940  0.0481 -1.6715
  153OSM   H15T17045   2.535   4.945   4.215 -0.5605 -1.6118 -2.3135
  153OSM   C16S17046   2.651   4.932   4.408  0.6150  0.2778  0.6144
  153OSM   H16S17047   2.754   4.959   4.439  0.1221  2.0347  0.8359
  153OSM   H16T17048   2.616   4.835   4.449  1.1533 -0.7216 -1.1580
  153OSM   C17S17049   2.544   5.035   4.466  0.2253  0.0424 -0.0882
  153OSM   H17S17050   2.445   5.007   4.424 -0.3954  0.7027  0.8774
  153OSM   H17T17051   2.577   5.133   4.426  0.2157 -0.5377 -1.5994
  153OSM   C18S17052   2.549   5.018   4.615 -0.1712  0.1205 -0.2995
  153OSM   H18S17053   2.479   5.087   4.668 -1.9934 -1.4249 -0.5600
  153OSM   H18T17054   2.651   5.041   4.654 -0.8342 -1.6460  2.8853
  153OSM   H18U17055   2.522   4.916   4.650  1.9923  0.5891  3.2081
  153OSM    C1F17056   2.603   5.273   3.092  0.5060 -0.9739  0.1072
  153OSM     OF17057   2.499   5.275   3.038  0.4445 -0.3108 -0.1816
  153OSM    C2F17058   2.626   5.361   3.209  0.3678  0.5744 -0.0937
  153OSM    H2F17059   2.676   5.459   3.192 -2.0327  2.2474  1.8035
  153OSM    H2G17060   2.696   5.311   3.280  0.6177 -0.2057 -0.8629
  153OSM    C3F17061   2.489   5.380   3.284 -0.1813 -0.1380  0.6898
  153OSM    H3F17062   2.403   5.408   3.219 -0.1609  3.2165  1.9254
  153OSM    H3G17063   2.509   5.460   3.359 -1.1705  1.6854 -0.9056
  153OSM    C4F17064   2.446   5.254   3.368  0.6265 -0.6078  0.1325
  153OSM    H4F17065   2.529   5.227   3.437 -0.0319 -2.3349  0.2806
  153OSM    H4G17066   2.425   5.170   3.298  0.1572 -0.7612  0.4518
  153OSM    C5F17067   2.317   5.271   3.452  0.6576 -0.7076  0.5570
  153OSM    H5F17068   2.234   5.275   3.379  0.8490 -0.4350  0.3526
  153OSM    H5G17069   2.316   5.366   3.510  0.3645 -0.7961  0.6972
  153OSM    C6F17070   2.290   5.158   3.552 -0.1964 -0.2334  0.1686
  153OSM    H6F17071   2.317   5.057   3.516  0.8224  0.8719 -2.4165
  153OSM    H6G17072   2.180   5.167   3.565 -0.2786  0.1615 -0.7244
  153OSM    C7F17073   2.362   5.184   3.688 -0.2915 -0.0013  0.0108
  153OSM    H7F17074   2.360   5.291   3.719  1.9870  0.4338 -1.1413
  153OSM    H7G17075   2.472   5.181   3.676 -0.3298  1.2270 -0.7975
  153OSM    C8F17076   2.317   5.089   3.803 -0.5957  0.0783 -0.3859
  153OSM    H8F17077   2.399   5.103   3.876  0.4553  0.0165 -1.5195
  153OSM    H8G17078   2.312   4.981   3.775  0.2557 -0.3424  1.0199
  153OSM    C9F17079   2.186   5.125   3.864 -0.7854  0.3639  0.3626
  153OSM    H9F17080   2.104   5.112   3.792 -2.6414  0.9864  2.2490
  153OSM   C10F17081   2.163   5.171   3.988  0.4955  0.5467  0.5342
  153OSM   H10F17082   2.059   5.198   4.011  0.0613  1.6009 -2.2200
  153OSM   C11F17083   2.251   5.196   4.105 -0.1404 -0.4219 -0.4860
  153OSM   H11F17084   2.265   5.306   4.113 -1.4280 -0.1811 -1.1073
  153OSM   H11G17085   2.347   5.149   4.076 -0.5542  1.1962 -5.3886
  153OSM   C12F17086   2.208   5.143   4.245 -0.1677  0.1913  1.0445
  153OSM   H12F17087   2.296   5.161   4.310  0.5196 -0.5436  0.3342
  153OSM   H12G17088   2.181   5.036   4.228 -2.4539  0.9506 -0.6082
  153OSM   C13F17089   2.091   5.221   4.308 -0.3961 -0.2120  0.2154
  153OSM   H13F17090   2.000   5.212   4.244  0.4859  0.2629 -1.1329
  153OSM   H13G17091   2.117   5.328   4.298 -1.2210  0.0042  0.2823
  153OSM   C14F17092   2.072   5.197   4.457 -0.0221 -0.3285  0.3528
  153OSM   H14F17093   2.055   5.089   4.477 -1.1662 -0.1079  0.6191
  153OSM   H14G17094   1.987   5.265   4.478  0.1602 -0.7230  2.6341
  153OSM   C15F17095   2.192   5.233   4.549  1.5798 -0.5516  0.0493
  153OSM   H15F17096   2.227   5.338   4.536  0.8714 -0.2607  0.4823
  153OSM   H15G17097   2.276   5.167   4.519  0.3040 -2.0292 -0.3422
  153OSM   C16F17098   2.160   5.208   4.699  1.0022  0.2692  0.2709
  153OSM   H16F17099   2.257   5.199   4.752  0.9649 -0.1858  0.2579
  153OSM   H16G17100   2.118   5.106   4.701  1.3040  0.1583  1.1230
  153OSM   C17F17101   2.061   5.314   4.767 -0.0675  1.1316 -0.3912
  153OSM   H17F17102   1.976   5.317   4.695  0.3161 -1.7598 -1.0562
  153OSM   H17G17103   2.104   5.417   4.762 -1.8826  1.9683  0.1909
  153OSM   C18F17104   2.029   5.295   4.912 -0.1130 -0.1996 -0.6108
  153OSM   H18F17105   1.979   5.200   4.942 -3.6839  1.3216 -1.1375
  153OSM   H18G17106   1.958   5.378   4.931 -0.5081  0.0330 -2.8826
  153OSM   H18H17107   2.121   5.312   4.972 -0.3787  1.7624 -0.7215
  154OSM      N17108   1.476   1.245   2.422 -0.2340  0.4993  0.8363
  154OSM    C1517109   1.535   1.378   2.381  0.1401  0.0925 -0.0927
  154OSM   H15A17110   1.523   1.388   2.274 -4.3322  2.9503  0.4274
  154OSM   H15B17111   1.639   1.384   2.408 -0.2853  2.0148  1.2860
  154OSM   H15C17112   1.481   1.457   2.430 -1.5877 -1.1446  0.0883
  154OSM    C1417113   1.329   1.254   2.424 -0.7511 -0.2664  0.7427
  154OSM   H14A17114   1.284   1.160   2.453 -0.3730 -0.2634  1.3444
  154OSM   H14B17115   1.300   1.275   2.322  1.9623  1.8553  0.2935
  154OSM   H14C17116   1.294   1.335   2.486 -1.0790 -0.0195  0.2382
  154OSM    C1317117   1.529   1.150   2.322  0.5067 -0.8974 -0.1834
  154OSM   H13A17118   1.631   1.178   2.299  0.6048  0.0148  1.2463
  154OSM   H13B17119   1.477   1.154   2.227  0.0889  0.4051  0.0740
  154OSM   H13C17120   1.522   1.045   2.345 -0.8101 -0.8895 -0.4491
  154OSM    C1217121   1.525   1.203   2.559 -0.2059 -0.3560  0.6069
  154OSM   H12A17122   1.633   1.207   2.558 -0.1621 -0.9100 -1.7413
  154OSM   H12B17123   1.485   1.106   2.581  2.2190 -0.9238  3.2124
  154OSM    C1117124   1.484   1.286   2.684  0.5263 -0.2868 -0.2562
  154OSM   H11A17125   1.492   1.223   2.774 -1.6271 -0.2088  0.0372
  154OSM   H11B17126   1.374   1.301   2.679  0.4728  0.7919  2.7022
  154OSM      P17127   1.693   1.436   2.744 -0.6066  0.7822 -0.3647
  154OSM    O1317128   1.765   1.304   2.726 -0.0245 -0.3441  0.0486
  154OSM    O1417129   1.755   1.555   2.684 -0.4604 -0.1495 -0.8921
  154OSM    O1117130   1.690   1.461   2.903  0.5743 -0.0632 -0.3862
  154OSM    O1217131   1.546   1.415   2.693  0.4357  0.0690  0.0196
  154OSM    C1S17132   1.593   1.389   2.985  0.4794  0.0678  0.2874
  154OSM    H1S17133   1.608   1.280   2.971 -0.8997  0.2258 -3.5404
  154OSM    H1T17134   1.494   1.412   2.941  0.3939 -1.4789 -0.3803
  154OSM     NF17135   1.492   1.317   3.193  0.2313  0.4381  0.7972
  154OSM    HNF17136   1.408   1.362   3.223 -1.1555  1.0124 -3.3239
  154OSM    C2S17137   1.604   1.402   3.139  0.2169 -0.1886  0.4434
  154OSM    H2S17138   1.701   1.354   3.166 -0.5162 -1.7841  0.3581
  154OSM    C3S17139   1.612   1.557   3.171 -0.4805  0.3093 -0.0989
  154OSM    H3S17140   1.520   1.607   3.135 -0.3978  0.7314  0.2774
  154OSM     O317141   1.710   1.633   3.102 -0.7375  0.4195  0.4561
  154OSM    HO317142   1.720   1.569   3.032 -3.2253 -1.4764  1.6956
  154OSM    C4S17143   1.637   1.584   3.315  0.8167  0.3059  0.5259
  154OSM    H4S17144   1.729   1.552   3.366  0.3835 -0.5837  0.7673
  154OSM    C5S17145   1.544   1.649   3.393  0.4317  0.3777 -0.4365
  154OSM    H5S17146   1.448   1.680   3.348 -1.3162 -3.4561  0.2297
  154OSM    C6S17147   1.565   1.672   3.542  0.8914 -0.6215  0.2944
  154OSM    H6S17148   1.532   1.776   3.566 -0.1067 -0.8197 -0.1435
  154OSM    H6T17149   1.671   1.676   3.573  0.7326  1.1710  0.7288
  154OSM    C7S17150   1.503   1.560   3.632  0.1845 -0.3733  0.7928
  154OSM    H7S17151   1.552   1.470   3.589 -1.7624  0.0580 -2.6905
  154OSM    H7T17152   1.395   1.537   3.621  0.2621 -0.6099  0.5166
  154OSM    C8S17153   1.538   1.595   3.775 -1.1003 -0.1478  0.4075
  154OSM    H8S17154   1.474   1.682   3.803  1.0794  1.8095 -0.3243
  154OSM    H8T17155   1.643   1.629   3.763 -1.2983 -0.0745 -1.3029
  154OSM    C9S17156   1.528   1.485   3.872  0.5289 -0.0386  0.1596
  154OSM    H9S17157   1.575   1.525   3.964 -1.7593 -0.2813  1.5075
  154OSM    H9T17158   1.588   1.398   3.837 -2.4797 -1.4342 -1.9562
  154OSM   C10S17159   1.387   1.431   3.903  0.4325  0.2628  0.0901
  154OSM   H10S17160   1.331   1.405   3.810 -2.2878  2.1476  1.0743
  154OSM   H10T17161   1.329   1.498   3.969  0.4745 -1.1675  1.6509
  154OSM   C11S17162   1.405   1.305   3.996  0.2499  0.4162  0.5473
  154OSM   H11S17163   1.453   1.322   4.095  0.5337 -0.0927  0.4998
  154OSM   H11T17164   1.472   1.232   3.946  2.6205  3.3350 -0.8622
  154OSM   C12S17165   1.274   1.241   4.023  0.2690 -0.3583 -0.2394
  154OSM   H12S17166   1.285   1.146   4.080 -0.4130 -0.0600  0.4158
  154OSM   H12T17167   1.244   1.216   3.919 -1.9618  0.3340  0.1645
  154OSM   C13S17168   1.160   1.330   4.088  0.1541 -0.2696  0.1783
  154OSM   H13S17169   1.131   1.406   4.012 -0.3639 -1.4828 -0.8702
  154OSM   H13T17170   1.198   1.380   4.180  4.2686 -1.0001 -0.9186
  154OSM   C14S17171   1.042   1.237   4.114 -0.1063 -0.3309 -0.6231
  154OSM   H14S17172   1.063   1.158   4.189  3.7902  1.5160  0.4951
  154OSM   H14T17173   1.013   1.187   4.019 -0.2906 -0.8985 -0.2703
  154OSM   C15S17174   0.911   1.306   4.140  0.0524 -0.6302  0.0353
  154OSM   H15S17175   0.885   1.350   4.042  1.1355  0.4844  0.2342
  154OSM   H15T17176   0.917   1.384   4.219  0.3195 -0.6309  0.0169
  154OSM   C16S17177   0.799   1.213   4.190  0.0280 -0.3493  0.5929
  154OSM   H16S17178   0.790   1.120   4.129  1.4381 -0.0863 -0.0695
  154OSM   H16T17179   0.701   1.263   4.181 -1.7804 -3.7642 -0.5316
  154OSM   C17S17180   0.797   1.153   4.333 -0.6526 -0.1362 -0.1265
  154OSM   H17S17181   0.815   1.242   4.396 -0.2409 -0.1353 -0.2399
  154OSM   H17T17182   0.872   1.072   4.343  1.3105  1.6840  0.5548
  154OSM   C18S17183   0.659   1.102   4.381  0.4984  0.8372 -0.3970
  154OSM   H18S17184   0.656   1.046   4.477  0.2919 -0.9355 -1.3959
  154OSM   H18T17185   0.619   1.034   4.303  1.0902 -0.3028  0.2511
  154OSM   H18U17186   0.589   1.187   4.396 -0.1037  0.6211 -1.8303
  154OSM    C1F17187   1.486   1.188   3.195 -0.5642  0.2035  0.2502
  154OSM     OF17188   1.588   1.123   3.166 -0.0365 -0.2956  0.6641
  154OSM    C2F17189   1.353   1.125   3.232 -0.1091  0.5503 -0.5424
  154OSM    H2F17190   1.339   1.040   3.161  1.0407  0.2145 -0.3861
  154OSM    H2G17191   1.272   1.201   3.231 -0.0681  0.6079  0.2686
  154OSM    C3F17192   1.363   1.059   3.363 -0.4936 -0.1920  0.1787
  154OSM    H3F17193   1.447   0.986   3.361  0.1241  0.5296 -1.5967
  154OSM    H3G17194   1.270   0.998   3.359 -0.9668  0.5975 -2.9716
  154OSM    C4F17195   1.376   1.145   3.490 -0.2224  1.1094  0.1666
  154OSM    H4F17196   1.471   1.198   3.468  1.6528 -1.9885  0.1830
  154OSM    H4G17197   1.383   1.080   3.580  0.4271  1.0739  0.0932
  154OSM    C5F17198   1.265   1.240   3.511  0.0718  0.4729 -0.2778
  154OSM    H5F17199   1.243   1.298   3.419  0.8173  0.9455 -0.1667
  154OSM    H5G17200   1.305   1.307   3.589  2.6609 -1.2205 -0.0394
  154OSM    C6F17201   1.125   1.174   3.542 -0.4980  0.4826 -0.1467
  154OSM    H6F17202   1.109   1.091   3.469 -0.5789 -1.4829  1.9901
  154OSM    H6G17203   1.044   1.249   3.529 -1.9799 -0.7536  1.4559
  154OSM    C7F17204   1.106   1.112   3.681 -0.1457 -0.0445 -0.7441
  154OSM    H7F17205   1.116   1.202   3.745  0.2493  0.2249 -1.1749
  154OSM    H7G17206   1.200   1.060   3.708 -0.0583  1.2547  1.7350
  154OSM    C8F17207   0.980   1.033   3.718 -0.3560 -0.0319 -0.3739
  154OSM    H8F17208   0.891   1.066   3.660 -1.7807  0.9275  2.2231
  154OSM    H8G17209   0.963   1.053   3.826  1.8496  0.8775 -0.1452
  154OSM    C9F17210   0.997   0.890   3.697  0.3039 -0.0542 -0.6460
  154OSM    H9F17211   1.031   0.871   3.594  1.3781 -2.1357  0.0213
  154OSM   C10F17212   0.981   0.788   3.784  0.8153 -0.8855  0.9367
  154OSM   H10F17213   1.029   0.691   3.761 -0.0542 -0.8468 -1.2845
  154OSM   C11F17214   0.936   0.806   3.927  0.2074 -0.4444  0.2422
  154OSM   H11F17215   0.839   0.754   3.940 -1.9610  3.2961  0.2185
  154OSM   H11G17216   0.907   0.907   3.963  0.4814 -0.2449 -0.0877
  154OSM   C12F17217   1.033   0.752   4.041  0.3310 -0.1653 -1.3404
  154OSM   H12F17218   1.119   0.822   4.053 -1.1525  1.6562 -0.8834
  154OSM   H12G17219   1.067   0.651   4.012 -0.7048 -0.6351 -0.9643
  154OSM   C13F17220   0.968   0.735   4.176 -0.3588  1.2235 -0.2539
  154OSM   H13F17221   0.896   0.650   4.177 -1.6456  2.0341  4.5287
  154OSM   H13G17222   0.904   0.821   4.203 -1.3353  0.3420  0.3353
  154OSM   C14F17223   1.076   0.698   4.290  0.1959  0.1353 -0.9347
  154OSM   H14F17224   1.119   0.598   4.269 -1.2913 -0.5018 -1.0833
  154OSM   H14G17225   1.018   0.686   4.384 -0.1509  0.7642 -1.0668
  154OSM   C15F17226   1.173   0.805   4.324 -0.4079  0.0940 -0.3229
  154OSM   H15F17227   1.147   0.908   4.288  2.5419  1.2604  0.5782
  154OSM   H15G17228   1.272   0.789   4.276 -0.0158 -0.4606  0.6609
  154OSM   C16F17229   1.196   0.821   4.473 -0.3913 -0.1914 -0.4081
  154OSM   H16F17230   1.234   0.736   4.533  1.9494  1.5005  0.6687
  154OSM   H16G17231   1.095   0.849   4.510 -0.3029  0.5017 -0.6756
  154OSM   C17F17232   1.297   0.934   4.511  0.3520  0.0507 -0.4429
  154OSM   H17F17233   1.400   0.905   4.481  1.4846  0.7933  2.3423
  154OSM   H17G17234   1.304   0.949   4.621  2.6229  1.2142 -0.6905
  154OSM   C18F17235   1.265   1.073   4.458 -0.3091 -0.4677 -0.7373
  154OSM   H18F17236   1.315   1.147   4.525 -0.5398 -0.3379 -0.7051
  154OSM   H18G17237   1.158   1.094   4.479  0.2329  0.8871  0.9484
  154OSM   H18H17238   1.279   1.089   4.349 -1.7164  2.6877 -0.5707
  155OSM      N17239   4.524   6.380   2.614  0.0710 -0.1430  0.4178
  155OSM    C1517240   4.624   6.486   2.625  0.1999 -0.4402  0.4803
  155OSM   H15A17241   4.716   6.445   2.663  0.2523 -1.4078 -0.6511
  155OSM   H15B17242   4.593   6.559   2.699 -0.8919 -0.5778  0.1749
  155OSM   H15C17243   4.640   6.548   2.538  0.1215  2.0511  2.1112
  155OSM    C1417244   4.400   6.421   2.528 -0.3009 -0.9846 -0.3891
  155OSM   H14A17245   4.355   6.510   2.569  0.1893 -0.3325 -1.2503
  155OSM   H14B17246   4.334   6.335   2.528  0.5449 -1.6550 -0.0413
  155OSM   H14C17247   4.423   6.441   2.425  0.0143  0.5734 -0.0411
  155OSM    C1317248   4.591   6.266   2.549  0.1988 -0.1349 -0.1568
  155OSM   H13A17249   4.667   6.215   2.607  1.3721  0.9435 -0.6959
  155OSM   H13B17250   4.639   6.297   2.457 -1.0763 -0.2278 -0.8820
  155OSM   H13C17251   4.518   6.194   2.514 -1.7701  0.2134  2.9042
  155OSM    C1217252   4.486   6.324   2.746  0.1521  0.1749 -0.4639
  155OSM   H12A17253   4.570   6.280   2.798 -1.5487 -1.6488  0.8767
  155OSM   H12B17254   4.425   6.236   2.732  0.7530 -0.8035  2.4983
  155OSM    C1117255   4.410   6.416   2.846  0.1415 -0.5555  0.2006
  155OSM   H11A17256   4.358   6.352   2.920  0.9116 -0.5603  0.7450
  155OSM   H11B17257   4.333   6.474   2.791 -1.5230 -0.1000  2.8671
  155OSM      P17258   4.493   6.651   2.932 -0.0257  0.3625 -0.4776
  155OSM    O1317259   4.593   6.689   3.038  0.3118  0.4504  0.3506
  155OSM    O1417260   4.503   6.720   2.807  0.0337 -0.3551  0.3106
  155OSM    O1117261   4.347   6.664   2.989  0.7719  0.1741  0.1740
  155OSM    O1217262   4.508   6.497   2.907  0.2441 -0.5538 -0.3098
  155OSM    C1S17263   4.295   6.607   3.111 -0.4966 -0.8382  0.2885
  155OSM    H1S17264   4.368   6.552   3.173 -0.9015 -0.4600  1.1177
  155OSM    H1T17265   4.216   6.534   3.081 -0.0384 -0.6645 -1.4923
  155OSM     NF17266   4.207   6.665   3.338 -0.6103  0.0908  0.3765
  155OSM    HNF17267   4.109   6.654   3.353 -0.5723  1.8667  2.4734
  155OSM    C2S17268   4.252   6.724   3.212  0.4760  0.7664  0.1481
  155OSM    H2S17269   4.344   6.779   3.240  0.3562 -0.0004  2.2332
  155OSM    C3S17270   4.150   6.821   3.145 -0.2529 -0.6583 -0.1077
  155OSM    H3S17271   4.065   6.758   3.113 -0.9779  0.2514 -0.0308
  155OSM     O317272   4.205   6.876   3.025 -0.1348 -0.0866 -0.0436
  155OSM    HO317273   4.271   6.810   3.001 -0.8202 -1.2973  1.2589
  155OSM    C4S17274   4.111   6.930   3.236  1.1301 -0.0479  0.4501
  155OSM    H4S17275   4.183   7.012   3.242  0.3771  0.6562  0.1169
  155OSM    C5S17276   3.996   6.951   3.301 -0.2186 -0.1657  0.2640
  155OSM    H5S17277   3.910   6.888   3.276 -1.1149  1.0997  0.0615
  155OSM    C6S17278   3.965   7.071   3.381 -0.1652  0.6052  0.6620
  155OSM    H6S17279   3.863   7.109   3.357 -1.1408 -3.0010 -1.6575
  155OSM    H6T17280   4.036   7.152   3.354  2.0533 -1.3150  0.4578
  155OSM    C7S17281   3.992   7.038   3.528  0.4396 -0.5428  1.0399
  155OSM    H7S17282   4.095   6.998   3.543  1.3196  1.3999  0.4856
  155OSM    H7T17283   3.924   6.956   3.559  0.6188 -1.0696  0.0864
  155OSM    C8S17284   3.966   7.165   3.621  0.4118  0.0258 -0.4526
  155OSM    H8S17285   4.058   7.223   3.597  0.5751 -0.3395 -0.7136
  155OSM    H8T17286   3.970   7.127   3.725 -1.9897 -3.5377 -1.4447
  155OSM    C9S17287   3.835   7.234   3.594  0.4518 -0.3528 -0.6105
  155OSM    H9S17288   3.751   7.161   3.584 -1.5026  1.5172  1.0240
  155OSM    H9T17289   3.846   7.297   3.504 -3.6389 -0.3701 -1.3280
  155OSM   C10S17290   3.789   7.332   3.712 -0.3811  0.8435 -0.4442
  155OSM   H10S17291   3.694   7.372   3.672 -0.0108  0.4322 -1.7754
  155OSM   H10T17292   3.875   7.401   3.728  0.9366 -0.7956 -0.2032
  155OSM   C11S17293   3.760   7.255   3.841 -0.1962 -0.1535 -0.4009
  155OSM   H11S17294   3.833   7.179   3.878 -1.3850 -1.9373 -1.5582
  155OSM   H11T17295   3.662   7.205   3.824 -0.9713  1.3531 -0.5389
  155OSM   C12S17296   3.737   7.353   3.949  0.4099 -0.5860 -0.6704
  155OSM   H12S17297   3.655   7.421   3.919 -1.5693 -2.2822  0.5984
  155OSM   H12T17298   3.831   7.409   3.972 -1.0135  1.4563  0.4471
  155OSM   C13S17299   3.681   7.286   4.073 -0.0167 -0.7872 -0.2306
  155OSM   H13S17300   3.728   7.185   4.083  0.1813 -0.7273 -0.5651
  155OSM   H13T17301   3.573   7.269   4.050  0.3152 -3.6471 -0.0496
  155OSM   C14S17302   3.722   7.350   4.204  0.3386  0.0160 -0.3078
  155OSM   H14S17303   3.673   7.448   4.224 -0.0741  0.0922 -1.5753
  155OSM   H14T17304   3.832   7.362   4.202  0.4302 -0.6019  0.5474
  155OSM   C15S17305   3.694   7.257   4.320 -0.6800  0.3899 -0.1067
  155OSM   H15S17306   3.741   7.157   4.310 -1.0373  0.3048 -0.9654
  155OSM   H15T17307   3.585   7.235   4.316 -0.5914  0.1403 -1.5266
  155OSM   C16S17308   3.743   7.311   4.455 -0.4163  0.2797  0.0977
  155OSM   H16S17309   3.688   7.407   4.468 -1.3638  0.0773 -1.9656
  155OSM   H16T17310   3.848   7.348   4.453 -0.0369 -0.7996 -0.5345
  155OSM   C17S17311   3.717   7.219   4.570  0.4674 -0.1046 -0.4000
  155OSM   H17S17312   3.738   7.111   4.555 -3.5025 -1.2087  0.6470
  155OSM   H17T17313   3.608   7.221   4.592 -0.1071  0.6719 -2.9802
  155OSM   C18S17314   3.784   7.275   4.694  0.9472 -0.3683  0.1353
  155OSM   H18S17315   3.722   7.362   4.724  0.0452 -1.5289  1.7846
  155OSM   H18T17316   3.893   7.295   4.681  0.7689 -0.0859 -0.9496
  155OSM   H18U17317   3.780   7.211   4.785 -0.7030  0.4215  0.6432
  155OSM    C1F17318   4.287   6.615   3.430 -0.4225 -0.9653  1.0644
  155OSM     OF17319   4.409   6.603   3.406  0.4153  0.7023  0.6032
  155OSM    C2F17320   4.230   6.559   3.548  0.4272 -0.1363 -0.1638
  155OSM    H2F17321   4.273   6.457   3.560 -0.2438 -0.5967 -1.5084
  155OSM    H2G17322   4.124   6.540   3.522  0.3113  2.0932 -1.5616
  155OSM    C3F17323   4.227   6.647   3.674  0.5458 -0.0198  0.5239
  155OSM    H3F17324   4.170   6.740   3.656  0.6980  0.0066  0.1701
  155OSM    H3G17325   4.332   6.673   3.702  0.3502  0.7479  0.5424
  155OSM    C4F17326   4.166   6.569   3.792 -0.3383 -0.5404 -0.0546
  155OSM    H4F17327   4.208   6.467   3.805  0.1884 -0.4358 -0.8488
  155OSM    H4G17328   4.058   6.561   3.768 -0.9918  1.7870  1.7914
  155OSM    C5F17329   4.166   6.638   3.929  0.5058 -0.4081 -0.1075
  155OSM    H5F17330   4.094   6.723   3.924 -0.3998 -1.1376  0.3542
  155OSM    H5G17331   4.259   6.689   3.964  0.6243 -0.6684 -0.0428
  155OSM    C6F17332   4.129   6.530   4.037  0.8688  0.1397  0.5938
  155OSM    H6F17333   4.173   6.433   4.004  0.3596  0.6294 -1.7754
  155OSM    H6G17334   4.020   6.509   4.030  1.1302 -0.8309 -1.8307
  155OSM    C7F17335   4.171   6.572   4.177 -0.0378  0.0308 -0.9829
  155OSM    H7F17336   4.135   6.670   4.214 -0.9041 -1.1547  1.5134
  155OSM    H7G17337   4.281   6.586   4.167  0.4666  1.0960  3.8495
  155OSM    C8F17338   4.141   6.460   4.281 -0.2733  0.1048  0.9097
  155OSM    H8F17339   4.201   6.368   4.267 -0.0201  0.3493  0.3258
  155OSM    H8G17340   4.035   6.438   4.258 -0.5734  1.4817  0.8915
  155OSM    C9F17341   4.162   6.504   4.422 -0.0372  0.4225 -0.4291
  155OSM    H9F17342   4.262   6.545   4.443  1.0611 -2.9698  1.7960
  155OSM   C10F17343   4.069   6.508   4.517  0.1800 -0.0785 -0.6243
  155OSM   H10F17344   4.101   6.551   4.613  1.1180  0.4082 -1.1435
  155OSM   C11F17345   3.926   6.470   4.516  0.1938 -0.7474  0.2874
  155OSM   H11F17346   3.907   6.393   4.593  0.8066 -0.2169  0.9792
  155OSM   H11G17347   3.894   6.444   4.412 -0.9156  1.0432  0.1393
  155OSM   C12F17348   3.841   6.594   4.561  0.0225  0.0507  0.0497
  155OSM   H12F17349   3.733   6.571   4.548 -0.0360 -0.0926  0.7522
  155OSM   H12G17350   3.863   6.681   4.496  0.5412 -0.6588 -0.7588
  155OSM   C13F17351   3.846   6.632   4.711  0.1280 -0.2286  0.0199
  155OSM   H13F17352   3.946   6.670   4.743 -0.7569  0.0290  2.7484
  155OSM   H13G17353   3.834   6.538   4.768 -0.6075  0.2694  0.7185
  155OSM   C14F17354   3.746   6.751   4.742 -0.5799 -0.0641  0.0230
  155OSM   H14F17355   3.640   6.719   4.730 -0.0073 -1.8350 -0.6368
  155OSM   H14G17356   3.765   6.832   4.668  1.1257  1.7495  2.2887
  155OSM   C15F17357   3.759   6.797   4.890 -0.7159  0.1915  0.2262
  155OSM   H15F17358   3.862   6.827   4.919 -0.1668 -0.9912 -0.4303
  155OSM   H15G17359   3.747   6.705   4.951  0.9084  1.1962  2.1787
  155OSM   C16F17360   3.654   6.895   4.928 -0.1953 -0.6602  0.0745
  155OSM   H16F17361   3.553   6.876   4.886 -0.6755  3.6773 -1.2301
  155OSM   H16G17362   3.676   6.991   4.876 -0.4819 -0.8753 -0.4479
  155OSM   C17F17363   3.657   6.916   5.078  0.0177 -0.0757 -0.4663
  155OSM   H17F17364   3.766   6.932   5.096  0.2733 -2.9513  1.1183
  155OSM   H17G17365   3.641   6.818   5.129 -0.6177  0.2194 -0.0959
  155OSM   C18F17366   3.572   7.038   5.124  0.2768 -0.4629 -0.5096
  155OSM   H18F17367   3.464   7.030   5.098 -0.0321 -0.0981  0.6255
  155OSM   H18G17368   3.620   7.132   5.090  0.2232  0.4070  1.6428
  155OSM   H18H17369   3.583   7.052   5.233 -0.0478  1.1333 -0.6664
  156OSM      N17370   5.843   4.626   2.452  0.3049 -0.0215 -0.2452
  156OSM    C1517371   5.913   4.578   2.330 -0.6306  0.3159 -0.3209
  156OSM   H15A17372   6.010   4.624   2.324 -0.3502 -0.1208  0.5970
  156OSM   H15B17373   5.862   4.604   2.239 -2.2238  0.6723  0.6128
  156OSM   H15C17374   5.929   4.471   2.333  0.0659  0.4233  0.0136
  156OSM    C1417375   5.847   4.780   2.448  0.2519  0.1855 -0.5016
  156OSM   H14A17376   5.777   4.819   2.374 -1.6498  0.8930  1.5482
  156OSM   H14B17377   5.945   4.813   2.417  1.4688 -0.4689  2.3597
  156OSM   H14C17378   5.803   4.819   2.539 -3.7057 -1.2965 -1.5399
  156OSM    C1317379   5.703   4.584   2.451  0.0859 -0.4401 -0.3395
  156OSM   H13A17380   5.685   4.479   2.468 -2.1725 -0.0584  0.0264
  156OSM   H13B17381   5.662   4.614   2.355 -1.0493  1.9674  0.8125
  156OSM   H13C17382   5.644   4.633   2.527 -0.5680 -2.1446  0.2974
  156OSM    C1217383   5.900   4.569   2.576 -0.5850  0.0484 -0.3236
  156OSM   H12A17384   6.008   4.568   2.571 -0.5690  2.2113 -1.9476
  156OSM   H12B17385   5.880   4.464   2.585  0.0393 -0.0375  0.1582
  156OSM    C1117386   5.876   4.641   2.715  0.0187 -0.1203 -0.1729
  156OSM   H11A17387   5.923   4.742   2.714  1.1143 -0.6138  0.0577
  156OSM   H11B17388   5.934   4.579   2.786 -0.7089 -1.2238 -0.5191
  156OSM      P17389   5.672   4.540   2.849  0.2044  0.2506 -0.4053
  156OSM    O1317390   5.533   4.592   2.885  0.0248  0.2411  0.4341
  156OSM    O1417391   5.679   4.397   2.794  0.6612  0.0624  0.0435
  156OSM    O1117392   5.758   4.545   2.985  0.2094 -0.0433 -0.4307
  156OSM    O1217393   5.743   4.649   2.761  0.1953 -0.5144  0.2715
  156OSM    C1S17394   5.791   4.674   3.041  0.3452  0.7297  0.5158
  156OSM    H1S17395   5.697   4.729   3.061 -0.6336 -1.3133  1.8327
  156OSM    H1T17396   5.841   4.727   2.957  1.6059 -0.9997  0.1307
  156OSM     NF17397   5.869   4.817   3.220  0.1055 -0.2915  0.6250
  156OSM    HNF17398   5.953   4.870   3.210 -0.9417  1.0432 -1.8902
  156OSM    C2S17399   5.868   4.677   3.170 -0.0945  0.0648  0.4161
  156OSM    H2S17400   5.802   4.611   3.231  2.2935 -0.7554  2.2593
  156OSM    C3S17401   6.007   4.610   3.151 -0.4793  0.2909 -0.1042
  156OSM    H3S17402   6.063   4.683   3.088 -1.7130  2.7160  1.4318
  156OSM     O317403   6.012   4.494   3.066 -0.1426 -0.0043 -0.8557
  156OSM    HO317404   5.931   4.499   3.016 -2.4327 -0.1812  2.4936
  156OSM    C4S17405   6.081   4.597   3.275  0.1584  0.4697 -0.5703
  156OSM    H4S17406   6.184   4.634   3.268  0.5754 -0.8681 -2.2325
  156OSM    C5S17407   6.046   4.514   3.372  0.7874 -0.6443 -0.4560
  156OSM    H5S17408   5.959   4.449   3.353  0.3616  0.4302 -2.3562
  156OSM    C6S17409   6.122   4.500   3.509 -0.5198 -0.1962  0.1378
  156OSM    H6S17410   6.221   4.549   3.493 -1.1645  0.5205 -1.9915
  156OSM    H6T17411   6.141   4.391   3.515 -0.7776 -0.1976  0.9662
  156OSM    C7S17412   6.038   4.563   3.619  0.4246  0.1672  0.0472
  156OSM    H7S17413   5.941   4.510   3.634 -0.0236  0.6094 -1.1699
  156OSM    H7T17414   6.017   4.668   3.593  1.6442  0.2220 -0.7687
  156OSM    C8S17415   6.109   4.560   3.756 -0.2068 -0.1381 -0.2991
  156OSM    H8S17416   6.207   4.609   3.740 -0.4055  0.7471  1.0457
  156OSM    H8T17417   6.126   4.457   3.795 -2.6340 -0.1862  0.8432
  156OSM    C9S17418   6.021   4.634   3.861 -0.0823 -0.1281  0.2055
  156OSM    H9S17419   5.921   4.592   3.840  0.7661 -0.6167 -3.6406
  156OSM    H9T17420   6.029   4.737   3.820  1.7648  0.4710  1.9149
  156OSM   C10S17421   6.079   4.624   3.999 -0.1946  0.4191 -0.2381
  156OSM   H10S17422   6.178   4.674   3.988  0.4641 -0.9664 -0.9430
  156OSM   H10T17423   6.084   4.517   4.028  0.1478  0.2743 -0.7984
  156OSM   C11S17424   5.996   4.698   4.108  0.5079 -0.3221 -0.0758
  156OSM   H11S17425   5.907   4.636   4.129  0.0311  0.1341 -0.7138
  156OSM   H11T17426   5.962   4.798   4.073 -0.5997 -1.0446 -1.1738
  156OSM   C12S17427   6.062   4.705   4.245 -1.2550  0.4593 -0.5296
  156OSM   H12S17428   6.140   4.784   4.235 -1.4957  0.5844 -1.5131
  156OSM   H12T17429   6.112   4.611   4.275  1.9188  1.9272 -0.7407
  156OSM   C13S17430   5.965   4.756   4.351 -0.1656 -0.1444 -0.1794
  156OSM   H13S17431   5.865   4.707   4.360  0.0514 -0.7336 -0.8524
  156OSM   H13T17432   5.947   4.861   4.320  0.7819 -0.1535 -0.7740
  156OSM   C14S17433   6.041   4.763   4.488  0.7470  0.4830 -0.4246
  156OSM   H14S17434   6.146   4.792   4.466  1.2414 -0.5729  0.4683
  156OSM   H14T17435   6.033   4.658   4.524  1.8818  0.9162  1.2381
  156OSM   C15S17436   5.981   4.864   4.585  0.4205  0.6684  0.7002
  156OSM   H15S17437   5.873   4.844   4.599  0.5527 -0.7691 -0.0574
  156OSM   H15T17438   6.001   4.965   4.543 -0.6834  0.7712  0.4050
  156OSM   C16S17439   6.043   4.861   4.726 -0.3830 -0.7670  0.2579
  156OSM   H16S17440   5.988   4.945   4.774  0.1177  0.7848 -1.7463
  156OSM   H16T17441   6.152   4.872   4.710 -0.5943 -0.9615 -1.5008
  156OSM   C17S17442   6.006   4.736   4.808  0.0288 -0.0508 -0.4257
  156OSM   H17S17443   6.087   4.706   4.878 -1.6885  0.7489  2.0677
  156OSM   H17T17444   5.993   4.653   4.736  1.3662  1.2113 -2.1846
  156OSM   C18S17445   5.870   4.740   4.881  0.1424 -0.8321  0.0175
  156OSM   H18S17446   5.863   4.648   4.944  0.9097 -0.8149  0.1412
  156OSM   H18T17447   5.781   4.759   4.818  0.5552  0.8102 -0.1276
  156OSM   H18U17448   5.872   4.826   4.952 -1.5560  1.0801 -2.1201
  156OSM    C1F17449   5.758   4.879   3.271  0.1875 -0.0042 -0.1401
  156OSM     OF17450   5.645   4.822   3.257 -0.3305 -0.4732 -0.7964
  156OSM    C2F17451   5.783   5.015   3.337  0.0792  0.1471 -0.6907
  156OSM    H2F17452   5.749   5.097   3.270 -0.1648  0.4793 -0.1648
  156OSM    H2G17453   5.893   5.028   3.346  0.0194  0.9998 -1.0983
  156OSM    C3F17454   5.717   5.027   3.479  0.3116 -0.5854 -0.4989
  156OSM    H3F17455   5.710   4.927   3.527 -2.5108 -0.7568 -1.1201
  156OSM    H3G17456   5.614   5.065   3.461 -0.4287 -2.2991 -0.0491
  156OSM    C4F17457   5.790   5.124   3.584  0.4925  0.2386 -0.8045
  156OSM    H4F17458   5.797   5.216   3.522 -1.7832  0.7501 -0.3867
  156OSM    H4G17459   5.891   5.088   3.614  0.5963  0.9315 -0.3080
  156OSM    C5F17460   5.700   5.150   3.703 -0.6163  0.0759  0.5176
  156OSM    H5F17461   5.647   5.064   3.749  0.5858  0.2977  2.4375
  156OSM    H5G17462   5.628   5.230   3.676  0.7705  1.0475 -0.4652
  156OSM    C6F17463   5.778   5.198   3.822  0.0906  0.6179  0.4101
  156OSM    H6F17464   5.813   5.300   3.795 -1.6743  0.1876 -4.5691
  156OSM    H6G17465   5.872   5.142   3.841  0.4782  0.5238 -1.5782
  156OSM    C7F17466   5.698   5.200   3.952 -0.2556 -0.5019  0.2240
  156OSM    H7F17467   5.596   5.239   3.927  0.3299  0.5946 -0.5770
  156OSM    H7G17468   5.742   5.290   4.001 -0.7106 -0.2704  0.2160
  156OSM    C8F17469   5.704   5.074   4.044  0.3963  0.0492  0.5788
  156OSM    H8F17470   5.686   4.989   3.975  0.3739 -0.9403  1.7736
  156OSM    H8G17471   5.623   5.073   4.119  1.0759  0.5394  1.3367
  156OSM    C9F17472   5.844   5.078   4.104  0.6586  0.0078  0.2428
  156OSM    H9F17473   5.927   5.030   4.050 -1.8718 -0.2843 -3.8196
  156OSM   C10F17474   5.874   5.131   4.229 -0.1212 -0.2769 -0.0257
  156OSM   H10F17475   5.977   5.118   4.266  0.3120 -0.4040 -1.2348
  156OSM   C11F17476   5.771   5.188   4.324  0.3776 -0.9145  0.1283
  156OSM   H11F17477   5.667   5.165   4.294  0.5422  0.3234 -1.5215
  156OSM   H11G17478   5.769   5.299   4.322  0.5442 -0.8880  1.0497
  156OSM   C12F17479   5.782   5.141   4.470 -0.2958  0.8846  0.1662
  156OSM   H12F17480   5.874   5.180   4.517 -0.8574  1.9101  0.4414
  156OSM   H12G17481   5.787   5.030   4.480 -0.3880  0.8241 -0.4228
  156OSM   C13F17482   5.659   5.191   4.558 -0.1763  0.5904  0.5828
  156OSM   H13F17483   5.569   5.136   4.523  1.4399 -1.7181 -0.1386
  156OSM   H13G17484   5.643   5.298   4.532  0.0512  0.6794  0.7988
  156OSM   C14F17485   5.688   5.189   4.702  0.1399  0.0434 -0.2765
  156OSM   H14F17486   5.608   5.248   4.752  0.1742  0.5229 -0.7720
  156OSM   H14G17487   5.785   5.238   4.724 -0.6579  2.0759 -1.0594
  156OSM   C15F17488   5.680   5.046   4.770 -0.1304  0.3698  0.2867
  156OSM   H15F17489   5.700   5.050   4.879 -0.7994 -0.9754  0.4752
  156OSM   H15G17490   5.765   4.984   4.735  0.8937  0.6841  2.0770
  156OSM   C16F17491   5.536   4.982   4.764 -0.1705 -0.5135 -0.0689
  156OSM   H16F17492   5.535   4.884   4.817 -3.5828 -0.2575  0.6026
  156OSM   H16G17493   5.502   4.966   4.659 -0.4493  1.8116 -0.3954
  156OSM   C17F17494   5.424   5.066   4.828 -0.0566 -0.1191  0.1871
  156OSM   H17F17495   5.424   5.168   4.782 -1.6368 -0.3422 -0.3429
  156OSM   H17G17496   5.443   5.095   4.934 -1.3101  1.2856  0.0610
  156OSM   C18F17497   5.286   4.999   4.825 -0.7553 -0.7570  0.7936
  156OSM   H18F17498   5.197   5.065   4.838  0.0375  1.0962 -2.1414
  156OSM   H18G17499   5.298   4.927   4.908 -0.7360  0.4890  1.9065
  156OSM   H18H17500   5.276   4.955   4.723 -0.9768 -0.5068  0.7054
  157OSM      N17501   5.397   0.210   2.528 -0.3508 -0.2249  0.1745
  157OSM    C1517502   5.426   0.179   2.674  0.4752 -0.8375  0.1365
  157OSM   H15A17503   5.421   0.074   2.698 -2.5582 -0.2229  2.9944
  157OSM   H15B17504   5.341   0.215   2.730  0.3079  2.0155 -1.7294
  157OSM   H15C17505   5.516   0.232   2.699 -0.3650  1.4993 -1.3798
  157OSM    C1417506   5.366   0.357   2.510  0.0944 -0.0015  0.6803
  157OSM   H14A17507   5.436   0.426   2.555  0.9542  1.4406 -2.5996
  157OSM   H14B17508   5.268   0.374   2.552  1.4288  2.0273  3.2828
  157OSM   H14C17509   5.371   0.384   2.405  1.7549 -3.1521 -0.1644
  157OSM    C1317510   5.528   0.176   2.455 -0.5951 -0.0704  0.0785
  157OSM   H13A17511   5.614   0.220   2.502  0.7822 -1.9888 -0.5343
  157OSM   H13B17512   5.520   0.199   2.349 -1.0990  1.2974  0.3935
  157OSM   H13C17513   5.544   0.069   2.462  0.3124  0.1285  1.3507
  157OSM    C1217514   5.289   0.125   2.470 -0.2672  0.2488  0.4159
  157OSM   H12A17515   5.281   0.149   2.365 -0.4709 -2.4984 -0.2690
  157OSM   H12B17516   5.194   0.154   2.514 -0.5945 -0.7213  0.3781
  157OSM    C1117517   5.299  -0.031   2.485  0.5260 -0.2111  0.0713
  157OSM   H11A17518   5.398  -0.055   2.440  0.1377  0.6651 -1.3129
  157OSM   H11B17519   5.215  -0.078   2.430  0.4876 -1.8668  1.4528
  157OSM      P17520   5.150  -0.063   2.691 -0.0556 -0.5428 -0.4376
  157OSM    O1317521   5.051   0.007   2.611 -0.4609  0.4970 -0.1758
  157OSM    O1417522   5.123  -0.199   2.737  0.2987 -0.1445  0.0539
  157OSM    O1117523   5.189   0.030   2.811 -0.1338 -0.5502 -0.0695
  157OSM    O1217524   5.295  -0.069   2.623  0.6440 -0.2054 -0.2815
  157OSM    C1S17525   5.099   0.081   2.912 -0.2517  0.2912 -0.0094
  157OSM    H1S17526   4.995   0.041   2.904 -0.9427  1.3454  2.7190
  157OSM    H1T17527   5.095   0.191   2.924  2.5470  0.4396  0.1587
  157OSM     NF17528   5.054   0.082   3.154  0.4416  0.1809 -0.3287
  157OSM    HNF17529   5.063   0.172   3.197  0.0887  0.2340 -0.3598
  157OSM    C2S17530   5.148   0.044   3.052 -0.0222  0.1052  0.1736
  157OSM    H2S17531   5.161  -0.066   3.052  0.0649  0.1115  0.7537
  157OSM    C3S17532   5.288   0.108   3.070 -0.1477 -0.6413 -0.1507
  157OSM    H3S17533   5.275   0.218   3.060  0.3994 -0.3440  1.9390
  157OSM     O317534   5.383   0.088   2.967  0.5837 -0.4626  0.3338
  157OSM    HO317535   5.322   0.061   2.898  0.6935 -1.5075  0.6261
  157OSM    C4S17536   5.361   0.077   3.200  0.1579 -0.5033 -0.5848
  157OSM    H4S17537   5.367  -0.031   3.218 -1.2868 -0.8472 -1.9942
  157OSM    C5S17538   5.405   0.169   3.289  0.0140  0.1360  0.3344
  157OSM    H5S17539   5.397   0.277   3.272  0.7702  0.0924 -0.3706
  157OSM    C6S17540   5.461   0.126   3.425 -0.4473 -0.0927  0.3067
  157OSM    H6S17541   5.572   0.125   3.415 -0.6254  0.6209 -3.9563
  157OSM    H6T17542   5.437   0.023   3.457  0.2622 -0.5056 -0.4609
  157OSM    C7S17543   5.433   0.213   3.549 -0.0464  0.3579 -0.5413
  157OSM    H7S17544   5.324   0.226   3.567 -0.2763 -0.1633 -1.4575
  157OSM    H7T17545   5.487   0.309   3.534 -0.6961  0.6460 -1.1293
  157OSM    C8S17546   5.480   0.143   3.678  0.5019 -0.5197 -0.7921
  157OSM    H8S17547   5.590   0.126   3.679  0.7942  1.1144 -1.3819
  157OSM    H8T17548   5.429   0.045   3.692  0.4987 -0.2457  1.6352
  157OSM    C9S17549   5.422   0.215   3.796 -0.2173 -0.8455  0.2127
  157OSM    H9S17550   5.312   0.200   3.795 -0.3857  0.2660  0.6614
  157OSM    H9T17551   5.442   0.324   3.800 -1.6816 -0.5296 -0.6243
  157OSM   C10S17552   5.468   0.152   3.924  0.3242 -0.0611 -0.4196
  157OSM   H10S17553   5.577   0.133   3.915  0.1734 -0.4259 -1.6602
  157OSM   H10T17554   5.401   0.066   3.946  0.2235 -0.0461 -0.6710
  157OSM   C11S17555   5.444   0.225   4.054 -0.2709 -0.2252  0.0501
  157OSM   H11S17556   5.335   0.244   4.057 -0.2375  0.4537 -1.6500
  157OSM   H11T17557   5.496   0.324   4.058  1.1144 -0.8520 -1.5273
  157OSM   C12S17558   5.477   0.133   4.174 -0.4003 -0.3421 -0.4159
  157OSM   H12S17559   5.586   0.114   4.170 -0.3480  0.0800 -1.4204
  157OSM   H12T17560   5.420   0.039   4.182  0.2615 -0.6218  1.5508
  157OSM   C13S17561   5.448   0.203   4.307  0.1865 -1.7198  0.4313
  157OSM   H13S17562   5.342   0.235   4.303  0.9809  1.0504 -1.8345
  157OSM   H13T17563   5.490   0.306   4.312 -0.4250 -1.3488 -1.3604
  157OSM   C14S17564   5.493   0.123   4.424 -0.4430 -0.0675 -0.3276
  157OSM   H14S17565   5.602   0.114   4.403 -0.6758 -3.2832 -0.6649
  157OSM   H14T17566   5.446   0.022   4.424  0.1306 -0.3538 -1.1561
  157OSM   C15S17567   5.470   0.175   4.567  0.0542 -0.5068  1.0217
  157OSM   H15S17568   5.362   0.172   4.593 -0.5601  1.1128 -1.1157
  157OSM   H15T17569   5.504   0.280   4.558 -2.7522  0.3121 -2.1313
  157OSM   C16S17570   5.549   0.110   4.679 -0.0412 -0.1574  0.2937
  157OSM   H16S17571   5.523   0.002   4.689 -3.7891  0.2869 -2.3914
  157OSM   H16T17572   5.523   0.168   4.770  1.1799 -0.0588  0.5967
  157OSM   C17S17573   5.705   0.120   4.681  0.0411 -0.1657  0.2321
  157OSM   H17S17574   5.740   0.225   4.666  0.3261 -0.1454  0.9805
  157OSM   H17T17575   5.746   0.059   4.598  1.6641  0.2144  0.7079
  157OSM   C18S17576   5.766   0.065   4.814 -0.3807  0.3359  0.3153
  157OSM   H18S17577   5.707  -0.027   4.829 -0.3773  0.4764  1.2494
  157OSM   H18T17578   5.751   0.130   4.903  1.1258 -0.1711  0.9732
  157OSM   H18U17579   5.874   0.041   4.801 -0.8820 -2.4679  0.7151
  157OSM    C1F17580   4.946   0.014   3.192  0.0282 -0.6302  0.2343
  157OSM     OF17581   4.907  -0.081   3.125 -0.3713 -0.1123 -0.4134
  157OSM    C2F17582   4.890   0.052   3.320  0.5337 -0.1807  0.2087
  157OSM    H2F17583   4.871  -0.044   3.372 -0.3418 -1.2882 -2.0134
  157OSM    H2G17584   4.792   0.096   3.292  1.5347  0.7393 -2.1876
  157OSM    C3F17585   4.958   0.159   3.406 -0.3395  0.0724  0.2871
  157OSM    H3F17586   4.963   0.257   3.355  0.6376  0.0832  0.3750
  157OSM    H3G17587   5.060   0.116   3.415  0.2158  0.9853 -1.3470
  157OSM    C4F17588   4.885   0.173   3.543 -0.1775  0.7467  0.8367
  157OSM    H4F17589   4.887   0.071   3.588  0.0667  0.5869  0.4707
  157OSM    H4G17590   4.780   0.210   3.542 -0.4543  0.0440  1.9006
  157OSM    C5F17591   4.963   0.249   3.646 -0.3909 -0.0490  0.3666
  157OSM    H5F17592   5.006   0.339   3.597 -0.1652 -0.8324 -0.9355
  157OSM    H5G17593   5.045   0.185   3.683 -0.1905 -0.3335 -0.5528
  157OSM    C6F17594   4.891   0.295   3.772  0.0635  0.0042 -0.6325
  157OSM    H6F17595   4.829   0.214   3.816 -0.3837  1.0024  0.6299
  157OSM    H6G17596   4.821   0.380   3.754  0.2308  0.8403  2.2400
  157OSM    C7F17597   4.985   0.348   3.877  0.2041  0.1910 -0.0188
  157OSM    H7F17598   5.059   0.409   3.821 -0.9534  0.9752 -0.7286
  157OSM    H7G17599   5.047   0.270   3.928  0.5068  0.6753  0.3631
  157OSM    C8F17600   4.920   0.447   3.977  0.0515  0.9928  0.1360
  157OSM    H8F17601   4.831   0.504   3.943 -1.4673 -2.2046 -1.6646
  157OSM    H8G17602   4.996   0.521   4.012 -0.1047  1.0657  0.3218
  157OSM    C9F17603   4.875   0.355   4.091 -0.4789 -0.5343  0.1558
  157OSM    H9F17604   4.783   0.297   4.073  0.4079 -1.8537 -0.2416
  157OSM   C10F17605   4.932   0.338   4.209 -0.0994  0.0594  0.1389
  157OSM   H10F17606   4.873   0.283   4.285 -0.3193 -3.0636 -2.0790
  157OSM   C11F17607   5.059   0.404   4.259 -0.9145 -0.0234  0.8968
  157OSM   H11F17608   5.103   0.459   4.172  0.6081 -0.4590  1.3615
  157OSM   H11G17609   5.135   0.338   4.305  0.4755 -0.6302 -2.0070
  157OSM   C12F17610   5.040   0.508   4.372  0.2698 -0.3260 -0.0347
  157OSM   H12F17611   5.141   0.529   4.414 -0.5554 -0.1682  1.9760
  157OSM   H12G17612   4.992   0.437   4.443 -0.7952  1.0254  0.6396
  157OSM   C13F17613   4.943   0.625   4.341 -0.9924  0.3951 -0.1793
  157OSM   H13F17614   4.843   0.587   4.312 -1.8060  1.7091  0.7980
  157OSM   H13G17615   4.988   0.679   4.255 -2.2712  1.7183 -0.0527
  157OSM   C14F17616   4.935   0.726   4.456 -0.3634 -0.2261  0.0314
  157OSM   H14F17617   4.887   0.822   4.427 -2.3553 -1.1480  0.0858
  157OSM   H14G17618   5.038   0.757   4.484  0.4767 -0.6779 -2.2853
  157OSM   C15F17619   4.849   0.676   4.570  0.3816  0.4990  0.4212
  157OSM   H15F17620   4.887   0.581   4.613  2.2470  0.9353 -0.1690
  157OSM   H15G17621   4.752   0.643   4.527 -0.7183  0.0906  3.0404
  157OSM   C16F17622   4.837   0.776   4.682  0.0931  0.0349 -0.0294
  157OSM   H16F17623   4.850   0.878   4.639  1.6742  0.7457  1.9932
  157OSM   H16G17624   4.927   0.757   4.744 -1.6448 -0.9314  2.3466
  157OSM   C17F17625   4.703   0.770   4.758  0.2537 -0.3358 -0.7263
  157OSM   H17F17626   4.674   0.665   4.782  1.4379 -0.2426  1.3221
  157OSM   H17G17627   4.628   0.820   4.694 -0.9322 -0.3907  0.5794
  157OSM   C18F17628   4.704   0.850   4.894 -0.5672  0.6631 -0.0185
  157OSM   H18F17629   4.631   0.812   4.968 -1.5399  1.8119 -0.3556
  157OSM   H18G17630   4.689   0.958   4.870  1.3503  1.1763  0.8457
  157OSM   H18H17631   4.805   0.838   4.939 -0.4558  1.0363 -0.1593
  158OSM      N17632   3.075   5.082   2.610 -0.1810  0.0185  0.8140
  158OSM    C1517633   3.037   5.221   2.566 -0.0829  0.1210  0.0012
  158OSM   H15A17634   2.992   5.216   2.468 -0.6816  2.1390  0.1434
  158OSM   H15B17635   3.134   5.268   2.564  0.5923 -1.1789  0.8187
  158OSM   H15C17636   2.961   5.261   2.631  0.8974 -0.5862  1.6477
  158OSM    C1417637   2.954   4.991   2.598 -0.2416  0.6020 -0.2396
  158OSM   H14A17638   2.904   4.985   2.502 -1.4386  0.5525  0.3699
  158OSM   H14B17639   2.878   5.023   2.667  0.6887  1.0953  0.5689
  158OSM   H14C17640   2.983   4.893   2.633 -0.9428 -0.2670 -1.9427
  158OSM    C1317641   3.179   5.031   2.512  0.1787 -0.5980  0.7857
  158OSM   H13A17642   3.142   5.004   2.414  1.2303  1.3916 -0.2188
  158OSM   H13B17643   3.212   4.934   2.545  0.1438 -1.2010 -0.8396
  158OSM   H13C17644   3.265   5.095   2.507  0.2491 -0.7275 -3.3206
  158OSM    C1217645   3.133   5.086   2.752  0.0090 -0.3694 -0.0628
  158OSM   H12A17646   3.069   5.144   2.817 -2.0283 -1.4456 -1.0104
  158OSM   H12B17647   3.226   5.140   2.743  0.1095 -0.8755 -3.4320
  158OSM    C1117648   3.159   4.948   2.823  0.3247  0.3862  0.2548
  158OSM   H11A17649   3.064   4.891   2.836  0.6335 -0.3137 -0.5146
  158OSM   H11B17650   3.191   4.967   2.928 -1.9281 -0.7353  1.2152
  158OSM      P17651   3.248   4.729   2.716  0.3054 -0.5377  0.0801
  158OSM    O1317652   3.134   4.710   2.629 -0.2340  0.5228  0.4025
  158OSM    O1417653   3.377   4.683   2.668 -0.5808 -0.1106  0.0468
  158OSM    O1117654   3.223   4.644   2.848 -0.2778 -0.0185 -0.1079
  158OSM    O1217655   3.258   4.881   2.759 -0.0112 -0.2532 -0.0531
  158OSM    C1S17656   3.280   4.681   2.969  0.3926 -0.1615  0.1317
  158OSM    H1S17657   3.319   4.785   2.968  0.1051 -0.0483 -0.8188
  158OSM    H1T17658   3.376   4.628   2.982  1.0114  1.0870  0.7807
  158OSM     NF17659   3.280   4.700   3.214  0.6746 -0.3272  0.1429
  158OSM    HNF17660   3.325   4.624   3.260  0.0811  0.7412  2.5910
  158OSM    C2S17661   3.204   4.651   3.098  0.7899  0.3640  0.2106
  158OSM    H2S17662   3.109   4.709   3.096  0.3025 -0.4390 -0.3955
  158OSM    C3S17663   3.163   4.506   3.101  0.1226  0.2992 -0.8098
  158OSM    H3S17664   3.257   4.448   3.107 -1.1937 -1.8057  1.6573
  158OSM     O317665   3.112   4.460   2.975 -0.1752  0.1339 -0.2722
  158OSM    HO317666   3.143   4.520   2.907 -1.3625  0.6663 -0.3662
  158OSM    C4S17667   3.084   4.464   3.219 -0.4966 -0.0400 -0.7386
  158OSM    H4S17668   3.146   4.440   3.306  1.3143  0.1524 -1.9179
  158OSM    C5S17669   2.950   4.447   3.226 -0.4564 -0.2039 -0.1180
  158OSM    H5S17670   2.886   4.444   3.136 -0.3928  0.6888 -0.1995
  158OSM    C6S17671   2.893   4.385   3.348  0.0712 -0.3271  0.0508
  158OSM    H6S17672   2.919   4.277   3.346 -0.6123 -0.5276  1.1578
  158OSM    H6T17673   2.783   4.381   3.332 -0.0370  0.5585  0.4717
  158OSM    C7S17674   2.921   4.463   3.472  0.6032  0.5368  1.1127
  158OSM    H7S17675   2.894   4.570   3.460  0.7234  0.4056 -0.5463
  158OSM    H7T17676   3.031   4.458   3.488  0.5729 -1.9323  0.9375
  158OSM    C8S17677   2.836   4.413   3.589  0.0010 -0.2608  0.0699
  158OSM    H8S17678   2.820   4.303   3.583  0.1853 -0.3960  1.6061
  158OSM    H8T17679   2.737   4.463   3.582 -0.4361 -1.1219 -0.0068
  158OSM    C9S17680   2.890   4.436   3.732  0.3120 -0.4160  0.1693
  158OSM    H9S17681   2.913   4.544   3.746  0.2099 -0.0875 -1.8446
  158OSM    H9T17682   2.987   4.382   3.730  1.6440  1.8554 -1.3653
  158OSM   C10S17683   2.808   4.370   3.838 -0.1947  0.5602 -0.4312
  158OSM   H10S17684   2.781   4.264   3.815 -1.2053  0.5020  0.8998
  158OSM   H10T17685   2.706   4.412   3.853 -0.3949  0.2334 -0.8527
  158OSM   C11S17686   2.873   4.367   3.978 -0.1149 -0.1145  0.0793
  158OSM   H11S17687   2.919   4.468   3.987  1.0084 -0.5956 -0.0738
  158OSM   H11T17688   2.954   4.291   3.977  0.7900  0.8140 -1.4638
  158OSM   C12S17689   2.794   4.329   4.107 -0.0012 -0.7726  0.4302
  158OSM   H12S17690   2.872   4.331   4.186  1.8258  2.3896 -1.2180
  158OSM   H12T17691   2.758   4.224   4.100  0.1815 -0.7762 -0.8177
  158OSM   C13S17692   2.691   4.438   4.156  0.0429 -0.2937  0.2570
  158OSM   H13S17693   2.596   4.431   4.098 -0.3952  1.9634  0.5876
  158OSM   H13T17694   2.732   4.540   4.140 -2.2257  0.5764 -0.4651
  158OSM   C14S17695   2.646   4.420   4.306  0.5109 -0.4278  1.1144
  158OSM   H14S17696   2.734   4.388   4.364  1.7242 -0.9983 -0.9507
  158OSM   H14T17697   2.570   4.339   4.309 -1.4913  1.2778 -0.4102
  158OSM   C15S17698   2.588   4.552   4.355 -0.1037 -0.4527  0.2057
  158OSM   H15S17699   2.537   4.605   4.272 -1.8689 -0.1205  1.4495
  158OSM   H15T17700   2.663   4.624   4.395  0.0552 -1.3450  1.5924
  158OSM   C16S17701   2.474   4.536   4.459  0.2139 -0.1128 -0.1026
  158OSM   H16S17702   2.401   4.457   4.431 -3.1954  2.9969 -0.8059
  158OSM   H16T17703   2.412   4.628   4.448 -2.1698 -1.5587  0.3445
  158OSM   C17S17704   2.512   4.537   4.610 -0.9913 -0.4395  0.6477
  158OSM   H17S17705   2.579   4.624   4.627 -1.7456  0.5172 -0.9559
  158OSM   H17T17706   2.568   4.443   4.627  1.2752  1.0448  1.9506
  158OSM   C18S17707   2.400   4.540   4.706  0.2652  0.1062 -0.1236
  158OSM   H18S17708   2.319   4.613   4.685 -1.7774 -1.1357  2.7766
  158OSM   H18T17709   2.448   4.569   4.802  1.1593  2.2572 -1.1499
  158OSM   H18U17710   2.365   4.436   4.724  2.3529 -1.2109 -2.9763
  158OSM    C1F17711   3.309   4.834   3.240 -0.6097  0.9685  0.1509
  158OSM     OF17712   3.260   4.926   3.177  0.0243  0.4076  1.0667
  158OSM    C2F17713   3.411   4.864   3.348 -0.6120  0.3539  0.2221
  158OSM    H2F17714   3.488   4.933   3.308 -1.8918  1.9759  0.4627
  158OSM    H2G17715   3.461   4.768   3.376  0.4675  1.2215  1.3938
  158OSM    C3F17716   3.336   4.934   3.460 -0.4803 -0.3074 -0.3314
  158OSM    H3F17717   3.267   5.014   3.425 -0.3401  0.7957  1.7218
  158OSM    H3G17718   3.424   4.975   3.514 -0.7577 -1.4814  1.0605
  158OSM    C4F17719   3.263   4.843   3.563  0.4809  0.2398  0.2745
  158OSM    H4F17720   3.340   4.767   3.588 -0.0007 -0.3928 -0.1298
  158OSM    H4G17721   3.182   4.782   3.518  1.9817 -0.6072 -1.3823
  158OSM    C5F17722   3.233   4.919   3.697 -0.1191  0.0778  0.2694
  158OSM    H5F17723   3.155   4.998   3.685  0.2134  0.2753 -0.6814
  158OSM    H5G17724   3.327   4.972   3.724  0.9190 -0.7362 -1.6085
  158OSM    C6F17725   3.182   4.816   3.798 -0.8515  0.5579  0.0448
  158OSM    H6F17726   3.260   4.740   3.823 -3.1427 -1.6757  0.8841
  158OSM    H6G17727   3.093   4.771   3.750 -1.4431 -0.0650  1.6565
  158OSM    C7F17728   3.155   4.880   3.931  0.3607  0.7951 -0.0176
  158OSM    H7F17729   3.101   4.974   3.908  0.6360  0.9385 -0.0815
  158OSM    H7G17730   3.255   4.906   3.972  0.2976  0.6969  0.2014
  158OSM    C8F17731   3.069   4.794   4.017  1.0271 -0.2314  0.9719
  158OSM    H8F17732   2.971   4.790   3.964  1.4652  3.3536 -0.4195
  158OSM    H8G17733   3.055   4.854   4.110  1.7342  1.4607  0.0237
  158OSM    C9F17734   3.118   4.655   4.051 -0.1357 -0.3979  0.8744
  158OSM    H9F17735   3.170   4.610   3.965 -0.1290  2.1100 -0.5654
  158OSM   C10F17736   3.100   4.600   4.169 -0.1446  0.2763 -0.1771
  158OSM   H10F17737   3.128   4.494   4.171 -0.1667  0.2746  0.1039
  158OSM   C11F17738   3.030   4.664   4.286  0.0794  0.3309 -0.5859
  158OSM   H11F17739   2.925   4.672   4.249 -0.5637  0.0304  1.0855
  158OSM   H11G17740   3.056   4.770   4.307 -1.7128  0.6385  0.3076
  158OSM   C12F17741   3.032   4.589   4.417 -0.5364 -1.1229 -0.2670
  158OSM   H12F17742   3.141   4.572   4.429 -0.5372  0.1009  1.9487
  158OSM   H12G17743   2.987   4.488   4.409 -0.7759 -1.1295  1.0578
  158OSM   C13F17744   2.968   4.667   4.538 -0.2790  0.1178 -0.7657
  158OSM   H13F17745   2.866   4.690   4.499 -0.6271  0.5378  0.3503
  158OSM   H13G17746   3.014   4.768   4.550  0.9974 -0.3025 -1.8323
  158OSM   C14F17747   2.955   4.593   4.671 -0.2194 -0.5088  0.3425
  158OSM   H14F17748   3.059   4.577   4.706 -0.2080 -1.5863 -0.1693
  158OSM   H14G17749   2.908   4.499   4.636 -2.2129  1.3582 -2.4536
  158OSM   C15F17750   2.872   4.675   4.773 -0.2738 -0.1690 -0.0780
  158OSM   H15F17751   2.771   4.689   4.729 -0.0908 -1.0369 -0.7974
  158OSM   H15G17752   2.915   4.777   4.785  0.5713 -0.5081 -0.1809
  158OSM   C16F17753   2.862   4.619   4.918  0.0563 -0.3812  0.0159
  158OSM   H16F17754   2.827   4.514   4.907  2.0780 -1.1116  0.1701
  158OSM   H16G17755   2.793   4.681   4.979  2.5030  1.3117  1.2120
  158OSM   C17F17756   2.987   4.643   5.002  0.2343  0.2653 -0.5231
  158OSM   H17F17757   3.032   4.744   4.986  0.5075  0.1137 -0.7276
  158OSM   H17G17758   3.063   4.565   4.978  1.4802  1.9497 -2.3959
  158OSM   C18F17759   2.963   4.623   5.152  0.3571  0.0889  0.2872
  158OSM   H18F17760   2.867   4.678   5.169 -1.0186 -1.4886 -1.7921
  158OSM   H18G17761   3.050   4.648   5.215 -0.2770  0.7001  0.9428
  158OSM   H18H17762   2.925   4.521   5.175 -0.6860 -0.1120 -1.9533
  159OSM      N17763   4.678   0.590   2.445  0.5584 -0.4438  1.0198
  159OSM    C1517764   4.564   0.513   2.387 -0.5648  0.3388 -0.5492
  159OSM   H15A17765   4.471   0.521   2.442  0.6193  0.4858  1.5235
  159OSM   H15B17766   4.590   0.408   2.397  0.1232  0.4466 -1.1345
  159OSM   H15C17767   4.539   0.535   2.284 -0.0099  0.3133 -0.6944
  159OSM    C1417768   4.791   0.570   2.349  0.5690  0.0922 -0.4257
  159OSM   H14A17769   4.870   0.640   2.374  1.4155 -0.4485 -1.5433
  159OSM   H14B17770   4.745   0.585   2.253  0.9021  2.2221 -0.2978
  159OSM   H14C17771   4.841   0.475   2.358  0.6186  0.2683  1.8370
  159OSM    C1317772   4.637   0.735   2.436  0.7519 -0.2524  0.2134
  159OSM   H13A17773   4.600   0.771   2.341  1.2692  0.8041  0.3984
  159OSM   H13B17774   4.721   0.800   2.456  0.5456 -0.1743  0.8652
  159OSM   H13C17775   4.567   0.754   2.516  1.8006 -3.4254  2.0604
  159OSM    C1217776   4.704   0.557   2.591 -0.1590 -0.2728 -0.3069
  159OSM   H12A17777   4.717   0.450   2.597 -1.5104 -0.3826  1.1525
  159OSM   H12B17778   4.620   0.590   2.651  0.6426  1.1834  0.0849
  159OSM    C1117779   4.840   0.622   2.644  0.5280 -0.1730 -0.0091
  159OSM   H11A17780   4.845   0.615   2.755 -0.5638 -0.8028  0.0060
  159OSM   H11B17781   4.827   0.729   2.620  0.1108 -0.1154  0.4522
  159OSM      P17782   4.989   0.405   2.634  0.0997 -0.0025  0.3112
  159OSM    O1317783   4.878   0.343   2.702  0.0560 -0.3395  0.2357
  159OSM    O1417784   5.037   0.350   2.508 -0.0896  0.2946 -0.0755
  159OSM    O1117785   5.111   0.440   2.727  0.1658  0.0897  0.7180
  159OSM    O1217786   4.950   0.554   2.590 -0.1313 -0.2494 -0.5371
  159OSM    C1S17787   5.092   0.517   2.850  0.1652 -0.4510 -0.3857
  159OSM    H1S17788   5.006   0.470   2.901 -1.7513  2.1910 -0.9967
  159OSM    H1T17789   5.055   0.619   2.826 -1.0902 -0.7388  0.2643
  159OSM     NF17790   5.193   0.562   3.084 -0.0551 -0.2962  0.2878
  159OSM    HNF17791   5.253   0.626   3.131 -1.3131  0.8545  0.3831
  159OSM    C2S17792   5.223   0.514   2.947  0.4199  0.0686  0.2227
  159OSM    H2S17793   5.245   0.406   2.957  1.5249  0.2811  0.2558
  159OSM    C3S17794   5.342   0.576   2.879  0.0093  0.7012  0.3643
  159OSM    H3S17795   5.308   0.681   2.867  0.9178  0.7748 -1.9918
  159OSM     O317796   5.371   0.516   2.751 -0.1687 -0.4186 -0.0601
  159OSM    HO317797   5.290   0.470   2.729 -0.5623  0.2477 -0.0183
  159OSM    C4S17798   5.461   0.560   2.966  0.2216  0.0990  0.1207
  159OSM    H4S17799   5.499   0.460   2.991  1.6376  0.7055  0.5233
  159OSM    C5S17800   5.521   0.670   3.016 -0.0163 -0.1471 -0.5383
  159OSM    H5S17801   5.494   0.768   2.974 -2.0680 -1.5968 -2.8383
  159OSM    C6S17802   5.651   0.667   3.102  0.1007  0.1829  0.5515
  159OSM    H6S17803   5.659   0.758   3.165  2.5594  1.8727 -1.9411
  159OSM    H6T17804   5.746   0.666   3.044  0.7750 -0.1524  1.6268
  159OSM    C7S17805   5.654   0.538   3.190  0.1373 -0.1100  0.2355
  159OSM    H7S17806   5.676   0.448   3.128  0.0581  1.3312 -1.9544
  159OSM    H7T17807   5.549   0.517   3.221 -0.8202  0.0823 -2.6352
  159OSM    C8S17808   5.739   0.540   3.318 -0.3499  0.5236  0.3914
  159OSM    H8S17809   5.748   0.644   3.355 -0.9343  0.3166  1.1668
  159OSM    H8T17810   5.839   0.493   3.311  1.1253  3.1604  2.1871
  159OSM    C9S17811   5.668   0.466   3.432  0.3798 -0.1072 -0.9746
  159OSM    H9S17812   5.674   0.355   3.438  0.1767 -0.0660  0.2118
  159OSM    H9T17813   5.560   0.489   3.418  0.6048  0.0868 -2.5442
  159OSM   C10S17814   5.730   0.523   3.567 -0.0998 -0.1316  0.5940
  159OSM   H10S17815   5.697   0.628   3.583 -1.0502 -0.0535 -1.5432
  159OSM   H10T17816   5.839   0.504   3.557 -0.1324  0.1271 -0.3533
  159OSM   C11S17817   5.689   0.447   3.694 -0.4075 -1.2840 -0.8394
  159OSM   H11S17818   5.692   0.336   3.687  1.8295 -1.2588 -0.8526
  159OSM   H11T17819   5.586   0.480   3.722  0.2870  0.1471  0.1185
  159OSM   C12S17820   5.786   0.488   3.812  1.2461  0.5806 -0.4047
  159OSM   H12S17821   5.809   0.596   3.812  2.3129  0.3805 -1.7903
  159OSM   H12T17822   5.879   0.429   3.795 -0.5464 -1.6696 -3.5286
  159OSM   C13S17823   5.720   0.448   3.945 -0.5526 -0.1025  0.3856
  159OSM   H13S17824   5.697   0.339   3.943 -2.6810  0.3107 -2.5051
  159OSM   H13T17825   5.619   0.492   3.950 -0.7949 -0.5284 -0.5756
  159OSM   C14S17826   5.797   0.488   4.078  0.7298  0.0940  0.0483
  159OSM   H14S17827   5.810   0.598   4.067  1.4059 -0.0462 -0.6577
  159OSM   H14T17828   5.896   0.437   4.082  1.5715  1.6802  0.2449
  159OSM   C15S17829   5.724   0.458   4.207 -0.4073 -0.5861  1.3334
  159OSM   H15S17830   5.699   0.350   4.213 -0.0462 -0.7798 -0.3628
  159OSM   H15T17831   5.628   0.511   4.221 -0.5133  0.2677 -1.8504
  159OSM   C16S17832   5.813   0.483   4.330  0.6840  0.0455  0.2116
  159OSM   H16S17833   5.853   0.586   4.332  1.2659 -0.0983 -1.6763
  159OSM   H16T17834   5.898   0.411   4.332  0.6743 -0.1210 -1.9755
  159OSM   C17S17835   5.747   0.479   4.466  0.3649 -0.0418  0.3201
  159OSM   H17S17836   5.696   0.383   4.487 -1.2562 -0.1787 -3.4429
  159OSM   H17T17837   5.659   0.546   4.461 -0.1422 -0.6890  0.5287
  159OSM   C18S17838   5.839   0.514   4.584  0.2333 -0.6274 -0.0675
  159OSM   H18S17839   5.920   0.439   4.581  0.0008 -0.9822  1.6712
  159OSM   H18T17840   5.793   0.505   4.685  1.6463 -0.8043  0.5786
  159OSM   H18U17841   5.876   0.617   4.566 -2.0408  0.0637 -1.2468
  159OSM    C1F17842   5.100   0.505   3.155  0.3004  0.0708 -0.2792
  159OSM     OF17843   5.053   0.397   3.127 -0.6398  0.2599 -0.1378
  159OSM    C2F17844   5.059   0.583   3.277 -0.3149 -0.1388 -0.1851
  159OSM    H2F17845   4.952   0.566   3.301 -0.6353 -0.4619 -1.7516
  159OSM    H2G17846   5.077   0.690   3.252 -0.6275 -0.1959 -0.6636
  159OSM    C3F17847   5.157   0.542   3.397  0.0263  0.4390 -0.2882
  159OSM    H3F17848   5.257   0.565   3.354  0.5216 -1.2947 -0.1472
  159OSM    H3G17849   5.141   0.433   3.417  1.1540  0.2936 -0.0492
  159OSM    C4F17850   5.133   0.611   3.527  0.2003  0.2160  0.0505
  159OSM    H4F17851   5.039   0.576   3.574  0.2566 -1.1999 -0.8316
  159OSM    H4G17852   5.112   0.718   3.506 -0.2597  0.4322  1.4901
  159OSM    C5F17853   5.247   0.596   3.627 -0.3005 -0.3513  0.1120
  159OSM    H5F17854   5.341   0.645   3.593  0.9840 -1.4501  1.9190
  159OSM    H5G17855   5.266   0.489   3.646  0.0972 -0.2514  0.2847
  159OSM    C6F17856   5.221   0.672   3.759 -0.3444  0.3535  0.0461
  159OSM    H6F17857   5.149   0.617   3.823 -1.1204  0.8527 -0.3811
  159OSM    H6G17858   5.178   0.769   3.725  0.6801 -0.0944 -2.7774
  159OSM    C7F17859   5.349   0.695   3.848 -0.8805 -0.3756 -0.0329
  159OSM    H7F17860   5.432   0.741   3.789 -1.6881 -0.1897 -1.0637
  159OSM    H7G17861   5.382   0.593   3.877 -0.0001 -0.3352 -0.8224
  159OSM    C8F17862   5.304   0.767   3.971 -0.5237 -0.2407 -1.3942
  159OSM    H8F17863   5.217   0.714   4.015 -1.3315  0.3865 -2.1996
  159OSM    H8G17864   5.261   0.869   3.967 -1.1721 -0.3391  1.2291
  159OSM    C9F17865   5.414   0.762   4.076 -0.4803 -0.0671 -0.5401
  159OSM    H9F17866   5.511   0.725   4.039 -0.5383 -0.6448 -0.1341
  159OSM   C10F17867   5.402   0.782   4.205  0.4513  0.1111 -0.9706
  159OSM   H10F17868   5.493   0.774   4.266  0.0369  1.9179 -0.0256
  159OSM   C11F17869   5.280   0.832   4.277  0.4206  0.2790  0.5403
  159OSM   H11F17870   5.213   0.745   4.295 -0.6199  1.1802  1.1706
  159OSM   H11G17871   5.227   0.902   4.210 -0.0166  1.7362  2.3172
  159OSM   C12F17872   5.319   0.898   4.411  1.1532 -0.6421 -0.2329
  159OSM   H12F17873   5.219   0.923   4.453  0.5240 -0.5519 -1.7296
  159OSM   H12G17874   5.381   0.990   4.399  2.9834 -1.5585  1.6404
  159OSM   C13F17875   5.394   0.813   4.522  0.0063 -0.3275  0.4303
  159OSM   H13F17876   5.376   0.877   4.612 -2.3234  1.4288 -1.1588
  159OSM   H13G17877   5.504   0.801   4.512  0.3280  1.5198  1.3272
  159OSM   C14F17878   5.318   0.682   4.572  0.1058  0.1132  0.3158
  159OSM   H14F17879   5.337   0.606   4.493 -1.9328  1.1789 -1.3316
  159OSM   H14G17880   5.209   0.704   4.582 -0.5624 -2.2884 -0.8961
  159OSM   C15F17881   5.376   0.636   4.704  0.5974 -0.2575 -0.5723
  159OSM   H15F17882   5.382   0.723   4.773  1.7796 -1.1926  0.5581
  159OSM   H15G17883   5.479   0.597   4.691  0.2652 -1.9747  1.2643
  159OSM   C16F17884   5.289   0.526   4.764  0.7975  0.3982 -0.6799
  159OSM   H16F17885   5.251   0.464   4.679  1.3549  0.1011 -0.7128
  159OSM   H16G17886   5.197   0.566   4.812 -0.4205 -1.6645 -1.1167
  159OSM   C17F17887   5.366   0.442   4.870  0.6498  0.3646 -0.5680
  159OSM   H17F17888   5.468   0.422   4.830  1.3698  0.2683  1.2589
  159OSM   H17G17889   5.316   0.345   4.892  3.7954 -0.8729  1.9503
  159OSM   C18F17890   5.388   0.510   5.007  0.5320  0.3943 -0.3887
  159OSM   H18F17891   5.288   0.551   5.036 -0.6667 -2.0643 -0.7952
  159OSM   H18G17892   5.472   0.582   4.993  0.3461  0.4764 -1.1079
  159OSM   H18H17893   5.408   0.442   5.092 -1.4170 -0.4336 -0.5361
  160OSM      N17894   3.461   6.618   2.858 -0.2581  0.4122  0.1916
  160OSM    C1517895   3.356   6.678   2.931  0.0948  0.3807 -0.1264
  160OSM   H15A17896   3.316   6.605   3.000 -0.4552  1.0136  0.2441
  160OSM   H15B17897   3.279   6.724   2.872 -0.1556  0.0956 -0.0249
  160OSM   H15C17898   3.395   6.762   2.988  1.1591 -1.5285  2.1151
  160OSM    C1417899   3.409   6.514   2.763 -0.0983 -0.3189  0.5000
  160OSM   H14A17900   3.361   6.434   2.816 -0.5535 -0.0298  0.5245
  160OSM   H14B17901   3.482   6.480   2.690 -2.7074 -1.7013 -1.6264
  160OSM   H14C17902   3.327   6.560   2.710 -0.7782 -1.1009  0.8553
  160OSM    C1317903   3.534   6.736   2.783 -0.6765  0.0892  0.0199
  160OSM   H13A17904   3.470   6.764   2.701  1.5224  0.2375 -1.7212
  160OSM   H13B17905   3.634   6.710   2.754 -0.0407  0.3867  1.7931
  160OSM   H13C17906   3.530   6.813   2.859  0.6218  1.4017 -1.1785
  160OSM    C1217907   3.555   6.565   2.954 -0.4324  0.0723  0.2440
  160OSM   H12A17908   3.612   6.647   2.996  0.2931  0.8089 -2.0250
  160OSM   H12B17909   3.625   6.500   2.904 -1.0270 -1.6916  1.6228
  160OSM    C1117910   3.503   6.483   3.078 -0.3332 -0.2070 -0.2556
  160OSM   H11A17911   3.435   6.541   3.144  0.9103  1.8861 -0.7092
  160OSM   H11B17912   3.596   6.469   3.137 -1.2031 -0.8025  1.0091
  160OSM      P17913   3.522   6.225   3.035 -0.1513 -0.3335 -0.3763
  160OSM    O1317914   3.433   6.113   2.995  0.2541  0.7165 -0.1220
  160OSM    O1417915   3.640   6.242   2.943  0.0803  0.9273 -0.0462
  160OSM    O1117916   3.571   6.199   3.183 -0.0850 -0.3984 -0.1003
  160OSM    O1217917   3.437   6.359   3.048 -0.0588 -0.3610 -0.5483
  160OSM    C1S17918   3.485   6.244   3.293  0.2058 -0.4293 -0.2168
  160OSM    H1S17919   3.419   6.333   3.280  0.8334  0.6553  3.0774
  160OSM    H1T17920   3.549   6.273   3.379 -1.6999  2.1922  0.4684
  160OSM     NF17921   3.364   6.170   3.487 -0.3505  0.0660 -0.5826
  160OSM    HNF17922   3.420   6.147   3.566 -0.0504 -1.8707 -1.2983
  160OSM    C2S17923   3.420   6.122   3.364  0.6009  0.4976  0.4838
  160OSM    H2S17924   3.336   6.081   3.302  1.1119 -1.3804  0.9664
  160OSM    C3S17925   3.515   5.996   3.368  0.5390  0.2145 -0.4961
  160OSM    H3S17926   3.614   6.036   3.398 -0.0999  1.7908 -0.3758
  160OSM     O317927   3.532   5.930   3.240 -0.0646  0.8662  0.5339
  160OSM    HO317928   3.495   5.992   3.177 -1.9427 -0.3820  0.3338
  160OSM    C4S17929   3.458   5.886   3.462 -0.3348  0.0694 -0.2247
  160OSM    H4S17930   3.381   5.824   3.413 -1.3683 -0.9353  2.5112
  160OSM    C5S17931   3.504   5.850   3.585  0.1374 -0.2572 -0.3367
  160OSM    H5S17932   3.595   5.899   3.621  0.8612 -0.7707 -1.4199
  160OSM    C6S17933   3.454   5.723   3.652  0.2600  0.5604  0.0847
  160OSM    H6S17934   3.393   5.752   3.740  0.4273  2.9059 -0.5254
  160OSM    H6T17935   3.535   5.659   3.693 -0.7047 -2.2793 -2.1284
  160OSM    C7S17936   3.367   5.613   3.587  0.9384  0.1532 -0.3432
  160OSM    H7S17937   3.392   5.589   3.481  0.5589  0.0724 -0.4189
  160OSM    H7T17938   3.263   5.650   3.599  0.9369 -0.2595  1.1002
  160OSM    C8S17939   3.373   5.473   3.656  0.0652 -0.3766  0.6323
  160OSM    H8S17940   3.471   5.423   3.645  0.7057  0.9366  0.1548
  160OSM    H8T17941   3.301   5.405   3.605 -0.9870  1.8231 -0.9544
  160OSM    C9S17942   3.322   5.470   3.809 -0.1999 -0.6849  0.4254
  160OSM    H9S17943   3.229   5.532   3.809 -0.2541 -0.7457  1.3881
  160OSM    H9T17944   3.404   5.511   3.872 -0.1884  0.0524 -0.0478
  160OSM   C10S17945   3.300   5.331   3.856  0.2425 -0.2659 -0.0971
  160OSM   H10S17946   3.382   5.266   3.819  1.7027 -0.1120  2.6179
  160OSM   H10T17947   3.206   5.294   3.809  0.1624 -0.3276  0.1103
  160OSM   C11S17948   3.307   5.307   4.004 -0.6759 -1.0534  0.0402
  160OSM   H11S17949   3.384   5.370   4.052 -0.3021 -2.4067  1.2781
  160OSM   H11T17950   3.347   5.205   4.024 -0.5917 -0.8575  0.9061
  160OSM   C12S17951   3.177   5.343   4.077  0.2879 -0.3129  0.6152
  160OSM   H12S17952   3.100   5.291   4.015 -1.6178  1.3978  1.4548
  160OSM   H12T17953   3.158   5.451   4.094 -1.3970 -0.5994  0.6942
  160OSM   C13S17954   3.186   5.281   4.216  0.0396 -0.3522 -0.1755
  160OSM   H13S17955   3.266   5.340   4.266 -1.0803 -0.3147  1.6202
  160OSM   H13T17956   3.208   5.173   4.202 -0.9142 -0.5507 -0.2137
  160OSM   C14S17957   3.058   5.296   4.295 -0.3978  0.2713 -0.2290
  160OSM   H14S17958   2.972   5.260   4.235 -0.0215  0.0735 -0.6581
  160OSM   H14T17959   3.064   5.406   4.311  0.6120  0.3073 -0.7436
  160OSM   C15S17960   3.066   5.217   4.429  1.0001  0.0906  0.0438
  160OSM   H15S17961   3.162   5.229   4.483  1.7420 -0.5872 -1.0844
  160OSM   H15T17962   3.056   5.110   4.403 -0.1781  0.0901  0.4446
  160OSM   C16S17963   2.945   5.256   4.517 -0.0157  0.4579 -0.0198
  160OSM   H16S17964   2.860   5.199   4.475 -0.9604  0.1383  2.1918
  160OSM   H16T17965   2.920   5.363   4.505 -1.1739  0.3049  0.8184
  160OSM   C17S17966   2.964   5.225   4.668  0.3906 -0.0584  0.1867
  160OSM   H17S17967   3.050   5.278   4.714 -0.1330  0.8134  0.1895
  160OSM   H17T17968   2.972   5.115   4.684  0.8534 -0.0102  0.2954
  160OSM   C18S17969   2.840   5.263   4.747 -0.0801  0.4502 -0.2554
  160OSM   H18S17970   2.833   5.374   4.749 -2.3114  0.3686 -0.9196
  160OSM   H18T17971   2.850   5.223   4.850  0.5364 -1.7149 -1.1077
  160OSM   H18U17972   2.745   5.233   4.698 -0.4188  0.8881  0.1215
  160OSM    C1F17973   3.262   6.255   3.499 -0.4776  0.3455  0.1604
  160OSM     OF17974   3.209   6.317   3.404 -0.0448  0.2842  0.1989
  160OSM    C2F17975   3.243   6.299   3.641  0.3965  0.2195 -0.5916
  160OSM    H2F17976   3.339   6.301   3.697  0.1341  0.9732 -0.1582
  160OSM    H2G17977   3.195   6.215   3.695  1.1982  0.7245  0.9694
  160OSM    C3F17978   3.168   6.432   3.653 -0.1526  0.3984  0.5451
  160OSM    H3F17979   3.069   6.420   3.605  0.1338  0.2244 -0.0154
  160OSM    H3G17980   3.224   6.506   3.591 -1.8090  0.9892 -0.3197
  160OSM    C4F17981   3.145   6.472   3.801 -0.1760 -0.2161 -0.4069
  160OSM    H4F17982   3.087   6.567   3.804 -0.0463 -0.1584  0.8061
  160OSM    H4G17983   3.249   6.491   3.837 -0.2277  1.7747 -1.2158
  160OSM    C5F17984   3.085   6.372   3.899  0.4748 -0.3493 -0.2976
  160OSM    H5F17985   3.081   6.267   3.862 -0.9977 -0.8769  1.2077
  160OSM    H5G17986   2.978   6.393   3.876  0.5479  0.9181  0.4294
  160OSM    C6F17987   3.119   6.395   4.053  0.0219  0.3921  1.1004
  160OSM    H6F17988   3.129   6.504   4.072  1.8056  0.0630  2.2515
  160OSM    H6G17989   3.219   6.350   4.075  0.5007 -0.4320 -2.1703
  160OSM    C7F17990   3.023   6.336   4.158  0.0284  1.1561  0.3519
  160OSM    H7F17991   2.993   6.233   4.129  1.9414  0.4817  0.6027
  160OSM    H7G17992   2.933   6.400   4.146  0.9995  2.2188 -2.2301
  160OSM    C8F17993   3.075   6.334   4.299  0.6197 -0.0013 -0.0718
  160OSM    H8F17994   2.995   6.329   4.376 -1.8383  1.7894 -2.3134
  160OSM    H8G17995   3.106   6.439   4.317 -0.1390  0.0644  0.9612
  160OSM    C9F17996   3.191   6.238   4.330 -0.4919 -0.1129  0.2017
  160OSM    H9F17997   3.235   6.187   4.244 -3.7138  1.3851 -2.5624
  160OSM   C10F17998   3.246   6.221   4.449  0.5107  0.0380  0.3067
  160OSM   H10F17999   3.323   6.145   4.466 -0.5157 -0.8234  1.3000
  160OSM   C11F18000   3.192   6.287   4.578  0.2018 -0.2646  0.0253
  160OSM   H11F18001   3.152   6.202   4.637 -2.7888  0.8582 -0.1940
  160OSM   H11G18002   3.098   6.345   4.569 -1.0733 -2.4724 -2.2233
  160OSM   C12F18003   3.295   6.354   4.664  0.2593  0.2449 -0.8064
  160OSM   H12F18004   3.235   6.384   4.752  0.8944  1.3064 -0.7125
  160OSM   H12G18005   3.344   6.446   4.623  0.5318  1.6177  2.3455
  160OSM   C13F18006   3.409   6.256   4.706  0.5098 -0.8225  0.8749
  160OSM   H13F18007   3.484   6.246   4.624  0.6863 -1.6968  1.1318
  160OSM   H13G18008   3.369   6.153   4.711 -1.2058 -0.3084 -1.0622
  160OSM   C14F18009   3.492   6.323   4.821 -0.1923  0.4043 -0.1269
  160OSM   H14F18010   3.424   6.350   4.905 -2.0545  1.3526 -1.8729
  160OSM   H14G18011   3.555   6.401   4.773  2.5359 -1.4628  0.1480
  160OSM   C15F18012   3.582   6.220   4.890  0.0212  0.1382  0.3801
  160OSM   H15F18013   3.634   6.158   4.813 -1.4156 -0.0665 -0.4596
  160OSM   H15G18014   3.515   6.154   4.950 -2.0460  0.4663 -1.4489
  160OSM   C16F18015   3.678   6.298   4.984 -0.4546  0.0777  0.6931
  160OSM   H16F18016   3.627   6.355   5.065 -0.0194  1.5207 -0.0150
  160OSM   H16G18017   3.717   6.383   4.923 -1.7632  0.1555 -0.0559
  160OSM   C17F18018   3.778   6.214   5.059  0.0333  0.1400 -0.1295
  160OSM   H17F18019   3.833   6.282   5.128  0.7726  0.7423 -1.2736
  160OSM   H17G18020   3.859   6.184   4.989  0.8192  3.3128 -0.7630
  160OSM   C18F18021   3.725   6.083   5.114 -0.0395  0.4281 -0.1934
  160OSM   H18F18022   3.799   6.022   5.170  0.8360  2.0939  0.5365
  160OSM   H18G18023   3.699   6.009   5.035  2.4171 -0.6974 -0.0517
  160OSM   H18H18024   3.634   6.113   5.170 -0.2504  1.5692 -1.1304
  161OSM      N18025   5.968   5.143   2.794 -0.1634  0.3534  0.2878
  161OSM    C1518026   6.114   5.178   2.818 -0.9336  0.3172 -0.2730
  161OSM   H15A18027   6.148   5.231   2.731  0.4853 -1.9582 -1.2092
  161OSM   H15B18028   6.169   5.086   2.831 -2.3559 -0.4944  0.2704
  161OSM   H15C18029   6.126   5.229   2.913  1.4695  0.5210 -0.6272
  161OSM    C1418030   5.957   5.045   2.678 -0.4054  0.1646 -0.2017
  161OSM   H14A18031   5.859   4.998   2.682  0.1367 -0.9088  1.3327
  161OSM   H14B18032   6.032   4.969   2.694  1.2656  1.8136  0.0415
  161OSM   H14C18033   5.972   5.086   2.579  0.1661  1.7509  0.5096
  161OSM    C1318034   5.916   5.069   2.913  0.4856  0.7645 -0.5269
  161OSM   H13A18035   5.812   5.044   2.899  0.2881  1.9234 -1.3183
  161OSM   H13B18036   5.915   5.127   3.005 -0.4536  3.6921 -2.2358
  161OSM   H13C18037   5.979   4.983   2.928 -1.6612 -0.7875  0.0775
  161OSM    C1218038   5.886   5.268   2.763  0.4377 -0.2457  0.0658
  161OSM   H12A18039   5.889   5.340   2.844  0.6426  0.3357 -0.4583
  161OSM   H12B18040   5.782   5.239   2.764 -0.0205  0.9931 -2.9156
  161OSM    C1118041   5.902   5.345   2.625 -0.9020 -0.9391 -0.8022
  161OSM   H11A18042   5.819   5.418   2.618  0.5340  1.1264  1.9413
  161OSM   H11B18043   5.897   5.277   2.537 -0.2858 -2.6965  0.4625
  161OSM      P18044   6.030   5.551   2.703 -0.1730 -0.5352 -0.0666
  161OSM    O1318045   6.052   5.664   2.611  0.0397  0.0141 -0.2435
  161OSM    O1418046   5.911   5.562   2.794 -0.1030 -0.5974 -0.1234
  161OSM    O1118047   6.157   5.533   2.802  0.7763  0.7696  0.2716
  161OSM    O1218048   6.027   5.415   2.623  0.0856  0.1176 -0.0292
  161OSM    C1S18049   6.232   5.649   2.860 -0.6438 -0.3164 -0.6326
  161OSM    H1S18050   6.194   5.744   2.818 -0.6601 -0.6107 -1.3021
  161OSM    H1T18051   6.341   5.649   2.840 -0.5713 -1.2194 -0.2619
  161OSM     NF18052   6.301   5.764   3.059  0.8620 -0.0057  0.1421
  161OSM    HNF18053   6.370   5.733   3.123  1.6213 -0.1271 -0.7175
  161OSM    C2S18054   6.214   5.662   3.013 -0.3987 -0.1056 -0.2372
  161OSM    H2S18055   6.110   5.691   3.040 -0.5393 -0.6241 -0.2158
  161OSM    C3S18056   6.243   5.521   3.087 -0.1151  0.0591  0.0347
  161OSM    H3S18057   6.349   5.493   3.072 -0.0814 -0.1087  0.5700
  161OSM     O318058   6.172   5.409   3.038 -0.0533  0.4774 -0.4696
  161OSM    HO318059   6.129   5.452   2.963 -1.5515  1.9331  1.1479
  161OSM    C4S18060   6.232   5.535   3.234 -0.4044 -0.5569  0.0086
  161OSM    H4S18061   6.336   5.533   3.271 -0.5460 -1.6565  0.3897
  161OSM    C5S18062   6.123   5.532   3.311  0.4306 -0.4417 -0.0781
  161OSM    H5S18063   6.024   5.518   3.264  0.8750 -2.4607 -0.5346
  161OSM    C6S18064   6.118   5.552   3.460 -0.2444  0.0048 -0.0190
  161OSM    H6S18065   6.105   5.449   3.498 -0.2727 -0.3595 -0.9728
  161OSM    H6T18066   6.034   5.619   3.490 -1.1620 -1.5873  1.0964
  161OSM    C7S18067   6.240   5.616   3.542  0.5943 -0.3754  0.8370
  161OSM    H7S18068   6.269   5.711   3.494 -2.7990 -0.4094 -1.7151
  161OSM    H7T18069   6.316   5.536   3.534 -1.5266 -2.5490  1.0422
  161OSM    C8S18070   6.208   5.642   3.690  0.4293  0.2031  0.3675
  161OSM    H8S18071   6.131   5.722   3.693 -0.2465 -0.2978 -2.0674
  161OSM    H8T18072   6.301   5.669   3.746  1.4320  0.4902 -1.3657
  161OSM    C9S18073   6.154   5.520   3.769 -0.0121 -0.6855 -0.0742
  161OSM    H9S18074   6.231   5.440   3.773  1.6252  0.8424  0.2481
  161OSM    H9T18075   6.064   5.483   3.716  1.1383 -2.3297 -0.9698
  161OSM   C10S18076   6.125   5.560   3.917  0.2593  0.0704  0.5929
  161OSM   H10S18077   6.067   5.655   3.920  0.2583  0.2314 -2.2039
  161OSM   H10T18078   6.213   5.570   3.984  0.0174  0.4720  0.8545
  161OSM   C11S18079   6.035   5.449   3.984 -0.2207 -0.1405 -0.4216
  161OSM   H11S18080   6.077   5.350   3.957  0.1987  0.0905 -0.6240
  161OSM   H11T18081   5.930   5.464   3.950  0.1018  0.2447 -1.2821
  161OSM   C12S18082   6.046   5.455   4.135 -0.2665  0.2135 -0.4954
  161OSM   H12S18083   6.156   5.449   4.149 -0.3110 -1.9449 -0.8650
  161OSM   H12T18084   6.006   5.360   4.175  2.9061 -1.6625 -1.4956
  161OSM   C13S18085   5.966   5.573   4.207 -0.1122  0.0979  0.3351
  161OSM   H13S18086   5.856   5.569   4.190 -0.0415  0.4590 -0.2502
  161OSM   H13T18087   6.007   5.667   4.166 -1.1579  1.4958  2.3518
  161OSM   C14S18088   6.001   5.572   4.360 -0.2216 -0.3326  0.2537
  161OSM   H14S18089   6.109   5.586   4.384  0.1090 -1.8870 -0.1935
  161OSM   H14T18090   5.977   5.469   4.394  0.0163 -0.4752  0.0005
  161OSM   C15S18091   5.910   5.666   4.443 -0.4768 -0.9673 -0.8923
  161OSM   H15S18092   5.805   5.654   4.407 -0.8711  0.9810 -0.4823
  161OSM   H15T18093   5.944   5.771   4.441 -0.9787 -0.7481  0.7475
  161OSM   C16S18094   5.911   5.619   4.588 -0.3878  0.5429  0.0102
  161OSM   H16S18095   5.858   5.521   4.593  1.7048 -0.7472 -1.3539
  161OSM   H16T18096   5.842   5.686   4.644  0.8169  2.0078 -0.1959
  161OSM   C17S18097   6.045   5.600   4.665  0.0272 -0.3052 -0.0496
  161OSM   H17S18098   6.089   5.701   4.681  0.5764 -0.5715  0.1390
  161OSM   H17T18099   6.112   5.546   4.595  0.6858 -0.5011  0.7249
  161OSM   C18S18100   6.027   5.505   4.784  0.1629  0.4348 -0.5037
  161OSM   H18S18101   6.118   5.509   4.848  0.7742  0.0106 -1.3292
  161OSM   H18T18102   6.004   5.403   4.748  1.4335  0.6140 -1.8946
  161OSM   H18U18103   5.944   5.542   4.849  1.7946  0.5597  1.6100
  161OSM    C1F18104   6.265   5.893   3.039 -0.4474  0.4611 -0.3519
  161OSM     OF18105   6.157   5.923   2.987  0.2529  0.2566  0.0699
  161OSM    C2F18106   6.365   5.998   3.083 -0.2126  0.1324  0.2746
  161OSM    H2F18107   6.425   6.025   2.993 -1.5033 -1.4527 -1.1425
  161OSM    H2G18108   6.443   5.956   3.151  0.8678  0.7803 -0.5300
  161OSM    C3F18109   6.293   6.129   3.145  0.4307 -0.2713  0.2192
  161OSM    H3F18110   6.227   6.186   3.075  0.9763  0.5530  0.3570
  161OSM    H3G18111   6.381   6.196   3.160 -0.6573  1.3868 -0.4105
  161OSM    C4F18112   6.227   6.120   3.284  0.8729  0.0096  0.0573
  161OSM    H4F18113   6.156   6.034   3.286  1.4375 -0.4712 -0.4534
  161OSM    H4G18114   6.172   6.214   3.306  1.7154  0.2246  1.3351
  161OSM    C5F18115   6.332   6.092   3.393  0.0674 -0.1451  0.0500
  161OSM    H5F18116   6.398   6.181   3.390  1.1440 -0.8378  1.7404
  161OSM    H5G18117   6.380   5.999   3.356 -0.3321  0.0916 -1.1127
  161OSM    C6F18118   6.286   6.078   3.539 -0.2796  0.7994 -0.0506
  161OSM    H6F18119   6.189   6.025   3.550  0.4869 -0.4860  0.7226
  161OSM    H6G18120   6.263   6.180   3.577 -0.4447  1.5426 -2.0340
  161OSM    C7F18121   6.391   6.004   3.629 -0.2510 -0.2632 -0.0593
  161OSM    H7F18122   6.486   6.059   3.611  0.0925 -0.9417 -0.3554
  161OSM    H7G18123   6.414   5.903   3.590  1.4968 -0.4189  1.2782
  161OSM    C8F18124   6.352   5.983   3.776 -0.3466 -0.8922  0.4313
  161OSM    H8F18125   6.278   5.901   3.785 -0.0457 -1.1713  0.3786
  161OSM    H8G18126   6.316   6.081   3.814  2.5175  0.8734 -1.0777
  161OSM    C9F18127   6.484   5.948   3.843 -0.5411 -0.0989 -0.5009
  161OSM    H9F18128   6.573   5.942   3.779  0.8847  1.2312  1.2424
  161OSM   C10F18129   6.487   5.890   3.972 -0.6805 -0.5689 -0.1309
  161OSM   H10F18130   6.584   5.848   4.003 -0.5475 -0.5972 -0.5713
  161OSM   C11F18131   6.369   5.857   4.060  0.1620  0.5424 -0.5046
  161OSM   H11F18132   6.353   5.748   4.075  3.1565 -0.1113 -1.4081
  161OSM   H11G18133   6.275   5.881   4.005 -0.1726  1.3777  0.4080
  161OSM   C12F18134   6.374   5.920   4.198 -0.2804  0.4692  0.5534
  161OSM   H12F18135   6.464   5.898   4.259 -0.2925  1.0843  0.7892
  161OSM   H12G18136   6.282   5.890   4.253  0.6007 -0.9313  1.3397
  161OSM   C13F18137   6.363   6.080   4.193 -1.2918 -0.4491 -0.9844
  161OSM   H13F18138   6.266   6.109   4.147 -1.8885 -0.9125 -0.0394
  161OSM   H13G18139   6.446   6.124   4.133 -0.6755 -1.4484 -0.8851
  161OSM   C14F18140   6.378   6.153   4.332  0.5886  0.0184  0.1018
  161OSM   H14F18141   6.389   6.260   4.308 -1.7869  0.2781 -0.0956
  161OSM   H14G18142   6.464   6.118   4.393  0.0306  0.0538  0.9218
  161OSM   C15F18143   6.251   6.140   4.407 -0.1098 -0.3791 -0.3182
  161OSM   H15F18144   6.199   6.042   4.395  1.4049 -1.2966  0.3948
  161OSM   H15G18145   6.179   6.218   4.373 -0.3723 -0.4344  0.0977
  161OSM   C16F18146   6.286   6.146   4.557 -0.2676  0.0340  0.2831
  161OSM   H16F18147   6.342   6.238   4.584  3.0126 -1.5479 -0.6194
  161OSM   H16G18148   6.352   6.063   4.589 -0.0419  0.8891  2.1074
  161OSM   C17F18149   6.155   6.149   4.633  0.5643 -0.3138 -0.8249
  161OSM   H17F18150   6.091   6.058   4.634 -0.9893  0.6849  1.9648
  161OSM   H17G18151   6.076   6.210   4.585 -0.2023 -0.2906  0.3974
  161OSM   C18F18152   6.177   6.169   4.781 -0.1224 -0.0220 -0.7371
  161OSM   H18F18153   6.081   6.183   4.835  0.4151 -1.6866  0.7617
  161OSM   H18G18154   6.241   6.257   4.801 -1.8365  0.5823  3.1122
  161OSM   H18H18155   6.229   6.083   4.828  0.2186  0.4855 -0.1797
  162OSM      N18156   1.550   6.474   2.301 -0.3001  0.4822 -0.1544
  162OSM    C1518157   1.629   6.361   2.250 -0.1857  0.3393  0.5283
  162OSM   H15A18158   1.651   6.383   2.147 -2.7767  1.3739  0.1295
  162OSM   H15B18159   1.571   6.270   2.242 -3.1324  2.1991 -0.9651
  162OSM   H15C18160   1.715   6.338   2.312  1.3577  3.3917 -0.2905
  162OSM    C1418161   1.643   6.590   2.291 -0.2242  0.8074 -0.3694
  162OSM   H14A18162   1.680   6.621   2.194 -0.1200  0.2862 -0.4966
  162OSM   H14B18163   1.740   6.564   2.331 -0.3107  2.9670  1.4391
  162OSM   H14C18164   1.596   6.676   2.338 -0.0383  0.1031  1.1702
  162OSM    C1318165   1.437   6.492   2.212 -0.1501  0.8240 -0.7945
  162OSM   H13A18166   1.392   6.589   2.222  0.8422  1.1989  0.1737
  162OSM   H13B18167   1.360   6.420   2.238  2.9584 -2.0958  1.2548
  162OSM   H13C18168   1.466   6.470   2.110  1.5178 -2.1570  0.1971
  162OSM    C1218169   1.511   6.447   2.452  0.7340 -0.0555 -0.6260
  162OSM   H12A18170   1.477   6.542   2.491 -0.7725 -0.8787  0.1606
  162OSM   H12B18171   1.600   6.420   2.507 -0.6743 -1.5269  1.0833
  162OSM    C1118172   1.404   6.344   2.482 -0.5657 -0.3718  0.1328
  162OSM   H11A18173   1.406   6.322   2.590 -0.7936 -1.2148 -0.0291
  162OSM   H11B18174   1.424   6.245   2.436 -1.0993 -0.9099  1.0529
  162OSM      P18175   1.199   6.488   2.547  0.4927  0.6336  0.0486
  162OSM    O1318176   1.279   6.610   2.551 -0.0361 -0.3552  1.1013
  162OSM    O1418177   1.055   6.493   2.508 -0.6146 -0.3007  0.4530
  162OSM    O1118178   1.213   6.410   2.684 -0.2874 -0.3177 -0.0435
  162OSM    O1218179   1.274   6.390   2.448 -0.0739 -0.3029  0.1623
  162OSM    C1S18180   1.132   6.456   2.795 -0.1343 -0.2921  0.2012
  162OSM    H1S18181   1.027   6.423   2.775 -0.3808  0.7977 -0.3779
  162OSM    H1T18182   1.132   6.566   2.811 -0.5017 -0.2520 -0.0613
  162OSM     NF18183   1.061   6.457   3.026 -0.1801  0.2145  0.4590
  162OSM    HNF18184   1.097   6.528   3.086  0.6992 -0.2039  0.4528
  162OSM    C2S18185   1.160   6.400   2.927  0.2576  0.0372 -0.4429
  162OSM    H2S18186   1.155   6.290   2.930  1.4823 -0.0100  1.3970
  162OSM    C3S18187   1.307   6.421   2.970  0.2928  0.3371 -0.0932
  162OSM    H3S18188   1.302   6.532   2.977 -2.7778  0.2311  0.8071
  162OSM     O318189   1.410   6.389   2.876  0.3821  0.2886  0.7908
  162OSM    HO318190   1.359   6.359   2.800  1.2458 -1.7499  0.9503
  162OSM    C4S18191   1.337   6.373   3.113  0.1748 -0.8100 -0.8508
  162OSM    H4S18192   1.301   6.449   3.184  0.0372 -0.3273 -1.4321
  162OSM    C5S18193   1.415   6.273   3.162 -0.7930 -0.4022  0.1261
  162OSM    H5S18194   1.461   6.205   3.090 -1.4779 -1.3438  0.5577
  162OSM    C6S18195   1.453   6.249   3.303  0.6157 -0.1870 -0.6859
  162OSM    H6S18196   1.560   6.276   3.314  0.3057  1.1217 -0.6694
  162OSM    H6T18197   1.454   6.139   3.317  1.7191 -0.2125 -0.8471
  162OSM    C7S18198   1.372   6.325   3.414  0.6435  0.4388  0.2866
  162OSM    H7S18199   1.263   6.310   3.401  0.7010  0.8979 -0.9300
  162OSM    H7T18200   1.398   6.432   3.400  0.1166  0.6414  0.8184
  162OSM    C8S18201   1.419   6.282   3.548  0.3635  0.0022 -0.9385
  162OSM    H8S18202   1.531   6.281   3.549  0.3608 -1.0645 -0.3222
  162OSM    H8T18203   1.398   6.175   3.566 -0.0655 -0.0610 -1.7696
  162OSM    C9S18204   1.358   6.369   3.658  0.8368 -0.0704 -0.3093
  162OSM    H9S18205   1.248   6.355   3.650  0.6648 -0.1873  1.8033
  162OSM    H9T18206   1.384   6.476   3.643  1.4913 -0.3292 -1.0805
  162OSM   C10S18207   1.424   6.333   3.788 -0.3877 -0.3551  0.7352
  162OSM   H10S18208   1.533   6.347   3.774 -0.2594 -0.7910  1.3029
  162OSM   H10T18209   1.415   6.227   3.817 -0.7386 -0.1778  1.2921
  162OSM   C11S18210   1.375   6.417   3.910  0.0097  0.5813  0.3410
  162OSM   H11S18211   1.384   6.526   3.892 -3.1920  0.9783  0.4860
  162OSM   H11T18212   1.435   6.389   4.000 -0.1514  1.2234  0.6537
  162OSM   C12S18213   1.225   6.410   3.952 -0.6262 -0.1257 -0.6340
  162OSM   H12S18214   1.155   6.445   3.873 -0.2854 -0.9485 -1.3078
  162OSM   H12T18215   1.199   6.471   4.041 -2.6042 -1.9421  0.1057
  162OSM   C13S18216   1.179   6.265   3.963 -0.4399 -0.1438 -0.4568
  162OSM   H13S18217   1.207   6.215   3.868  4.9495  1.8862 -0.2367
  162OSM   H13T18218   1.069   6.249   3.969 -0.2188 -2.0258 -0.9070
  162OSM   C14S18219   1.241   6.187   4.082  0.6747  0.3117  0.2552
  162OSM   H14S18220   1.351   6.202   4.073  0.4501  1.2376 -1.3432
  162OSM   H14T18221   1.216   6.079   4.080  2.1742 -0.0706  0.6667
  162OSM   C15S18222   1.196   6.234   4.217 -0.1506 -0.1301  0.6583
  162OSM   H15S18223   1.095   6.281   4.217 -0.4803 -0.8340  0.5689
  162OSM   H15T18224   1.262   6.318   4.249  0.5124 -0.1862 -0.5040
  162OSM   C16S18225   1.184   6.113   4.311 -0.2222  0.2868  0.5514
  162OSM   H16S18226   1.146   6.151   4.408 -1.2888  1.4686 -0.2958
  162OSM   H16T18227   1.278   6.057   4.328 -0.6234  0.4005  3.7727
  162OSM   C17S18228   1.075   6.014   4.272 -0.2371 -0.6187  0.2283
  162OSM   H17S18229   1.107   5.961   4.180  0.3416 -1.2227  0.7792
  162OSM   H17T18230   0.982   6.070   4.245 -0.5671 -1.2238  0.0938
  162OSM   C18S18231   1.029   5.922   4.389 -0.6733  0.0499 -0.7191
  162OSM   H18S18232   1.026   5.978   4.484 -1.4162 -1.2318  0.0388
  162OSM   H18T18233   1.104   5.841   4.401  1.0656  1.9206  2.1100
  162OSM   H18U18234   0.932   5.869   4.378 -0.0088 -1.3314 -0.2156
  162OSM    C1F18235   0.939   6.405   3.031  0.0291  0.0785  0.3911
  162OSM     OF18236   0.912   6.304   2.974  0.3131 -0.0876  0.1780
  162OSM    C2F18237   0.846   6.464   3.133  0.4538  0.7432  0.4236
  162OSM    H2F18238   0.851   6.575   3.135 -1.5715  0.8742  2.6774
  162OSM    H2G18239   0.879   6.443   3.236  1.1330  1.3860  0.3476
  162OSM    C3F18240   0.701   6.413   3.118 -0.0438 -0.3291  0.0643
  162OSM    H3F18241   0.700   6.305   3.147  0.8853 -0.2956  0.2672
  162OSM    H3G18242   0.664   6.427   3.014 -2.0537 -0.7332  0.6789
  162OSM    C4F18243   0.600   6.482   3.213  0.0253 -0.1644 -0.1754
  162OSM    H4F18244   0.632   6.486   3.319  0.5551 -1.7594 -0.2490
  162OSM    H4G18245   0.504   6.428   3.222 -0.3091  0.5777  0.7904
  162OSM    C5F18246   0.568   6.626   3.172 -0.5817 -1.1673 -0.1051
  162OSM    H5F18247   0.517   6.615   3.074  0.7849  2.5537 -1.4203
  162OSM    H5G18248   0.657   6.687   3.146 -2.2272  0.8286 -1.3571
  162OSM    C6F18249   0.488   6.696   3.283 -0.0963 -0.0063  0.6054
  162OSM    H6F18250   0.467   6.799   3.246  0.4051  1.0977  3.1777
  162OSM    H6G18251   0.563   6.715   3.363  1.3312  0.3708 -0.7739
  162OSM    C7F18252   0.361   6.622   3.331 -0.0046 -0.8021  0.0403
  162OSM    H7F18253   0.391   6.525   3.377  1.7532  0.0246  0.7496
  162OSM    H7G18254   0.312   6.596   3.235  1.4457 -2.7384 -0.2408
  162OSM    C8F18255   0.284   6.708   3.430 -0.4416 -0.1503 -0.6631
  162OSM    H8F18256   0.184   6.660   3.436  0.3032 -2.0391 -2.1529
  162OSM    H8G18257   0.268   6.808   3.384 -1.6779  1.0654  2.2109
  162OSM    C9F18258   0.343   6.723   3.567  0.3017 -0.1485  0.3407
  162OSM    H9F18259   0.437   6.780   3.568  1.3723 -1.7055 -1.7158
  162OSM   C10F18260   0.319   6.666   3.686  0.4522 -0.3056  0.7978
  162OSM   H10F18261   0.378   6.715   3.766 -1.1006  1.2990  1.0206
  162OSM   C11F18262   0.208   6.577   3.717  0.4225  0.0323 -0.0663
  162OSM   H11F18263   0.153   6.544   3.626  0.1996  1.2139 -0.3773
  162OSM   H11G18264   0.123   6.625   3.771  0.9582 -0.8507  1.6562
  162OSM   C12F18265   0.243   6.463   3.817 -0.1998  0.0413  0.5723
  162OSM   H12F18266   0.324   6.403   3.772 -1.2720 -0.3664 -0.8667
  162OSM   H12G18267   0.161   6.389   3.824 -1.6078  1.4647 -0.0945
  162OSM   C13F18268   0.292   6.503   3.955 -0.1578  0.4600 -0.4766
  162OSM   H13F18269   0.384   6.564   3.958  1.6579 -2.0161 -2.0710
  162OSM   H13G18270   0.325   6.407   4.001  0.6298  0.0739 -1.7955
  162OSM   C14F18271   0.177   6.567   4.034  0.1949  0.6068 -0.2416
  162OSM   H14F18272   0.086   6.505   4.020  0.8909 -0.2537 -1.1029
  162OSM   H14G18273   0.158   6.671   3.998  2.7837  1.0812 -0.3976
  162OSM   C15F18274   0.215   6.582   4.183  0.1266  0.0441 -0.1958
  162OSM   H15F18275   0.316   6.628   4.174 -0.1062  0.2295 -2.7461
  162OSM   H15G18276   0.224   6.481   4.228  1.0782 -0.6038 -1.7490
  162OSM   C16F18277   0.126   6.678   4.264 -0.0995 -0.7717  0.0783
  162OSM   H16F18278   0.020   6.659   4.238  0.4576 -2.5227 -1.0711
  162OSM   H16G18279   0.145   6.783   4.232  0.1878 -0.7927  0.1785
  162OSM   C17F18280   0.141   6.665   4.418 -0.5337  0.5073  0.5383
  162OSM   H17F18281   0.245   6.662   4.459 -0.3268  2.1037  0.2252
  162OSM   H17G18282   0.104   6.568   4.456  0.4662 -0.3374 -0.5941
  162OSM   C18F18283   0.056   6.767   4.504  0.0588  0.3010 -0.0877
  162OSM   H18F18284   0.126   6.791   4.587  0.5558  0.7422 -0.6216
  162OSM   H18G18285  -0.040   6.733   4.547  1.3889 -1.1750  1.8569
  162OSM   H18H18286   0.051   6.858   4.439  0.8107  0.1683 -0.3400
  163OSM      N18287   5.624   6.560   2.672 -0.4926 -0.5479 -0.4573
  163OSM    C1518288   5.495   6.568   2.601  0.6334  0.9592  0.1048
  163OSM   H15A18289   5.487   6.480   2.540 -1.7419 -0.0976  1.7741
  163OSM   H15B18290   5.486   6.662   2.549 -0.2026  0.1735 -1.2351
  163OSM   H15C18291   5.408   6.565   2.666  0.4792 -0.5338 -0.1499
  163OSM    C1418292   5.632   6.450   2.767  0.0286  0.3663  0.1464
  163OSM   H14A18293   5.574   6.367   2.728 -1.2876  0.9958  0.7045
  163OSM   H14B18294   5.572   6.473   2.854 -1.3981  0.7734 -0.8957
  163OSM   H14C18295   5.734   6.420   2.784 -0.7322 -1.7463  1.3930
  163OSM    C1318296   5.729   6.521   2.569  0.3664 -0.0261 -0.3156
  163OSM   H13A18297   5.823   6.498   2.616  0.1007  2.7264  1.8425
  163OSM   H13B18298   5.749   6.602   2.501  3.8855 -1.4995 -1.2304
  163OSM   H13C18299   5.698   6.436   2.510 -1.3179  0.9451 -0.9250
  163OSM    C1218300   5.648   6.694   2.743 -0.6989  0.0497  0.3564
  163OSM   H12A18301   5.747   6.698   2.784 -0.6591  1.8283  0.1387
  163OSM   H12B18302   5.574   6.695   2.822 -1.6568  0.1849 -0.5186
  163OSM    C1118303   5.648   6.820   2.653  0.1788  0.4623  0.2455
  163OSM   H11A18304   5.659   6.907   2.720 -0.8629 -0.4552  1.6554
  163OSM   H11B18305   5.552   6.817   2.597 -0.9748  0.3785  2.1509
  163OSM      P18306   5.906   6.846   2.601 -0.1109  0.0320  0.0383
  163OSM    O1318307   5.997   6.761   2.523  0.1535  0.2476 -0.3182
  163OSM    O1418308   5.939   6.989   2.600 -0.2513 -0.1646 -0.1677
  163OSM    O1118309   5.913   6.797   2.754  0.1888 -0.4247 -0.3694
  163OSM    O1218310   5.759   6.821   2.564  0.2618 -0.1033  0.2618
  163OSM    C1S18311   5.953   6.891   2.858 -0.0973  0.2871  0.0552
  163OSM    H1S18312   5.880   6.974   2.867  2.0445  2.2952 -0.0092
  163OSM    H1T18313   6.046   6.950   2.840 -0.2361  0.5378  0.1591
  163OSM     NF18314   5.982   6.915   3.099 -0.1874 -0.1617  0.3637
  163OSM    HNF18315   6.075   6.930   3.132  1.0754 -2.4257 -1.8166
  163OSM    C2S18316   5.979   6.818   2.993 -0.0970 -0.1252 -0.4878
  163OSM    H2S18317   5.899   6.744   3.015  0.0926 -0.9385 -2.3026
  163OSM    C3S18318   6.109   6.738   2.979  0.0768 -0.3842  0.8544
  163OSM    H3S18319   6.188   6.808   2.946 -0.0699  0.0085  1.3285
  163OSM     O318320   6.098   6.640   2.877  0.6646  0.2064 -0.5937
  163OSM    HO318321   6.032   6.675   2.817 -0.1771 -2.0916 -1.1071
  163OSM    C4S18322   6.138   6.672   3.111  0.4639 -0.4704  0.7444
  163OSM    H4S18323   6.081   6.582   3.135 -0.0985  0.1232  1.7152
  163OSM    C5S18324   6.243   6.689   3.192 -0.3670 -0.0613 -0.3947
  163OSM    H5S18325   6.328   6.757   3.177 -0.5259  0.4428  0.8849
  163OSM    C6S18326   6.276   6.601   3.312  0.1629  0.0485 -0.3415
  163OSM    H6S18327   6.382   6.566   3.305 -0.0480 -0.7658  0.3729
  163OSM    H6T18328   6.209   6.514   3.329  0.0121  0.5908  2.1558
  163OSM    C7S18329   6.261   6.705   3.433 -0.1418  0.0054  0.2532
  163OSM    H7S18330   6.162   6.755   3.423 -0.0797  0.7612  2.8128
  163OSM    H7T18331   6.334   6.787   3.412 -1.7722  1.2856 -0.6577
  163OSM    C8S18332   6.271   6.650   3.574  0.2754  0.0931 -1.3138
  163OSM    H8S18333   6.294   6.736   3.640 -1.7935 -1.4845  1.7376
  163OSM    H8T18334   6.350   6.572   3.571  1.0950  0.8884 -0.8115
  163OSM    C9S18335   6.137   6.597   3.629  0.4286  0.0184  0.2211
  163OSM    H9S18336   6.091   6.524   3.559 -1.2994 -1.5555  2.8366
  163OSM    H9T18337   6.061   6.677   3.633  1.5347  1.0702  1.0651
  163OSM   C10S18338   6.141   6.515   3.769  0.2641 -0.1138  1.3611
  163OSM   H10S18339   6.185   6.415   3.749 -1.1978 -0.0640 -3.3395
  163OSM   H10T18340   6.043   6.492   3.814 -1.3031 -0.0173 -1.6928
  163OSM   C11S18341   6.243   6.584   3.870  0.3145  0.1123  0.1531
  163OSM   H11S18342   6.221   6.693   3.863  2.6234  0.6022 -0.4342
  163OSM   H11T18343   6.344   6.574   3.825  0.1368 -3.1511  0.2660
  163OSM   C12S18344   6.249   6.540   4.013  0.0653  0.0899  0.2373
  163OSM   H12S18345   6.344   6.569   4.062 -0.9187 -0.8436  2.8767
  163OSM   H12T18346   6.258   6.429   4.007  1.7195  0.2490 -0.8094
  163OSM   C13S18347   6.136   6.592   4.098  0.0794  0.1188  0.1341
  163OSM   H13S18348   6.039   6.551   4.063  0.2418 -0.2354  0.0861
  163OSM   H13T18349   6.123   6.701   4.082 -0.9634 -0.3692 -3.2105
  163OSM   C14S18350   6.155   6.556   4.247 -0.5246  0.8451  0.2223
  163OSM   H14S18351   6.235   6.628   4.274 -0.8126  1.6346 -0.9592
  163OSM   H14T18352   6.207   6.457   4.247 -0.3971  0.8920 -0.8316
  163OSM   C15S18353   6.033   6.577   4.331  0.5575  0.0098  0.9506
  163OSM   H15S18354   5.948   6.512   4.301 -0.0174 -0.5448  3.5616
  163OSM   H15T18355   5.991   6.678   4.313  1.1305  0.0824 -0.0845
  163OSM   C16S18356   6.064   6.560   4.479  0.3234  0.3415 -0.9004
  163OSM   H16S18357   6.148   6.633   4.482  0.1609  0.5055  0.1017
  163OSM   H16T18358   6.108   6.461   4.504  2.2831  1.3607 -0.0530
  163OSM   C17S18359   5.962   6.620   4.579 -0.6568 -0.5793 -0.1519
  163OSM   H17S18360   5.867   6.564   4.560 -0.3774 -1.0219 -0.2682
  163OSM   H17T18361   5.948   6.728   4.558 -0.9075 -0.6323 -0.2706
  163OSM   C18S18362   6.019   6.599   4.724 -0.1971 -0.0211  0.2705
  163OSM   H18S18363   6.046   6.492   4.739 -0.1201 -0.5629 -2.9476
  163OSM   H18T18364   5.954   6.634   4.807  1.1999  0.2563  1.2890
  163OSM   H18U18365   6.117   6.652   4.725  0.9572 -2.0485  0.1261
  163OSM    C1F18366   5.885   6.982   3.150 -0.4102  0.0259 -0.2392
  163OSM     OF18367   5.775   6.978   3.091 -0.5403 -0.5538  0.5289
  163OSM    C2F18368   5.901   7.055   3.284 -0.1087 -0.0309  0.2624
  163OSM    H2F18369   5.808   7.112   3.303 -0.9741 -0.8834 -1.2481
  163OSM    H2G18370   5.988   7.123   3.271 -0.7825  0.7584 -0.2215
  163OSM    C3F18371   5.926   6.956   3.405 -0.4994  0.1216  0.4997
  163OSM    H3F18372   6.034   6.931   3.414 -0.7316 -1.1473 -0.0746
  163OSM    H3G18373   5.870   6.861   3.388 -1.4727  0.8066 -0.2419
  163OSM    C4F18374   5.895   7.014   3.542  0.0256 -0.2753 -0.1081
  163OSM    H4F18375   5.786   7.028   3.555  0.2413  1.2833  0.1831
  163OSM    H4G18376   5.931   7.119   3.543 -0.0782 -0.2452  0.3156
  163OSM    C5F18377   5.951   6.937   3.662 -0.1712  0.2142 -0.2483
  163OSM    H5F18378   6.057   6.906   3.650 -0.8272 -1.9838 -0.8100
  163OSM    H5G18379   5.882   6.851   3.659  1.6806 -1.3362 -0.7488
  163OSM    C6F18380   5.943   7.008   3.794  0.5293  0.4700 -0.6253
  163OSM    H6F18381   5.847   7.064   3.793 -0.9805 -1.6785  3.4465
  163OSM    H6G18382   6.025   7.082   3.808  0.4063  0.7205 -1.1993
  163OSM    C7F18383   5.936   6.919   3.916  0.3053 -0.5722 -0.1737
  163OSM    H7F18384   6.032   6.863   3.907  1.3801  1.2257 -0.6250
  163OSM    H7G18385   5.859   6.841   3.900  0.6522 -1.1780  1.0096
  163OSM    C8F18386   5.928   7.003   4.041 -0.1137 -0.0657 -0.3246
  163OSM    H8F18387   5.838   7.065   4.018 -0.6573 -1.8017 -3.4970
  163OSM    H8G18388   6.021   7.063   4.054  0.2835 -0.5220 -1.0052
  163OSM    C9F18389   5.912   6.921   4.168 -0.0611 -0.5497  0.4157
  163OSM    H9F18390   5.847   6.832   4.155  1.8646 -1.9383 -0.1210
  163OSM   C10F18391   5.954   6.950   4.294  0.0281  0.5628  0.6115
  163OSM   H10F18392   5.910   6.886   4.372 -0.5685 -0.7904 -0.7844
  163OSM   C11F18393   6.038   7.065   4.338 -0.1889 -0.0346  0.9426
  163OSM   H11F18394   5.988   7.119   4.421 -4.7877  1.1813 -2.2635
  163OSM   H11G18395   6.055   7.142   4.260 -1.0053 -0.9774 -0.1923
  163OSM   C12F18396   6.178   7.002   4.383  0.3991  0.0092 -0.2680
  163OSM   H12F18397   6.254   7.083   4.380  2.5840 -1.9313 -0.4845
  163OSM   H12G18398   6.203   6.923   4.308 -0.5870 -0.1996 -0.3954
  163OSM   C13F18399   6.166   6.945   4.527 -0.4996  0.0224 -0.6317
  163OSM   H13F18400   6.241   6.863   4.533 -3.8051 -3.2246 -0.2655
  163OSM   H13G18401   6.062   6.907   4.539  0.5663 -2.5067  1.3227
  163OSM   C14F18402   6.199   7.060   4.630  0.3318  0.5278 -0.3415
  163OSM   H14F18403   6.149   7.158   4.610 -0.5185 -0.0756 -1.2245
  163OSM   H14G18404   6.301   7.099   4.607  0.3448  0.7168  0.0214
  163OSM   C15F18405   6.192   7.014   4.774 -0.0894 -0.5367  0.1660
  163OSM   H15F18406   6.100   6.954   4.792  1.0414 -2.6061 -0.5788
  163OSM   H15G18407   6.195   7.106   4.836  1.1588 -0.9492  0.7569
  163OSM   C16F18408   6.306   6.922   4.810  0.2140  1.1074  0.1892
  163OSM   H16F18409   6.405   6.952   4.768  0.8270  0.5844  1.2115
  163OSM   H16G18410   6.284   6.824   4.762 -0.0062  1.5184 -0.5670
  163OSM   C17F18411   6.329   6.898   4.961  0.6123  0.2963  0.2176
  163OSM   H17F18412   6.366   6.993   5.004  0.3538  0.5008 -0.0055
  163OSM   H17G18413   6.409   6.824   4.981 -1.0880 -1.7805 -0.2813
  163OSM   C18F18414   6.207   6.851   5.045  0.8561  0.0026  0.0015
  163OSM   H18F18415   6.133   6.934   5.042  0.7957  0.0767  2.0069
  163OSM   H18G18416   6.219   6.828   5.153  0.1862 -2.4430 -0.3856
  163OSM   H18H18417   6.157   6.771   4.987  1.8614  0.9442 -2.2742
  164OSM      N18418   3.221   6.024   2.486 -0.1263 -0.5827  0.0157
  164OSM    C1518419   3.127   6.110   2.408  0.3439  0.2027  0.3239
  164OSM   H15A18420   3.031   6.062   2.392 -0.1779  0.9709  1.0681
  164OSM   H15B18421   3.172   6.139   2.314 -0.5806 -0.9978 -0.5420
  164OSM   H15C18422   3.112   6.199   2.467 -2.3184  0.2947 -0.3815
  164OSM    C1418423   3.202   5.877   2.449 -0.0103  0.3373  0.3270
  164OSM   H14A18424   3.096   5.856   2.452 -0.5201  2.4452 -1.1053
  164OSM   H14B18425   3.255   5.813   2.518 -2.2817 -1.9654  0.0886
  164OSM   H14C18426   3.224   5.865   2.344  1.5961  2.6303  0.3402
  164OSM    C1318427   3.364   6.065   2.455 -0.3931  0.3997  0.8751
  164OSM   H13A18428   3.376   6.172   2.470  2.5458  0.5670 -1.6684
  164OSM   H13B18429   3.398   6.036   2.357  1.1194  1.1802  1.1410
  164OSM   H13C18430   3.430   6.013   2.523  1.0233  1.1428  0.1295
  164OSM    C1218431   3.187   6.036   2.637  0.0625  0.1802 -0.7096
  164OSM   H12A18432   3.240   5.958   2.690  0.1686  0.7177 -0.0158
  164OSM   H12B18433   3.082   6.015   2.651 -0.1943  1.4940 -0.5417
  164OSM    C1118434   3.217   6.166   2.708 -0.1691 -0.2240 -0.3120
  164OSM   H11A18435   3.327   6.177   2.691 -0.3302 -0.0884 -1.3264
  164OSM   H11B18436   3.197   6.147   2.815  1.3854 -0.1261  0.0269
  164OSM      P18437   2.991   6.310   2.713 -0.6775  0.4842  0.1899
  164OSM    O1318438   2.964   6.455   2.701  0.1156 -0.7491 -0.2895
  164OSM    O1418439   2.905   6.216   2.639 -0.0248 -0.8440 -0.5171
  164OSM    O1118440   3.004   6.272   2.860  0.0563  0.4077  0.0019
  164OSM    O1218441   3.141   6.277   2.663  0.5258  0.0546  0.6991
  164OSM    C1S18442   3.073   6.357   2.952 -0.6287  0.2449 -0.3126
  164OSM    H1S18443   3.049   6.465   2.950 -0.7049  0.2513  0.7504
  164OSM    H1T18444   3.183   6.343   2.948 -0.2987  2.4733 -0.0441
  164OSM     NF18445   3.063   6.399   3.205 -0.4280 -0.2627 -0.0498
  164OSM    HNF18446   3.124   6.368   3.278  1.1802  0.6769 -0.9398
  164OSM    C2S18447   3.026   6.310   3.097 -0.4785 -0.4105 -0.0778
  164OSM    H2S18448   2.915   6.315   3.086 -0.3631 -2.7077 -3.5765
  164OSM    C3S18449   3.054   6.158   3.126  0.2597 -0.6268 -0.1062
  164OSM    H3S18450   3.165   6.152   3.131  0.1761 -1.7267  0.6746
  164OSM     O318451   3.013   6.071   3.024  0.1227  0.7762  0.1452
  164OSM    HO318452   2.981   6.125   2.952 -3.0552 -0.7266  0.2273
  164OSM    C4S18453   2.998   6.116   3.259 -0.2717 -0.0158  0.0637
  164OSM    H4S18454   3.069   6.129   3.343 -0.6428 -0.7122  0.4953
  164OSM    C5S18455   2.884   6.055   3.281  0.5455 -0.2131 -0.7466
  164OSM    H5S18456   2.816   6.019   3.203 -0.8668  1.3918 -0.3148
  164OSM    C6S18457   2.829   6.011   3.413 -0.3778  1.0879 -1.3202
  164OSM    H6S18458   2.787   5.909   3.396 -2.3264  1.7907 -1.0766
  164OSM    H6T18459   2.728   6.054   3.434 -0.2459  0.5734  0.5409
  164OSM    C7S18460   2.915   6.024   3.542 -0.0743 -0.1567 -0.1379
  164OSM    H7S18461   2.953   6.125   3.568 -0.0335 -0.1107 -0.3688
  164OSM    H7T18462   3.001   5.955   3.524  1.0364  1.7450 -2.7576
  164OSM    C8S18463   2.841   5.959   3.653  0.1088  0.1042 -0.3481
  164OSM    H8S18464   2.913   5.943   3.736 -1.5798 -1.5491  0.8765
  164OSM    H8T18465   2.800   5.860   3.623  0.7074  0.1721 -1.4359
  164OSM    C9S18466   2.721   6.026   3.710  0.9972  0.3617 -0.0710
  164OSM    H9S18467   2.672   5.981   3.799  0.2661  0.3280 -0.4880
  164OSM    H9T18468   2.649   6.044   3.628  0.5877  0.5960  0.3358
  164OSM   C10S18469   2.756   6.169   3.762 -0.0748  0.0612  0.2099
  164OSM   H10S18470   2.787   6.247   3.689 -0.9905  1.1770  0.9774
  164OSM   H10T18471   2.850   6.155   3.819 -0.2939  1.9264  1.1230
  164OSM   C11S18472   2.637   6.225   3.848  0.3427  0.0457 -0.0040
  164OSM   H11S18473   2.600   6.160   3.929 -0.4823  3.3484  2.4946
  164OSM   H11T18474   2.553   6.248   3.780 -0.0857  2.0529  1.1124
  164OSM   C12S18475   2.687   6.350   3.921 -0.0865  0.6226  0.4700
  164OSM   H12S18476   2.750   6.420   3.863  0.2332 -0.2336 -0.2235
  164OSM   H12T18477   2.754   6.321   4.006  1.7909  0.0393 -1.1406
  164OSM   C13S18478   2.567   6.437   3.983  0.0893 -0.2663 -0.3555
  164OSM   H13S18479   2.464   6.417   3.945 -0.3003 -1.3910  1.1827
  164OSM   H13T18480   2.588   6.545   3.966  0.0127 -0.4143 -1.4802
  164OSM   C14S18481   2.544   6.407   4.132 -0.3135 -0.5620  0.8320
  164OSM   H14S18482   2.645   6.413   4.179 -0.3985 -2.7545  1.4109
  164OSM   H14T18483   2.510   6.304   4.156  0.7626 -1.7293 -2.2116
  164OSM   C15S18484   2.445   6.514   4.187 -0.3383  0.2670  0.7993
  164OSM   H15S18485   2.345   6.498   4.142  0.3066 -0.7131 -0.3428
  164OSM   H15T18486   2.488   6.609   4.149  3.4636 -1.1034  1.1280
  164OSM   C16S18487   2.431   6.526   4.341  0.0588 -0.1468  1.1948
  164OSM   H16S18488   2.522   6.517   4.404 -1.2557 -0.2577  3.1704
  164OSM   H16T18489   2.376   6.437   4.380  0.0040 -0.2641  0.8520
  164OSM   C17S18490   2.347   6.644   4.383 -0.1512  0.2370  0.3306
  164OSM   H17S18491   2.245   6.650   4.339 -0.1734 -0.4433  0.2699
  164OSM   H17T18492   2.390   6.744   4.363  0.2295 -0.3152 -1.9226
  164OSM   C18S18493   2.339   6.645   4.534 -0.2249  0.4707 -0.4748
  164OSM   H18S18494   2.289   6.740   4.558 -0.6018  0.2789 -0.4905
  164OSM   H18T18495   2.435   6.655   4.588 -1.0384  2.8817  0.6586
  164OSM   H18U18496   2.287   6.557   4.578  0.5325 -0.7566 -1.9035
  164OSM    C1F18497   3.028   6.531   3.207 -0.2568  0.4463 -0.5713
  164OSM     OF18498   2.940   6.574   3.131  0.1263 -0.2681  0.5443
  164OSM    C2F18499   3.097   6.625   3.314 -0.1084  0.0005 -0.0230
  164OSM    H2F18500   3.147   6.704   3.253 -1.8431  1.9680  0.9627
  164OSM    H2G18501   3.182   6.576   3.364  0.5677  0.6179 -0.5365
  164OSM    C3F18502   2.992   6.677   3.411  0.3984  0.2583  0.3489
  164OSM    H3F18503   2.938   6.591   3.456 -0.3158  1.2622  1.4879
  164OSM    H3G18504   2.919   6.745   3.362  0.1142  0.0517  0.4800
  164OSM    C4F18505   3.059   6.756   3.526  0.6920 -0.1213 -0.1848
  164OSM    H4F18506   3.089   6.854   3.483  0.5603  1.4291  2.9765
  164OSM    H4G18507   3.148   6.695   3.556 -1.2318 -3.6020 -1.0428
  164OSM    C5F18508   2.980   6.771   3.655  0.1381 -0.2020 -0.2115
  164OSM    H5F18509   2.952   6.669   3.688  2.3187 -0.9891 -0.6065
  164OSM    H5G18510   2.890   6.829   3.625  0.4777  0.5994  0.2912
  164OSM    C6F18511   3.053   6.851   3.765 -0.4156  0.1411  0.4416
  164OSM    H6F18512   3.087   6.949   3.726 -0.8613  0.0814 -0.1034
  164OSM    H6G18513   3.144   6.799   3.804 -0.8963 -0.2553  1.0506
  164OSM    C7F18514   2.969   6.884   3.891  0.6818 -0.0611 -0.3229
  164OSM    H7F18515   2.874   6.938   3.875 -0.0249 -1.1948 -0.0529
  164OSM    H7G18516   3.025   6.952   3.959 -1.0595  0.3480  0.7712
  164OSM    C8F18517   2.947   6.758   3.985  0.2644 -0.0553  0.1027
  164OSM    H8F18518   3.041   6.735   4.040  0.1888  0.6104  0.5152
  164OSM    H8G18519   2.932   6.672   3.916 -0.1437  0.0590  0.0485
  164OSM    C9F18520   2.828   6.763   4.074  0.9412 -0.1482  0.8317
  164OSM    H9F18521   2.732   6.758   4.021  0.4969 -1.7400  1.7295
  164OSM   C10F18522   2.833   6.761   4.206  0.9701 -0.0649  0.2999
  164OSM   H10F18523   2.739   6.764   4.264  0.6023 -1.2722 -0.2074
  164OSM   C11F18524   2.951   6.779   4.296  0.0003 -0.2437 -0.9160
  164OSM   H11F18525   2.957   6.879   4.342 -0.7632 -1.3390  1.7453
  164OSM   H11G18526   3.047   6.762   4.243  0.3573 -0.7502 -0.1167
  164OSM   C12F18527   2.955   6.677   4.409  0.4579  0.0634 -0.4339
  164OSM   H12F18528   3.061   6.679   4.444  0.7173 -0.2231 -1.1810
  164OSM   H12G18529   2.947   6.571   4.376 -0.4637  0.1675 -0.5715
  164OSM   C13F18530   2.848   6.701   4.524  0.2251  0.0604  0.5457
  164OSM   H13F18531   2.744   6.685   4.490  0.5151  1.6667 -1.3070
  164OSM   H13G18532   2.867   6.808   4.550  0.0054  0.4835 -0.9335
  164OSM   C14F18533   2.879   6.602   4.636 -0.2951  0.3427 -0.0933
  164OSM   H14F18534   2.981   6.609   4.680 -0.4356  0.4162  0.2273
  164OSM   H14G18535   2.867   6.498   4.600  0.5395  0.6273 -1.2512
  164OSM   C15F18536   2.772   6.604   4.750 -0.0992 -0.0944  0.2995
  164OSM   H15F18537   2.673   6.565   4.716 -0.1626 -1.5146  1.9331
  164OSM   H15G18538   2.758   6.710   4.780 -0.9756 -0.6054  1.7985
  164OSM   C16F18539   2.819   6.527   4.871 -0.5718  0.2448 -0.2570
  164OSM   H16F18540   2.771   6.553   4.968 -0.4060  3.0304 -0.8348
  164OSM   H16G18541   2.928   6.551   4.867 -0.7214  1.0529  0.2488
  164OSM   C17F18542   2.809   6.374   4.850 -1.4319  0.2311  0.0658
  164OSM   H17F18543   2.881   6.363   4.766  1.0577 -1.8549  2.3036
  164OSM   H17G18544   2.701   6.354   4.830 -1.4251  1.2303 -1.0964
  164OSM   C18F18545   2.874   6.294   4.967 -0.2254 -0.0929 -0.0169
  164OSM   H18F18546   2.862   6.187   4.940 -2.6559  0.4560 -1.4662
  164OSM   H18G18547   2.820   6.313   5.062 -0.2312 -0.2516  0.0113
  164OSM   H18H18548   2.982   6.316   4.983  0.3165 -1.6968 -1.2644
  165SAPS     N18549   0.253   4.426   7.230  0.2358 -0.4809  0.3854
  165SAPS   HN118550   0.247   4.493   7.309  2.2808 -0.1499  0.3246
  165SAPS   HN218551   0.171   4.363   7.224  0.0375 -0.2301  0.4238
  165SAPS   HN318552   0.333   4.362   7.249  1.0802 -0.1836 -1.8411
  165SAPS   C1218553   0.264   4.507   7.111  0.4067  0.6272  0.1650
  165SAPS  H12A18554   0.184   4.580   7.115 -0.8785 -0.7547  0.5971
  165SAPS   C1318555   0.393   4.589   7.095 -0.8805  0.7756 -0.2584
  165SAPS  O13A18556   0.477   4.605   7.191 -0.4478  0.1278  0.0798
  165SAPS  O13B18557   0.388   4.677   7.003  0.2583 -0.6809 -0.2675
  165SAPS   C1118558   0.234   4.417   6.989  0.3597  0.0024  0.3447
  165SAPS  H11A18559   0.313   4.343   6.966 -0.8810 -1.1350 -0.3745
  165SAPS  H11B18560   0.227   4.478   6.896  0.8987 -0.4951 -0.0265
  165SAPS     P18561   0.065   4.219   7.063  0.0994 -0.2244  0.0884
  165SAPS   O1318562   0.152   4.115   7.005 -0.1972  0.4508 -0.1510
  165SAPS   O1418563   0.062   4.249   7.206 -0.1565 -0.6331 -0.2604
  165SAPS   O1218564   0.102   4.355   6.998  0.7215 -0.2784  0.1349
  165SAPS   O1118565  -0.084   4.181   7.028  0.1661 -0.3655 -0.2029
  165SAPS    C118566  -0.175   4.292   7.032  0.1617 -0.0519 -0.1328
  165SAPS    HA18567  -0.189   4.329   7.136  1.5320 -1.1830  0.4851
  165SAPS    HB18568  -0.130   4.382   6.984 -1.0779  0.7771  0.1998
  165SAPS    C218569  -0.311   4.247   6.971 -0.2229  0.3408 -0.5906
  165SAPS    HS18570  -0.351   4.149   7.008 -0.1272 -0.9682 -3.6326
  165SAPS   O2118571  -0.286   4.225   6.833  0.4103  0.2663 -0.0364
  165SAPS   C2118572  -0.357   4.129   6.772  0.4106  0.8464 -0.1360
  165SAPS   O2218573  -0.449   4.067   6.815  0.6333  0.1724  0.3393
  165SAPS   C2218574  -0.313   4.121   6.625 -0.5162  0.1697  0.0430
  165SAPS   H2R18575  -0.381   4.053   6.569 -2.3770 -0.3900  2.7759
  165SAPS   H2S18576  -0.320   4.224   6.585  0.7720  0.1181 -0.3752
  165SAPS    C318577  -0.413   4.360   6.999 -0.6733 -0.1211  0.2522
  165SAPS    HX18578  -0.366   4.460   6.986 -1.1602 -0.1213 -2.0807
  165SAPS    HY18579  -0.432   4.342   7.107 -3.5441 -3.0865 -0.5592
  165SAPS   O3118580  -0.532   4.350   6.919 -0.0245 -0.4938 -0.9190
  165SAPS   C3118581  -0.644   4.326   6.985 -0.7490 -0.6358 -0.6603
  165SAPS   O3218582  -0.650   4.303   7.100  1.1825  0.8027 -0.8363
  165SAPS   C3218583  -0.761   4.322   6.889 -0.2183  0.2173  0.2322
  165SAPS   H2X18584  -0.846   4.366   6.947  0.7366  0.0327  1.8421
  165SAPS   H2Y18585  -0.786   4.215   6.873  3.3672 -1.0474  1.9465
  165SAPS   C2318586  -0.172   4.057   6.617  0.8062 -0.6030  0.4072
  165SAPS   H3R18587  -0.164   3.982   6.698  0.7131  0.8911  1.8468
  165SAPS   H3S18588  -0.092   4.125   6.652  1.6558 -2.1776  1.6414
  165SAPS   C2418589  -0.131   3.999   6.478 -0.2006 -0.6341  0.3900
  165SAPS   H4R18590  -0.025   3.969   6.494 -0.1327  0.6954  3.1452
  165SAPS   H4S18591  -0.125   4.077   6.399  2.0891 -0.1007  0.9977
  165SAPS   C2518592  -0.219   3.890   6.438 -0.2544  0.2132 -0.0399
  165SAPS   H5R18593  -0.238   3.818   6.520 -0.8141 -0.8362 -1.0702
  165SAPS   C2618594  -0.255   3.870   6.306  0.5192 -0.3715 -0.5984
  165SAPS   H6R18595  -0.342   3.803   6.299 -2.2238  2.9078 -0.5834
  165SAPS   C2718596  -0.229   3.970   6.189  0.3765 -0.1991 -0.7977
  165SAPS   H7R18597  -0.124   4.007   6.198 -0.0982  0.9437  0.3030
  165SAPS   H7S18598  -0.303   4.050   6.207 -1.2093 -1.8718  0.5953
  165SAPS   C2818599  -0.277   3.935   6.048  0.0144  0.3253  0.1621
  165SAPS   H8R18600  -0.374   3.885   6.035 -0.6439  1.3734  0.8866
  165SAPS   C2918601  -0.213   3.975   5.936 -0.4638  0.1581 -0.5159
  165SAPS   H9R18602  -0.240   3.932   5.838  0.8303 -2.9824  0.3566
  165SAPS  C21018603  -0.082   4.051   5.936  1.0330  0.3689 -0.2778
  165SAPS  H10R18604  -0.002   3.974   5.929 -0.3610 -1.2878  1.2953
  165SAPS  H10S18605  -0.053   4.100   6.031  0.2359 -2.2406  1.4102
  165SAPS  C21118606  -0.067   4.157   5.830 -0.5840 -0.9804 -0.4524
  165SAPS  H11R18607  -0.151   4.228   5.831  0.7462  0.6746  1.6368
  165SAPS  C21218608   0.029   4.168   5.735  0.4907  0.1519 -0.2186
  165SAPS  H12R18609   0.021   4.249   5.661 -3.6269  0.5597  0.4372
  165SAPS  C21318610   0.158   4.085   5.710  0.2376 -0.0424 -0.6452
  165SAPS  H13R18611   0.182   4.059   5.605 -1.0502 -0.3780 -0.8720
  165SAPS  H13S18612   0.126   3.983   5.741 -1.9820 -0.3405 -3.4991
  165SAPS  C21418613   0.271   4.132   5.794 -0.2239 -0.1788  0.7984
  165SAPS  H14R18614   0.249   4.142   5.901  1.5413  3.5597  0.9729
  165SAPS  C21518615   0.394   4.172   5.743 -0.1152 -0.2089 -0.0129
  165SAPS  H15R18616   0.474   4.201   5.813  1.1970 -1.6474 -0.8551
  165SAPS  C21618617   0.426   4.183   5.595 -0.1743  0.7559  0.9298
  165SAPS  H16R18618   0.512   4.253   5.583  0.9283 -0.4587  1.5155
  165SAPS  H16S18619   0.337   4.214   5.536  0.1273 -2.0800 -1.2525
  165SAPS  C21718620   0.464   4.044   5.536  0.3714 -0.3510 -0.4318
  165SAPS  H17R18621   0.373   3.982   5.555  2.3924 -3.5040 -0.3430
  165SAPS  H17S18622   0.543   4.013   5.608 -1.7345 -0.6116  1.9214
  165SAPS  C21818623   0.513   4.043   5.390  0.3308  0.4016  0.2477
  165SAPS  H18R18624   0.561   3.946   5.360 -0.2525 -0.0410  0.7336
  165SAPS  H18S18625   0.584   4.128   5.387 -0.3096  0.9259 -2.1254
  165SAPS  C21918626   0.401   4.080   5.286  1.1694 -0.2267  0.3948
  165SAPS  H19R18627   0.444   4.067   5.184  0.4773  0.5208 -0.0088
  165SAPS  H19S18628   0.385   4.190   5.297  1.3579  0.1839 -2.4629
  165SAPS  C22018629   0.276   3.993   5.295  0.4373 -0.0805 -0.3741
  165SAPS  H20R18630   0.238   3.994   5.399  1.9699  0.9007  0.2155
  165SAPS  H20S18631   0.301   3.888   5.269 -1.2567 -0.6652  0.2335
  165SAPS  H20T18632   0.194   4.023   5.225 -0.8347  1.0798  1.5354
  165SAPS   C3318633  -0.751   4.396   6.750 -0.3529  0.0668 -1.1420
  165SAPS   H3X18634  -0.683   4.483   6.755 -0.2776 -0.0659  0.6121
  165SAPS   H3Y18635  -0.847   4.448   6.726 -1.4162 -1.0413  0.4971
  165SAPS   C3418636  -0.704   4.309   6.634 -0.2313  0.1810  0.7268
  165SAPS   H4X18637  -0.794   4.253   6.598 -0.4407 -0.0740  1.6232
  165SAPS   H4Y18638  -0.630   4.234   6.671  1.4334  0.8717 -0.9955
  165SAPS   C3518639  -0.639   4.387   6.516  0.7330  0.5867 -1.1006
  165SAPS   H5X18640  -0.544   4.434   6.552  0.1235  0.6940  0.4594
  165SAPS   H5Y18641  -0.721   4.458   6.490 -0.5503  0.3523  1.8725
  165SAPS   C3618642  -0.617   4.307   6.386  0.2013 -0.5908 -0.5754
  165SAPS   H6X18643  -0.710   4.265   6.343 -0.1806  2.4895 -3.0820
  165SAPS   H6Y18644  -0.544   4.224   6.403  2.8747  2.1544  2.7567
  165SAPS   C3718645  -0.553   4.393   6.274 -0.3797 -0.1456  0.8080
  165SAPS   H7X18646  -0.459   4.438   6.311 -1.1796  1.5117  0.9203
  165SAPS   H7Y18647  -0.620   4.478   6.249 -0.5908 -0.0378  1.7018
  165SAPS   C3818648  -0.518   4.319   6.146  0.0265  0.1635 -0.9349
  165SAPS   H8X18649  -0.616   4.288   6.105 -0.4327 -1.1085  1.0032
  165SAPS   H8Y18650  -0.459   4.227   6.164  0.2048  0.1779 -1.4270
  165SAPS   C3918651  -0.466   4.408   6.032  0.4906  1.1996 -0.3784
  165SAPS   H9X18652  -0.366   4.429   6.075  0.5224 -1.5792  1.1554
  165SAPS   H9Y18653  -0.534   4.496   6.032 -1.0814  0.1186  2.2015
  165SAPS  C31018654  -0.458   4.340   5.898 -0.0742 -0.9442 -0.6890
  165SAPS  H10X18655  -0.560   4.297   5.892  0.6170 -2.6253 -0.7962
  165SAPS  H10Y18656  -0.368   4.275   5.901  1.4250  1.0452  0.2080
  165SAPS  C31118657  -0.444   4.434   5.771  0.5586 -0.2181 -0.7051
  165SAPS  H11X18658  -0.515   4.519   5.768 -2.3229 -2.2931  2.0491
  165SAPS  H11Y18659  -0.470   4.376   5.680 -0.2362  0.1959 -0.7538
  165SAPS  C31218660  -0.303   4.498   5.761  0.4713 -0.0857  0.3962
  165SAPS  H12X18661  -0.230   4.415   5.766  1.7667  1.0527  1.1408
  165SAPS  H12Y18662  -0.303   4.571   5.845 -4.2455  1.1114 -0.3583
  165SAPS  C31318663  -0.267   4.573   5.630 -0.7391 -0.7559 -0.3014
  165SAPS  H13X18664  -0.307   4.677   5.627  0.4838 -0.3070 -2.0915
  165SAPS  H13Y18665  -0.310   4.517   5.544 -2.2714 -0.2228  0.0897
  165SAPS  C31418666  -0.112   4.592   5.617 -0.1190 -0.0163 -0.5290
  165SAPS  H14X18667  -0.097   4.647   5.522  0.5533  1.9689  0.6599
  165SAPS  H14Y18668  -0.059   4.494   5.611  3.4239  1.7657 -0.8953
  165SAPS  C31518669  -0.054   4.669   5.738 -0.0446 -0.0617 -0.0929
  165SAPS  H15X18670  -0.008   4.601   5.813 -1.3206 -1.9723 -0.9671
  165SAPS  H15Y18671  -0.142   4.719   5.785  0.3336  1.7236 -1.1540
  165SAPS  C31618672   0.033   4.785   5.700  0.1964  0.2501  0.1075
  165SAPS  H16X18673   0.118   4.738   5.646 -0.4121 -1.7136  0.7707
  165SAPS  H16Y18674   0.076   4.828   5.793 -0.8043  1.0380  0.2144
  165SAPS  C31718675  -0.031   4.895   5.612 -0.5905 -0.0089  0.5631
  165SAPS  H17X18676  -0.098   4.962   5.671 -0.1623 -0.3339  1.4419
  165SAPS  H17Y18677  -0.098   4.854   5.534  0.3828  0.5176 -0.5718
  165SAPS  C31818678   0.077   4.987   5.545 -0.6856 -0.6160  0.4555
  165SAPS  H18X18679   0.034   5.059   5.472  1.3050 -0.1038 -0.2752
  165SAPS  H18Y18680   0.142   4.922   5.482  0.2431  0.9848 -0.2994
  165SAPS  H18Z18681   0.145   5.040   5.614 -2.0378  0.8281  0.7229
  166SAPS     N18682   4.740   2.321   7.519 -0.1151  0.2409  0.6535
  166SAPS   HN118683   4.764   2.236   7.463 -0.2156  0.2085  0.6588
  166SAPS   HN218684   4.652   2.303   7.572 -0.6449  0.2317 -0.2215
  166SAPS   HN318685   4.708   2.402   7.463 -0.8083 -0.7351 -0.4064
  166SAPS   C1218686   4.862   2.357   7.598  0.1544  0.1727  0.6860
  166SAPS  H12A18687   4.829   2.431   7.670 -0.1107 -0.4056  1.1687
  166SAPS   C1318688   4.926   2.237   7.679 -0.2791 -0.5414 -0.1747
  166SAPS  O13A18689   4.891   2.123   7.651  0.0960 -0.5796  0.4690
  166SAPS  O13B18690   5.018   2.262   7.762 -0.0432 -0.4831  0.1977
  166SAPS   C1118691   4.965   2.412   7.494 -0.1136 -0.8293 -0.4035
  166SAPS  H11A18692   4.981   2.337   7.414  0.8610 -0.0177 -0.9964
  166SAPS  H11B18693   5.067   2.428   7.537 -0.6039 -0.0607  0.5140
  166SAPS     P18694   4.924   2.678   7.496  0.1054 -0.3306  0.1336
  166SAPS   O1318695   4.826   2.674   7.608 -0.2869 -0.3262 -0.0513
  166SAPS   O1418696   5.063   2.715   7.529  0.1561 -0.3587 -0.5892
  166SAPS   O1218697   4.920   2.532   7.431 -0.0032  0.4002 -0.8689
  166SAPS   O1118698   4.885   2.784   7.393 -0.5159 -0.1330 -0.0567
  166SAPS    C118699   4.778   2.753   7.303 -0.1031 -0.2965  0.4594
  166SAPS    HA18700   4.750   2.645   7.301  0.5644 -0.5436  2.4373
  166SAPS    HB18701   4.684   2.805   7.330 -0.3171 -1.5503  2.3363
  166SAPS    C218702   4.818   2.781   7.157 -0.1299 -1.1244  0.5548
  166SAPS    HS18703   4.748   2.725   7.092  0.6660 -0.0233 -1.3580
  166SAPS   O2118704   4.956   2.748   7.136 -0.2689  0.2212 -0.0906
  166SAPS   C2118705   4.969   2.618   7.111 -0.1339  0.1234 -0.2826
  166SAPS   O2218706   4.874   2.540   7.098 -0.5576  0.3723  0.3302
  166SAPS   C2218707   5.113   2.577   7.118  0.0082  0.1001  0.2266
  166SAPS   H2R18708   5.181   2.637   7.055  0.3037  0.7828  1.1817
  166SAPS   H2S18709   5.156   2.587   7.220  2.6767  1.0840 -0.9131
  166SAPS    C318710   4.795   2.931   7.123 -0.5036 -0.4141 -0.7496
  166SAPS    HX18711   4.831   2.994   7.207  1.3265 -1.9280 -0.3226
  166SAPS    HY18712   4.684   2.936   7.120 -0.6033 -1.9476 -0.5198
  166SAPS   O3118713   4.857   2.956   6.996 -0.7475  0.5525  0.3950
  166SAPS   C3118714   4.975   3.016   6.995 -0.2768 -0.9027  0.9346
  166SAPS   O3218715   5.035   3.046   7.098 -0.2281 -0.2944  0.1811
  166SAPS   C3218716   5.026   3.054   6.849 -0.1116  0.4241 -0.1349
  166SAPS   H2X18717   5.131   3.087   6.864 -0.3804  1.9514 -1.3298
  166SAPS   H2Y18718   4.972   3.146   6.819  1.1458  1.2815  0.1462
  166SAPS   C2318719   5.120   2.424   7.087 -0.1646 -0.4970  0.3910
  166SAPS   H3R18720   5.077   2.406   6.986 -2.2704  1.1487  0.9246
  166SAPS   H3S18721   5.066   2.357   7.156 -1.0515 -1.7010 -1.3771
  166SAPS   C2418722   5.260   2.355   7.080  0.3184 -0.2883  0.7699
  166SAPS   H4R18723   5.239   2.247   7.064 -0.4315  0.1054 -1.1726
  166SAPS   H4S18724   5.312   2.373   7.177 -0.8384  0.7661  1.2121
  166SAPS   C2518725   5.353   2.405   6.971  0.4174 -0.5841  0.2310
  166SAPS   H5R18726   5.425   2.478   7.012  0.4137 -0.0038 -0.7741
  166SAPS   C2618727   5.358   2.368   6.843 -1.1405  0.3852  0.4684
  166SAPS   H6R18728   5.436   2.404   6.773  1.1753 -2.3054  1.4720
  166SAPS   C2718729   5.246   2.306   6.769  1.1098 -0.1968 -0.7056
  166SAPS   H7R18730   5.238   2.355   6.670 -0.2814  2.9321  0.8170
  166SAPS   H7S18731   5.151   2.315   6.825  0.7068 -1.6810 -1.1075
  166SAPS   C2818732   5.276   2.156   6.757  0.0639 -0.1906 -0.5767
  166SAPS   H8R18733   5.270   2.099   6.850  1.3922  0.2550 -0.1876
  166SAPS   C2918734   5.289   2.094   6.647 -0.4345 -0.4441  0.3865
  166SAPS   H9R18735   5.307   1.986   6.653  0.6015 -0.5141 -2.4088
  166SAPS  C21018736   5.288   2.148   6.511  0.0829 -0.2400  0.0981
  166SAPS  H10R18737   5.315   2.256   6.509 -0.4276 -0.1131 -1.5045
  166SAPS  H10S18738   5.185   2.161   6.473 -0.1546 -0.4415  0.6546
  166SAPS  C21118739   5.373   2.072   6.412 -0.2229  0.2758 -0.0817
  166SAPS  H11R18740   5.457   2.024   6.464  0.7380  1.1073 -0.8277
  166SAPS  C21218741   5.369   2.054   6.281  0.5131  0.0081  0.4945
  166SAPS  H12R18742   5.462   2.013   6.241 -0.5649 -0.7971 -1.3200
  166SAPS  C21318743   5.265   2.112   6.184 -0.2582 -0.3833 -0.4927
  166SAPS  H13R18744   5.211   2.196   6.232  1.1959  0.7412 -0.7567
  166SAPS  H13S18745   5.192   2.028   6.176  0.9410 -1.6129  0.9096
  166SAPS  C21418746   5.341   2.155   6.064 -0.0871  0.1712 -0.5099
  166SAPS  H14R18747   5.450   2.138   6.067  0.1403  1.3607 -1.1655
  166SAPS  C21518748   5.283   2.164   5.941 -0.6207  0.1750  0.0229
  166SAPS  H15R18749   5.349   2.172   5.854  1.6537 -0.3431  1.6142
  166SAPS  C21618750   5.140   2.157   5.901 -1.0429 -0.5985 -0.3058
  166SAPS  H16R18751   5.081   2.228   5.964 -1.3827 -0.3514 -0.8973
  166SAPS  H16S18752   5.095   2.060   5.931  0.3563 -1.0044  0.5690
  166SAPS  C21718753   5.136   2.178   5.758  0.5957 -0.4698  0.4865
  166SAPS  H17R18754   5.033   2.155   5.723  0.0750 -0.1768  1.7734
  166SAPS  H17S18755   5.184   2.106   5.689 -1.0424 -2.2712  1.1273
  166SAPS  C21818756   5.178   2.321   5.718  0.3109  0.1064  0.1088
  166SAPS  H18R18757   5.287   2.338   5.713  0.1076  1.6505  0.4010
  166SAPS  H18S18758   5.134   2.396   5.788  0.8556 -0.4883  1.0964
  166SAPS  C21918759   5.125   2.347   5.578 -0.5488 -0.0369  0.2038
  166SAPS  H19R18760   5.015   2.338   5.581 -0.4756 -0.9182  1.2272
  166SAPS  H19S18761   5.155   2.264   5.510  1.6743  0.4802  0.4705
  166SAPS  C22018762   5.172   2.475   5.513 -0.5700  0.7565 -0.5392
  166SAPS  H20R18763   5.283   2.473   5.503 -0.6994 -0.8629 -2.3117
  166SAPS  H20S18764   5.142   2.559   5.579  0.1266 -0.4647  1.4199
  166SAPS  H20T18765   5.134   2.500   5.411 -0.7743  0.7242 -0.4706
  166SAPS   C3318766   5.018   2.939   6.746  0.4632 -0.1464 -0.2953
  166SAPS   H3X18767   4.917   2.895   6.733 -0.6329  1.7802  1.1685
  166SAPS   H3Y18768   5.071   2.851   6.788  1.0604  0.4809  0.2804
  166SAPS   C3418769   5.096   2.962   6.613  0.4800  0.3614  0.1083
  166SAPS   H4X18770   5.074   2.877   6.544  0.1865  0.0123  0.6217
  166SAPS   H4Y18771   5.205   2.969   6.630  0.4732 -1.6909  1.4452
  166SAPS   C3518772   5.055   3.093   6.548 -0.6774  0.1789 -0.0895
  166SAPS   H5X18773   5.121   3.167   6.597  0.6599  0.9361 -2.8362
  166SAPS   H5Y18774   4.945   3.110   6.557 -0.7961 -1.1894  1.7731
  166SAPS   C3618775   5.093   3.096   6.403 -0.0385 -0.3329  0.1444
  166SAPS   H6X18776   5.200   3.067   6.391 -0.2736 -1.5910  0.9640
  166SAPS   H6Y18777   5.083   3.202   6.370 -0.2575  0.4634  2.5808
  166SAPS   C3718778   5.005   3.017   6.299 -0.1822 -0.0525  0.7993
  166SAPS   H7X18779   4.902   3.057   6.310  0.6981  2.7197 -0.2306
  166SAPS   H7Y18780   5.011   2.907   6.313 -0.9489 -0.6256 -2.5109
  166SAPS   C3818781   5.055   3.047   6.159 -0.5292  0.2131  0.0974
  166SAPS   H8X18782   5.128   2.970   6.127 -1.2104 -1.6971  2.8262
  166SAPS   H8Y18783   5.108   3.143   6.139 -0.9563  0.3496 -0.4297
  166SAPS   C3918784   4.929   3.030   6.066 -0.0671 -0.4775  0.1473
  166SAPS   H9X18785   4.851   3.102   6.096  1.9701  1.1445  1.8545
  166SAPS   H9Y18786   4.905   2.921   6.074  1.6949 -0.8678  0.5863
  166SAPS  C31018787   4.956   3.055   5.914  0.0247 -0.4734  0.0869
  166SAPS  H10X18788   4.865   3.023   5.858 -1.4123 -0.5346  2.3282
  166SAPS  H10Y18789   5.046   2.996   5.887 -1.3680 -1.9208 -1.6719
  166SAPS  C31118790   4.985   3.205   5.876  0.2431  0.1653 -0.7003
  166SAPS  H11X18791   5.093   3.228   5.886  0.3184  0.0970 -1.3157
  166SAPS  H11Y18792   4.925   3.264   5.950 -0.4408  0.3860 -1.4140
  166SAPS  C31218793   4.940   3.245   5.737  0.4761  0.1571  0.5258
  166SAPS  H12X18794   4.844   3.197   5.709  1.0351 -0.1566 -0.9758
  166SAPS  H12Y18795   5.020   3.185   5.688  1.0423  0.1818  1.4045
  166SAPS  C31318796   4.949   3.393   5.701 -0.5411 -0.8505  0.5644
  166SAPS  H13X18797   5.052   3.430   5.723 -0.5406 -0.3765 -0.1835
  166SAPS  H13Y18798   4.873   3.451   5.757 -1.3135 -1.4329  0.1378
  166SAPS  C31418799   4.938   3.421   5.554 -0.1367  0.4091  0.0867
  166SAPS  H14X18800   4.834   3.412   5.515  0.1188  0.6338 -0.6688
  166SAPS  H14Y18801   4.999   3.341   5.507  1.3090  1.4413  0.1583
  166SAPS  C31518802   4.974   3.571   5.513 -0.3773 -0.1530 -0.5902
  166SAPS  H15X18803   5.069   3.597   5.566 -0.8670 -1.4755  1.0402
  166SAPS  H15Y18804   4.901   3.645   5.551  2.2882  1.4011  1.9303
  166SAPS  C31618805   5.000   3.582   5.367 -0.1912 -0.4617  1.2968
  166SAPS  H16X18806   5.071   3.503   5.332  0.6046  0.4244  0.8634
  166SAPS  H16Y18807   5.048   3.682   5.356  2.7265 -1.8631 -0.0293
  166SAPS  C31718808   4.890   3.568   5.270 -0.0670 -0.3113  0.5883
  166SAPS  H17X18809   4.815   3.650   5.269  0.6716  0.3750 -0.2972
  166SAPS  H17Y18810   4.831   3.474   5.282 -0.5229 -0.1881 -0.5617
  166SAPS  C31818811   4.942   3.557   5.124  0.2421  0.3180 -0.6316
  166SAPS  H18X18812   4.861   3.582   5.054 -0.2102 -0.1417 -0.2840
  166SAPS  H18Y18813   4.986   3.459   5.095  0.1792  0.4319 -1.1180
  166SAPS  H18Z18814   5.025   3.628   5.107  1.9115 -0.9429  1.6484
  167SAPS     N18815   1.269   3.333   7.060 -0.4551  0.0906  0.1277
  167SAPS   HN118816   1.252   3.425   7.106 -1.3324 -0.0663  0.1435
  167SAPS   HN218817   1.347   3.283   7.107  0.6733 -1.5545 -3.2015
  167SAPS   HN318818   1.300   3.355   6.963 -1.3588  2.1393  0.2403
  167SAPS   C1218819   1.151   3.239   7.062  0.2155  0.5375 -1.0521
  167SAPS  H12A18820   1.138   3.205   7.164 -1.7261 -1.3746 -1.8497
  167SAPS   C1318821   1.014   3.313   7.030 -0.1119 -0.1611  0.7833
  167SAPS  O13A18822   1.009   3.420   6.967  0.3257  0.2765  0.5073
  167SAPS  O13B18823   0.904   3.245   7.034 -0.6552 -0.3211  0.2139
  167SAPS   C1118824   1.173   3.103   6.977 -0.0236 -0.0078 -0.8931
  167SAPS  H11A18825   1.186   3.132   6.871 -1.1000 -2.6561 -1.8379
  167SAPS  H11B18826   1.072   3.058   6.985  0.0386  0.1068  0.9393
  167SAPS     P18827   1.422   3.032   6.963 -0.5415  0.1193 -0.7493
  167SAPS   O1318828   1.471   3.172   6.972 -0.2665  0.5506  0.1334
  167SAPS   O1418829   1.510   2.938   7.037  0.1908 -0.0714  0.1872
  167SAPS   O1218830   1.275   3.015   7.027  0.4616 -0.1559 -0.6137
  167SAPS   O1118831   1.405   2.971   6.816 -0.3582  0.0640 -0.1856
  167SAPS    C118832   1.381   2.831   6.807  0.3149 -0.1402  0.0975
  167SAPS    HA18833   1.466   2.768   6.841 -1.2502 -0.6361  3.5132
  167SAPS    HB18834   1.300   2.798   6.875 -1.0258 -1.2897 -1.9393
  167SAPS    C218835   1.315   2.789   6.670 -0.0128  0.9427  0.0713
  167SAPS    HS18836   1.301   2.679   6.672  1.3878  0.7506  0.8239
  167SAPS   O2118837   1.414   2.830   6.575 -0.1427 -0.5719 -0.1405
  167SAPS   C2118838   1.520   2.751   6.561 -0.0443  0.3201  0.1675
  167SAPS   O2218839   1.521   2.639   6.605  0.1894 -0.1627  0.0457
  167SAPS   C2218840   1.630   2.806   6.478 -0.3696 -0.1352  0.1530
  167SAPS   H2R18841   1.630   2.916   6.492  0.5938  0.3155 -2.7395
  167SAPS   H2S18842   1.720   2.755   6.518  0.2130  1.4314  0.8945
  167SAPS    C318843   1.174   2.844   6.628 -0.4026 -0.0937  0.1046
  167SAPS    HX18844   1.172   2.955   6.632 -0.3950 -0.0800 -0.2007
  167SAPS    HY18845   1.099   2.818   6.705 -0.0577  0.4759  0.6345
  167SAPS   O3118846   1.124   2.813   6.495 -0.0282  0.3480 -0.0434
  167SAPS   C3118847   1.157   2.894   6.393 -0.3399 -0.3761 -0.6821
  167SAPS   O3218848   1.229   2.991   6.399 -0.2526 -0.1494  0.5135
  167SAPS   C3218849   1.096   2.833   6.264  0.7925  0.3034 -0.8088
  167SAPS   H2X18850   1.171   2.874   6.193  2.1656 -2.2928 -0.9770
  167SAPS   H2Y18851   0.996   2.880   6.259  0.1953 -0.6360  1.2996
  167SAPS   C2318852   1.593   2.774   6.330 -0.9000 -0.0522  0.9745
  167SAPS   H3R18853   1.677   2.810   6.267  0.0624 -1.7926  1.2054
  167SAPS   H3S18854   1.503   2.833   6.301 -1.0816 -0.8444 -0.1744
  167SAPS   C2418855   1.555   2.632   6.293 -0.1513  0.2503  0.4082
  167SAPS   H4R18856   1.509   2.633   6.192  0.2495 -1.9085  0.1589
  167SAPS   H4S18857   1.481   2.599   6.369  0.5517  0.1739  1.0788
  167SAPS   C2518858   1.667   2.535   6.300 -0.4490  0.5310  0.2773
  167SAPS   H5R18859   1.702   2.517   6.403  0.2783  0.4693  0.0181
  167SAPS   C2618860   1.741   2.494   6.195  0.3870  0.3387  1.4335
  167SAPS   H6R18861   1.829   2.431   6.211  1.2797  0.2400 -2.7549
  167SAPS   C2718862   1.717   2.509   6.045 -0.2447 -0.5077 -0.6128
  167SAPS   H7R18863   1.608   2.525   6.027 -0.3795 -1.4004 -0.6015
  167SAPS   H7S18864   1.736   2.419   5.983 -2.5612  1.0192 -3.8720
  167SAPS   C2818865   1.791   2.637   5.998  0.4773 -0.4205 -0.3716
  167SAPS   H8R18866   1.759   2.725   6.056  1.1723  0.7817 -1.7166
  167SAPS   C2918867   1.889   2.653   5.908  0.1541  0.2842  0.0689
  167SAPS   H9R18868   1.928   2.751   5.875 -1.7256  0.4048 -2.0752
  167SAPS  C21018869   1.947   2.536   5.837  0.0573  0.1323  0.0413
  167SAPS  H10R18870   1.877   2.453   5.813  1.1859 -0.6950 -0.4104
  167SAPS  H10S18871   2.012   2.490   5.914  2.5992  2.8820 -0.2969
  167SAPS  C21118872   2.002   2.584   5.707  0.1185  0.3933  0.4924
  167SAPS  H11R18873   1.922   2.614   5.637 -1.2095 -2.3680  0.6826
  167SAPS  C21218874   2.129   2.610   5.684 -0.1822 -0.2817  1.1011
  167SAPS  H12R18875   2.160   2.646   5.585 -0.9658  0.7769  1.2243
  167SAPS  C21318876   2.249   2.582   5.769 -1.0411  0.1500  0.1228
  167SAPS  H13R18877   2.317   2.517   5.710  1.0708  2.1775  0.1784
  167SAPS  H13S18878   2.216   2.529   5.861  2.7895 -0.7314  1.1722
  167SAPS  C21418879   2.316   2.714   5.807 -0.6510 -0.0519 -0.0929
  167SAPS  H14R18880   2.327   2.777   5.718  1.7978  2.1178  1.5911
  167SAPS  C21518881   2.358   2.763   5.922 -0.4439 -0.4219 -0.7900
  167SAPS  H15R18882   2.398   2.866   5.924  3.0935 -1.6489  1.5802
  167SAPS  C21618883   2.344   2.695   6.054  0.2601  0.1360  0.3466
  167SAPS  H16R18884   2.421   2.722   6.130  1.8882 -1.6441 -0.5798
  167SAPS  H16S18885   2.344   2.586   6.037 -2.6021  0.4525 -2.7614
  167SAPS  C21718886   2.200   2.714   6.112  0.3717 -0.6510 -0.2289
  167SAPS  H17R18887   2.116   2.672   6.052 -2.0758  3.0036  0.2962
  167SAPS  H17S18888   2.180   2.821   6.130  0.3812 -0.7931  0.6402
  167SAPS  C21818889   2.181   2.651   6.251 -0.5895  0.8497  0.2796
  167SAPS  H18R18890   2.260   2.695   6.314  2.7406 -3.6687 -0.2326
  167SAPS  H18S18891   2.197   2.542   6.236 -0.9464  0.7651  0.4862
  167SAPS  C21918892   2.049   2.686   6.322 -0.1655  0.3613  0.1264
  167SAPS  H19R18893   1.972   2.618   6.280  1.3907 -1.3778 -0.0744
  167SAPS  H19S18894   2.019   2.787   6.285 -3.9643 -1.0526 -1.0939
  167SAPS  C22018895   2.056   2.678   6.472 -0.2725  0.3779  0.1560
  167SAPS  H20R18896   2.102   2.765   6.522  2.8291 -0.9165 -0.2004
  167SAPS  H20S18897   2.111   2.584   6.493 -2.1707 -0.9193 -0.3369
  167SAPS  H20T18898   1.960   2.654   6.523 -0.4591 -3.0354 -1.4892
  167SAPS   C3318899   1.092   2.682   6.267  0.2159  0.6634  0.2175
  167SAPS   H3X18900   1.050   2.642   6.362 -1.6186  0.9833 -0.4223
  167SAPS   H3Y18901   1.196   2.644   6.252 -0.1657  0.3198 -1.8088
  167SAPS   C3418902   1.031   2.618   6.143 -0.1028 -0.4766 -0.6107
  167SAPS   H4X18903   1.071   2.514   6.138  0.8855 -0.0625 -1.5331
  167SAPS   H4Y18904   1.054   2.677   6.052  2.4142 -2.1856 -1.1930
  167SAPS   C3518905   0.877   2.600   6.161 -0.0535 -0.4173  0.7221
  167SAPS   H5X18906   0.831   2.700   6.167  0.2272 -0.0005 -2.3036
  167SAPS   H5Y18907   0.859   2.558   6.262  0.1201 -0.4532  0.7389
  167SAPS   C3618908   0.818   2.503   6.053 -0.3161  0.5372  0.0996
  167SAPS   H6X18909   0.708   2.497   6.064 -0.7157  0.8534 -2.9021
  167SAPS   H6Y18910   0.848   2.397   6.070  0.2918  0.8643  1.2367
  167SAPS   C3718911   0.863   2.521   5.913  0.8483  0.4115  1.0982
  167SAPS   H7X18912   0.968   2.556   5.901  0.9365 -0.3650 -0.7655
  167SAPS   H7Y18913   0.792   2.600   5.881 -0.2185 -1.4572 -1.5651
  167SAPS   C3818914   0.845   2.392   5.827 -1.3914  0.5353  0.2472
  167SAPS   H8X18915   0.742   2.352   5.833 -0.9589 -0.6150  0.3333
  167SAPS   H8Y18916   0.909   2.311   5.868 -1.9537 -0.6263 -1.0940
  167SAPS   C3918917   0.886   2.407   5.679  0.3613  0.0631  0.3363
  167SAPS   H9X18918   0.996   2.419   5.667  0.3565 -0.4048 -0.1983
  167SAPS   H9Y18919   0.847   2.500   5.633  0.8304  0.2407  0.2939
  167SAPS  C31018920   0.850   2.283   5.598  0.1283  0.5279  0.0443
  167SAPS  H10X18921   0.741   2.262   5.610  0.4042  0.3100  3.2646
  167SAPS  H10Y18922   0.904   2.194   5.638  0.2882  0.0755 -1.1509
  167SAPS  C31118923   0.875   2.306   5.451  0.1528 -0.9597 -0.0502
  167SAPS  H11X18924   0.980   2.338   5.432  0.2510 -1.5348 -0.4876
  167SAPS  H11Y18925   0.815   2.385   5.401  0.1268 -0.2216  1.1131
  167SAPS  C31218926   0.854   2.183   5.364 -0.5346 -0.9112 -0.2390
  167SAPS  H12X18927   0.839   2.213   5.258  1.3184 -1.0398 -0.5569
  167SAPS  H12Y18928   0.771   2.112   5.389  0.1202 -2.5081 -2.2750
  167SAPS  C31318929   0.967   2.080   5.365 -0.5430  0.2963  0.1332
  167SAPS  H13X18930   0.968   2.026   5.462  1.1022 -0.9150 -0.5153
  167SAPS  H13Y18931   1.062   2.137   5.360 -0.8891  0.7970 -1.1979
  167SAPS  C31418932   0.963   1.983   5.243  0.4828  0.3144  0.1013
  167SAPS  H14X18933   0.980   2.059   5.164 -0.2478  1.0781  0.6678
  167SAPS  H14Y18934   0.870   1.934   5.207  1.6111 -1.9199  0.0759
  167SAPS  C31518935   1.069   1.874   5.241  0.4115  0.0684  0.8531
  167SAPS  H15X18936   1.023   1.783   5.285 -1.5805 -0.4389 -1.9911
  167SAPS  H15Y18937   1.159   1.908   5.296  1.7312 -0.1653 -1.0593
  167SAPS  C31618938   1.089   1.815   5.103  0.1301  0.0294 -0.4721
  167SAPS  H16X18939   1.134   1.898   5.044  0.5258 -0.5477 -0.9816
  167SAPS  H16Y18940   0.990   1.792   5.058  0.0353 -0.9666  0.2254
  167SAPS  C31718941   1.184   1.697   5.092 -1.0390  0.1883  0.3298
  167SAPS  H17X18942   1.153   1.624   5.170 -0.6752 -0.0990  0.2103
  167SAPS  H17Y18943   1.289   1.732   5.096 -1.1401  0.7306 -1.1917
  167SAPS  C31818944   1.174   1.615   4.959  1.0366 -0.6496  0.0692
  167SAPS  H18X18945   1.242   1.527   4.953 -0.1646 -1.6426  0.6189
  167SAPS  H18Y18946   1.192   1.687   4.877 -1.1302  0.0584  0.1358
  167SAPS  H18Z18947   1.071   1.574   4.950 -0.0914  1.3376  2.7251
  168SAPS     N18948   3.840   4.587   7.627  0.1251 -0.0412  0.0610
  168SAPS   HN118949   3.768   4.547   7.564 -0.2323  1.6086 -0.6263
  168SAPS   HN218950   3.889   4.514   7.683  0.4741  0.3459  0.2658
  168SAPS   HN318951   3.783   4.640   7.696 -1.8112 -2.2447  0.2866
  168SAPS   C1218952   3.938   4.676   7.552 -0.0457 -0.5093  0.4879
  168SAPS  H12A18953   3.885   4.722   7.470 -1.2021  0.5748  1.7876
  168SAPS   C1318954   3.996   4.798   7.632  0.0950  0.2027  0.3488
  168SAPS  O13A18955   3.978   4.805   7.754 -0.4042 -0.1160 -0.4254
  168SAPS  O13B18956   4.080   4.867   7.567 -0.1226 -0.1328 -0.1649
  168SAPS   C1118957   4.059   4.588   7.494  0.8154 -0.1033 -0.2222
  168SAPS  H11A18958   4.139   4.561   7.566  2.1511 -0.8349 -1.9282
  168SAPS  H11B18959   4.104   4.647   7.412  2.1787 -1.4673 -0.4904
  168SAPS     P18960   4.083   4.393   7.320  0.4098 -0.4231 -0.2346
  168SAPS   O1318961   4.192   4.307   7.370  0.0182  0.2676 -0.4480
  168SAPS   O1418962   3.989   4.322   7.236 -0.2251 -0.1855  0.6376
  168SAPS   O1218963   4.005   4.464   7.441  0.1531  0.1694 -0.3350
  168SAPS   O1118964   4.134   4.512   7.228 -0.2547  0.7273  0.4950
  168SAPS    C118965   4.219   4.485   7.115 -0.1396  0.4362  0.2110
  168SAPS    HA18966   4.194   4.382   7.083 -2.8264  0.7039  1.1447
  168SAPS    HB18967   4.197   4.551   7.028  1.8233 -3.6926 -3.8194
  168SAPS    C218968   4.374   4.493   7.146  0.4766  0.2228 -0.1445
  168SAPS    HS18969   4.380   4.478   7.256 -0.0208  1.8491  0.1259
  168SAPS   O2118970   4.430   4.619   7.105 -0.2940 -0.2347 -0.5303
  168SAPS   C2118971   4.432   4.707   7.196 -0.0448  0.5109  0.3479
  168SAPS   O2218972   4.401   4.704   7.315  0.4041  0.2912  0.0092
  168SAPS   C2218973   4.475   4.836   7.128  0.0272  0.7327  0.0311
  168SAPS   H2R18974   4.472   4.833   7.017  0.5081 -1.0461  0.0305
  168SAPS   H2S18975   4.392   4.905   7.153  1.3975  2.2332  0.5858
  168SAPS    C318976   4.456   4.375   7.078  0.1514  0.2592 -0.5374
  168SAPS    HX18977   4.436   4.278   7.128  0.6381 -0.1902 -1.1978
  168SAPS    HY18978   4.562   4.403   7.096  0.7477 -1.2400 -1.5105
  168SAPS   O3118979   4.418   4.377   6.935 -0.1438 -0.5238 -0.6324
  168SAPS   C3118980   4.489   4.284   6.864  0.4271  0.1889  0.3397
  168SAPS   O3218981   4.563   4.210   6.919 -0.1453 -0.3765 -0.3880
  168SAPS   C3218982   4.432   4.298   6.724  0.0293  0.2653  0.4271
  168SAPS   H2X18983   4.404   4.403   6.702 -0.1021  1.0269  3.7643
  168SAPS   H2Y18984   4.334   4.247   6.739 -0.5577  1.8052  2.0789
  168SAPS   C2318985   4.606   4.895   7.179  0.2201  0.5546 -0.1280
  168SAPS   H3R18986   4.603   4.913   7.288 -0.9230  1.1025 -0.2288
  168SAPS   H3S18987   4.608   5.001   7.145 -1.5089  0.7640  0.2913
  168SAPS   C2418988   4.744   4.829   7.126  0.3457 -0.2872  0.4637
  168SAPS   H4R18989   4.827   4.899   7.149  1.4351 -0.4718 -2.4594
  168SAPS   H4S18990   4.734   4.811   7.017  0.0636 -1.0797  0.6103
  168SAPS   C2518991   4.764   4.700   7.194 -0.7364 -0.5864 -0.6590
  168SAPS   H5R18992   4.707   4.701   7.288  1.3691 -0.6217  0.6898
  168SAPS   C2618993   4.849   4.597   7.164 -0.3874 -0.2594 -0.1800
  168SAPS   H6R18994   4.850   4.508   7.230  0.1962  0.5151  0.8933
  168SAPS   C2718995   4.955   4.588   7.058  0.4518  0.0007 -0.4939
  168SAPS   H7R18996   5.052   4.588   7.112  0.4525  1.0677 -0.4819
  168SAPS   H7S18997   4.964   4.683   7.002 -0.4542  1.6075  1.9480
  168SAPS   C2818998   4.936   4.464   6.972 -0.1323 -0.5434 -0.1356
  168SAPS   H8R18999   4.978   4.377   7.025  0.0478 -0.3247  0.0895
  168SAPS   C2919000   4.884   4.460   6.855  0.7623 -0.4092  1.2637
  168SAPS   H9R19001   4.876   4.363   6.804 -0.0006  0.8675 -1.2712
  168SAPS  C21019002   4.821   4.563   6.776 -0.5517  0.1326 -0.2483
  168SAPS  H10R19003   4.839   4.545   6.668 -0.5286 -1.8432  0.0445
  168SAPS  H10S19004   4.864   4.664   6.793 -2.6418  0.8480  1.2892
  168SAPS  C21119005   4.680   4.583   6.814 -0.3231 -0.0383  0.5529
  168SAPS  H11R19006   4.634   4.559   6.910 -0.0488  0.1406  0.7300
  168SAPS  C21219007   4.599   4.633   6.720 -0.5808  0.0655  0.6370
  168SAPS  H12R19008   4.492   4.639   6.746 -1.0155  0.1916 -1.0793
  168SAPS  C21319009   4.647   4.697   6.591 -0.2373 -0.6073 -1.1189
  168SAPS  H13R19010   4.745   4.749   6.597  0.0989 -1.1442 -1.7437
  168SAPS  H13S19011   4.582   4.787   6.581  0.5362 -0.0082 -0.8588
  168SAPS  C21419012   4.650   4.604   6.469 -0.2271 -0.3644 -0.8814
  168SAPS  H14R19013   4.699   4.507   6.484  0.5381  0.3239  1.6287
  168SAPS  C21519014   4.574   4.629   6.363 -0.4424  0.6603 -0.2905
  168SAPS  H15R19015   4.560   4.541   6.299 -0.4989 -0.2240  0.9059
  168SAPS  C21619016   4.494   4.747   6.337  0.3539 -0.1449 -0.6663
  168SAPS  H16R19017   4.566   4.832   6.333  2.0334 -1.5079 -0.4310
  168SAPS  H16S19018   4.416   4.755   6.415  1.5288 -0.7527  0.6170
  168SAPS  C21719019   4.425   4.732   6.196 -0.5450 -0.2438 -0.4103
  168SAPS  H17R19020   4.360   4.823   6.188  1.3213  1.0493 -2.0043
  168SAPS  H17S19021   4.351   4.652   6.175  0.1608 -0.3622 -2.8491
  168SAPS  C21819022   4.519   4.727   6.078 -0.4809  0.2617  0.2368
  168SAPS  H18R19023   4.545   4.623   6.048  1.6162  1.0903 -0.9933
  168SAPS  H18S19024   4.619   4.770   6.099 -0.7883  1.1132 -0.0262
  168SAPS  C21919025   4.450   4.794   5.958  0.4811 -0.0140 -0.4172
  168SAPS  H19R19026   4.466   4.903   5.964  1.7398  0.0468 -3.2443
  168SAPS  H19S19027   4.340   4.775   5.963  0.2676  1.3684  0.5456
  168SAPS  C22019028   4.511   4.750   5.818 -0.4738  0.4466 -0.1618
  168SAPS  H20R19029   4.497   4.639   5.812 -1.2957  0.3896  1.8649
  168SAPS  H20S19030   4.619   4.774   5.815  0.2209 -2.2756 -0.1545
  168SAPS  H20T19031   4.450   4.793   5.736 -1.9586 -0.5183  0.3895
  168SAPS   C3319032   4.526   4.232   6.614 -0.2490  0.1605 -0.4289
  168SAPS   H3X19033   4.546   4.131   6.657 -0.3775  0.0275 -0.6828
  168SAPS   H3Y19034   4.616   4.296   6.604  0.9127 -1.2513  0.3601
  168SAPS   C3419035   4.470   4.231   6.471 -0.4340 -0.3798  0.2237
  168SAPS   H4X19036   4.432   4.335   6.460 -0.6499 -0.4323  0.4692
  168SAPS   H4Y19037   4.376   4.172   6.466 -0.2596 -0.5840 -0.8719
  168SAPS   C3519038   4.582   4.198   6.368 -0.4872  0.5917  1.0787
  168SAPS   H5X19039   4.621   4.097   6.393 -0.9890  0.0538 -0.2239
  168SAPS   H5Y19040   4.662   4.275   6.372  0.0338  0.3207 -1.9000
  168SAPS   C3619041   4.536   4.199   6.228  0.5761 -0.0400  0.1853
  168SAPS   H6X19042   4.491   4.299   6.210 -0.3509 -0.5213 -0.2664
  168SAPS   H6Y19043   4.458   4.123   6.206  1.0744 -0.6609  0.5263
  168SAPS   C3719044   4.645   4.163   6.129 -0.2908 -0.5322 -0.3371
  168SAPS   H7X19045   4.675   4.059   6.157 -1.8887 -0.2720  2.6983
  168SAPS   H7Y19046   4.733   4.230   6.141 -1.1550  0.5189  0.2283
  168SAPS   C3819047   4.609   4.183   5.980  0.6628  0.2837  0.8277
  168SAPS   H8X19048   4.604   4.289   5.947 -0.2867 -0.6105 -2.2676
  168SAPS   H8Y19049   4.509   4.138   5.963  0.6801  0.7858 -0.7533
  168SAPS   C3919050   4.707   4.113   5.887 -0.3723  0.3568  0.4917
  168SAPS   H9X19051   4.685   4.004   5.884 -0.7284  0.4200 -3.0743
  168SAPS   H9Y19052   4.811   4.145   5.911 -1.5557  2.6948  3.1417
  168SAPS  C31019053   4.675   4.152   5.738 -0.2013 -0.9062  0.4926
  168SAPS  H10X19054   4.696   4.261   5.732 -3.5005 -0.2493 -1.6745
  168SAPS  H10Y19055   4.564   4.147   5.735 -0.2259 -0.0018 -0.6098
  168SAPS  C31119056   4.744   4.078   5.619  0.1864  0.3614  0.3821
  168SAPS  H11X19057   4.695   3.979   5.631 -0.3059  0.7731  1.9908
  168SAPS  H11Y19058   4.855   4.080   5.622  0.1740  0.3087  1.1399
  168SAPS  C31219059   4.710   4.134   5.487  0.4014 -0.2133  0.6964
  168SAPS  H12X19060   4.724   4.244   5.475 -2.5223  0.2092  0.2876
  168SAPS  H12Y19061   4.599   4.124   5.489  0.1967  0.8961 -1.4423
  168SAPS  C31319062   4.763   4.044   5.369  0.0786  1.1019 -0.3202
  168SAPS  H13X19063   4.726   3.941   5.389  0.2424  1.0047 -0.5079
  168SAPS  H13Y19064   4.874   4.052   5.361  0.3663 -1.8951 -0.6263
  168SAPS  C31419065   4.713   4.085   5.229 -0.0774  0.8035  0.7673
  168SAPS  H14X19066   4.770   4.180   5.216 -1.0161  1.2998  0.1000
  168SAPS  H14Y19067   4.604   4.104   5.243 -0.8293 -3.6368  2.6828
  168SAPS  C31519068   4.719   3.972   5.125  0.2589  0.4123  0.5128
  168SAPS  H15X19069   4.645   3.896   5.156 -0.7142  0.7092 -0.9574
  168SAPS  H15Y19070   4.818   3.921   5.129  0.6344  1.1083  0.3471
  168SAPS  C31619071   4.683   3.995   4.976 -0.3086  0.6208 -0.3808
  168SAPS  H16X19072   4.780   3.976   4.927 -1.0319  1.5999 -2.3040
  168SAPS  H16Y19073   4.658   4.095   4.934  0.0992  1.0037  0.2754
  168SAPS  C31719074   4.572   3.907   4.925 -0.6726  0.4248 -0.7129
  168SAPS  H17X19075   4.573   3.811   4.981  1.4437  1.4238  1.1207
  168SAPS  H17Y19076   4.578   3.873   4.819  0.3350 -0.7605 -0.3004
  168SAPS  C31819077   4.431   3.962   4.943 -0.0216  0.1373 -0.4610
  168SAPS  H18X19078   4.352   3.891   4.908  1.7785 -2.0430 -0.2969
  168SAPS  H18Y19079   4.409   4.056   4.889  0.0176 -0.2318 -1.1335
  168SAPS  H18Z19080   4.421   3.976   5.052  0.3565 -2.8668  0.0407
  169SAPS     N19081   0.343   5.211   7.680 -0.1876  1.0520 -0.2487
  169SAPS   HN119082   0.407   5.143   7.727  1.2996  1.0358 -2.1628
  169SAPS   HN219083   0.271   5.238   7.750 -0.0761  0.0010  0.2917
  169SAPS   HN319084   0.291   5.159   7.606 -0.0542 -1.5470  1.3653
  169SAPS   C1219085   0.424   5.328   7.637  0.1661  0.0875 -1.1737
  169SAPS  H12A19086   0.361   5.395   7.580 -0.6791  0.7808  0.5024
  169SAPS   C1319087   0.480   5.413   7.755  0.5373  0.3874  0.3786
  169SAPS  O13A19088   0.440   5.387   7.870 -0.2643  0.2827  0.4367
  169SAPS  O13B19089   0.538   5.520   7.732  0.0327 -0.2322 -0.1561
  169SAPS   C1119090   0.547   5.283   7.548 -0.0127 -0.2670 -0.1115
  169SAPS  H11A19091   0.600   5.210   7.614  1.7815  1.4627  0.4657
  169SAPS  H11B19092   0.621   5.361   7.520 -0.3992  0.2976  0.4113
  169SAPS     P19093   0.464   5.253   7.291 -0.2697  0.0231 -0.2359
  169SAPS   O1319094   0.579   5.256   7.195  0.2132  0.7410  0.6408
  169SAPS   O1419095   0.349   5.169   7.262  0.5961  0.1324 -0.0493
  169SAPS   O1219096   0.514   5.207   7.436  0.3123 -0.0537 -0.0159
  169SAPS   O1119097   0.423   5.405   7.314  0.6245  0.2737 -0.0655
  169SAPS    C119098   0.281   5.439   7.337 -0.1489 -0.7407 -0.0718
  169SAPS    HA19099   0.215   5.351   7.352  0.3700 -0.7810  2.3162
  169SAPS    HB19100   0.275   5.499   7.430  1.7853 -0.5616 -0.0214
  169SAPS    C219101   0.221   5.526   7.219  0.2251 -0.0384  0.2342
  169SAPS    HS19102   0.115   5.553   7.238 -0.8874 -1.2955 -3.3747
  169SAPS   O2119103   0.230   5.450   7.095 -0.0253  0.4898  0.5635
  169SAPS   C2119104   0.134   5.357   7.084 -0.3529  0.5781 -0.9827
  169SAPS   O2219105   0.033   5.350   7.159  0.3562 -0.1318  0.0544
  169SAPS   C2219106   0.179   5.256   6.984  0.0479  0.6667  0.3293
  169SAPS   H2R19107   0.290   5.257   6.983  0.1413  1.0012  3.4473
  169SAPS   H2S19108   0.139   5.160   7.023 -0.9939  0.8067 -0.3329
  169SAPS    C319109   0.297   5.667   7.196  0.4268  0.8385 -0.5527
  169SAPS    HX19110   0.389   5.620   7.156 -0.0250 -0.3844 -0.1843
  169SAPS    HY19111   0.310   5.720   7.293 -2.0552  1.2127 -0.3467
  169SAPS   O3119112   0.231   5.758   7.103 -0.1823  0.4362  0.6799
  169SAPS   C3119113   0.116   5.800   7.147 -0.5786  0.4537 -0.1935
  169SAPS   O3219114   0.064   5.771   7.256  0.5756 -0.4631  0.8376
  169SAPS   C3219115   0.040   5.883   7.040 -0.1955  0.5225  0.6285
  169SAPS   H2X19116  -0.006   5.807   6.973  0.8897 -1.2514  1.8255
  169SAPS   H2Y19117   0.117   5.936   6.980  1.2086 -1.1619  0.8771
  169SAPS   C2319118   0.126   5.286   6.839  0.8211  0.0093 -0.6324
  169SAPS   H3R19119   0.191   5.242   6.760 -0.0415 -1.1006 -0.7491
  169SAPS   H3S19120   0.126   5.396   6.829 -0.5618  0.0423 -0.3782
  169SAPS   C2419121  -0.013   5.227   6.813  0.3554  0.4273  0.3238
  169SAPS   H4R19122  -0.064   5.294   6.741 -0.9511  0.3932  1.1946
  169SAPS   H4S19123  -0.081   5.230   6.900 -0.5570 -2.8192 -0.1600
  169SAPS   C2519124   0.005   5.084   6.761  1.4217 -0.0025  0.0285
  169SAPS   H5R19125   0.039   5.014   6.838 -3.3127 -1.8127  0.8064
  169SAPS   C2619126  -0.020   5.038   6.637 -0.2130  0.5910  0.4896
  169SAPS   H6R19127  -0.005   4.932   6.613  0.5071  0.9515 -0.7278
  169SAPS   C2719128  -0.062   5.113   6.518  0.1603  0.4163 -0.1163
  169SAPS   H7R19129   0.028   5.146   6.462  0.6545 -1.8604 -0.7461
  169SAPS   H7S19130  -0.113   5.205   6.556  0.2645 -0.0698  1.2534
  169SAPS   C2819131  -0.157   5.050   6.419  0.2880  1.0907 -0.0567
  169SAPS   H8R19132  -0.263   5.049   6.446  0.4948  0.7735  0.7873
  169SAPS   C2919133  -0.127   4.980   6.308  0.2633  0.1982 -0.1066
  169SAPS   H9R19134  -0.210   4.943   6.247  1.5954 -0.3658 -1.6518
  169SAPS  C21019135   0.018   4.942   6.257 -0.0748 -0.2098 -1.0760
  169SAPS  H10R19136   0.078   5.032   6.234 -0.2490  0.0315 -0.6077
  169SAPS  H10S19137   0.012   4.886   6.161 -0.6023  0.3775 -1.3930
  169SAPS  C21119138   0.092   4.850   6.350 -0.1697  0.2907 -0.5436
  169SAPS  H11R19139   0.026   4.774   6.394  0.5043  0.1981  0.3284
  169SAPS  C21219140   0.229   4.850   6.371 -0.0463  0.9898 -0.6870
  169SAPS  H12R19141   0.265   4.780   6.448  0.8377  1.6107 -0.5171
  169SAPS  C21319142   0.338   4.937   6.311  0.3452 -0.0147  0.5011
  169SAPS  H13R19143   0.427   4.937   6.377  0.6067 -0.2842  0.1586
  169SAPS  H13S19144   0.312   5.043   6.294 -2.0785 -0.7855 -1.1086
  169SAPS  C21419145   0.401   4.896   6.182  0.6338 -0.8808 -0.4001
  169SAPS  H14R19146   0.418   4.787   6.176 -0.7601 -1.0276 -3.2021
  169SAPS  C21519147   0.445   4.973   6.074 -0.3711  0.1882  0.1011
  169SAPS  H15R19148   0.481   4.925   5.982 -3.1331  1.9837 -2.0989
  169SAPS  C21619149   0.445   5.115   6.049  0.5651  0.0694 -0.0354
  169SAPS  H16R19150   0.546   5.161   6.038 -0.5045  2.7982  0.7829
  169SAPS  H16S19151   0.391   5.178   6.123 -1.6377  1.1328 -2.3968
  169SAPS  C21719152   0.380   5.134   5.911 -0.3515 -0.0657  0.1443
  169SAPS  H17R19153   0.277   5.092   5.909 -1.3878  2.3452  0.2841
  169SAPS  H17S19154   0.438   5.084   5.830  0.6939  1.3592 -0.0129
  169SAPS  C21819155   0.358   5.285   5.880 -0.1009  0.4556  0.6517
  169SAPS  H18R19156   0.295   5.333   5.958 -1.7574 -0.5066 -0.0584
  169SAPS  H18S19157   0.289   5.298   5.794 -1.1463 -0.3402  1.3549
  169SAPS  C21919158   0.488   5.370   5.870 -0.6199 -0.3147  0.0779
  169SAPS  H19R19159   0.560   5.332   5.794  0.4333 -0.2676  1.0220
  169SAPS  H19S19160   0.538   5.367   5.969  2.1550 -1.5723 -1.2410
  169SAPS  C22019161   0.444   5.516   5.841 -0.0618  0.0784 -0.6370
  169SAPS  H20R19162   0.531   5.583   5.822  0.2332 -0.0715  0.1556
  169SAPS  H20S19163   0.384   5.565   5.921  1.1269  2.6298 -1.2042
  169SAPS  H20T19164   0.382   5.529   5.750 -1.1354  0.7654  0.1706
  169SAPS   C3319165  -0.065   5.988   7.086 -0.1144 -0.8587 -0.1293
  169SAPS   H3X19166  -0.026   6.046   7.172 -2.4043  0.4631  0.0745
  169SAPS   H3Y19167  -0.153   5.935   7.128  0.4214 -1.0016  0.8369
  169SAPS   C3419168  -0.102   6.082   6.967 -0.2131 -0.2300  0.4870
  169SAPS   H4X19169  -0.015   6.143   6.934 -1.0702 -0.4511 -2.4015
  169SAPS   H4Y19170  -0.174   6.158   7.002 -0.8659 -1.1805  1.2550
  169SAPS   C3519171  -0.140   6.011   6.837  0.4570 -0.0921 -0.5009
  169SAPS   H5X19172  -0.225   5.942   6.861  0.0832 -0.0409 -1.6432
  169SAPS   H5Y19173  -0.058   5.951   6.793  0.5889 -0.3620  0.0944
  169SAPS   C3619174  -0.177   6.111   6.728 -0.3590 -0.5980 -0.0601
  169SAPS   H6X19175  -0.094   6.184   6.716 -0.8870  0.0241 -0.0073
  169SAPS   H6Y19176  -0.265   6.170   6.760  0.1696 -1.3201  2.9841
  169SAPS   C3719177  -0.188   6.047   6.584 -0.3061 -1.0706 -0.1579
  169SAPS   H7X19178  -0.281   5.986   6.584 -0.2071 -1.2730 -1.9516
  169SAPS   H7Y19179  -0.102   5.979   6.564  0.1134 -0.5427 -0.1920
  169SAPS   C3819180  -0.196   6.144   6.470  0.0113  0.0839 -0.3112
  169SAPS   H8X19181  -0.123   6.227   6.458  0.4032  0.0010  1.3215
  169SAPS   H8Y19182  -0.290   6.204   6.471 -0.4095 -0.5093 -1.6515
  169SAPS   C3919183  -0.191   6.071   6.338  0.2124  0.8357  0.4856
  169SAPS   H9X19184  -0.263   5.987   6.352 -1.0952  1.6466 -1.0343
  169SAPS   H9Y19185  -0.086   6.036   6.322 -0.1392 -1.4191  2.4973
  169SAPS  C31019186  -0.224   6.168   6.216 -0.3439  0.4292  0.1305
  169SAPS  H10X19187  -0.143   6.244   6.208  0.4065 -0.3583  0.1143
  169SAPS  H10Y19188  -0.317   6.227   6.234  0.7774  1.7781  1.8323
  169SAPS  C31119189  -0.238   6.098   6.083 -0.4927  0.0346  0.7132
  169SAPS  H11X19190  -0.296   6.005   6.099  2.1289 -2.0480 -1.1071
  169SAPS  H11Y19191  -0.137   6.074   6.043  0.4905  2.5984  1.4262
  169SAPS  C31219192  -0.289   6.188   5.972  0.2070  0.2238  0.0319
  169SAPS  H12X19193  -0.205   6.250   5.935  0.3431 -0.1007 -0.2140
  169SAPS  H12Y19194  -0.378   6.250   5.997 -0.7834 -0.8464 -0.7295
  169SAPS  C31319195  -0.332   6.101   5.854  0.1034  0.8550  0.0971
  169SAPS  H13X19196  -0.410   6.029   5.890  0.3030  0.3424 -0.4730
  169SAPS  H13Y19197  -0.256   6.032   5.811 -0.5845 -0.4770  0.9209
  169SAPS  C31419198  -0.386   6.180   5.741  0.6134 -0.0543 -0.5716
  169SAPS  H14X19199  -0.304   6.247   5.706  1.3985  0.3235  1.8084
  169SAPS  H14Y19200  -0.477   6.242   5.756  1.2577  0.9832 -0.8029
  169SAPS  C31519201  -0.405   6.086   5.626 -0.5689 -0.1676 -0.0166
  169SAPS  H15X19202  -0.499   6.035   5.656 -0.2773  0.3619  1.9779
  169SAPS  H15Y19203  -0.324   6.013   5.606 -1.7953 -1.1544 -1.6124
  169SAPS  C31619204  -0.438   6.147   5.489 -0.3589  0.1551 -0.3890
  169SAPS  H16X19205  -0.339   6.183   5.454  1.8353 -2.5829  2.3585
  169SAPS  H16Y19206  -0.512   6.229   5.500 -0.7307 -0.3158  0.8512
  169SAPS  C31719207  -0.498   6.044   5.391  1.0775 -0.0118 -0.0343
  169SAPS  H17X19208  -0.597   6.003   5.418  0.5933  0.3143 -1.2263
  169SAPS  H17Y19209  -0.424   5.962   5.393  0.2155 -0.8326 -0.8910
  169SAPS  C31819210  -0.523   6.089   5.245  0.2374  0.1059  0.6258
  169SAPS  H18X19211  -0.568   6.004   5.188  2.2685 -0.0743 -0.8499
  169SAPS  H18Y19212  -0.430   6.117   5.190 -1.1275  1.2072 -1.2442
  169SAPS  H18Z19213  -0.597   6.171   5.239 -0.4989 -0.5604  0.3432
  170SAPS     N19214   2.369   3.449   7.539  0.4330 -0.0705 -0.0850
  170SAPS   HN119215   2.440   3.447   7.616 -2.2599 -0.4548  2.5731
  170SAPS   HN219216   2.403   3.483   7.447 -0.1620  0.4906 -0.1010
  170SAPS   HN319217   2.294   3.515   7.568 -1.0613 -0.5295 -2.5667
  170SAPS   C1219218   2.293   3.317   7.534  0.4802 -0.5952 -0.3046
  170SAPS  H12A19219   2.349   3.250   7.470 -0.8319 -0.9737 -1.0961
  170SAPS   C1319220   2.255   3.248   7.668  0.7024 -0.1255  0.5140
  170SAPS  O13A19221   2.274   3.305   7.778 -0.3810  0.2387 -0.4646
  170SAPS  O13B19222   2.202   3.135   7.663 -0.1210  0.5685  0.3334
  170SAPS   C1119223   2.166   3.348   7.451 -0.0631  0.8805 -0.2244
  170SAPS  H11A19224   2.095   3.402   7.517 -0.3624  2.7927 -1.9996
  170SAPS  H11B19225   2.128   3.246   7.431  1.5356  0.3018 -0.4793
  170SAPS     P19226   2.076   3.420   7.218 -0.5061  0.0077  0.0647
  170SAPS   O1319227   1.939   3.405   7.279 -0.1079  0.0535  0.5942
  170SAPS   O1419228   2.102   3.540   7.129 -0.4168  0.0578 -0.3277
  170SAPS   O1219229   2.187   3.420   7.333  0.0892  0.1514 -0.2120
  170SAPS   O1119230   2.107   3.285   7.137  0.2586 -0.0728  0.5103
  170SAPS    C119231   2.246   3.246   7.123 -0.1076 -0.5343  0.8769
  170SAPS    HA19232   2.306   3.336   7.096 -0.1963 -0.8598 -0.4710
  170SAPS    HB19233   2.281   3.195   7.215  1.8076 -1.6294 -0.3969
  170SAPS    C219234   2.265   3.131   7.014 -0.1461 -0.4861 -0.8973
  170SAPS    HS19235   2.366   3.085   7.026  0.6139  0.8393 -1.9470
  170SAPS   O2119236   2.238   3.174   6.880  0.3500 -0.3452  0.3325
  170SAPS   C2119237   2.341   3.247   6.843  0.3687 -0.4408 -0.2213
  170SAPS   O2219238   2.443   3.275   6.904 -0.7934  0.3367  0.4141
  170SAPS   C2219239   2.321   3.296   6.698 -0.3671 -0.3245  0.2159
  170SAPS   H2R19240   2.334   3.217   6.621  0.4320  1.7472 -1.9068
  170SAPS   H2S19241   2.219   3.339   6.695  0.3492  1.7402  2.3532
  170SAPS    C319242   2.171   3.009   7.037 -0.1335 -0.1560 -0.5152
  170SAPS    HX19243   2.074   3.014   6.983  1.0167  1.2171 -2.6239
  170SAPS    HY19244   2.149   2.995   7.145  1.5115 -0.3075 -0.1662
  170SAPS   O3119245   2.234   2.891   6.985  0.2009  0.0140 -0.1394
  170SAPS   C3119246   2.191   2.770   7.025 -0.1324 -0.5550 -0.1474
  170SAPS   O3219247   2.114   2.747   7.117 -0.7631 -0.0376 -0.5239
  170SAPS   C3219248   2.243   2.657   6.942 -0.1642 -0.1163  0.8958
  170SAPS   H2X19249   2.163   2.582   6.922  0.4214 -0.5627  0.2009
  170SAPS   H2Y19250   2.317   2.606   7.008 -1.0747 -0.7114  1.4862
  170SAPS   C2319251   2.431   3.406   6.669 -0.6076 -0.8426 -0.1109
  170SAPS   H3R19252   2.537   3.377   6.690  0.2297  1.4612 -0.8769
  170SAPS   H3S19253   2.404   3.495   6.729  2.0127  0.3005 -0.4859
  170SAPS   C2419254   2.420   3.459   6.524  0.1792  0.3453 -0.4592
  170SAPS   H4R19255   2.463   3.561   6.514  0.8797 -0.0804 -2.0658
  170SAPS   H4S19256   2.315   3.468   6.490  0.2428 -1.4754 -1.2069
  170SAPS   C2519257   2.502   3.371   6.430 -0.2265  0.3800  0.4087
  170SAPS   H5R19258   2.608   3.372   6.459 -0.1220  1.6606  0.0504
  170SAPS   C2619259   2.462   3.312   6.316 -0.0063 -0.3896  0.2437
  170SAPS   H6R19260   2.533   3.250   6.259  1.6181  1.2468  0.4068
  170SAPS   C2719261   2.320   3.316   6.264 -0.2716 -0.3731  0.0419
  170SAPS   H7R19262   2.298   3.397   6.191 -0.0495  1.0871  1.5529
  170SAPS   H7S19263   2.250   3.340   6.346  3.0261 -0.6286  3.1509
  170SAPS   C2819264   2.268   3.181   6.205 -0.3838  0.2748 -0.1270
  170SAPS   H8R19265   2.199   3.131   6.274  0.0202 -1.2602 -0.7939
  170SAPS   C2919266   2.316   3.124   6.087 -0.1036 -0.2822 -0.3046
  170SAPS   H9R19267   2.262   3.039   6.042  0.0269  0.2292 -1.4501
  170SAPS  C21019268   2.425   3.185   5.998 -0.3348 -0.1621 -0.3164
  170SAPS  H10R19269   2.493   3.105   5.961 -0.9990 -1.0580  0.3556
  170SAPS  H10S19270   2.495   3.252   6.054  1.4702 -2.0101 -0.2434
  170SAPS  C21119271   2.370   3.258   5.879  0.4985 -0.2702  0.3670
  170SAPS  H11R19272   2.400   3.364   5.874 -1.5113  0.3710  1.1762
  170SAPS  C21219273   2.331   3.215   5.760  0.2036  1.1831  0.3435
  170SAPS  H12R19274   2.283   3.280   5.684  0.2874  1.2858  0.3782
  170SAPS  C21319275   2.312   3.067   5.728 -0.0154  0.6096 -0.9692
  170SAPS  H13R19276   2.234   3.023   5.794  0.7477 -0.8874 -1.0134
  170SAPS  H13S19277   2.407   3.012   5.744  0.4189  1.2675 -1.2632
  170SAPS  C21419278   2.256   3.043   5.594  0.2055 -0.8970 -0.1541
  170SAPS  H14R19279   2.147   3.059   5.589  0.1850 -0.3744  1.4782
  170SAPS  C21519280   2.325   3.016   5.479  0.1719 -0.3248 -0.2880
  170SAPS  H15R19281   2.276   3.003   5.381 -1.2990  0.4020  0.3235
  170SAPS  C21619282   2.477   3.005   5.459  0.7495 -0.0045  0.4722
  170SAPS  H16R19283   2.532   3.003   5.555  1.3756  1.9889  0.1940
  170SAPS  H16S19284   2.505   3.089   5.392  1.5992 -1.9944 -1.7856
  170SAPS  C21719285   2.517   2.880   5.385 -0.4159  0.7438  0.2671
  170SAPS  H17R19286   2.459   2.871   5.290 -0.9042 -0.1568  0.6341
  170SAPS  H17S19287   2.489   2.788   5.441  0.8238 -0.3121 -0.7907
  170SAPS  C21819288   2.669   2.888   5.356  0.4994 -0.4067 -0.5743
  170SAPS  H18R19289   2.721   2.879   5.454  0.5962  1.7244 -0.3820
  170SAPS  H18S19290   2.696   2.987   5.314  2.2382 -0.9511 -0.8112
  170SAPS  C21919291   2.741   2.789   5.267 -1.0218 -0.1436 -0.2108
  170SAPS  H19R19292   2.684   2.782   5.172 -0.1060 -0.5684 -0.7410
  170SAPS  H19S19293   2.729   2.688   5.312  0.4034 -0.7375 -1.0962
  170SAPS  C22019294   2.883   2.818   5.233  0.2317 -0.1234 -0.1942
  170SAPS  H20R19295   2.936   2.724   5.205 -0.6174  0.0391 -2.5694
  170SAPS  H20S19296   2.935   2.861   5.322  0.2060  0.0511 -0.2648
  170SAPS  H20T19297   2.884   2.880   5.141  1.1547 -1.3141 -1.0147
  170SAPS   C3319298   2.303   2.707   6.805 -0.5897 -0.0574 -0.2306
  170SAPS   H3X19299   2.398   2.762   6.824 -0.3020 -1.1316  1.6134
  170SAPS   H3Y19300   2.241   2.783   6.752 -2.9672 -1.7637 -0.0731
  170SAPS   C3419301   2.326   2.590   6.700  0.3569  0.4193  0.2380
  170SAPS   H4X19302   2.339   2.638   6.601  2.4273 -0.2383  0.1492
  170SAPS   H4Y19303   2.239   2.521   6.691  0.2389  0.8191 -2.3959
  170SAPS   C3519304   2.448   2.525   6.739  0.4175  0.1037  0.0151
  170SAPS   H5X19305   2.449   2.506   6.849  2.8437  0.1833  0.0537
  170SAPS   H5Y19306   2.533   2.585   6.700 -0.9411  1.2842 -1.2693
  170SAPS   C3619307   2.464   2.388   6.675 -1.1213  0.2561  0.4235
  170SAPS   H6X19308   2.375   2.329   6.704 -1.8855  1.8163  1.3920
  170SAPS   H6Y19309   2.561   2.344   6.709  0.8646  2.6974 -1.6250
  170SAPS   C3719310   2.486   2.386   6.519  0.0097  0.2356  0.5060
  170SAPS   H7X19311   2.399   2.442   6.479 -0.2410  0.2746  1.0986
  170SAPS   H7Y19312   2.487   2.282   6.480 -1.0846  0.7994 -1.1097
  170SAPS   C3819313   2.622   2.450   6.484  0.0023 -0.4838  1.1426
  170SAPS   H8X19314   2.702   2.375   6.501  0.8118 -0.2990 -1.3471
  170SAPS   H8Y19315   2.649   2.529   6.556 -1.6634  3.1319 -1.8445
  170SAPS   C3919316   2.620   2.497   6.330  0.4860  0.9263 -0.2606
  170SAPS   H9X19317   2.698   2.577   6.327  2.0784 -0.3723  2.2628
  170SAPS   H9Y19318   2.524   2.548   6.311  1.1461  1.9698 -0.8825
  170SAPS  C31019319   2.644   2.379   6.234 -0.0771  0.7139  0.1911
  170SAPS  H10X19320   2.551   2.318   6.238 -2.6260  4.1869 -0.4731
  170SAPS  H10Y19321   2.731   2.330   6.281 -0.8360  0.9943  1.9780
  170SAPS  C31119322   2.665   2.428   6.090 -0.3421 -0.2229  0.6029
  170SAPS  H11X19323   2.751   2.497   6.080  0.9827 -1.9077 -0.0842
  170SAPS  H11Y19324   2.575   2.482   6.055 -0.2975  0.5368  1.6166
  170SAPS  C31219325   2.691   2.318   5.984  0.4866 -1.0999  0.5015
  170SAPS  H12X19326   2.659   2.360   5.887  0.0554  0.2685  1.2150
  170SAPS  H12Y19327   2.622   2.239   6.021  0.4788 -0.6193  1.5442
  170SAPS  C31319328   2.837   2.267   5.988 -0.1581 -0.3309 -0.9879
  170SAPS  H13X19329   2.871   2.243   6.091  0.1517  1.8053 -0.5485
  170SAPS  H13Y19330   2.897   2.355   5.958 -1.6306  0.7247 -0.9725
  170SAPS  C31419331   2.856   2.154   5.887 -0.0078  0.0234  0.4650
  170SAPS  H14X19332   2.846   2.188   5.782 -0.1543 -1.9640 -0.2052
  170SAPS  H14Y19333   2.769   2.086   5.899 -1.1852  1.2805 -0.7099
  170SAPS  C31519334   2.995   2.075   5.897 -0.0321 -0.0161  0.2576
  170SAPS  H15X19335   2.998   2.011   5.806  2.3617  0.1647  0.1389
  170SAPS  H15Y19336   2.991   2.020   5.993 -1.3661 -0.1313  0.1500
  170SAPS  C31619337   3.111   2.170   5.897 -0.1742  0.1698 -0.0436
  170SAPS  H16X19338   3.102   2.235   5.987 -1.1204 -1.2123  0.9142
  170SAPS  H16Y19339   3.104   2.221   5.799  0.1877 -1.3450 -0.8893
  170SAPS  C31719340   3.242   2.093   5.915 -0.5190  0.2456  0.0789
  170SAPS  H17X19341   3.254   2.011   5.841  0.5889  0.2432  0.2356
  170SAPS  H17Y19342   3.234   2.047   6.016  0.5601 -0.1103  0.0178
  170SAPS  C31819343   3.368   2.179   5.898  0.1151  0.4339 -0.4376
  170SAPS  H18X19344   3.359   2.271   5.959  0.3259 -0.0613  0.3564
  170SAPS  H18Y19345   3.373   2.235   5.803  0.2822  1.2661  0.0470
  170SAPS  H18Z19346   3.460   2.138   5.945  0.4874  2.5590  0.8072
  171SAPS     N19347   4.432   2.568   7.881  0.3646  0.7434  0.6963
  171SAPS   HN119348   4.384   2.657   7.856  0.7273  0.5647 -0.7397
  171SAPS   HN219349   4.389   2.502   7.948 -1.3227 -2.6073 -3.2448
  171SAPS   HN319350   4.533   2.573   7.905  0.4002 -0.2956  0.7872
  171SAPS   C1219351   4.417   2.477   7.760 -0.1401  0.1183 -0.5579
  171SAPS  H12A19352   4.463   2.532   7.680 -1.2163  0.7937 -0.7410
  171SAPS   C1319353   4.489   2.335   7.769  0.7269 -0.7758  0.1724
  171SAPS  O13A19354   4.551   2.304   7.872 -0.7071 -0.8337 -0.1378
  171SAPS  O13B19355   4.511   2.274   7.660  0.1566  0.2331 -0.0499
  171SAPS   C1119356   4.276   2.436   7.724  1.0382 -0.0034 -0.3998
  171SAPS  H11A19357   4.231   2.389   7.814  1.8875  2.4257  1.3918
  171SAPS  H11B19358   4.268   2.361   7.641 -1.5704 -0.7038  0.3995
  171SAPS     P19359   4.054   2.528   7.638 -0.2776  0.0532  0.1599
  171SAPS   O1319360   3.988   2.409   7.694  0.7582  0.0283 -0.5138
  171SAPS   O1419361   3.991   2.663   7.656 -0.2482 -0.1712  0.5296
  171SAPS   O1219362   4.203   2.544   7.683  0.2428 -0.8761  0.0379
  171SAPS   O1119363   4.062   2.509   7.484 -0.2146 -0.6899  0.0332
  171SAPS    C119364   4.150   2.577   7.393 -1.0648 -0.7098 -0.7183
  171SAPS    HA19365   4.131   2.686   7.407 -2.4227 -0.7843 -1.7369
  171SAPS    HB19366   4.258   2.562   7.414 -0.9160 -0.7836 -1.4982
  171SAPS    C219367   4.094   2.563   7.251  0.1347 -0.3280  0.0444
  171SAPS    HS19368   4.126   2.650   7.190 -0.1194  0.6240  1.2216
  171SAPS   O2119369   3.954   2.545   7.245 -0.1351 -0.6001  0.2901
  171SAPS   C2119370   3.882   2.652   7.276  0.0333 -0.2550  0.0145
  171SAPS   O2219371   3.930   2.765   7.281 -0.5639 -0.0219 -0.6012
  171SAPS   C2219372   3.735   2.628   7.282  0.5391  0.0746 -0.7425
  171SAPS   H2R19373   3.697   2.670   7.377 -0.9702 -1.1625 -0.7725
  171SAPS   H2S19374   3.687   2.683   7.199 -1.7732 -0.8526 -0.0934
  171SAPS    C319375   4.172   2.442   7.179  0.4404 -0.1428 -0.2921
  171SAPS    HX19376   4.171   2.349   7.238  0.2552 -0.4753 -0.8134
  171SAPS    HY19377   4.277   2.478   7.187  0.4203 -0.4809  2.3002
  171SAPS   O3119378   4.143   2.427   7.042  0.3718 -0.0474  0.6262
  171SAPS   C3119379   4.048   2.342   7.012  0.6031  0.7020  0.0183
  171SAPS   O3219380   3.979   2.278   7.088  0.0444 -0.3170  0.0520
  171SAPS   C3219381   4.030   2.336   6.864  0.3509  0.3106 -0.4923
  171SAPS   H2X19382   4.126   2.298   6.823  0.3516 -0.3207  0.0774
  171SAPS   H2Y19383   4.015   2.438   6.823  0.8522 -0.1101 -1.7825
  171SAPS   C2319384   3.688   2.478   7.286  0.3848  0.3805  0.0561
  171SAPS   H3R19385   3.591   2.465   7.339  0.2785 -1.7139 -0.5542
  171SAPS   H3S19386   3.758   2.418   7.347  0.5138  0.2723 -0.1958
  171SAPS   C2419387   3.685   2.408   7.146 -0.3681 -0.0725  0.0007
  171SAPS   H4R19388   3.672   2.299   7.162  1.6295 -0.3303  0.1992
  171SAPS   H4S19389   3.790   2.407   7.107 -1.6063  0.2284 -3.7546
  171SAPS   C2519390   3.597   2.460   7.036 -0.1389 -0.8113  0.0933
  171SAPS   H5R19391   3.497   2.415   7.021 -0.2393 -1.5762  2.6596
  171SAPS   C2619392   3.629   2.564   6.953  0.3763  0.4428 -0.6809
  171SAPS   H6R19393   3.556   2.598   6.878 -1.8161 -0.5545  0.8737
  171SAPS   C2719394   3.772   2.632   6.944  0.6684  0.7627 -0.4169
  171SAPS   H7R19395   3.819   2.592   6.852  2.5071 -0.3938  0.9689
  171SAPS   H7S19396   3.840   2.596   7.024 -1.1646  0.6732  1.1751
  171SAPS   C2819397   3.781   2.782   6.933  0.1709  0.2887  0.1633
  171SAPS   H8R19398   3.798   2.826   7.032  0.9118 -1.0595  0.6600
  171SAPS   C2919399   3.774   2.868   6.827  0.3452  0.1228  0.2299
  171SAPS   H9R19400   3.797   2.975   6.837 -0.6115  0.4564 -0.8759
  171SAPS  C21019401   3.753   2.815   6.687  0.2941 -0.0873 -0.2039
  171SAPS  H10R19402   3.697   2.719   6.693  0.4496 -0.1950 -0.4680
  171SAPS  H10S19403   3.851   2.784   6.646  0.4533 -0.9708  0.7928
  171SAPS  C21119404   3.685   2.900   6.584  0.5595  0.0527  0.3780
  171SAPS  H11R19405   3.735   2.974   6.520 -2.3866  1.8157 -0.0660
  171SAPS  C21219406   3.554   2.902   6.584  0.2843  0.3176  0.6820
  171SAPS  H12R19407   3.515   2.951   6.493 -0.2346 -0.2103  0.6197
  171SAPS  C21319408   3.444   2.827   6.656  0.6139  1.0331 -0.3232
  171SAPS  H13R19409   3.369   2.893   6.704  1.1485  1.3204  0.1448
  171SAPS  H13S19410   3.479   2.771   6.746 -1.7115  0.5904  0.3721
  171SAPS  C21419411   3.382   2.712   6.570  0.6778 -0.1725  0.0514
  171SAPS  H14R19412   3.455   2.655   6.511  1.1201 -0.2447  0.6606
  171SAPS  C21519413   3.253   2.691   6.555 -0.4644  0.1886 -0.8489
  171SAPS  H15R19414   3.221   2.606   6.493 -0.0957 -1.5905  1.2732
  171SAPS  C21619415   3.139   2.768   6.625 -0.3326  0.1773 -0.0968
  171SAPS  H16R19416   3.053   2.800   6.563 -0.2790 -1.3375 -0.9922
  171SAPS  H16S19417   3.178   2.870   6.650  1.1580 -0.6342  1.0481
  171SAPS  C21719418   3.068   2.704   6.744  0.5090  0.2506  0.1826
  171SAPS  H17R19419   2.996   2.774   6.791  0.6858  1.0995 -0.7756
  171SAPS  H17S19420   3.138   2.668   6.822  0.5022  0.7062  0.4011
  171SAPS  C21819421   2.981   2.583   6.697 -0.3623 -0.1511 -0.2466
  171SAPS  H18R19422   3.050   2.522   6.636 -2.1519 -0.8781 -1.6089
  171SAPS  H18S19423   2.900   2.607   6.625 -0.8866  0.9307  0.6570
  171SAPS  C21919424   2.934   2.488   6.810 -0.7247  0.1654 -0.2422
  171SAPS  H19R19425   2.853   2.544   6.860 -1.8267 -1.0316 -0.6256
  171SAPS  H19S19426   3.018   2.465   6.879 -0.2161 -1.6820 -1.3806
  171SAPS  C22019427   2.880   2.352   6.752 -0.1116 -0.4648  0.2497
  171SAPS  H20R19428   2.777   2.361   6.711 -0.3520  1.3954  1.1465
  171SAPS  H20S19429   2.868   2.286   6.840  0.4902  1.3664  1.7819
  171SAPS  H20T19430   2.957   2.315   6.681 -2.0265  2.0527 -3.5330
  171SAPS   C3319431   3.921   2.237   6.817 -0.8925  0.0215  0.2052
  171SAPS   H3X19432   3.822   2.285   6.831  0.3392  2.3316  1.5364
  171SAPS   H3Y19433   3.915   2.138   6.868 -0.0894  0.6376  1.5650
  171SAPS   C3419434   3.941   2.200   6.663  0.9989  0.3636  0.2919
  171SAPS   H4X19435   3.874   2.117   6.632  0.3055  0.5208  1.3014
  171SAPS   H4Y19436   4.046   2.164   6.654  0.2636 -2.3132  1.3859
  171SAPS   C3519437   3.921   2.317   6.571  0.4160 -1.1603  0.0903
  171SAPS   H5X19438   3.940   2.293   6.464  0.2149  1.6963 -0.6914
  171SAPS   H5Y19439   4.002   2.387   6.604  1.6256 -2.6754  0.4509
  171SAPS   C3619440   3.779   2.375   6.575  0.6650  0.0103  0.3581
  171SAPS   H6X19441   3.759   2.449   6.656  0.2019 -0.3496  0.5796
  171SAPS   H6Y19442   3.711   2.289   6.598 -0.9580  1.0081 -0.5201
  171SAPS   C3719443   3.744   2.442   6.446  0.4164 -0.1562  0.3061
  171SAPS   H7X19444   3.804   2.534   6.430 -0.5822  0.8834  2.2188
  171SAPS   H7Y19445   3.642   2.484   6.456  0.1865 -0.9684  1.5667
  171SAPS   C3819446   3.748   2.357   6.320  0.9568 -0.4116  0.5555
  171SAPS   H8X19447   3.701   2.261   6.349  1.9137 -1.3281 -0.8178
  171SAPS   H8Y19448   3.850   2.340   6.282  0.5943 -1.8350  0.1480
  171SAPS   C3919449   3.666   2.411   6.203 -0.6327 -0.0516 -0.2551
  171SAPS   H9X19450   3.717   2.507   6.179 -0.2278 -0.4099 -0.8377
  171SAPS   H9Y19451   3.563   2.438   6.236 -0.4534 -0.7057  0.8591
  171SAPS  C31019452   3.644   2.314   6.085  0.1741 -0.0363  0.6197
  171SAPS  H10X19453   3.534   2.298   6.076 -0.0690  1.6829  0.1930
  171SAPS  H10Y19454   3.685   2.211   6.096  2.1561  0.4390 -1.4692
  171SAPS  C31119455   3.711   2.353   5.954 -0.0023  0.2273 -0.5407
  171SAPS  H11X19456   3.693   2.462   5.938  0.6221  0.7326  1.8476
  171SAPS  H11Y19457   3.670   2.292   5.871  2.1257  0.1941 -1.6260
  171SAPS  C31219458   3.866   2.328   5.950 -0.4331 -0.4758 -0.6276
  171SAPS  H12X19459   3.887   2.221   5.930 -2.3476 -0.7473 -1.4460
  171SAPS  H12Y19460   3.925   2.363   6.037  1.2227 -2.6818 -0.8008
  171SAPS  C31319461   3.945   2.410   5.844  0.1939 -0.0472 -0.3124
  171SAPS  H13X19462   4.055   2.398   5.860  0.1401  1.7208  1.8511
  171SAPS  H13Y19463   3.916   2.517   5.847 -1.7457 -0.5311 -0.6520
  171SAPS  C31419464   3.927   2.358   5.695 -0.0335 -0.2586  0.2830
  171SAPS  H14X19465   3.947   2.430   5.613  1.3490  0.1772  0.9768
  171SAPS  H14Y19466   3.826   2.312   5.694  0.7560 -2.1216  0.1490
  171SAPS  C31519467   4.021   2.241   5.669  0.4519  0.0508 -0.5053
  171SAPS  H15X19468   3.978   2.167   5.740  0.1130 -0.3746 -1.1454
  171SAPS  H15Y19469   4.126   2.263   5.696  0.1342 -1.4616  2.2761
  171SAPS  C31619470   4.002   2.173   5.528 -0.6766 -0.1668 -0.5148
  171SAPS  H16X19471   4.080   2.095   5.513  0.4196  1.2464 -2.8466
  171SAPS  H16Y19472   4.029   2.247   5.449 -2.6650  1.1905 -0.0050
  171SAPS  C31719473   3.861   2.113   5.498  0.3686 -0.1878 -0.1077
  171SAPS  H17X19474   3.861   2.087   5.390 -1.6213 -0.1572 -0.1562
  171SAPS  H17Y19475   3.788   2.196   5.515  1.5212  1.1492 -1.3702
  171SAPS  C31819476   3.824   1.985   5.585  0.4918 -0.2439  1.0550
  171SAPS  H18X19477   3.875   2.007   5.682  0.8776 -0.4899  0.9102
  171SAPS  H18Y19478   3.875   1.903   5.530 -1.0224  0.6611 -1.8558
  171SAPS  H18Z19479   3.716   1.962   5.593  0.3218 -0.7252 -1.7223
  172SAPS     N19480   2.501   5.008   7.239  0.3900  0.3237 -0.1392
  172SAPS   HN119481   2.444   5.095   7.231 -0.8818 -0.4678 -0.0575
  172SAPS   HN219482   2.454   4.938   7.179  0.8293  0.4201 -0.6032
  172SAPS   HN319483   2.492   4.983   7.340 -1.6285  3.6595  0.7052
  172SAPS   C1219484   2.634   5.031   7.198 -0.8512  0.1638 -0.5395
  172SAPS  H12A19485   2.633   5.047   7.092  0.9748  3.3947 -0.1822
  172SAPS   C1319486   2.709   5.149   7.273 -0.4221 -1.0700  0.4013
  172SAPS  O13A19487   2.650   5.214   7.367 -0.3812  0.2211  0.6091
  172SAPS  O13B19488   2.814   5.203   7.223 -0.6960  0.1726 -0.0423
  172SAPS   C1119489   2.707   4.895   7.233  0.6930  0.3854 -0.2016
  172SAPS  H11A19490   2.707   4.871   7.342 -1.7988 -0.8430 -0.4249
  172SAPS  H11B19491   2.812   4.916   7.201  0.5249 -0.1293 -1.1135
  172SAPS     P19492   2.712   4.641   7.186  0.2929 -0.6446  0.3110
  172SAPS   O1319493   2.857   4.665   7.206  0.2623 -0.1364  0.0393
  172SAPS   O1419494   2.641   4.581   7.297  0.3041  0.5980  0.2532
  172SAPS   O1219495   2.647   4.785   7.168  0.2425 -0.2016 -0.3022
  172SAPS   O1119496   2.679   4.571   7.043  0.4419  0.1529 -0.2598
  172SAPS    C119497   2.629   4.658   6.936  0.3647 -0.1938  0.4133
  172SAPS    HA19498   2.535   4.706   6.969  0.4976 -1.0957  2.1936
  172SAPS    HB19499   2.704   4.738   6.918 -1.1316  1.0077 -0.8143
  172SAPS    C219500   2.603   4.589   6.801  0.5654 -0.3706 -0.1028
  172SAPS    HS19501   2.519   4.517   6.804  1.4188 -1.3857  1.7284
  172SAPS   O2119502   2.724   4.522   6.756 -0.4501 -0.2952 -0.6015
  172SAPS   C2119503   2.708   4.417   6.693 -0.1189  0.7925  0.1331
  172SAPS   O2219504   2.600   4.363   6.670  0.0934  0.0642 -0.1950
  172SAPS   C2219505   2.836   4.338   6.661  0.5767 -0.3340 -0.2804
  172SAPS   H2R19506   2.915   4.413   6.637 -0.6181  0.7579 -0.8811
  172SAPS   H2S19507   2.866   4.280   6.751 -1.2996  1.8988  1.9238
  172SAPS    C319508   2.564   4.700   6.697 -0.0780 -0.1331  0.0355
  172SAPS    HX19509   2.645   4.774   6.686  1.0192 -1.4658 -1.4223
  172SAPS    HY19510   2.478   4.749   6.747 -0.2839  1.7133 -1.9706
  172SAPS   O3119511   2.524   4.649   6.570 -0.9079 -0.2807  0.3083
  172SAPS   C3119512   2.405   4.589   6.575 -0.5054  0.6318  0.1831
  172SAPS   O3219513   2.336   4.570   6.676 -0.0024 -0.0542  0.3974
  172SAPS   C3219514   2.368   4.557   6.432  0.3781 -0.0638  0.1038
  172SAPS   H2X19515   2.358   4.655   6.380  0.9050 -0.3327 -0.5047
  172SAPS   H2Y19516   2.271   4.504   6.427  1.0050 -1.1289 -1.3673
  172SAPS   C2319517   2.823   4.253   6.531 -0.3503  0.4778 -0.2291
  172SAPS   H3R19518   2.758   4.299   6.454  0.6788 -1.0358 -2.0883
  172SAPS   H3S19519   2.784   4.153   6.557  0.2048 -0.2739 -2.1128
  172SAPS   C2419520   2.959   4.244   6.463  0.2087  0.6491  0.0611
  172SAPS   H4R19521   3.028   4.253   6.549  1.5248  0.2501 -0.9214
  172SAPS   H4S19522   2.982   4.336   6.404 -1.3680  0.5664 -0.7540
  172SAPS   C2519523   2.985   4.108   6.389 -0.4480  0.9236  0.6041
  172SAPS   H5R19524   2.997   4.022   6.456 -1.7966  0.9569  0.9072
  172SAPS   C2619525   2.964   4.091   6.255 -0.9926 -0.5636  0.8501
  172SAPS   H6R19526   2.979   3.989   6.215 -0.7024 -0.4936  0.7754
  172SAPS   C2719527   2.916   4.194   6.155  0.1722 -0.3019  0.4618
  172SAPS   H7R19528   2.994   4.263   6.117  1.4489 -1.3402  1.1168
  172SAPS   H7S19529   2.848   4.262   6.211  0.7856 -1.4372  2.6706
  172SAPS   C2819530   2.843   4.135   6.038  0.6298 -0.3855 -0.5175
  172SAPS   H8R19531   2.741   4.100   6.062  0.4076 -0.2878 -1.3105
  172SAPS   C2919532   2.876   4.125   5.914  0.2443 -0.3656  0.5719
  172SAPS   H9R19533   2.801   4.079   5.848 -0.2188  0.4443  0.5138
  172SAPS  C21019534   3.014   4.153   5.853 -0.1001  0.0522 -0.6689
  172SAPS  H10R19535   3.085   4.144   5.938  0.1558 -0.7311 -0.9641
  172SAPS  H10S19536   3.004   4.260   5.823 -1.1498  0.1546  0.0083
  172SAPS  C21119537   3.054   4.073   5.730 -0.2425 -0.0620 -0.0318
  172SAPS  H11R19538   2.999   4.102   5.639  0.3661  2.1309  0.2371
  172SAPS  C21219539   3.145   3.975   5.725  0.3868  0.2323 -0.4372
  172SAPS  H12R19540   3.155   3.926   5.627 -1.4685  0.5665 -0.8368
  172SAPS  C21319541   3.225   3.920   5.842  0.4352 -0.0504  0.8381
  172SAPS  H13R19542   3.180   3.951   5.938 -0.9391  0.6769 -0.0231
  172SAPS  H13S19543   3.328   3.961   5.838  0.9983 -1.4452 -1.8615
  172SAPS  C21419544   3.229   3.765   5.841 -0.0090 -0.1003 -0.3710
  172SAPS  H14R19545   3.143   3.711   5.883 -0.5778 -0.9048 -2.4397
  172SAPS  C21519546   3.321   3.695   5.772 -0.3950 -0.0897 -0.6989
  172SAPS  H15R19547   3.319   3.585   5.770 -1.4425 -0.0772 -0.7557
  172SAPS  C21619548   3.440   3.757   5.697  0.5499  0.8821  0.1745
  172SAPS  H16R19549   3.522   3.682   5.694 -0.6744 -0.4652 -0.4623
  172SAPS  H16S19550   3.481   3.847   5.750  1.7194 -0.6037  1.9206
  172SAPS  C21719551   3.414   3.798   5.558 -0.2893  0.4381  0.5580
  172SAPS  H17R19552   3.498   3.854   5.512 -0.8741  0.2523 -0.7904
  172SAPS  H17S19553   3.336   3.878   5.558 -2.0244 -1.2017  0.3856
  172SAPS  C21819554   3.395   3.677   5.462 -0.3158  0.1588 -0.4387
  172SAPS  H18R19555   3.285   3.660   5.461 -0.4957  1.0836  1.1640
  172SAPS  H18S19556   3.451   3.590   5.502  0.9255  0.3976 -1.6050
  172SAPS  C21919557   3.447   3.706   5.325  0.4789  0.3082 -0.0619
  172SAPS  H19R19558   3.548   3.752   5.326 -0.0168  1.6977 -2.9459
  172SAPS  H19S19559   3.383   3.785   5.281 -1.1923 -1.3887 -0.7700
  172SAPS  C22019560   3.464   3.592   5.228  0.5713 -0.3073  0.7103
  172SAPS  H20R19561   3.491   3.634   5.129 -0.3832  0.4143  0.7359
  172SAPS  H20S19562   3.366   3.547   5.201  1.8173 -0.8008 -3.7909
  172SAPS  H20T19563   3.537   3.518   5.265 -1.7388 -2.5020  1.1870
  172SAPS   C3319564   2.474   4.460   6.366  0.2414  0.3468  1.1921
  172SAPS   H3X19565   2.572   4.472   6.415  1.9910  1.9701 -2.3211
  172SAPS   H3Y19566   2.493   4.501   6.265  1.4231 -1.9981  0.3924
  172SAPS   C3419567   2.439   4.316   6.367 -0.4247 -0.4836  0.2623
  172SAPS   H4X19568   2.428   4.293   6.475  1.1235 -0.6771  0.4009
  172SAPS   H4Y19569   2.532   4.264   6.334  1.7086  2.0007  1.9157
  172SAPS   C3519570   2.316   4.285   6.282 -0.5907 -0.5016 -0.0033
  172SAPS   H5X19571   2.231   4.343   6.323 -0.7843 -0.6870 -0.1384
  172SAPS   H5Y19572   2.289   4.178   6.285  0.4916 -0.8153 -0.8524
  172SAPS   C3619573   2.312   4.333   6.136 -0.6127 -0.2209 -0.1885
  172SAPS   H6X19574   2.275   4.438   6.132  1.6618  0.7098  1.2805
  172SAPS   H6Y19575   2.230   4.267   6.099  0.4977 -1.2947 -0.7763
  172SAPS   C3719576   2.449   4.320   6.065  0.5306  0.3884  0.8227
  172SAPS   H7X19577   2.474   4.212   6.062  0.1168  0.1804  2.9389
  172SAPS   H7Y19578   2.530   4.383   6.109  0.6863  2.0609 -1.6315
  172SAPS   C3819579   2.445   4.363   5.914 -0.5914 -0.0028  0.5913
  172SAPS   H8X19580   2.544   4.328   5.876  0.2098 -0.3944  2.9040
  172SAPS   H8Y19581   2.451   4.473   5.901 -0.7715 -0.2150 -1.8827
  172SAPS   C3919582   2.331   4.315   5.827 -0.0756 -0.3272  0.2474
  172SAPS   H9X19583   2.314   4.364   5.729 -0.5747  0.2444  0.6107
  172SAPS   H9Y19584   2.236   4.338   5.879  0.6590 -2.1404  2.5826
  172SAPS  C31019585   2.334   4.164   5.807  0.0296  0.8096  0.4804
  172SAPS  H10X19586   2.334   4.119   5.908 -1.1176 -1.5753 -0.5159
  172SAPS  H10Y19587   2.430   4.144   5.754 -1.2311 -1.8938 -0.9591
  172SAPS  C31119588   2.221   4.099   5.727  0.0334 -0.4596  0.0209
  172SAPS  H11X19589   2.233   3.989   5.721 -1.1332 -0.7797  2.4904
  172SAPS  H11Y19590   2.231   4.137   5.623 -0.5048 -0.5092 -0.0512
  172SAPS  C31219591   2.076   4.109   5.775  0.2863 -0.0222  0.3211
  172SAPS  H12X19592   2.010   4.155   5.698  0.9366  2.0491  0.9290
  172SAPS  H12Y19593   2.074   4.185   5.856 -1.3293 -1.3988  1.6806
  172SAPS  C31319594   2.021   3.978   5.835 -0.2314  0.4454  0.2231
  172SAPS  H13X19595   2.077   3.966   5.931 -1.7272 -0.9463  0.9502
  172SAPS  H13Y19596   2.036   3.897   5.761  0.8012  2.0866 -1.4728
  172SAPS  C31419597   1.872   3.987   5.867  0.4778 -0.2237 -0.1994
  172SAPS  H14X19598   1.808   4.016   5.781 -0.1925 -1.5978 -0.1972
  172SAPS  H14Y19599   1.862   4.075   5.934 -1.7446 -0.9996  0.5701
  172SAPS  C31519600   1.824   3.867   5.950 -0.6377 -0.6621 -0.3407
  172SAPS  H15X19601   1.736   3.878   6.018 -0.4144 -0.8150 -0.0218
  172SAPS  H15Y19602   1.907   3.848   6.021  0.1693  1.7027 -0.5915
  172SAPS  C31619603   1.812   3.746   5.856  0.1067  0.4254  0.1094
  172SAPS  H16X19604   1.729   3.757   5.784 -0.8576  2.7920  1.4671
  172SAPS  H16Y19605   1.911   3.738   5.805  0.4506 -0.1339  0.8356
  172SAPS  C31719606   1.770   3.621   5.941 -0.4198 -0.3966 -0.1805
  172SAPS  H17X19607   1.663   3.641   5.964 -0.1961  0.3237  0.2731
  172SAPS  H17Y19608   1.813   3.627   6.043  1.9123  0.6532 -1.1653
  172SAPS  C31819609   1.810   3.492   5.881 -0.2282 -0.1576 -0.2802
  172SAPS  H18X19610   1.781   3.407   5.947 -1.3026 -0.5561 -1.2330
  172SAPS  H18Y19611   1.918   3.481   5.862 -0.0748  1.4858 -0.4575
  172SAPS  H18Z19612   1.759   3.455   5.789  1.5318  1.3070 -1.9046
  173SAPS     N19613   5.402   3.768   2.562 -0.0491  0.2413  1.1898
  173SAPS   HN119614   5.330   3.746   2.635 -2.0030  3.0557  0.2721
  173SAPS   HN219615   5.403   3.695   2.488 -1.2014  1.9852 -0.6257
  173SAPS   HN319616   5.497   3.793   2.597 -0.2257  0.5365  1.4581
  173SAPS   C1219617   5.342   3.893   2.490 -0.4956  0.2510  0.1082
  173SAPS  H12A19618   5.425   3.939   2.438  1.6831 -1.9780  1.3601
  173SAPS   C1319619   5.252   3.852   2.374 -0.6483  0.3147  0.0020
  173SAPS  O13A19620   5.237   3.731   2.352 -0.0462 -0.0170  0.4091
  173SAPS  O13B19621   5.185   3.939   2.314  0.0408  0.1674  0.4130
  173SAPS   C1119622   5.258   3.981   2.589  0.2689  0.6457  0.5473
  173SAPS  H11A19623   5.170   3.916   2.611 -1.1094  1.4403 -2.1054
  173SAPS  H11B19624   5.210   4.065   2.534  3.0388  2.4629  0.7238
  173SAPS     P19625   5.256   4.092   2.826  0.0893  0.2560 -0.1993
  173SAPS   O1319626   5.265   4.237   2.824  0.4300  0.2770  0.1979
  173SAPS   O1419627   5.120   4.030   2.845 -0.1347 -0.2399  0.7112
  173SAPS   O1219628   5.332   4.028   2.700 -0.3282 -0.2451 -0.6906
  173SAPS   O1119629   5.347   4.031   2.946 -0.4621 -0.0894  0.0965
  173SAPS    C119630   5.477   3.981   2.916  0.2905 -0.3100  0.2911
  173SAPS    HA19631   5.473   3.876   2.881 -1.6444 -0.7563  1.6165
  173SAPS    HB19632   5.520   4.046   2.837  0.4912 -2.4384 -1.4288
  173SAPS    C219633   5.574   3.984   3.039 -0.1164  0.5176 -0.3325
  173SAPS    HS19634   5.671   3.968   2.987  0.5859 -0.9116  1.2920
  173SAPS   O2119635   5.535   3.891   3.142  0.5495 -0.7671 -0.5973
  173SAPS   C2119636   5.560   3.763   3.114  0.0561  0.0268  0.3678
  173SAPS   O2219637   5.612   3.716   3.017  0.4376  0.1064  0.8456
  173SAPS   C2219638   5.494   3.675   3.222  0.2731  0.5810 -0.2742
  173SAPS   H2R19639   5.436   3.724   3.302 -2.3553 -2.0571 -0.4235
  173SAPS   H2S19640   5.417   3.620   3.164  0.1386 -0.4436  0.8559
  173SAPS    C319641   5.598   4.121   3.094 -0.1887 -0.4504 -0.0238
  173SAPS    HX19642   5.505   4.156   3.142 -0.6873 -0.4519 -0.9670
  173SAPS    HY19643   5.606   4.187   3.004 -0.3779 -1.2115 -0.6055
  173SAPS   O3119644   5.722   4.131   3.172  0.0631  0.2377 -0.2567
  173SAPS   C3119645   5.712   4.093   3.294  0.4519 -0.1611 -0.1887
  173SAPS   O3219646   5.615   4.042   3.344  0.0395 -0.2427 -0.1675
  173SAPS   C3219647   5.848   4.121   3.369 -0.4471 -0.1749  0.5700
  173SAPS   H2X19648   5.905   4.196   3.309  0.3994  0.0844  1.6794
  173SAPS   H2Y19649   5.901   4.024   3.361  1.6081  1.0048 -1.6852
  173SAPS   C2319650   5.589   3.579   3.296 -0.9917 -0.1500  0.4515
  173SAPS   H3R19651   5.665   3.538   3.227 -0.9687  1.9363 -0.8493
  173SAPS   H3S19652   5.522   3.494   3.323 -0.3974 -0.8227 -0.1601
  173SAPS   C2419653   5.646   3.649   3.419  0.5348  0.3386  0.2689
  173SAPS   H4R19654   5.667   3.567   3.492  0.6122  2.6464  3.0293
  173SAPS   H4S19655   5.571   3.702   3.482 -0.4385 -1.6250  0.8582
  173SAPS   C2519656   5.780   3.713   3.389  0.5972  0.0382  0.0627
  173SAPS   H5R19657   5.775   3.774   3.298 -0.4941 -0.7523 -0.4395
  173SAPS   C2619658   5.883   3.699   3.471 -0.5724  0.4932  0.0961
  173SAPS   H6R19659   5.980   3.749   3.454 -0.1846 -0.0240  0.7497
  173SAPS   C2719660   5.885   3.624   3.600  0.2310  0.4883 -0.7789
  173SAPS   H7R19661   5.989   3.603   3.630 -1.1825 -2.7844  2.5709
  173SAPS   H7S19662   5.863   3.516   3.585  1.1929  0.2791 -0.7462
  173SAPS   C2819663   5.817   3.696   3.713  0.5132  0.0654 -0.1157
  173SAPS   H8R19664   5.745   3.774   3.684 -0.3558  0.0720  1.8949
  173SAPS   C2919665   5.827   3.664   3.843  0.2000 -0.0863  0.0733
  173SAPS   H9R19666   5.749   3.709   3.906 -0.5439 -0.5843 -0.4714
  173SAPS  C21019667   5.911   3.556   3.908  0.2253 -0.0082  0.3372
  173SAPS  H10R19668   6.007   3.611   3.921 -1.4609  2.8602  1.5603
  173SAPS  H10S19669   5.923   3.469   3.840  0.6655  0.6121 -0.3832
  173SAPS  C21119670   5.847   3.501   4.033  0.1079  0.4369  0.6267
  173SAPS  H11R19671   5.766   3.430   4.014  0.2387  0.7085 -1.2131
  173SAPS  C21219672   5.848   3.552   4.156 -0.4300  0.2840 -0.8732
  173SAPS  H12R19673   5.803   3.492   4.237 -0.6673  0.0114 -1.2084
  173SAPS  C21319674   5.929   3.672   4.202  0.5516 -0.6425  0.2707
  173SAPS  H13R19675   6.018   3.695   4.140  0.5649  0.7408  0.7534
  173SAPS  H13S19676   5.963   3.657   4.306  0.9476  0.9995  0.4130
  173SAPS  C21419677   5.832   3.794   4.205  0.1053  0.3198 -0.1396
  173SAPS  H14R19678   5.817   3.841   4.106 -1.5071 -1.9863 -1.0723
  173SAPS  C21519679   5.774   3.851   4.317  0.0457  0.0009 -0.2173
  173SAPS  H15R19680   5.713   3.941   4.304 -0.2602 -0.1071  0.4612
  173SAPS  C21619681   5.792   3.801   4.460  1.1857  0.3855  0.3854
  173SAPS  H16R19682   5.797   3.691   4.470 -0.9571  0.1777 -0.2434
  173SAPS  H16S19683   5.705   3.835   4.520  0.8155 -1.1697  0.7752
  173SAPS  C21719684   5.919   3.862   4.529 -0.6419  0.0990 -0.5025
  173SAPS  H17R19685   5.893   3.969   4.546 -0.8274  0.2473 -1.6667
  173SAPS  H17S19686   6.008   3.872   4.463 -1.2703  0.9715 -1.2335
  173SAPS  C21819687   5.953   3.796   4.666  0.0011  0.2062  0.1381
  173SAPS  H18R19688   5.859   3.796   4.724 -0.9928 -0.9338 -1.3873
  173SAPS  H18S19689   6.028   3.860   4.717  0.5808  1.0754 -1.7220
  173SAPS  C21919690   6.011   3.656   4.669 -0.6771  0.4863 -0.9566
  173SAPS  H19R19691   5.925   3.593   4.635 -2.3814  2.3871 -0.3565
  173SAPS  H19S19692   6.017   3.635   4.777  1.3427  1.6692 -0.7964
  173SAPS  C22019693   6.135   3.631   4.587  0.1289 -0.4068 -0.3062
  173SAPS  H20R19694   6.221   3.654   4.653  0.1579 -0.2621 -0.3954
  173SAPS  H20S19695   6.143   3.698   4.499  0.1245 -1.1329 -0.8704
  173SAPS  H20T19696   6.147   3.527   4.550  0.3767 -0.9860  1.3107
  173SAPS   C3319697   5.824   4.144   3.519  0.1621  0.3428 -0.0023
  173SAPS   H3X19698   5.780   4.048   3.553 -2.5367  1.4541 -0.1622
  173SAPS   H3Y19699   5.760   4.230   3.548  2.1559  1.0514  2.7326
  173SAPS   C3419700   5.963   4.162   3.596  0.8923  0.6870  0.5302
  173SAPS   H4X19701   5.997   4.268   3.604  0.3239  1.0644 -1.5029
  173SAPS   H4Y19702   6.047   4.115   3.540 -2.0370 -3.8084 -0.6175
  173SAPS   C3519703   5.970   4.085   3.732  1.2398  0.2017 -0.5354
  173SAPS   H5X19704   6.076   4.080   3.764  0.8861  0.4237  0.7395
  173SAPS   H5Y19705   5.944   3.978   3.718 -1.9051  0.9532 -1.3211
  173SAPS   C3619706   5.870   4.131   3.844  0.1345 -0.1655 -0.4306
  173SAPS   H6X19707   5.795   4.052   3.865 -2.5481  2.4518  0.5872
  173SAPS   H6Y19708   5.820   4.225   3.811 -1.4052  0.3310  2.8857
  173SAPS   C3719709   5.955   4.153   3.969  0.0065 -0.3900  0.0175
  173SAPS   H7X19710   6.027   4.235   3.946  0.2044 -0.5850 -0.0645
  173SAPS   H7Y19711   6.021   4.068   3.999 -1.6395 -0.9981  2.1443
  173SAPS   C3819712   5.872   4.201   4.091 -0.6241 -0.7272 -0.0359
  173SAPS   H8X19713   5.799   4.122   4.117 -0.6821 -0.6769 -0.0463
  173SAPS   H8Y19714   5.804   4.284   4.063  0.3161  0.9628  2.3970
  173SAPS   C3919715   5.970   4.243   4.209  0.9172 -0.0508  0.2647
  173SAPS   H9X19716   6.044   4.314   4.165 -0.3938  2.5000  1.9247
  173SAPS   H9Y19717   6.024   4.157   4.253  1.0012  0.7271  1.7286
  173SAPS  C31019718   5.889   4.307   4.323 -0.1141 -0.2889  0.1678
  173SAPS  H10X19719   5.826   4.225   4.366 -0.9648  0.1190 -0.2752
  173SAPS  H10Y19720   5.822   4.375   4.267  1.6449 -0.5100 -2.3250
  173SAPS  C31119721   5.950   4.381   4.438 -0.1364  1.2647  0.5101
  173SAPS  H11X19722   5.878   4.422   4.511  0.9782  2.4672  0.9829
  173SAPS  H11Y19723   6.008   4.464   4.391  1.7549 -0.9771 -1.4076
  173SAPS  C31219724   6.046   4.295   4.514 -0.3199 -0.2053 -0.2254
  173SAPS  H12X19725   6.126   4.262   4.445  0.0047 -0.8992  0.4750
  173SAPS  H12Y19726   5.994   4.201   4.542  0.4305 -0.1780  1.3481
  173SAPS  C31319727   6.111   4.355   4.639 -0.2398 -0.6731  0.1777
  173SAPS  H13X19728   6.021   4.368   4.704  1.7711  1.1963  2.8052
  173SAPS  H13Y19729   6.160   4.451   4.612 -0.0567 -1.1513 -1.2465
  173SAPS  C31419730   6.206   4.267   4.730 -0.0641  0.5234  0.2753
  173SAPS  H14X19731   6.217   4.312   4.831  2.1648 -0.5627  0.5794
  173SAPS  H14Y19732   6.299   4.279   4.671 -0.3525  1.6402  0.0384
  173SAPS  C31519733   6.159   4.122   4.723 -0.9691  0.2022 -0.5630
  173SAPS  H15X19734   6.180   4.090   4.618 -0.2604  0.6303 -0.5542
  173SAPS  H15Y19735   6.050   4.124   4.745 -0.7633  1.0431  0.4517
  173SAPS  C31619736   6.230   4.024   4.812  0.0102  0.1744  0.5600
  173SAPS  H16X19737   6.338   4.050   4.812 -0.1150  1.1059 -2.8502
  173SAPS  H16Y19738   6.221   3.917   4.786  2.2564  0.6570 -2.8055
  173SAPS  C31719739   6.183   4.039   4.962  0.0656 -0.2943 -0.4639
  173SAPS  H17X19740   6.072   4.027   4.965  0.0934 -0.7317 -1.0265
  173SAPS  H17Y19741   6.216   4.138   4.998  1.6686 -1.1014  0.3726
  173SAPS  C31819742   6.254   3.941   5.055  0.1435 -0.1595 -0.2872
  173SAPS  H18X19743   6.364   3.959   5.052  0.8937 -3.6481  1.4443
  173SAPS  H18Y19744   6.222   3.836   5.044 -0.3995 -0.1325  0.8995
  173SAPS  H18Z19745   6.221   3.967   5.158  1.0427 -1.3620  0.3333
  174SAPS     N19746   1.131   1.746   2.602  0.1499  1.4495 -0.2521
  174SAPS   HN119747   1.148   1.751   2.704  1.8783  0.1672 -0.4492
  174SAPS   HN219748   1.046   1.690   2.583  0.3063  1.0804  0.1270
  174SAPS   HN319749   1.211   1.702   2.553 -0.5092  0.2240 -0.2708
  174SAPS   C1219750   1.105   1.880   2.539 -0.2040 -0.1789  0.0415
  174SAPS  H12A19751   1.179   1.904   2.464 -0.6051 -2.8993 -1.3511
  174SAPS   C1319752   0.972   1.882   2.459  0.5891  0.3456 -0.3038
  174SAPS  O13A19753   0.895   1.782   2.462  0.2953 -0.0035  0.3790
  174SAPS  O13B19754   0.942   1.978   2.384 -0.3682 -0.4293  0.7260
  174SAPS   C1119755   1.090   1.995   2.642  0.7118  0.6148  0.6566
  174SAPS  H11A19756   0.999   1.983   2.704  0.6772  0.5472  0.5939
  174SAPS  H11B19757   1.065   2.086   2.584 -0.4050 -0.5969 -0.8453
  174SAPS     P19758   1.221   1.952   2.861 -0.4131  0.1098 -0.3082
  174SAPS   O1319759   1.183   1.807   2.844 -0.4423 -0.0216  0.5193
  174SAPS   O1419760   1.359   1.971   2.923  0.2415 -0.0298 -0.2920
  174SAPS   O1219761   1.211   2.024   2.715  0.9582 -0.1799 -0.2289
  174SAPS   O1119762   1.110   2.022   2.955  0.1362 -0.3863  0.2448
  174SAPS    C119763   1.090   2.166   2.944  0.0136 -0.5126 -0.3145
  174SAPS    HA19764   1.111   2.206   2.843 -0.4536 -0.8047 -0.5311
  174SAPS    HB19765   0.983   2.192   2.959 -0.3464 -1.3093 -1.3366
  174SAPS    C219766   1.184   2.246   3.045  0.2665 -0.1364  0.3193
  174SAPS    HS19767   1.289   2.224   3.013  0.1099  0.7745 -0.8995
  174SAPS   O2119768   1.156   2.195   3.177 -0.4075  0.4120 -0.4148
  174SAPS   C2119769   1.253   2.152   3.258 -0.3370 -0.0533  0.5746
  174SAPS   O2219770   1.371   2.181   3.242  0.4494  0.3879 -0.1432
  174SAPS   C2219771   1.187   2.077   3.377 -0.1537  0.1939 -0.7365
  174SAPS   H2R19772   1.117   2.150   3.425  1.1609  1.5056 -0.7457
  174SAPS   H2S19773   1.120   2.010   3.319 -0.1370  2.7983 -4.0655
  174SAPS    C319774   1.161   2.393   3.029 -0.1755 -0.2810 -0.5694
  174SAPS    HX19775   1.052   2.414   3.031  0.4679  4.1884  1.4102
  174SAPS    HY19776   1.203   2.432   2.934 -0.2100  0.9895 -0.0827
  174SAPS   O3119777   1.217   2.453   3.147 -0.4998 -0.3977  0.1231
  174SAPS   C3119778   1.340   2.510   3.143 -0.5274  0.4711 -0.3558
  174SAPS   O3219779   1.427   2.501   3.059 -0.6210  0.4152 -0.2375
  174SAPS   C3219780   1.358   2.597   3.275 -0.4051 -0.2678 -0.1966
  174SAPS   H2X19781   1.371   2.699   3.235  0.2776 -0.0830  0.4671
  174SAPS   H2Y19782   1.455   2.569   3.323 -0.2305  0.6974  0.0344
  174SAPS   C2319783   1.279   2.000   3.475 -0.6947  0.7126 -0.1182
  174SAPS   H3R19784   1.330   2.082   3.531 -3.3988  1.3220  1.6375
  174SAPS   H3S19785   1.347   1.933   3.418 -0.6077 -0.4218  1.2541
  174SAPS   C2419786   1.194   1.910   3.570 -0.6547 -0.5615 -0.1291
  174SAPS   H4R19787   1.111   1.974   3.608 -0.2390  0.7131 -1.2809
  174SAPS   H4S19788   1.250   1.881   3.662 -0.8617  1.2306  0.6078
  174SAPS   C2519789   1.161   1.779   3.501 -0.1338  0.5522  0.3434
  174SAPS   H5R19790   1.194   1.767   3.396 -1.4852  0.6100 -0.1106
  174SAPS   C2619791   1.120   1.665   3.564 -0.3144 -0.4148 -0.2431
  174SAPS   H6R19792   1.097   1.582   3.495  1.1436  0.2821 -1.6285
  174SAPS   C2719793   1.092   1.663   3.715  0.9803 -0.2254 -0.1111
  174SAPS   H7R19794   1.068   1.766   3.750  0.1582 -1.3500  3.0412
  174SAPS   H7S19795   1.185   1.638   3.769  0.8459  1.5866  1.0625
  174SAPS   C2819796   0.970   1.578   3.756 -0.1632 -0.7600 -0.3598
  174SAPS   H8R19797   0.967   1.488   3.692  0.1234 -0.3579 -0.9408
  174SAPS   C2919798   0.876   1.600   3.851 -0.2294  0.0929  0.4205
  174SAPS   H9R19799   0.806   1.517   3.867 -0.5612  0.5197  1.2506
  174SAPS  C21019800   0.870   1.719   3.949  0.3654  0.2041  0.0117
  174SAPS  H10R19801   0.809   1.803   3.908  1.0303  1.8859  2.2453
  174SAPS  H10S19802   0.977   1.750   3.953  0.6423 -0.8534  1.5233
  174SAPS  C21119803   0.816   1.673   4.086 -0.0948 -0.5304 -0.0464
  174SAPS  H11R19804   0.823   1.566   4.109 -1.3253 -1.4624 -3.4660
  174SAPS  C21219805   0.764   1.760   4.177 -0.0993 -0.0965 -0.5633
  174SAPS  H12R19806   0.734   1.721   4.275  0.9829 -0.4081 -0.3393
  174SAPS  C21319807   0.738   1.906   4.166 -0.6156 -0.2485 -0.0648
  174SAPS  H13R19808   0.685   1.917   4.070 -2.2534  0.4853  0.8846
  174SAPS  H13S19809   0.835   1.962   4.171 -2.2344  2.6605  2.3165
  174SAPS  C21419810   0.664   1.972   4.275  0.8056 -0.6801 -0.3793
  174SAPS  H14R19811   0.718   1.980   4.371 -1.9729 -0.7203  1.3032
  174SAPS  C21519812   0.539   2.031   4.269 -0.6891  0.6192 -0.0854
  174SAPS  H15R19813   0.499   2.074   4.362 -1.3732 -2.1397  0.9931
  174SAPS  C21619814   0.454   2.036   4.146  0.2325 -0.0395 -0.8480
  174SAPS  H16R19815   0.379   1.954   4.136 -1.5493  1.7100 -2.7957
  174SAPS  H16S19816   0.508   2.024   4.049 -2.1482 -0.6347 -2.1747
  174SAPS  C21719817   0.387   2.175   4.141 -0.6342 -0.4053  0.2236
  174SAPS  H17R19818   0.460   2.249   4.102  0.6642 -1.1588  1.1688
  174SAPS  H17S19819   0.355   2.202   4.244 -4.1187  2.3376 -1.3509
  174SAPS  C21819820   0.265   2.184   4.042 -0.0271  0.0258  0.3292
  174SAPS  H18R19821   0.185   2.108   4.050  1.1278 -1.1320  1.4225
  174SAPS  H18S19822   0.317   2.166   3.945  2.8499  0.5849  1.6380
  174SAPS  C21919823   0.204   2.322   4.034  0.1360 -0.6896  0.5278
  174SAPS  H19R19824   0.167   2.352   4.134  0.5181 -1.9349  1.0717
  174SAPS  H19S19825   0.118   2.310   3.964  2.1291  1.9853 -2.7208
  174SAPS  C22019826   0.292   2.433   3.964 -0.1231 -0.2736  0.3739
  174SAPS  H20R19827   0.381   2.457   4.025 -2.7494  0.3427  4.3512
  174SAPS  H20S19828   0.245   2.530   3.935  1.0745 -0.0576 -0.9602
  174SAPS  H20T19829   0.303   2.397   3.859  0.2012  1.4402 -0.2150
  174SAPS   C3319830   1.241   2.614   3.371  0.0436 -0.5713 -0.8174
  174SAPS   H3X19831   1.144   2.626   3.317  0.4981  1.3045 -1.2766
  174SAPS   H3Y19832   1.252   2.709   3.427  0.6291 -1.2456  0.2601
  174SAPS   C3419833   1.226   2.498   3.471 -0.7372 -0.0178 -1.1228
  174SAPS   H4X19834   1.325   2.484   3.519 -0.2879  0.4814 -1.8660
  174SAPS   H4Y19835   1.186   2.409   3.418 -0.7738  0.8852 -2.6709
  174SAPS   C3519836   1.130   2.530   3.595 -0.3021  0.2591  1.1956
  174SAPS   H5X19837   1.039   2.570   3.545  0.2656  1.4400  1.0506
  174SAPS   H5Y19838   1.172   2.609   3.662 -0.4166 -0.8129  2.5747
  174SAPS   C3619839   1.099   2.403   3.672  0.6176  0.6639  0.3008
  174SAPS   H6X19840   1.047   2.333   3.603  0.6893  1.6674 -0.7968
  174SAPS   H6Y19841   1.028   2.421   3.756  0.8127 -0.8768  0.8269
  174SAPS   C3719842   1.228   2.331   3.708  0.1340  0.0682 -0.6214
  174SAPS   H7X19843   1.295   2.404   3.759  0.1145  0.6190 -1.3590
  174SAPS   H7Y19844   1.285   2.294   3.620  0.7240 -0.1665 -0.1525
  174SAPS   C3819845   1.212   2.221   3.812 -0.5929 -0.3421 -0.0591
  174SAPS   H8X19846   1.148   2.148   3.758 -1.0069  0.3575 -0.5375
  174SAPS   H8Y19847   1.155   2.260   3.898  0.2597 -1.6692  1.1582
  174SAPS   C3919848   1.347   2.158   3.855  0.0206 -0.3272 -0.3782
  174SAPS   H9X19849   1.420   2.239   3.875 -0.5653  0.9461 -2.9136
  174SAPS   H9Y19850   1.376   2.096   3.767  1.3048  0.8021 -0.7854
  174SAPS  C31019851   1.348   2.072   3.980  0.6055 -0.3202 -0.7529
  174SAPS  H10X19852   1.323   2.131   4.071 -1.1724  0.0547 -1.4532
  174SAPS  H10Y19853   1.454   2.038   3.991  0.1280 -1.1344  2.1912
  174SAPS  C31119854   1.268   1.941   3.979  0.1239 -1.1171 -0.0088
  174SAPS  H11X19855   1.297   1.884   3.888 -2.3253  0.1278 -1.6688
  174SAPS  H11Y19856   1.157   1.950   3.971  0.2269  2.4649  0.8639
  174SAPS  C31219857   1.309   1.859   4.100  0.5281  0.1982 -1.0272
  174SAPS  H12X19858   1.344   1.930   4.177 -0.5854  0.4539 -0.7423
  174SAPS  H12Y19859   1.401   1.799   4.080  1.2126  0.1108  1.9920
  174SAPS  C31319860   1.189   1.769   4.146  0.5601 -0.1831 -0.3498
  174SAPS  H13X19861   1.159   1.717   4.052 -1.2661  1.5818 -0.8069
  174SAPS  H13Y19862   1.102   1.833   4.173  0.9103  0.8129 -1.4980
  174SAPS  C31419863   1.226   1.678   4.263 -0.0992  0.5740 -0.6549
  174SAPS  H14X19864   1.277   1.733   4.345  1.3630  1.0357 -1.8079
  174SAPS  H14Y19865   1.301   1.599   4.240 -0.6774 -0.4750  0.8893
  174SAPS  C31519866   1.104   1.604   4.331  0.4352 -0.8855  0.3863
  174SAPS  H15X19867   1.067   1.539   4.249 -0.3525  0.6256 -0.4937
  174SAPS  H15Y19868   1.022   1.678   4.343  2.3796  1.5886 -0.6699
  174SAPS  C31619869   1.131   1.535   4.467 -0.5731 -0.0308 -0.0065
  174SAPS  H16X19870   1.175   1.608   4.539 -0.1426  0.9940 -1.2746
  174SAPS  H16Y19871   1.205   1.457   4.440 -0.7547  0.2102 -1.2735
  174SAPS  C31719872   1.009   1.474   4.536 -0.0606  0.1720  0.2038
  174SAPS  H17X19873   0.961   1.392   4.478 -3.1853  1.0218  1.3740
  174SAPS  H17Y19874   0.930   1.550   4.556 -1.7530 -1.8651  1.8465
  174SAPS  C31819875   1.054   1.420   4.676  0.2959  0.2018 -0.7069
  174SAPS  H18X19876   0.972   1.358   4.717  0.4430  0.8604  0.6411
  174SAPS  H18Y19877   1.058   1.512   4.737 -2.9218 -0.5125  0.7734
  174SAPS  H18Z19878   1.153   1.370   4.667 -0.2780 -1.0730 -0.2590
  175SAPS     N19879   4.808   0.090   2.677 -0.2158  0.0772 -0.7454
  175SAPS   HN119880   4.785   0.041   2.766  0.6709 -0.0134 -0.5589
  175SAPS   HN219881   4.903   0.059   2.647 -0.2911 -0.2124 -0.6947
  175SAPS   HN319882   4.814   0.193   2.686  2.0534 -0.0676 -0.1233
  175SAPS   C1219883   4.706   0.066   2.572 -0.0579 -0.6687 -0.4990
  175SAPS  H12A19884   4.742   0.115   2.482  0.8240 -1.7285 -0.7414
  175SAPS   C1319885   4.684  -0.080   2.527 -0.1845  0.4583  0.3447
  175SAPS  O13A19886   4.782  -0.159   2.539 -0.0039 -0.4618 -0.3014
  175SAPS  O13B19887   4.602  -0.093   2.432 -0.0551  0.1866 -0.2126
  175SAPS   C1119888   4.571   0.124   2.622 -0.2519 -0.4679  0.5896
  175SAPS  H11A19889   4.534   0.068   2.711 -3.0122 -0.4422 -0.4541
  175SAPS  H11B19890   4.492   0.106   2.546 -2.3649  1.4902  2.2027
  175SAPS     P19891   4.457   0.344   2.719  0.1602 -0.2090 -0.1066
  175SAPS   O1319892   4.511   0.467   2.783  0.0182  0.4001 -0.6676
  175SAPS   O1419893   4.353   0.363   2.618  0.4343 -0.0673 -0.2697
  175SAPS   O1219894   4.579   0.267   2.649 -0.2734  0.1381 -0.2518
  175SAPS   O1119895   4.396   0.243   2.827 -0.1714 -0.3001  0.2466
  175SAPS    C119896   4.462   0.201   2.945  0.1710  0.4457 -0.5625
  175SAPS    HA19897   4.445   0.091   2.951  0.7938  0.3501 -0.4982
  175SAPS    HB19898   4.571   0.223   2.951 -0.0307  1.0257  2.5159
  175SAPS    C219899   4.399   0.242   3.084 -0.1324  0.5592  0.9877
  175SAPS    HS19900   4.294   0.210   3.075  0.5350 -2.1625  1.9565
  175SAPS   O2119901   4.415   0.381   3.097 -0.3172 -0.6413  0.0778
  175SAPS   C2119902   4.334   0.469   3.042  0.5074  0.3356 -0.3817
  175SAPS   O2219903   4.227   0.443   2.989  0.0932  0.3845  0.6229
  175SAPS   C2219904   4.399   0.615   3.064  0.7637  0.3980 -0.2495
  175SAPS   H2R19905   4.462   0.607   3.154  0.4128  0.0546 -0.0314
  175SAPS   H2S19906   4.468   0.626   2.978  0.6422  0.8615 -0.2933
  175SAPS    C319907   4.470   0.164   3.200  0.7690 -0.7290 -0.1182
  175SAPS    HX19908   4.579   0.186   3.204  0.6423 -0.2617  2.8515
  175SAPS    HY19909   4.465   0.057   3.171  0.3834 -1.3927  2.1773
  175SAPS   O3119910   4.404   0.183   3.327 -0.1606 -0.1004 -0.0437
  175SAPS   C3119911   4.452   0.283   3.407 -0.2396  0.0443 -0.6687
  175SAPS   O3219912   4.534   0.373   3.379 -0.0804 -0.0196 -0.1846
  175SAPS   C3219913   4.368   0.287   3.539  0.3847 -0.0240  0.6374
  175SAPS   H2X19914   4.364   0.176   3.553  2.9659 -0.5049 -1.6134
  175SAPS   H2Y19915   4.270   0.334   3.513  0.6506 -0.0609 -0.4709
  175SAPS   C2319916   4.295   0.724   3.063 -0.1086 -0.2788 -0.8901
  175SAPS   H3R19917   4.216   0.702   2.989 -0.8795 -0.9778  0.1190
  175SAPS   H3S19918   4.353   0.811   3.025 -0.4394  0.3904  0.1038
  175SAPS   C2419919   4.229   0.751   3.203  0.0051 -0.6381  0.2845
  175SAPS   H4R19920   4.173   0.846   3.189 -2.2893 -1.5309  2.6039
  175SAPS   H4S19921   4.316   0.761   3.272  1.6702 -0.4905 -1.7523
  175SAPS   C2519922   4.132   0.645   3.243 -0.2140 -0.5302 -0.6907
  175SAPS   H5R19923   4.096   0.591   3.154  3.2226 -2.0302 -1.3536
  175SAPS   C2619924   4.104   0.609   3.370  0.1840 -0.1534  0.4621
  175SAPS   H6R19925   4.037   0.522   3.385 -0.1460 -0.3900 -1.9476
  175SAPS   C2719926   4.159   0.683   3.490 -0.8478  0.4825 -0.4368
  175SAPS   H7R19927   4.124   0.788   3.488  0.3092  0.9083  0.4620
  175SAPS   H7S19928   4.269   0.689   3.474 -0.7476  0.9872  0.3993
  175SAPS   C2819929   4.135   0.630   3.632  0.3369  0.4728  0.0190
  175SAPS   H8R19930   4.075   0.538   3.622  2.0465 -0.5803 -1.0278
  175SAPS   C2919931   4.188   0.667   3.748  0.4891 -0.3611  0.2670
  175SAPS   H9R19932   4.144   0.615   3.835  1.8969 -1.7149  0.2233
  175SAPS  C21019933   4.271   0.788   3.783 -0.3435  0.2481  0.3828
  175SAPS  H10R19934   4.260   0.863   3.702 -0.6423 -0.4757 -0.2593
  175SAPS  H10S19935   4.375   0.755   3.762 -1.5647 -3.4557 -0.8037
  175SAPS  C21119936   4.256   0.863   3.914 -0.1054 -0.8715 -0.2446
  175SAPS  H11R19937   4.223   0.968   3.917 -1.0205 -1.1312 -0.7759
  175SAPS  C21219938   4.281   0.804   4.029 -0.0846  0.0724 -0.0317
  175SAPS  H12R19939   4.287   0.857   4.125  1.1757  0.5220 -0.3410
  175SAPS  C21319940   4.340   0.660   4.039 -0.0029 -0.2796  0.3066
  175SAPS  H13R19941   4.386   0.619   3.947  0.3855  0.5927  0.0951
  175SAPS  H13S19942   4.248   0.603   4.061  1.0330 -1.8251  0.8053
  175SAPS  C21419943   4.440   0.655   4.149  0.2161 -0.2969  0.6954
  175SAPS  H14R19944   4.531   0.712   4.127 -0.0668 -0.3839 -0.8868
  175SAPS  C21519945   4.439   0.592   4.266 -0.6011  0.1348 -0.3865
  175SAPS  H15R19946   4.518   0.600   4.342 -0.2881 -1.9366 -0.4436
  175SAPS  C21619947   4.321   0.505   4.313  0.7552  0.0105 -0.5393
  175SAPS  H16R19948   4.330   0.401   4.277 -0.0371  0.9444 -3.8442
  175SAPS  H16S19949   4.223   0.535   4.270 -0.2361 -1.0480  0.9217
  175SAPS  C21719950   4.299   0.501   4.466  0.0369  0.1599 -0.4509
  175SAPS  H17R19951   4.199   0.464   4.496  0.9883 -1.5798  0.6973
  175SAPS  H17S19952   4.302   0.607   4.501  2.3975 -0.5363  1.7260
  175SAPS  C21819953   4.407   0.424   4.542 -0.2826  0.5452  0.7568
  175SAPS  H18R19954   4.495   0.442   4.476 -0.2855  0.7673  0.8130
  175SAPS  H18S19955   4.370   0.320   4.548  0.7618  0.0558 -0.5215
  175SAPS  C21919956   4.436   0.480   4.681 -0.6265 -0.2667  0.7012
  175SAPS  H19R19957   4.345   0.454   4.740 -1.5456 -0.3851 -0.7013
  175SAPS  H19S19958   4.454   0.588   4.662  2.1396 -0.5786  1.2511
  175SAPS  C22019959   4.567   0.427   4.740  0.0480 -0.1982 -0.0930
  175SAPS  H20R19960   4.645   0.439   4.662  0.4225  0.0576  0.3165
  175SAPS  H20S19961   4.562   0.323   4.777 -1.2001  0.1156  0.6957
  175SAPS  H20T19962   4.586   0.492   4.828 -1.5444 -0.4213  0.4464
  175SAPS   C3319963   4.440   0.353   3.651 -0.3700 -0.1278 -0.4884
  175SAPS   H3X19964   4.418   0.459   3.672  0.6701  0.2042 -1.0215
  175SAPS   H3Y19965   4.551   0.359   3.640 -0.4364  1.4660 -0.4629
  175SAPS   C3419966   4.408   0.279   3.788  0.2898 -0.0879  0.5011
  175SAPS   H4X19967   4.471   0.330   3.864  0.3388  0.6269 -0.0120
  175SAPS   H4Y19968   4.435   0.172   3.788  0.4163 -0.0661 -0.4983
  175SAPS   C3519969   4.257   0.281   3.823 -0.2245  0.2625  0.4106
  175SAPS   H5X19970   4.210   0.206   3.757  0.4809 -1.1604  1.4808
  175SAPS   H5Y19971   4.216   0.382   3.800 -1.2413 -0.1112  0.5435
  175SAPS   C3619972   4.229   0.257   3.973 -0.1661  0.1376 -0.1295
  175SAPS   H6X19973   4.289   0.333   4.027  1.5954 -1.0877 -0.2918
  175SAPS   H6Y19974   4.278   0.162   4.003 -0.8784 -0.0584  0.4421
  175SAPS   C3719975   4.083   0.256   4.018 -0.4552  0.4393 -0.3622
  175SAPS   H7X19976   4.037   0.191   3.941  0.1756  0.4652 -0.7717
  175SAPS   H7Y19977   4.028   0.351   4.011 -0.0912  0.6665 -0.1853
  175SAPS   C3819978   4.039   0.174   4.146  0.5395  0.6259 -0.2796
  175SAPS   H8X19979   4.076   0.071   4.126 -1.6845 -0.3163  0.1575
  175SAPS   H8Y19980   3.929   0.167   4.160  0.8236 -2.7568  1.4014
  175SAPS   C3919981   4.079   0.228   4.281 -0.4070  0.2470  0.1301
  175SAPS   H9X19982   4.030   0.327   4.296 -0.5513  0.1651  0.1956
  175SAPS   H9Y19983   4.188   0.248   4.272 -0.3092  1.1477  2.6221
  175SAPS  C31019984   4.050   0.135   4.394 -0.3611  0.0881 -0.8492
  175SAPS  H10X19985   4.100   0.039   4.367  2.4624  1.3864 -0.6232
  175SAPS  H10Y19986   3.944   0.108   4.411  0.3807 -3.7318 -1.2143
  175SAPS  C31119987   4.116   0.168   4.529  0.0413  0.6501  0.0361
  175SAPS  H11X19988   4.104   0.275   4.558 -4.1791  0.1082  0.9914
  175SAPS  H11Y19989   4.222   0.141   4.514 -0.6702 -2.6263  0.2246
  175SAPS  C31219990   4.058   0.087   4.655 -0.2647 -0.1856 -0.7124
  175SAPS  H12X19991   4.039  -0.019   4.632 -0.3208 -0.0228 -1.4416
  175SAPS  H12Y19992   3.961   0.130   4.688 -0.4217 -0.0147 -1.3844
  175SAPS  C31319993   4.156   0.104   4.772 -0.3268 -0.4907  0.4397
  175SAPS  H13X19994   4.160   0.215   4.778 -1.0408 -0.4754  0.7667
  175SAPS  H13Y19995   4.258   0.083   4.734  0.1882  2.8935 -0.3854
  175SAPS  C31419996   4.107   0.042   4.900 -1.1729 -0.7005 -0.8304
  175SAPS  H14X19997   4.110  -0.070   4.898  1.4382 -0.7210  0.0506
  175SAPS  H14Y19998   4.006   0.079   4.925 -0.7956 -0.3710  0.2519
  175SAPS  C31519999   4.198   0.062   5.022 -0.1829 -0.2842 -0.4402
  175SAPS  H15X20000   4.305   0.054   4.993  0.0554 -0.5697  0.4867
  175SAPS  H15Y20001   4.185  -0.013   5.103 -0.7815  1.6035  1.2924
  175SAPS  C31620002   4.168   0.202   5.086  0.0569 -0.7429 -1.1970
  175SAPS  H16X20003   4.070   0.200   5.138  0.8613  1.1213  0.4996
  175SAPS  H16Y20004   4.164   0.280   5.007  0.2506 -0.8385 -1.3011
  175SAPS  C31720005   4.266   0.241   5.199  0.3441 -0.1663  0.2339
  175SAPS  H17X20006   4.245   0.349   5.220  1.4597 -0.0840  1.0009
  175SAPS  H17Y20007   4.372   0.234   5.167  0.1234  2.0212 -1.2595
  175SAPS  C31820008   4.253   0.169   5.338 -0.1767 -0.1856  0.0004
  175SAPS  H18X20009   4.284   0.063   5.329  0.8094 -0.1093  2.0585
  175SAPS  H18Y20010   4.146   0.169   5.368  0.5986 -1.8818  3.1459
  175SAPS  H18Z20011   4.309   0.218   5.419 -0.5728 -2.6800  1.9035
  176SAPS     N20012   4.284   5.573   2.961  0.1103  0.1442 -0.3913
  176SAPS   HN120013   4.358   5.500   2.965  0.0435  0.0373 -1.1306
  176SAPS   HN220014   4.212   5.572   3.036  0.0502 -2.0419 -0.4170
  176SAPS   HN320015   4.231   5.556   2.874 -1.2779 -0.3333  0.5149
  176SAPS   C1220016   4.329   5.714   2.957 -0.5519 -0.0084  0.3094
  176SAPS  H12A20017   4.382   5.719   2.864 -0.6225 -0.8817  0.2071
  176SAPS   C1320018   4.218   5.822   2.958 -0.6734 -0.3800  0.0068
  176SAPS  O13A20019   4.102   5.786   2.959  0.2652  0.4925 -0.8509
  176SAPS  O13B20020   4.249   5.940   2.977  0.0201  0.0531  0.1507
  176SAPS   C1120021   4.427   5.748   3.072 -0.4771 -0.1776 -0.2867
  176SAPS  H11A20022   4.374   5.710   3.162 -2.2571 -0.4890 -1.4145
  176SAPS  H11B20023   4.446   5.858   3.077  0.0138 -0.3367  2.2814
  176SAPS     P20024   4.676   5.770   2.997 -0.0956  0.4492  0.0990
  176SAPS   O1320025   4.769   5.666   2.943 -0.5361  0.0886 -0.5619
  176SAPS   O1420026   4.621   5.864   2.897  0.2453 -0.7833  0.1673
  176SAPS   O1220027   4.553   5.686   3.062  0.0850 -0.1124  0.0963
  176SAPS   O1120028   4.754   5.848   3.111 -0.1129  0.1851  0.2370
  176SAPS    C120029   4.708   5.839   3.249 -1.0252 -0.1778 -0.0837
  176SAPS    HA20030   4.612   5.788   3.269 -0.9542  0.2106  1.3277
  176SAPS    HB20031   4.792   5.796   3.308  0.5695  0.8599 -1.4816
  176SAPS    C220032   4.671   5.983   3.295 -1.0375  0.0469  0.1067
  176SAPS    HS20033   4.619   6.028   3.208  0.8343  1.5173 -0.3343
  176SAPS   O2120034   4.796   6.045   3.322  0.4086 -0.2356  0.5541
  176SAPS   C2120035   4.804   6.175   3.321  0.2226  0.2066  0.2711
  176SAPS   O2220036   4.715   6.249   3.279  0.1647 -0.4713 -0.3615
  176SAPS   C2220037   4.936   6.220   3.378  0.2591  0.1498 -0.2293
  176SAPS   H2R20038   5.018   6.195   3.307  0.3705  0.7112 -0.3072
  176SAPS   H2S20039   4.921   6.331   3.379  1.2601  0.2954 -0.0534
  176SAPS    C320040   4.576   5.991   3.414 -0.0332 -0.2694  0.8102
  176SAPS    HX20041   4.497   5.918   3.390 -0.8887  1.0859 -0.6674
  176SAPS    HY20042   4.533   6.094   3.413  2.1605  0.7774  3.0055
  176SAPS   O3120043   4.646   5.972   3.536  0.1600 -0.1408  0.5420
  176SAPS   C3120044   4.649   5.856   3.586 -0.1199 -0.8691 -0.2264
  176SAPS   O3220045   4.586   5.757   3.547  0.1590  0.8916  0.2301
  176SAPS   C3220046   4.746   5.866   3.713 -0.1294  0.2328  0.0792
  176SAPS   H2X20047   4.839   5.923   3.690  0.4584 -1.0128 -0.8003
  176SAPS   H2Y20048   4.766   5.760   3.739  0.1620  0.1339 -0.5197
  176SAPS   C2320049   4.962   6.176   3.525 -0.5684 -0.1682  0.2679
  176SAPS   H3R20050   4.960   6.065   3.530 -1.6103 -0.4233 -3.4243
  176SAPS   H3S20051   4.886   6.219   3.594 -0.0329  0.7906  0.2745
  176SAPS   C2420052   5.111   6.213   3.574 -0.0721 -0.1080  0.2125
  176SAPS   H4R20053   5.109   6.323   3.587  1.6732  0.2734 -2.1773
  176SAPS   H4S20054   5.182   6.186   3.493  0.6835 -0.7145  1.0514
  176SAPS   C2520055   5.139   6.142   3.708 -0.1359  0.2662  0.5560
  176SAPS   H5R20056   5.213   6.061   3.696  0.3942  1.0803 -2.5713
  176SAPS   C2620057   5.100   6.183   3.829 -0.0168 -0.1310  0.0441
  176SAPS   H6R20058   5.121   6.113   3.911 -1.2006 -1.4548 -0.7539
  176SAPS   C2720059   5.008   6.299   3.860 -0.3610 -0.2372 -0.2015
  176SAPS   H7R20060   4.973   6.350   3.767 -0.8953 -0.7359 -0.2803
  176SAPS   H7S20061   5.064   6.380   3.913 -2.2830  1.2358 -0.2924
  176SAPS   C2820062   4.889   6.260   3.943 -0.0670 -0.4336 -0.1612
  176SAPS   H8R20063   4.842   6.163   3.923  2.1174 -1.1825 -2.0932
  176SAPS   C2920064   4.845   6.348   4.038  0.4500  0.0668 -0.3103
  176SAPS   H9R20065   4.756   6.315   4.095  0.7835 -0.2745  0.0241
  176SAPS  C21020066   4.886   6.493   4.071  0.1773  0.6028 -0.2440
  176SAPS  H10R20067   4.796   6.535   4.120  0.2353 -1.5763  1.9245
  176SAPS  H10S20068   4.903   6.553   3.979  0.9442  0.3384 -0.2814
  176SAPS  C21120069   4.999   6.502   4.167  0.5405  0.0073  0.4597
  176SAPS  H11R20070   5.098   6.476   4.128  0.4071 -1.8562  1.2408
  176SAPS  C21220071   4.993   6.517   4.301  0.2643  0.4390 -0.7247
  176SAPS  H12R20072   5.092   6.514   4.348  0.1407 -1.1143 -0.5204
  176SAPS  C21320073   4.869   6.527   4.388 -0.5138 -0.1428  0.2563
  176SAPS  H13R20074   4.782   6.473   4.345 -1.0740 -0.1161  1.3309
  176SAPS  H13S20075   4.829   6.631   4.385 -1.8653 -0.6653 -0.8887
  176SAPS  C21420076   4.898   6.489   4.527 -0.1849 -0.8392 -0.5222
  176SAPS  H14R20077   5.004   6.496   4.556 -0.4451 -2.0920  0.7935
  176SAPS  C21520078   4.809   6.440   4.619  0.1717  0.3014 -0.6600
  176SAPS  H15R20079   4.848   6.421   4.720 -1.3082 -0.6462 -0.2454
  176SAPS  C21620080   4.672   6.403   4.591  0.1165 -0.1863  0.5777
  176SAPS  H16R20081   4.628   6.424   4.491  0.3740 -1.8610  0.0652
  176SAPS  H16S20082   4.596   6.446   4.659  0.0971 -0.6070  0.8264
  176SAPS  C21720083   4.641   6.250   4.621  0.1321  0.7895  0.0040
  176SAPS  H17R20084   4.530   6.250   4.619  0.0924  0.6157  1.0921
  176SAPS  H17S20085   4.683   6.234   4.723  1.1911  0.4037 -0.4779
  176SAPS  C21820086   4.703   6.157   4.515 -0.2909  0.3663  0.3316
  176SAPS  H18R20087   4.674   6.051   4.532  0.0485 -0.0756 -1.6791
  176SAPS  H18S20088   4.812   6.141   4.523 -0.3039  0.7561  1.4986
  176SAPS  C21920089   4.660   6.188   4.374 -0.0091 -0.2311 -0.2612
  176SAPS  H19R20090   4.698   6.282   4.329  0.9360 -0.4718 -0.0010
  176SAPS  H19S20091   4.549   6.193   4.370 -0.0601 -0.4059  0.6238
  176SAPS  C22020092   4.700   6.068   4.286 -0.0510 -0.4255  0.6572
  176SAPS  H20R20093   4.808   6.048   4.298  0.0382 -2.9700 -2.7348
  176SAPS  H20S20094   4.679   6.109   4.185 -0.2000  1.1713  1.3097
  176SAPS  H20T20095   4.643   5.976   4.314 -1.4209 -0.3063 -1.5243
  176SAPS   C3320096   4.672   5.937   3.830 -0.5136 -0.1907  0.2025
  176SAPS   H3X20097   4.655   6.043   3.800 -1.3534 -0.9534 -2.2665
  176SAPS   H3Y20098   4.740   5.949   3.917  0.5048  2.4314 -0.8353
  176SAPS   C3420099   4.535   5.883   3.874 -0.4868 -0.3199  0.5443
  176SAPS   H4X20100   4.548   5.776   3.898 -0.6889 -1.0248 -2.1174
  176SAPS   H4Y20101   4.461   5.888   3.791 -3.9083  0.8912  3.4205
  176SAPS   C3520102   4.466   5.961   3.993 -0.4349  0.0184 -0.0440
  176SAPS   H5X20103   4.471   6.069   3.964  1.3443 -0.0064  0.1024
  176SAPS   H5Y20104   4.528   5.947   4.084  1.8635  2.2108 -1.1376
  176SAPS   C3620105   4.315   5.928   4.005  0.1827 -0.1023  0.1801
  176SAPS   H6X20106   4.310   5.824   4.043  0.2045  0.5483  2.1065
  176SAPS   H6Y20107   4.253   5.922   3.914  0.5960 -0.2432 -0.0962
  176SAPS   C3720108   4.248   6.028   4.103  0.4420 -0.0010  0.2923
  176SAPS   H7X20109   4.226   6.122   4.048  3.8886 -0.0424 -1.4484
  176SAPS   H7Y20110   4.317   6.059   4.185  0.7388 -0.5659  0.2633
  176SAPS   C3820111   4.117   5.978   4.166  0.0994  0.6920  0.1817
  176SAPS   H8X20112   4.149   5.911   4.248  0.0324 -0.9907 -1.1193
  176SAPS   H8Y20113   4.057   5.917   4.095  0.4247  0.2001  0.3247
  176SAPS   C3920114   4.035   6.088   4.235 -0.7628  0.2577 -0.0300
  176SAPS   H9X20115   4.007   6.167   4.161  0.8631  2.4058  1.5208
  176SAPS   H9Y20116   4.115   6.131   4.299  1.2481 -0.4294 -1.9383
  176SAPS  C31020117   3.914   6.040   4.315  0.2752  1.0191  0.0439
  176SAPS  H10X20118   3.959   5.955   4.371  0.7563  0.2495 -1.4623
  176SAPS  H10Y20119   3.825   6.013   4.254 -0.4917 -0.0095  1.5225
  176SAPS  C31120120   3.862   6.145   4.409  0.5560 -0.5488 -0.1243
  176SAPS  H11X20121   3.806   6.206   4.335  0.1878 -3.3941 -2.3974
  176SAPS  H11Y20122   3.951   6.192   4.455  1.9352 -2.5376 -0.6115
  176SAPS  C31220123   3.754   6.092   4.505 -0.8635  0.3997  0.3660
  176SAPS  H12X20124   3.703   6.176   4.557 -1.3790  1.2507 -1.4250
  176SAPS  H12Y20125   3.819   6.032   4.572 -1.1592 -0.1077  0.1996
  176SAPS  C31320126   3.642   6.011   4.447  0.1104  0.4502  0.5172
  176SAPS  H13X20127   3.682   5.932   4.381 -0.2763  1.4818 -1.0091
  176SAPS  H13Y20128   3.575   6.071   4.382  1.2244  0.2540 -0.8779
  176SAPS  C31420129   3.551   5.947   4.547  0.2688  0.4947 -0.3433
  176SAPS  H14X20130   3.468   6.008   4.589  1.6709  2.0314  0.3143
  176SAPS  H14Y20131   3.608   5.908   4.634 -1.4146 -2.9927 -0.6278
  176SAPS  C31520132   3.475   5.835   4.482  0.2021 -0.0513  0.1272
  176SAPS  H15X20133   3.544   5.763   4.434  0.1608 -0.8148  1.1848
  176SAPS  H15Y20134   3.412   5.873   4.399  0.9396 -0.5999 -0.7030
  176SAPS  C31620135   3.363   5.768   4.558  0.2578 -0.5213 -0.0611
  176SAPS  H16X20136   3.276   5.835   4.575  0.3961 -0.7386  1.6460
  176SAPS  H16Y20137   3.403   5.757   4.661  1.0305 -0.3613 -0.3385
  176SAPS  C31720138   3.320   5.636   4.502 -0.1877 -0.1558 -0.4857
  176SAPS  H17X20139   3.408   5.581   4.460 -0.5643 -0.5366 -0.7798
  176SAPS  H17Y20140   3.244   5.646   4.423 -0.6144  3.8486  0.2328
  176SAPS  C31820141   3.258   5.563   4.614  0.0298  0.1298 -0.6716
  176SAPS  H18X20142   3.181   5.623   4.667  1.5097  0.3593  1.3468
  176SAPS  H18Y20143   3.336   5.544   4.691 -0.2956  1.8333  0.1203
  176SAPS  H18Z20144   3.211   5.467   4.583 -0.2889 -0.4181  1.3401
  177SAPS     N20145   0.294   2.964   2.927 -0.4821 -0.8176 -0.0403
  177SAPS   HN120146   0.197   2.967   2.965  1.0630  0.3314  4.4988
  177SAPS   HN220147   0.353   2.888   2.968  2.3236  0.6582 -1.1101
  177SAPS   HN320148   0.343   3.046   2.967 -0.3430 -0.0073 -1.7746
  177SAPS   C1220149   0.313   2.969   2.784 -0.3061 -0.1152  0.4480
  177SAPS  H12A20150   0.264   2.880   2.746 -0.7494 -0.3800  1.5946
  177SAPS   C1320151   0.248   3.095   2.719  0.1185  0.0737  0.4340
  177SAPS  O13A20152   0.184   3.170   2.789 -0.1339  0.1968  0.2890
  177SAPS  O13B20153   0.254   3.112   2.596 -0.3010 -0.2725 -0.0225
  177SAPS   C1120154   0.465   2.962   2.751 -0.0896 -0.0989  0.0839
  177SAPS  H11A20155   0.514   3.058   2.777 -1.8105  1.1675 -1.0469
  177SAPS  H11B20156   0.478   2.958   2.641  0.1798 -2.6897  0.1652
  177SAPS     P20157   0.622   2.759   2.760  0.1581 -0.4190 -0.2680
  177SAPS   O1320158   0.541   2.675   2.669 -0.2152 -0.3674 -0.4465
  177SAPS   O1420159   0.724   2.849   2.696  1.0988  0.4943  0.4617
  177SAPS   O1220160   0.526   2.860   2.828 -0.0759 -0.1256 -0.5879
  177SAPS   O1120161   0.684   2.667   2.867  0.3055 -0.5105  0.0706
  177SAPS    C120162   0.611   2.652   3.000  0.5260 -0.0094 -0.1077
  177SAPS    HA20163   0.503   2.634   2.978  1.1469 -1.4494 -2.4408
  177SAPS    HB20164   0.654   2.559   3.044 -1.0537 -2.0207 -2.4674
  177SAPS    C220165   0.629   2.769   3.104  0.1658  0.5598 -0.1018
  177SAPS    HS20166   0.567   2.851   3.062 -1.2644 -1.1889 -1.5833
  177SAPS   O2120167   0.767   2.793   3.116 -0.2568  0.4278  0.1139
  177SAPS   C2120168   0.790   2.925   3.116  0.7473  0.4354  0.0353
  177SAPS   O2220169   0.706   3.015   3.110  0.3702 -0.0129  0.1608
  177SAPS   C2220170   0.938   2.945   3.143  0.2789 -0.2619 -0.2480
  177SAPS   H2R20171   0.987   2.929   3.044  1.3897 -2.5816  0.6015
  177SAPS   H2S20172   0.956   3.052   3.166 -2.7813  0.5295 -1.1225
  177SAPS    C320173   0.554   2.725   3.238  0.0482  0.2697 -0.2533
  177SAPS    HX20174   0.625   2.658   3.291 -1.4191 -0.0519  1.4083
  177SAPS    HY20175   0.460   2.667   3.224 -1.4422  2.6204 -0.4868
  177SAPS   O3120176   0.525   2.841   3.322 -0.4372  0.0777 -0.1781
  177SAPS   C3120177   0.414   2.906   3.288  0.0476  0.6342 -0.4739
  177SAPS   O3220178   0.341   2.872   3.196  0.0499 -0.4591  0.4589
  177SAPS   C3220179   0.390   3.037   3.365 -0.5410 -0.0552  0.0566
  177SAPS   H2X20180   0.383   3.114   3.285  0.1670 -1.0591 -1.0071
  177SAPS   H2Y20181   0.479   3.044   3.432 -1.0537 -0.9514  0.8462
  177SAPS   C2320182   1.013   2.865   3.246  0.1487  0.5713 -0.5930
  177SAPS   H3R20183   1.119   2.869   3.216 -0.4987 -0.5812 -3.3732
  177SAPS   H3S20184   0.986   2.758   3.231  1.2554  0.0962  0.6424
  177SAPS   C2420185   0.989   2.915   3.392 -0.5545  0.0127 -1.4412
  177SAPS   H4R20186   1.033   2.842   3.463  0.1054 -0.4525 -2.3066
  177SAPS   H4S20187   0.882   2.885   3.403 -0.4291 -1.6804 -3.8199
  177SAPS   C2520188   1.037   3.057   3.416 -0.0246  0.7966 -0.9015
  177SAPS   H5R20189   1.145   3.075   3.407  0.0122  1.0595  0.0197
  177SAPS   C2620190   0.963   3.148   3.487 -0.4680 -0.1728  0.1376
  177SAPS   H6R20191   1.012   3.245   3.500  1.5687 -0.8029 -2.1865
  177SAPS   C2720192   0.818   3.125   3.515  0.6848 -0.5367 -0.4388
  177SAPS   H7R20193   0.794   3.171   3.613  0.4075 -0.8218 -0.3704
  177SAPS   H7S20194   0.788   3.024   3.550  1.3715 -0.1592  1.3472
  177SAPS   C2820195   0.728   3.179   3.408  0.0274 -0.3374 -0.0660
  177SAPS   H8R20196   0.682   3.095   3.354 -1.3208 -0.6744  1.5360
  177SAPS   C2920197   0.704   3.313   3.375 -0.9501  0.7452  0.0826
  177SAPS   H9R20198   0.637   3.332   3.290 -0.0735  2.7979 -0.2206
  177SAPS  C21020199   0.756   3.434   3.458  0.0248 -0.7211 -0.3565
  177SAPS  H10R20200   0.837   3.483   3.401  0.4063 -1.6662 -0.6512
  177SAPS  H10S20201   0.814   3.401   3.547 -0.6044  0.1250  0.3921
  177SAPS  C21120202   0.645   3.532   3.477 -0.9478 -0.3806  1.0335
  177SAPS  H11R20203   0.582   3.547   3.388  0.2331 -1.2556  0.0259
  177SAPS  C21220204   0.605   3.591   3.589 -0.1558  0.2012 -0.5827
  177SAPS  H12R20205   0.533   3.673   3.572  0.7431  1.3608  0.9445
  177SAPS  C21320206   0.680   3.589   3.724 -0.1353 -0.7643  0.0420
  177SAPS  H13R20207   0.781   3.541   3.721 -0.6684 -1.8857 -1.7677
  177SAPS  H13S20208   0.615   3.519   3.781 -0.7527 -1.1613 -1.1232
  177SAPS  C21420209   0.708   3.725   3.785 -0.0736  0.2625  0.3843
  177SAPS  H14R20210   0.755   3.797   3.717  1.7038  0.5380  1.8279
  177SAPS  C21520211   0.701   3.763   3.913  0.3289  0.4977  0.1938
  177SAPS  H15R20212   0.717   3.870   3.932  2.4560  0.4093 -0.7374
  177SAPS  C21620213   0.654   3.680   4.023 -0.0317  0.3732  0.4168
  177SAPS  H16R20214   0.701   3.581   4.042  0.8177  0.9360  1.3412
  177SAPS  H16S20215   0.546   3.657   4.014 -0.2949  1.3548  0.9778
  177SAPS  C21720216   0.657   3.743   4.166  0.3914 -0.8068  0.6924
  177SAPS  H17R20217   0.596   3.836   4.171  2.4869  0.8526 -1.7493
  177SAPS  H17S20218   0.764   3.767   4.182  0.9553 -2.7343  0.0633
  177SAPS  C21820219   0.611   3.659   4.284  0.2017  0.1073  0.2860
  177SAPS  H18R20220   0.637   3.551   4.269 -0.9751  0.2621 -4.1367
  177SAPS  H18S20221   0.501   3.660   4.291  0.1883 -0.3441  0.2206
  177SAPS  C21920222   0.683   3.696   4.413  0.0798 -0.1531 -0.0650
  177SAPS  H19R20223   0.649   3.801   4.432 -0.5458  0.1433 -2.4321
  177SAPS  H19S20224   0.792   3.702   4.392 -0.1852 -1.3656 -2.0493
  177SAPS  C22020225   0.652   3.610   4.533  1.0631 -0.0501  0.0913
  177SAPS  H20R20226   0.727   3.621   4.615 -0.1617 -0.9185  1.3659
  177SAPS  H20S20227   0.659   3.507   4.492 -0.6451  0.1137 -0.6863
  177SAPS  H20T20228   0.557   3.618   4.589 -1.0880  1.0118 -3.4489
  177SAPS   C3320229   0.257   3.023   3.440 -0.2302 -0.1752  0.3558
  177SAPS   H3X20230   0.260   2.963   3.533 -3.0529  2.0187  2.0550
  177SAPS   H3Y20231   0.177   2.968   3.385  1.0813 -2.0708  0.2464
  177SAPS   C3420232   0.211   3.159   3.499  0.1414 -0.6427  0.3186
  177SAPS   H4X20233   0.109   3.157   3.543 -0.6202 -2.3929 -1.3697
  177SAPS   H4Y20234   0.214   3.235   3.418  2.8095  2.3967  2.9606
  177SAPS   C3520235   0.313   3.219   3.598  0.2061  0.4148  0.1470
  177SAPS   H5X20236   0.274   3.318   3.629 -1.4519 -0.3764  0.7066
  177SAPS   H5Y20237   0.410   3.221   3.544 -0.9376 -2.2795 -2.2591
  177SAPS   C3620238   0.313   3.135   3.730 -0.4249 -0.1108  1.1654
  177SAPS   H6X20239   0.367   3.038   3.722  0.3247  0.0949  3.1246
  177SAPS   H6Y20240   0.206   3.119   3.758 -0.6025 -0.9617  0.0752
  177SAPS   C3720241   0.395   3.196   3.843  0.2645 -1.1455 -0.3795
  177SAPS   H7X20242   0.382   3.136   3.936  0.7030 -1.1452 -0.3164
  177SAPS   H7Y20243   0.347   3.294   3.864  1.6251 -0.0367 -2.1748
  177SAPS   C3820244   0.547   3.218   3.814  0.1314  0.3269  0.1103
  177SAPS   H8X20245   0.576   3.293   3.737  0.2438 -0.3510 -0.5148
  177SAPS   H8Y20246   0.585   3.119   3.781 -0.4915  0.2620 -0.4345
  177SAPS   C3920247   0.633   3.268   3.935 -0.0170  0.0418 -0.2991
  177SAPS   H9X20248   0.584   3.352   3.988  1.2491  0.8431 -0.3364
  177SAPS   H9Y20249   0.734   3.306   3.906  0.7099 -2.1123 -0.7794
  177SAPS  C31020250   0.654   3.157   4.035  0.6448  0.2706 -0.1010
  177SAPS  H10X20251   0.674   3.063   3.979  0.1523 -0.7117  1.3224
  177SAPS  H10Y20252   0.569   3.138   4.104 -0.2046 -2.5836 -1.7455
  177SAPS  C31120253   0.770   3.177   4.139 -0.8479 -0.6136  0.6691
  177SAPS  H11X20254   0.762   3.277   4.189  0.0333 -0.1355 -0.1198
  177SAPS  H11Y20255   0.863   3.189   4.080 -0.4804 -2.0910  0.9064
  177SAPS  C31220256   0.790   3.076   4.259  0.4615 -0.7554 -0.1754
  177SAPS  H12X20257   0.709   3.094   4.333  0.9656 -0.8877  0.4166
  177SAPS  H12Y20258   0.882   3.103   4.316 -0.2487  0.5752  0.3886
  177SAPS  C31320259   0.790   2.937   4.218 -0.5512  0.1218 -0.2810
  177SAPS  H13X20260   0.874   2.925   4.146  0.1405  3.0201 -0.0883
  177SAPS  H13Y20261   0.709   2.897   4.154 -0.9023 -0.7776  0.6913
  177SAPS  C31420262   0.825   2.853   4.339  0.3175 -0.4473 -1.1623
  177SAPS  H14X20263   0.909   2.902   4.392 -1.1517  0.4941  0.4103
  177SAPS  H14Y20264   0.864   2.754   4.306 -0.3434 -0.9694 -0.4019
  177SAPS  C31520265   0.711   2.833   4.442 -0.0763 -0.2366  0.0961
  177SAPS  H15X20266   0.675   2.934   4.470 -1.5489 -0.1304 -1.9451
  177SAPS  H15Y20267   0.759   2.781   4.527  0.4105 -1.6153 -0.9867
  177SAPS  C31620268   0.589   2.753   4.394 -0.1937  1.1534 -0.1671
  177SAPS  H16X20269   0.528   2.818   4.328  0.2310  2.2501  0.4892
  177SAPS  H16Y20270   0.536   2.714   4.484  1.8015  0.8775  0.9553
  177SAPS  C31720271   0.622   2.626   4.309 -0.1140 -0.0505  0.6051
  177SAPS  H17X20272   0.693   2.563   4.367  0.3942  0.2618  0.3282
  177SAPS  H17Y20273   0.668   2.662   4.214  0.0223  0.2935  0.7990
  177SAPS  C31820274   0.493   2.551   4.276  0.1501 -0.6817 -0.2096
  177SAPS  H18X20275   0.429   2.529   4.365 -0.1534 -2.1702 -0.7571
  177SAPS  H18Y20276   0.513   2.451   4.231 -0.5099 -1.2866  0.7878
  177SAPS  H18Z20277   0.433   2.615   4.207  1.6412  1.3364  0.2788
  178SAPS     N20278   4.690   5.031   2.754  0.3524 -0.5323  0.5999
  178SAPS   HN120279   4.639   5.053   2.842  0.3232  0.1063  0.4292
  178SAPS   HN220280   4.746   5.114   2.726  0.4799 -0.7785  0.1108
  178SAPS   HN320281   4.631   5.009   2.672  0.6435 -0.5626  0.3963
  178SAPS   C1220282   4.789   4.919   2.764  0.0335 -0.0878  0.4201
  178SAPS  H12A20283   4.730   4.831   2.785 -2.2147  0.9567 -1.1306
  178SAPS   C1320284   4.880   4.906   2.638  0.1544  0.1893  0.7653
  178SAPS  O13A20285   4.866   4.989   2.544 -0.5239  0.4132 -0.5268
  178SAPS  O13B20286   4.948   4.796   2.624  0.0645  0.7144 -0.0173
  178SAPS   C1120287   4.885   4.948   2.883  0.5991  0.2778  0.6242
  178SAPS  H11A20288   4.945   5.039   2.863 -0.2127  0.5423 -0.7733
  178SAPS  H11B20289   4.959   4.865   2.887  0.7185  0.4490  3.0713
  178SAPS     P20290   4.876   4.991   3.141 -0.3280 -0.1497  0.0221
  178SAPS   O1320291   4.764   5.018   3.234 -0.6544  0.1596  0.2313
  178SAPS   O1420292   4.979   4.891   3.173 -0.5282 -0.0051 -0.0022
  178SAPS   O1220293   4.817   4.953   3.005  0.1367  0.6339 -0.2067
  178SAPS   O1120294   4.966   5.120   3.125 -0.6011  0.2451 -0.2618
  178SAPS    C120295   4.898   5.245   3.105 -0.6548  0.3208 -0.8084
  178SAPS    HA20296   4.953   5.295   3.022 -0.0822  1.2999  0.1371
  178SAPS    HB20297   4.794   5.233   3.069 -0.6751 -0.5704 -0.4653
  178SAPS    C220298   4.902   5.342   3.227  0.0581 -0.3353 -0.6970
  178SAPS    HS20299   4.861   5.442   3.203  0.1723 -0.1059  0.0400
  178SAPS   O2120300   5.036   5.353   3.279  0.3533 -0.4872  0.2710
  178SAPS   C2120301   5.126   5.397   3.195 -0.2700 -0.6053 -0.3480
  178SAPS   O2220302   5.107   5.459   3.090  0.1998 -0.5313 -0.6065
  178SAPS   C2220303   5.259   5.352   3.245  0.8642  0.6588 -0.0118
  178SAPS   H2R20304   5.251   5.296   3.341  1.3774 -1.3493 -1.0943
  178SAPS   H2S20305   5.304   5.292   3.164 -0.1119 -0.9649  0.5988
  178SAPS    C320306   4.821   5.288   3.345 -0.2069  0.2283 -0.2052
  178SAPS    HX20307   4.867   5.188   3.363  3.0195  1.6715  0.1881
  178SAPS    HY20308   4.715   5.278   3.313 -0.3554 -0.5036  0.4655
  178SAPS   O3120309   4.829   5.364   3.465 -0.0428  0.2835 -0.4633
  178SAPS   C3120310   4.769   5.302   3.572 -0.1275 -0.2216 -0.1539
  178SAPS   O3220311   4.694   5.207   3.561 -0.1594  0.9617 -0.4881
  178SAPS   C3220312   4.809   5.377   3.687 -0.6735 -0.6561  0.0887
  178SAPS   H2X20313   4.841   5.481   3.665 -2.1061 -0.3175 -0.4903
  178SAPS   H2Y20314   4.899   5.321   3.722  0.7681  0.1922 -2.0273
  178SAPS   C2320315   5.360   5.458   3.274  0.0360  0.2711 -0.3811
  178SAPS   H3R20316   5.314   5.524   3.350 -0.9503 -1.3068  0.4594
  178SAPS   H3S20317   5.382   5.510   3.178  2.6672  0.4347  0.2489
  178SAPS   C2420318   5.492   5.404   3.333  0.0254 -0.2964  0.0522
  178SAPS   H4R20319   5.542   5.339   3.257  0.3041  1.7303 -1.5947
  178SAPS   H4S20320   5.456   5.341   3.417 -4.2087  0.4277 -0.9726
  178SAPS   C2520321   5.595   5.512   3.370 -0.6060  0.0855 -0.0021
  178SAPS   H5R20322   5.648   5.567   3.291  0.8724  0.9387  1.5221
  178SAPS   C2620323   5.623   5.544   3.497  0.5012  0.5263  0.3849
  178SAPS   H6R20324   5.694   5.628   3.504  0.8248  0.6856 -3.0360
  178SAPS   C2720325   5.567   5.499   3.630 -0.3493 -0.2315 -0.4637
  178SAPS   H7R20326   5.648   5.447   3.685 -1.5503 -4.0066 -1.9539
  178SAPS   H7S20327   5.486   5.424   3.614  0.3034 -1.5270  1.8491
  178SAPS   C2820328   5.514   5.621   3.704 -0.3315  0.3064  0.4535
  178SAPS   H8R20329   5.516   5.719   3.653 -3.2497  1.2514  1.9487
  178SAPS   C2920330   5.475   5.623   3.832 -0.1804  0.1007  0.6159
  178SAPS   H9R20331   5.441   5.718   3.878  0.1685  1.0981 -1.0937
  178SAPS  C21020332   5.474   5.517   3.936  0.2465  0.0200 -0.6712
  178SAPS  H10R20333   5.493   5.418   3.888 -2.3414 -0.5153 -0.7512
  178SAPS  H10S20334   5.370   5.507   3.974  0.0213  2.4853 -0.4912
  178SAPS  C21120335   5.573   5.555   4.041  0.1559 -0.3542 -0.8376
  178SAPS  H11R20336   5.674   5.574   4.004  0.1956  0.4798 -0.3097
  178SAPS  C21220337   5.560   5.542   4.173 -0.0253  0.2596  0.6324
  178SAPS  H12R20338   5.643   5.560   4.243  1.7644 -3.3304 -0.3325
  178SAPS  C21320339   5.446   5.467   4.246 -0.2310 -0.8184  0.3755
  178SAPS  H13R20340   5.478   5.397   4.326 -0.2113  0.5607  1.6367
  178SAPS  H13S20341   5.389   5.412   4.168  0.7002 -1.4727  0.1485
  178SAPS  C21420342   5.348   5.556   4.318  0.3941 -0.0548 -0.6448
  178SAPS  H14R20343   5.272   5.608   4.258 -1.2306 -1.4672  0.1223
  178SAPS  C21520344   5.345   5.565   4.455  1.4533 -0.0835  1.0037
  178SAPS  H15R20345   5.264   5.627   4.497 -0.7590 -1.2110 -1.3047
  178SAPS  C21620346   5.443   5.496   4.552  0.0504  0.0616  0.1964
  178SAPS  H16R20347   5.544   5.476   4.512  0.7379 -1.9403  2.6739
  178SAPS  H16S20348   5.412   5.392   4.575  1.7768 -0.8923 -1.5269
  178SAPS  C21720349   5.448   5.586   4.673  0.0719  0.4372 -0.0757
  178SAPS  H17R20350   5.346   5.591   4.717  0.0690  0.3790 -0.0770
  178SAPS  H17S20351   5.486   5.687   4.645  3.2531 -1.1114 -1.8918
  178SAPS  C21820352   5.546   5.537   4.775  0.2073  0.0599  0.2336
  178SAPS  H18R20353   5.649   5.540   4.735  0.2760 -0.7098  0.3378
  178SAPS  H18S20354   5.527   5.433   4.809  0.2914  0.0881  0.3717
  178SAPS  C21920355   5.539   5.617   4.903 -0.1618  0.5569  0.0431
  178SAPS  H19R20356   5.440   5.597   4.948 -0.8535 -3.0985 -2.6736
  178SAPS  H19S20357   5.554   5.724   4.876  0.8102  0.5064  0.3405
  178SAPS  C22020358   5.654   5.582   4.998 -0.6820  0.0506  0.6975
  178SAPS  H20R20359   5.644   5.476   5.028 -0.2281  0.0893  0.9911
  178SAPS  H20S20360   5.646   5.658   5.079 -0.7427  1.2231 -0.3678
  178SAPS  H20T20361   5.748   5.598   4.941 -0.4645 -0.9181  0.7594
  178SAPS   C3320362   4.710   5.394   3.806 -0.3710  0.3953 -0.2317
  178SAPS   H3X20363   4.691   5.291   3.842  0.5875 -1.1177 -3.6662
  178SAPS   H3Y20364   4.612   5.426   3.766 -0.7949  0.4152  0.7828
  178SAPS   C3420365   4.759   5.483   3.915 -0.7017 -0.1134 -0.2703
  178SAPS   H4X20366   4.791   5.574   3.861 -0.5521 -0.6179 -1.0367
  178SAPS   H4Y20367   4.852   5.446   3.963  1.2529 -0.2022 -3.8650
  178SAPS   C3520368   4.650   5.524   4.012 -0.0135 -0.1041  0.9925
  178SAPS   H5X20369   4.601   5.436   4.059  1.5809  0.8444  4.8605
  178SAPS   H5Y20370   4.566   5.560   3.949  0.7497 -2.0644 -1.2927
  178SAPS   C3620371   4.690   5.624   4.121 -0.0270  0.1318 -0.0835
  178SAPS   H6X20372   4.595   5.664   4.162 -0.9252 -1.2330 -0.7586
  178SAPS   H6Y20373   4.747   5.704   4.070 -2.5606  1.8953 -0.2864
  178SAPS   C3720374   4.769   5.563   4.245  0.1808 -0.3388 -0.5463
  178SAPS   H7X20375   4.859   5.507   4.213  0.8148 -0.2695  0.9898
  178SAPS   H7Y20376   4.711   5.485   4.300  1.0011 -1.2431 -0.9335
  178SAPS   C3820377   4.819   5.670   4.343 -0.1261  0.0584  0.3510
  178SAPS   H8X20378   4.857   5.752   4.278 -0.1636 -1.1001 -1.1884
  178SAPS   H8Y20379   4.906   5.641   4.406  0.1830 -0.2650 -0.2098
  178SAPS   C3920380   4.711   5.716   4.445  0.7165 -0.4403  0.2071
  178SAPS   H9X20381   4.640   5.633   4.466 -0.3919 -0.0126 -1.6872
  178SAPS   H9Y20382   4.646   5.793   4.400 -0.8385 -1.5825  0.4066
  178SAPS  C31020383   4.769   5.780   4.578 -0.0657  0.2392 -0.1241
  178SAPS  H10X20384   4.830   5.870   4.556  0.8090 -0.1364  0.6739
  178SAPS  H10Y20385   4.834   5.704   4.626  0.2960  1.9625  2.3189
  178SAPS  C31120386   4.666   5.800   4.689 -0.4975  0.0172 -0.2972
  178SAPS  H11X20387   4.613   5.704   4.704  0.5997 -0.5103  0.2625
  178SAPS  H11Y20388   4.593   5.871   4.644  0.5694  0.7613 -0.9069
  178SAPS  C31220389   4.720   5.857   4.817 -0.8618  0.4308  0.0287
  178SAPS  H12X20390   4.773   5.953   4.800  1.4009 -0.7216  0.2217
  178SAPS  H12Y20391   4.789   5.783   4.863 -0.8139  0.8060  0.5778
  178SAPS  C31320392   4.604   5.877   4.923  0.2069  0.2473 -0.3176
  178SAPS  H13X20393   4.563   5.774   4.936  0.3766  0.2841  0.6023
  178SAPS  H13Y20394   4.537   5.954   4.879  0.0523  0.4741  0.2939
  178SAPS  C31420395   4.656   5.904   5.065 -0.3804 -0.3576  0.0480
  178SAPS  H14X20396   4.755   5.855   5.082 -0.0644 -0.0630 -0.8789
  178SAPS  H14Y20397   4.586   5.874   5.146 -1.1991  2.0508  0.3113
  178SAPS  C31520398   4.692   6.050   5.100 -0.0246  0.0673  0.6789
  178SAPS  H15X20399   4.717   6.057   5.208 -0.7338 -0.6526  0.9049
  178SAPS  H15Y20400   4.609   6.120   5.078  1.7192  2.5200  1.5143
  178SAPS  C31620401   4.812   6.096   5.021 -0.0029  0.1848 -0.1631
  178SAPS  H16X20402   4.796   6.100   4.911 -0.4110  1.1186 -0.0858
  178SAPS  H16Y20403   4.892   6.020   5.037 -0.7013 -0.5465 -0.0822
  178SAPS  C31720404   4.863   6.230   5.065  0.1919 -0.2189 -0.8148
  178SAPS  H17X20405   4.884   6.222   5.174  1.6143 -1.0757 -1.1356
  178SAPS  H17Y20406   4.793   6.315   5.049 -0.7385 -0.8654 -0.2512
  178SAPS  C31820407   4.993   6.273   5.003  0.2559  0.3706  0.4947
  178SAPS  H18X20408   4.969   6.283   4.895  1.2760  1.1897  0.3296
  178SAPS  H18Y20409   5.070   6.193   5.012  1.7040  1.4599 -1.3165
  178SAPS  H18Z20410   5.027   6.374   5.033  1.7722  0.1445 -0.3463
  179SAPS     N20411   1.340   0.106   2.582  0.5661 -0.3730 -0.4335
  179SAPS   HN120412   1.349   0.013   2.536  0.2962 -0.7809  0.3062
  179SAPS   HN220413   1.416   0.171   2.557 -0.1944  0.7341  0.0223
  179SAPS   HN320414   1.345   0.101   2.686  2.4902 -0.1886 -0.4850
  179SAPS   C1220415   1.203   0.159   2.556  1.2737 -0.3360 -0.1597
  179SAPS  H12A20416   1.208   0.255   2.607 -0.7760  0.1639 -0.8010
  179SAPS   C1320417   1.172   0.181   2.409 -0.1606 -0.3317 -0.7988
  179SAPS  O13A20418   1.258   0.166   2.317  0.3198 -0.0276 -0.4004
  179SAPS  O13B20419   1.058   0.227   2.381 -0.1169  0.6489 -0.2820
  179SAPS   C1120420   1.097   0.067   2.624 -0.4232 -0.0569 -0.8643
  179SAPS  H11A20421   1.076  -0.022   2.560 -1.6230 -1.2723  1.0769
  179SAPS  H11B20422   0.992   0.104   2.632 -0.5450 -0.5120 -0.2362
  179SAPS     P20423   1.038  -0.005   2.872 -0.0061  0.0634  0.0153
  179SAPS   O1320424   0.942  -0.105   2.818 -0.1872  0.0447 -0.4601
  179SAPS   O1420425   1.109  -0.028   3.001 -0.5307  0.1536  0.5313
  179SAPS   O1220426   1.142   0.025   2.757  0.0980 -0.2861 -0.2835
  179SAPS   O1120427   0.962   0.138   2.887  0.1668 -0.3857 -0.0237
  179SAPS    C120428   1.043   0.249   2.930  0.0631 -1.1493  0.2362
  179SAPS    HA20429   1.151   0.246   2.906  0.0650  2.0025 -0.5994
  179SAPS    HB20430   1.004   0.343   2.885  1.6676 -1.0459 -1.0350
  179SAPS    C220431   1.032   0.279   3.082 -0.3614  0.3814 -0.3958
  179SAPS    HS20432   1.072   0.194   3.142  0.7289  1.3656  0.3187
  179SAPS   O2120433   0.898   0.310   3.129 -0.1213 -0.3824  0.2468
  179SAPS   C2120434   0.818   0.205   3.163 -0.7286 -0.5219 -0.5701
  179SAPS   O2220435   0.854   0.091   3.174 -0.8471 -0.0832  0.2997
  179SAPS   C2220436   0.672   0.249   3.168 -0.1955 -0.1305 -0.1595
  179SAPS   H2R20437   0.673   0.351   3.213  1.3257 -0.0458 -0.3441
  179SAPS   H2S20438   0.647   0.280   3.064 -0.3491  0.5364  0.0664
  179SAPS    C320439   1.121   0.405   3.121 -0.6468 -0.3943 -0.7646
  179SAPS    HX20440   1.067   0.494   3.082 -0.5776  1.0865  2.2705
  179SAPS    HY20441   1.221   0.380   3.080 -0.8898 -1.8790 -0.5013
  179SAPS   O3120442   1.130   0.427   3.264 -0.1191 -0.4771  0.5188
  179SAPS   C3120443   1.217   0.526   3.296  0.1112 -0.5503  0.0744
  179SAPS   O3220444   1.264   0.601   3.216 -0.5492  0.3884 -0.1093
  179SAPS   C3220445   1.248   0.523   3.444  0.4679  0.6281 -0.0604
  179SAPS   H2X20446   1.315   0.434   3.454  1.4975  1.3324 -0.4781
  179SAPS   H2Y20447   1.153   0.513   3.501  1.3470 -1.5558  1.1394
  179SAPS   C2320448   0.569   0.145   3.214 -0.6814 -0.5667  0.0278
  179SAPS   H3R20449   0.592   0.045   3.171  0.1667 -0.9981  1.4241
  179SAPS   H3S20450   0.473   0.178   3.169 -0.8679 -0.1776  0.6950
  179SAPS   C2420451   0.560   0.127   3.372 -0.3095 -0.2410 -0.3562
  179SAPS   H4R20452   0.472   0.060   3.383 -1.6724  0.8086 -3.5382
  179SAPS   H4S20453   0.505   0.216   3.408 -1.5994 -1.3141  0.4269
  179SAPS   C2520454   0.673   0.075   3.456  0.3184  0.5614 -0.0179
  179SAPS   H5R20455   0.756   0.032   3.398  1.1881  0.9435  0.9186
  179SAPS   C2620456   0.686   0.070   3.586 -0.1936 -0.5115  0.3620
  179SAPS   H6R20457   0.782   0.026   3.618  0.1200  1.2217  1.9167
  179SAPS   C2720458   0.588   0.107   3.687  0.9459 -0.0014 -0.2264
  179SAPS   H7R20459   0.534   0.013   3.713 -1.1194  1.2958  0.4593
  179SAPS   H7S20460   0.506   0.169   3.644  0.2966 -1.6870 -1.5489
  179SAPS   C2820461   0.632   0.178   3.814 -0.0469  0.7389 -0.2666
  179SAPS   H8R20462   0.684   0.270   3.785  1.2190 -0.4502 -1.9711
  179SAPS   C2920463   0.599   0.145   3.938 -0.5141 -0.0563  0.4634
  179SAPS   H9R20464   0.627   0.221   4.014 -3.4546  0.1399  1.4741
  179SAPS  C21020465   0.532   0.022   3.994 -0.1053  0.6906 -0.1367
  179SAPS  H10R20466   0.597  -0.024   4.072 -2.0237  1.2011  1.8717
  179SAPS  H10S20467   0.523  -0.060   3.919  1.0267 -0.0850  0.5408
  179SAPS  C21120468   0.402   0.040   4.064  0.0153 -0.1473 -0.2280
  179SAPS  H11R20469   0.317   0.031   3.995  0.7550  0.2324 -1.2254
  179SAPS  C21220470   0.381   0.070   4.198 -0.0148 -0.6259  0.2020
  179SAPS  H12R20471   0.277   0.091   4.227  0.0852  0.2340 -0.0416
  179SAPS  C21320472   0.472   0.102   4.309 -0.3924 -0.5618 -0.0296
  179SAPS  H13R20473   0.436   0.200   4.348 -2.3119 -1.2474  0.0005
  179SAPS  H13S20474   0.576   0.124   4.276 -0.8022  0.4267 -0.6957
  179SAPS  C21420475   0.463   0.000   4.420 -0.2622 -0.1132  0.2478
  179SAPS  H14R20476   0.430  -0.101   4.392  1.2075 -0.7819  0.8214
  179SAPS  C21520477   0.512   0.033   4.543 -0.1653  0.5688  0.5524
  179SAPS  H15R20478   0.523  -0.039   4.626  0.8889  1.0659  0.8604
  179SAPS  C21620479   0.560   0.171   4.578  0.1361  0.2201 -0.3145
  179SAPS  H16R20480   0.614   0.222   4.495 -0.7261 -0.5041 -1.3657
  179SAPS  H16S20481   0.623   0.177   4.669  0.0721 -0.2905 -0.2346
  179SAPS  C21720482   0.434   0.259   4.618 -0.0717  0.1996 -0.1192
  179SAPS  H17R20483   0.383   0.288   4.524 -1.8562  1.7883  1.2595
  179SAPS  H17S20484   0.469   0.352   4.668 -1.8164  0.1222  1.3570
  179SAPS  C21820485   0.335   0.197   4.716  0.6604 -1.5580  0.1894
  179SAPS  H18R20486   0.293   0.107   4.667  2.7290 -1.8646 -1.1409
  179SAPS  H18S20487   0.247   0.263   4.734  0.7667 -1.2062 -0.5453
  179SAPS  C21920488   0.390   0.170   4.853 -0.8795  0.1468  0.2568
  179SAPS  H19R20489   0.433   0.262   4.897 -0.5033 -0.4162  1.1134
  179SAPS  H19S20490   0.467   0.089   4.853  0.0484  1.0138 -0.3378
  179SAPS  C22020491   0.283   0.116   4.946  0.4969  0.2314  0.9387
  179SAPS  H20R20492   0.200   0.189   4.953 -0.8995 -0.7442 -2.9245
  179SAPS  H20S20493   0.320   0.093   5.048 -1.4757 -4.0291  0.9484
  179SAPS  H20T20494   0.238   0.021   4.909 -0.3226  0.9235  0.1093
  179SAPS   C3320495   1.313   0.651   3.496  0.0379 -0.1260  0.3910
  179SAPS   H3X20496   1.223   0.704   3.534 -0.1043 -0.7244  0.9019
  179SAPS   H3Y20497   1.374   0.710   3.425 -0.7968  0.7527  0.3783
  179SAPS   C3420498   1.391   0.633   3.632  1.3230 -0.1015  0.2929
  179SAPS   H4X20499   1.498   0.610   3.618  1.7100  1.7530 -0.0755
  179SAPS   H4Y20500   1.351   0.547   3.689 -1.0804  0.0771 -0.9707
  179SAPS   C3520501   1.362   0.764   3.717  0.3562  0.6002  0.4049
  179SAPS   H5X20502   1.252   0.773   3.731  0.5486 -0.8834  3.6376
  179SAPS   H5Y20503   1.399   0.849   3.655 -2.6706 -0.4072 -3.1639
  179SAPS   C3620504   1.436   0.758   3.852 -0.5061  0.5537  0.2336
  179SAPS   H6X20505   1.543   0.754   3.823 -0.1183  0.4087  1.6035
  179SAPS   H6Y20506   1.398   0.669   3.907 -0.4266 -0.4763 -1.3034
  179SAPS   C3720507   1.419   0.881   3.932  0.1327  0.2944  0.0028
  179SAPS   H7X20508   1.310   0.892   3.953  0.1409 -2.4653  1.9841
  179SAPS   H7Y20509   1.454   0.964   3.866 -1.3125  1.4737  0.6714
  179SAPS   C3820510   1.494   0.884   4.063 -0.2970  0.3730 -0.1803
  179SAPS   H8X20511   1.468   0.790   4.115  0.7303 -1.4497 -2.7576
  179SAPS   H8Y20512   1.462   0.969   4.127  1.7455  1.2281 -0.2197
  179SAPS   C3920513   1.643   0.904   4.046 -0.0225 -0.1879 -0.2233
  179SAPS   H9X20514   1.659   0.984   3.971 -1.9826 -1.7621 -2.4855
  179SAPS   H9Y20515   1.688   0.814   3.997 -1.3493 -0.4712 -0.9590
  179SAPS  C31020516   1.712   0.953   4.180  0.9798 -0.9543 -0.2457
  179SAPS  H10X20517   1.664   1.043   4.223 -0.8272 -2.3379  0.7810
  179SAPS  H10Y20518   1.819   0.975   4.162  1.2324 -0.7696  1.3219
  179SAPS  C31120519   1.713   0.838   4.290 -0.1105 -0.3680 -0.4529
  179SAPS  H11X20520   1.764   0.748   4.248  0.5183 -1.0735  1.6836
  179SAPS  H11Y20521   1.609   0.804   4.310  0.0949 -1.7201 -1.5004
  179SAPS  C31220522   1.786   0.874   4.421  0.2098  0.2344  0.2386
  179SAPS  H12X20523   1.893   0.889   4.395 -0.1584  1.1137 -0.8897
  179SAPS  H12Y20524   1.779   0.789   4.491  3.3214  0.5689  1.1023
  179SAPS  C31320525   1.727   1.002   4.492  0.4736  0.7221  0.7235
  179SAPS  H13X20526   1.617   0.992   4.477  0.8153  0.1641 -1.8520
  179SAPS  H13Y20527   1.746   1.095   4.435 -0.8545  0.1608 -0.7171
  179SAPS  C31420528   1.752   1.016   4.641 -0.3406 -0.3479  0.0690
  179SAPS  H14X20529   1.723   0.918   4.684 -0.6161 -0.3451 -0.1106
  179SAPS  H14Y20530   1.697   1.104   4.680 -0.5776 -0.3894 -0.1738
  179SAPS  C31520531   1.909   1.029   4.663  0.0723 -0.0600 -0.4304
  179SAPS  H15X20532   1.959   0.981   4.576 -0.3531 -1.5162  0.1059
  179SAPS  H15Y20533   1.949   0.972   4.750  1.9528  0.6241 -0.8041
  179SAPS  C31620534   1.955   1.179   4.666 -0.0138 -0.0897 -0.4921
  179SAPS  H16X20535   1.906   1.230   4.580  0.3894 -0.1781 -0.7820
  179SAPS  H16Y20536   2.064   1.179   4.644  0.4595 -1.9157  1.5442
  179SAPS  C31720537   1.926   1.256   4.792 -0.0977 -0.2831 -0.0959
  179SAPS  H17X20538   1.968   1.192   4.873  1.2664 -0.8701 -1.2239
  179SAPS  H17Y20539   1.816   1.268   4.805  0.4028  2.0715  3.0378
  179SAPS  C31820540   1.988   1.395   4.789  0.1366 -0.4120  0.6813
  179SAPS  H18X20541   1.938   1.439   4.700  0.6034 -0.3207  0.4644
  179SAPS  H18Y20542   2.098   1.384   4.779  0.4544  1.4553  1.7523
  179SAPS  H18Z20543   1.967   1.448   4.884 -2.0031 -0.1966  0.1414
  180SAPS     N20544   0.685   1.730   2.648  0.1310 -0.2272 -0.0987
  180SAPS   HN120545   0.672   1.736   2.751  0.2146 -1.5609  0.0078
  180SAPS   HN220546   0.779   1.691   2.623 -0.3116  0.0387 -2.4067
  180SAPS   HN320547   0.684   1.825   2.607 -0.3873 -0.3248 -0.3164
  180SAPS   C1220548   0.580   1.648   2.580  0.1306 -0.7406 -0.1882
  180SAPS  H12A20549   0.522   1.610   2.662  0.3760  0.5995  0.6323
  180SAPS   C1320550   0.470   1.735   2.503  0.3862 -0.0579  0.4996
  180SAPS  O13A20551   0.481   1.862   2.490 -0.6151 -0.4999 -0.4348
  180SAPS  O13B20552   0.371   1.674   2.467  0.0172 -0.3731 -0.5181
  180SAPS   C1120553   0.639   1.541   2.484  0.8210 -0.5622 -0.3315
  180SAPS  H11A20554   0.714   1.593   2.420  0.8848 -0.7432 -0.4050
  180SAPS  H11B20555   0.559   1.505   2.415  0.4502 -0.6399  0.1300
  180SAPS     P20556   0.841   1.415   2.581  0.2252  0.0770 -0.5969
  180SAPS   O1320557   0.901   1.360   2.452  0.2697  0.3271 -0.0674
  180SAPS   O1420558   0.899   1.538   2.633  0.2435  0.4529  0.0210
  180SAPS   O1220559   0.692   1.433   2.561 -0.0850  0.6017 -0.4854
  180SAPS   O1120560   0.855   1.290   2.690  0.0256  0.4158  0.0605
  180SAPS    C120561   0.732   1.225   2.730  0.1045 -0.0628 -0.5415
  180SAPS    HA20562   0.660   1.295   2.778  0.9470  0.8095 -0.4952
  180SAPS    HB20563   0.685   1.184   2.638  2.1405 -0.9039 -1.2593
  180SAPS    C220564   0.768   1.126   2.843 -0.2670  0.1755 -0.1448
  180SAPS    HS20565   0.850   1.057   2.817 -1.8378 -1.1477 -1.8375
  180SAPS   O2120566   0.642   1.065   2.889 -0.8528  0.7055 -0.6011
  180SAPS   C2120567   0.650   0.938   2.933 -0.1143  0.7128  0.1405
  180SAPS   O2220568   0.745   0.869   2.915 -0.5434 -0.2897 -0.7832
  180SAPS   C2220569   0.509   0.886   2.987 -1.1287 -0.2746  0.1607
  180SAPS   H2R20570   0.437   0.971   2.994  0.8950  1.3580  3.2187
  180SAPS   H2S20571   0.488   0.821   2.900 -1.4442  0.1994 -0.1251
  180SAPS    C320572   0.814   1.208   2.969 -0.0577  0.6031 -0.1633
  180SAPS    HX20573   0.734   1.278   3.003 -1.0226 -1.0435  1.1323
  180SAPS    HY20574   0.903   1.267   2.939  2.4513 -2.5618  0.5139
  180SAPS   O3120575   0.851   1.123   3.081  0.1594  0.3676 -0.0092
  180SAPS   C3120576   0.978   1.079   3.088 -0.8370  0.0341  0.6225
  180SAPS   O3220577   1.065   1.102   3.005  0.3394 -0.1723 -0.0737
  180SAPS   C3220578   1.002   0.999   3.215 -0.0417  0.3051 -0.2907
  180SAPS   H2X20579   0.970   1.051   3.308 -0.2396 -0.2701 -0.0314
  180SAPS   H2Y20580   1.111   0.982   3.230 -0.1836 -1.6604 -1.1841
  180SAPS   C2320581   0.515   0.808   3.123  0.4476  0.3921  0.2111
  180SAPS   H3R20582   0.466   0.880   3.192  3.1970  2.6301  0.0037
  180SAPS   H3S20583   0.620   0.796   3.156  1.5230  0.4261 -2.8587
  180SAPS   C2420584   0.448   0.663   3.124  0.1931 -0.3420  0.1878
  180SAPS   H4R20585   0.470   0.615   3.222 -0.3965 -2.0962 -0.5107
  180SAPS   H4S20586   0.484   0.601   3.039 -0.8495 -1.0807  0.2730
  180SAPS   C2520587   0.300   0.692   3.108 -0.0383  0.3270 -1.0873
  180SAPS   H5R20588   0.274   0.746   3.016  1.2454  1.8904 -0.5857
  180SAPS   C2620589   0.201   0.642   3.177  0.5371 -0.1871 -0.8176
  180SAPS   H6R20590   0.097   0.655   3.145  0.2966 -0.7374 -0.2723
  180SAPS   C2720591   0.212   0.550   3.289  0.0189  1.3823 -0.4067
  180SAPS   H7R20592   0.110   0.557   3.331 -0.8669  0.1871 -2.2416
  180SAPS   H7S20593   0.286   0.577   3.368  2.2134 -2.2246 -0.9928
  180SAPS   C2820594   0.266   0.412   3.253  0.0014  0.5033  0.3353
  180SAPS   H8R20595   0.336   0.412   3.167 -0.6107 -1.0035 -0.1928
  180SAPS   C2920596   0.222   0.295   3.311 -0.3658 -0.0212  0.7676
  180SAPS   H9R20597   0.268   0.201   3.278  0.1861  0.3130  0.5672
  180SAPS  C21020598   0.115   0.277   3.426 -0.2780 -0.4935  0.1548
  180SAPS  H10R20599   0.020   0.263   3.371 -0.7318 -1.3774  1.1283
  180SAPS  H10S20600   0.109   0.366   3.492 -1.7348 -0.8392  0.5136
  180SAPS  C21120601   0.143   0.151   3.509 -0.3557  0.0776  0.0035
  180SAPS  H11R20602   0.104   0.056   3.469  1.8715  0.2482 -2.9916
  180SAPS  C21220603   0.184   0.148   3.636 -0.2764 -0.6251  0.2556
  180SAPS  H12R20604   0.205   0.054   3.688  0.8127 -0.1733  0.6564
  180SAPS  C21320605   0.215   0.267   3.732  0.0366  0.2338  0.7332
  180SAPS  H13R20606   0.300   0.329   3.695  1.6731 -0.8968  2.3947
  180SAPS  H13S20607   0.273   0.225   3.817  0.4060 -0.8827 -0.0499
  180SAPS  C21420608   0.106   0.359   3.784 -0.3559  0.4822  0.1014
  180SAPS  H14R20609   0.025   0.363   3.709 -0.4359 -0.0535  0.1549
  180SAPS  C21520610   0.097   0.414   3.903  0.3279 -0.1298  0.0018
  180SAPS  H15R20611   0.002   0.461   3.932  1.5669  1.5132  1.6082
  180SAPS  C21620612   0.207   0.415   4.006 -0.0378 -0.0436 -0.6132
  180SAPS  H16R20613   0.222   0.520   4.040  2.5243 -0.4502 -0.3247
  180SAPS  H16S20614   0.302   0.388   3.955  0.0882 -1.2067  0.1871
  180SAPS  C21720615   0.174   0.326   4.135 -0.1412  0.2014 -0.7335
  180SAPS  H17R20616   0.254   0.337   4.211 -0.3715  1.9995 -0.6985
  180SAPS  H17S20617   0.178   0.220   4.104  0.1234 -0.2255  0.6938
  180SAPS  C21820618   0.030   0.344   4.195 -0.2615 -0.5766  0.1602
  180SAPS  H18R20619  -0.055   0.340   4.124 -0.5505 -1.2094  0.5366
  180SAPS  H18S20620   0.024   0.445   4.240  1.4593 -0.6645  0.6807
  180SAPS  C21920621   0.000   0.236   4.304  0.0818 -0.2512  0.0921
  180SAPS  H19R20622   0.089   0.236   4.370  0.2772 -0.5613 -0.1696
  180SAPS  H19S20623   0.010   0.143   4.245  2.4402 -0.7171  1.1329
  180SAPS  C22020624  -0.133   0.245   4.375  0.2703 -0.2334 -0.0553
  180SAPS  H20R20625  -0.222   0.245   4.309  0.0070  2.0908  0.2088
  180SAPS  H20S20626  -0.158   0.163   4.446 -2.2270 -0.3318 -0.9563
  180SAPS  H20T20627  -0.141   0.338   4.435 -0.3798 -1.1840  1.3973
  180SAPS   C3320628   0.935   0.862   3.200 -0.4207  0.3472 -0.7162
  180SAPS   H3X20629   0.982   0.816   3.111 -0.7279  2.9032 -2.3148
  180SAPS   H3Y20630   0.825   0.856   3.182 -0.6444  1.1639  0.2749
  180SAPS   C3420631   0.957   0.779   3.330  0.1672 -0.4390  0.7851
  180SAPS   H4X20632   0.929   0.842   3.417 -0.1435 -0.3541  0.6219
  180SAPS   H4Y20633   1.065   0.754   3.344  0.5218  0.9071  0.5705
  180SAPS   C3520634   0.861   0.657   3.341  0.2482 -0.4020 -0.0098
  180SAPS   H5X20635   0.927   0.576   3.380  0.1522 -0.3353  0.2948
  180SAPS   H5Y20636   0.817   0.628   3.244  0.4554 -1.3646  0.1729
  180SAPS   C3620637   0.749   0.671   3.447  0.7719  0.8791 -0.2107
  180SAPS   H6X20638   0.676   0.746   3.411 -0.2486 -0.0759 -0.1939
  180SAPS   H6Y20639   0.789   0.711   3.542  0.5580  0.7528 -0.0649
  180SAPS   C3720640   0.665   0.546   3.463  0.2633 -0.4446  0.4257
  180SAPS   H7X20641   0.713   0.448   3.484 -0.2836 -0.5407  1.2399
  180SAPS   H7Y20642   0.606   0.530   3.370  0.0961  2.7499 -0.1319
  180SAPS   C3820643   0.563   0.552   3.570 -0.2202 -0.7024 -1.0313
  180SAPS   H8X20644   0.513   0.454   3.585 -0.2340 -0.5032  0.3224
  180SAPS   H8Y20645   0.497   0.630   3.527  0.4257  1.4604  1.6160
  180SAPS   C3920646   0.607   0.604   3.710  0.7400 -0.0777  0.2015
  180SAPS   H9X20647   0.592   0.714   3.704  2.6388  0.3442  2.0943
  180SAPS   H9Y20648   0.716   0.594   3.725  1.2081  1.6641 -1.5806
  180SAPS  C31020649   0.541   0.537   3.824 -0.2142  0.3853  0.2132
  180SAPS  H10X20650   0.513   0.430   3.814 -1.6842  0.4997  2.3980
  180SAPS  H10Y20651   0.439   0.576   3.840 -0.9212 -1.4596  0.4019
  180SAPS  C31120652   0.618   0.533   3.954  0.2381  0.3260 -0.2460
  180SAPS  H11X20653   0.680   0.625   3.959 -0.0571  0.5010  0.3749
  180SAPS  H11Y20654   0.685   0.444   3.950 -0.5862 -0.2831 -0.7645
  180SAPS  C31220655   0.530   0.526   4.077  0.4116 -0.2085 -0.2156
  180SAPS  H12X20656   0.482   0.426   4.091 -0.4566  0.4264  1.7206
  180SAPS  H12Y20657   0.445   0.598   4.082 -0.6100 -1.4284  0.9512
  180SAPS  C31320658   0.610   0.528   4.213  0.0936 -0.2458  0.2735
  180SAPS  H13X20659   0.665   0.624   4.200 -0.6605  0.0020 -1.3707
  180SAPS  H13Y20660   0.682   0.445   4.233  0.8335  0.4391  0.5069
  180SAPS  C31420661   0.529   0.545   4.342 -0.2093  0.2133 -0.3767
  180SAPS  H14X20662   0.540   0.457   4.408 -2.7929  2.0910  2.9024
  180SAPS  H14Y20663   0.422   0.554   4.313 -0.0626  0.8375 -0.7526
  180SAPS  C31520664   0.567   0.669   4.413 -0.0930 -0.0518 -0.5469
  180SAPS  H15X20665   0.579   0.767   4.362  1.1780  0.2379  0.2478
  180SAPS  H15Y20666   0.667   0.657   4.458 -1.5817  0.7355  3.3907
  180SAPS  C31620667   0.473   0.699   4.532  0.4434 -0.0328 -0.2279
  180SAPS  H16X20668   0.498   0.616   4.602  1.7238  0.6246  0.1333
  180SAPS  H16Y20669   0.369   0.689   4.493  0.3168 -1.4570  0.4052
  180SAPS  C31720670   0.491   0.836   4.592  0.5673  0.0039 -0.1325
  180SAPS  H17X20671   0.478   0.908   4.508 -0.1322 -0.3453 -0.3328
  180SAPS  H17Y20672   0.598   0.849   4.621 -0.0796  0.1111  2.3889
  180SAPS  C31820673   0.422   0.858   4.730  0.3038  0.2469 -0.3913
  180SAPS  H18X20674   0.435   0.965   4.757 -0.7048  1.5911 -4.4958
  180SAPS  H18Y20675   0.468   0.787   4.802  3.4258  0.9812 -1.5038
  180SAPS  H18Z20676   0.314   0.838   4.719  0.5736 -1.0693 -0.7871
  181POPC     N20677   0.284   0.834   7.286  0.0673 -0.2084  0.1521
  181POPC   C1220678   0.312   0.745   7.167  0.2608 -0.2148 -0.4947
  181POPC  H12A20679   0.216   0.728   7.119  1.1874 -1.4190 -2.0068
  181POPC  H12B20680   0.337   0.647   7.204 -1.1950 -0.1819  0.7030
  181POPC   C1320681   0.403   0.828   7.373 -0.4638 -0.5606 -0.0763
  181POPC  H13A20682   0.386   0.891   7.459 -1.2167 -0.7961 -0.0430
  181POPC  H13B20683   0.430   0.729   7.405  0.8345 -0.6245 -1.2294
  181POPC  H13C20684   0.489   0.852   7.312 -0.4706 -0.1798  0.0635
  181POPC   C1420685   0.261   0.971   7.228 -0.0969 -0.1299 -0.1788
  181POPC  H14A20686   0.181   0.987   7.157  0.5780 -0.3756 -1.0012
  181POPC  H14B20687   0.246   1.051   7.299  1.5055  0.6498 -0.6695
  181POPC  H14C20688   0.351   1.005   7.180  0.0323  0.9178  0.7601
  181POPC   C1520689   0.169   0.785   7.354  0.2741  0.1722  0.0592
  181POPC  H15A20690   0.141   0.855   7.431  0.8608  0.2253  0.2290
  181POPC  H15B20691   0.180   0.689   7.403 -2.2342  1.3789  3.3754
  181POPC  H15C20692   0.082   0.784   7.290  0.9999  1.1870 -0.9861
  181POPC   C1120693   0.422   0.782   7.063 -0.2509 -0.1779 -0.0480
  181POPC  H11A20694   0.395   0.871   7.003 -2.5100 -1.3886 -0.9122
  181POPC  H11B20695   0.422   0.701   6.988  0.2103 -0.2332  0.0074
  181POPC     P20696   0.641   0.919   7.128  0.0955  0.1247  0.5213
  181POPC   O1320697   0.741   0.900   7.236 -0.2504 -1.1103  0.1149
  181POPC   O1420698   0.548   1.032   7.152  1.3109  0.3083  0.2756
  181POPC   O1220699   0.548   0.793   7.128 -0.3765  0.3690  0.1046
  181POPC   O1120700   0.695   0.907   6.982  0.0137  0.1590 -0.4709
  181POPC    C120701   0.750   0.777   6.944 -0.3516 -0.0298  0.3978
  181POPC    HA20702   0.687   0.697   6.987 -0.2750  0.2677  1.0722
  181POPC    HB20703   0.854   0.777   6.982 -0.9656  5.4063  3.0567
  181POPC    C220704   0.753   0.757   6.792  0.0902 -0.4536  0.8615
  181POPC    HS20705   0.810   0.665   6.768 -0.5216 -0.5501 -0.2759
  181POPC   O2120706   0.791   0.879   6.730 -0.0936 -0.1085  0.6225
  181POPC   C2120707   0.914   0.923   6.758  0.3327  0.0652 -1.0415
  181POPC   O2220708   1.000   0.859   6.814 -0.2998  0.5920 -0.1022
  181POPC   C2220709   0.948   1.051   6.692  0.8714  0.3579  0.2045
  181POPC   H2R20710   1.019   1.098   6.764  1.4884 -0.2791  0.0167
  181POPC   H2S20711   0.857   1.115   6.690  1.6477  1.5069  0.0911
  181POPC    C320712   0.604   0.721   6.739 -0.2626  0.8034 -0.3635
  181POPC    HX20713   0.540   0.798   6.786  0.2390  0.9545  0.0844
  181POPC    HY20714   0.556   0.627   6.774 -4.5728  2.8877  0.0123
  181POPC   O3120715   0.593   0.734   6.595 -0.4469 -0.3764 -0.3242
  181POPC   C3120716   0.648   0.632   6.524  0.0821 -0.4589 -0.5256
  181POPC   O3220717   0.696   0.527   6.570 -0.7978 -0.0411  0.3168
  181POPC   C3220718   0.647   0.674   6.377  0.5750  0.0661 -0.0964
  181POPC   H2X20719   0.723   0.754   6.360  2.5193 -1.8250 -0.6978
  181POPC   H2Y20720   0.545   0.702   6.345  0.0589 -1.7367 -0.0833
  181POPC   C2320721   1.008   1.024   6.549  0.5431  0.0672 -0.3011
  181POPC   H3R20722   1.079   0.939   6.547  1.1642  0.5865 -0.8307
  181POPC   H3S20723   1.056   1.120   6.522 -2.5198  2.2761  1.5063
  181POPC   C2420724   0.903   1.013   6.436 -0.2590 -0.0234 -0.2147
  181POPC   H4R20725   0.826   1.093   6.442  0.6662  0.8297  0.9864
  181POPC   H4S20726   0.852   0.915   6.449  0.7565 -0.5332 -0.0130
  181POPC   C2520727   0.966   1.012   6.296  0.2229 -0.1955  0.8176
  181POPC   H5R20728   1.024   0.921   6.272 -1.3008 -1.0790  0.3696
  181POPC   H5S20729   1.032   1.101   6.284 -0.3339  0.2418  0.9385
  181POPC   C2620730   0.867   1.016   6.183 -0.1756 -0.8396 -0.0500
  181POPC   H6R20731   0.824   1.115   6.154  1.9259  0.9946  2.6007
  181POPC   H6S20732   0.782   0.950   6.210 -0.0291 -2.0432 -2.2578
  181POPC   C2720733   0.923   0.950   6.057  0.0331 -0.2806  0.7107
  181POPC   H7R20734   0.918   0.839   6.066 -1.8943 -0.6567 -2.8601
  181POPC   H7S20735   1.025   0.989   6.037 -0.3211  0.4632  0.3011
  181POPC   C2820736   0.848   0.985   5.930 -0.1031 -0.7580  0.2363
  181POPC   H8R20737   0.846   1.095   5.923 -1.6457 -0.6078  2.2015
  181POPC   H8S20738   0.743   0.958   5.958 -0.4696  2.5076  2.5318
  181POPC   C2920739   0.903   0.903   5.813 -0.2660 -0.6096 -0.2442
  181POPC   H9120740   1.006   0.866   5.814  1.0104  2.1347 -4.4344
  181POPC  C21020741   0.834   0.876   5.705  0.1338  0.0063 -0.2269
  181POPC  H10120742   0.893   0.827   5.626  0.4311  1.6298 -1.0344
  181POPC  C21120743   0.697   0.921   5.667  0.1958 -1.0943 -0.1476
  181POPC  H11R20744   0.632   0.950   5.752  0.6685 -2.5734  0.7561
  181POPC  H11S20745   0.648   0.830   5.627  0.2435 -0.1404 -2.5306
  181POPC  C21220746   0.711   1.036   5.565  0.0921 -0.0565  0.3335
  181POPC  H12R20747   0.781   1.113   5.604  0.5626 -0.9344  1.2899
  181POPC  H12S20748   0.607   1.075   5.562  0.4526  0.8515 -1.4659
  181POPC  C21320749   0.740   0.997   5.420  0.4100  0.6565 -0.9661
  181POPC  H13R20750   0.841   0.951   5.419  0.9243  1.7339 -3.2689
  181POPC  H13S20751   0.744   1.088   5.357  0.5530  0.2744 -1.5114
  181POPC  C21420752   0.633   0.913   5.350  0.3813 -0.2428  0.0358
  181POPC  H14R20753   0.553   0.979   5.312  0.2006 -1.8131 -2.5318
  181POPC  H14S20754   0.579   0.841   5.415 -1.9516 -0.4561 -2.0069
  181POPC  C21520755   0.688   0.837   5.228  0.2267 -0.5863  0.2792
  181POPC  H15R20756   0.596   0.792   5.186 -2.2802  2.5454  1.9341
  181POPC  H15S20757   0.759   0.762   5.269  2.7778  1.2820 -0.4433
  181POPC  C21620758   0.755   0.914   5.109  0.5487  0.6686  0.2442
  181POPC  H16R20759   0.860   0.944   5.132 -0.0774  2.4725  0.9751
  181POPC  H16S20760   0.702   1.011   5.120 -0.1303  0.2542  0.6749
  181POPC  C21720761   0.745   0.864   4.968 -0.3670  0.0812  0.3220
  181POPC  H17R20762   0.642   0.837   4.935 -0.8562 -0.4476  2.1551
  181POPC  H17S20763   0.818   0.782   4.957 -0.5012  0.1071 -0.8223
  181POPC  C21820764   0.782   0.980   4.865  0.3876 -0.2298 -0.1120
  181POPC  H18R20765   0.879   1.033   4.882 -1.3114  3.3334 -0.6391
  181POPC  H18S20766   0.706   1.059   4.849  1.3687  0.5094 -1.2612
  181POPC  H18T20767   0.786   0.931   4.765  1.0283 -2.4540  0.9272
  181POPC   C3320768   0.697   0.564   6.278  0.7302  0.0971 -0.3659
  181POPC   H3X20769   0.621   0.484   6.267 -1.0703  1.4642  1.3978
  181POPC   H3Y20770   0.797   0.525   6.304  0.6863 -0.1511 -0.5623
  181POPC   C3420771   0.706   0.624   6.137  0.3719  0.7011  0.2725
  181POPC   H4X20772   0.786   0.701   6.144 -1.0972  2.1830  2.1741
  181POPC   H4Y20773   0.617   0.684   6.107 -1.2710 -1.0739  1.3857
  181POPC   C3520774   0.727   0.519   6.027 -0.0089  0.1962 -0.0109
  181POPC   H5X20775   0.631   0.463   6.023  0.6410 -0.9079 -0.4867
  181POPC   H5Y20776   0.799   0.440   6.056 -0.7014 -0.5625 -0.3160
  181POPC   C3620777   0.747   0.584   5.885  0.1517 -0.4658 -0.5197
  181POPC   H6X20778   0.839   0.646   5.876 -0.0095 -0.2477 -0.6869
  181POPC   H6Y20779   0.659   0.647   5.863 -0.0229 -1.4850 -3.0677
  181POPC   C3720780   0.762   0.473   5.780 -0.2359 -0.1977 -0.4090
  181POPC   H7X20781   0.671   0.409   5.786 -2.1239  2.2641 -1.0509
  181POPC   H7Y20782   0.852   0.414   5.806 -0.3910 -0.2875 -0.0684
  181POPC   C3820783   0.779   0.527   5.637  0.3119  0.3432  0.0250
  181POPC   H8X20784   0.840   0.620   5.647  2.0427 -0.7270 -0.1976
  181POPC   H8Y20785   0.685   0.552   5.584 -0.2916 -0.2698  0.7903
  181POPC   C3920786   0.858   0.420   5.551  0.2070  0.1475 -0.5433
  181POPC   H9X20787   0.807   0.322   5.540  0.5441 -0.1565  0.4240
  181POPC   H9Y20788   0.950   0.400   5.610  1.5880  0.7911 -2.3796
  181POPC  C31020789   0.921   0.468   5.417  0.0661  0.7222 -0.2375
  181POPC  H10X20790   0.844   0.493   5.340 -1.4495  0.7818  1.2490
  181POPC  H10Y20791   0.991   0.391   5.380 -1.9649 -0.8613 -1.0060
  181POPC  C31120792   1.011   0.588   5.427 -0.1527 -0.1757 -0.4532
  181POPC  H11X20793   1.089   0.575   5.505 -1.6395 -1.4045  0.8864
  181POPC  H11Y20794   0.956   0.682   5.451 -3.2455 -1.7495 -0.8588
  181POPC  C31220795   1.070   0.626   5.290  0.7736  0.4909 -0.2399
  181POPC  H12X20796   0.993   0.608   5.212  0.2323 -1.0205  0.6174
  181POPC  H12Y20797   1.156   0.559   5.267 -0.5413 -0.4470 -2.8512
  181POPC  C31320798   1.105   0.770   5.280 -0.7473  0.0392  0.0052
  181POPC  H13X20799   1.169   0.803   5.364 -0.7763  2.9161 -0.9759
  181POPC  H13Y20800   1.006   0.821   5.282 -0.2699  1.0214 -0.6294
  181POPC  C31420801   1.184   0.792   5.149  0.7540 -0.3380  0.3398
  181POPC  H14X20802   1.286   0.749   5.158  1.2400  0.4202 -1.1025
  181POPC  H14Y20803   1.206   0.900   5.135  3.6161 -1.0637 -1.5299
  181POPC  C31520804   1.100   0.740   5.023 -0.5933  0.0660 -0.8003
  181POPC  H15X20805   0.997   0.775   5.040 -1.0288 -1.3366 -0.4482
  181POPC  H15Y20806   1.102   0.629   5.027 -0.2975  0.0499 -1.2730
  181POPC  C31620807   1.138   0.798   4.891  0.6771 -0.2370 -0.7381
  181POPC  H16X20808   1.062   0.799   4.810  0.8638  0.8766 -0.9143
  181POPC  H16Y20809   1.231   0.751   4.851  0.5544 -1.3038  0.1763
  181POPC  H16Z20810   1.167   0.905   4.898 -0.5207  0.2883 -3.0622
  182POPC     N20811   2.702   6.151   7.364  0.6233 -0.0233  0.1868
  182POPC   C1220812   2.651   6.010   7.334  0.1810  0.3857  0.4211
  182POPC  H12A20813   2.554   6.008   7.285  0.1004 -0.7023  0.5988
  182POPC  H12B20814   2.631   5.965   7.430  0.9850 -0.0842  0.3762
  182POPC   C1320815   2.627   6.221   7.468  0.1815  0.5421  0.3089
  182POPC  H13A20816   2.523   6.195   7.452  0.9285 -3.1030  0.5357
  182POPC  H13B20817   2.660   6.193   7.567  0.2261 -1.6775 -0.2666
  182POPC  H13C20818   2.646   6.327   7.464 -1.1053  0.7654 -1.0162
  182POPC   C1420819   2.845   6.139   7.419  0.5693  0.8481 -0.2590
  182POPC  H14A20820   2.894   6.234   7.439 -1.7806  2.1489 -0.3397
  182POPC  H14B20821   2.850   6.067   7.500 -1.6634  1.8883  0.8905
  182POPC  H14C20822   2.913   6.095   7.348  1.0634 -2.3062  1.9679
  182POPC   C1520823   2.704   6.228   7.233 -0.5390 -0.4669  0.1168
  182POPC  H15A20824   2.769   6.186   7.158 -0.8006  3.5503 -2.6537
  182POPC  H15B20825   2.738   6.331   7.237 -0.9876 -0.2476 -1.2329
  182POPC  H15C20826   2.604   6.230   7.192 -0.6722 -0.0453  0.4487
  182POPC   C1120827   2.741   5.912   7.264 -0.5718  0.1930 -0.1104
  182POPC  H11A20828   2.693   5.813   7.250 -1.9341  0.7036  0.7404
  182POPC  H11B20829   2.832   5.892   7.325 -0.1484  0.6805 -0.5605
  182POPC     P20830   2.695   5.950   7.009 -0.0466 -0.1967  0.5267
  182POPC   O1320831   2.700   6.069   6.924  0.2240 -0.7008  0.0646
  182POPC   O1420832   2.559   5.912   7.056 -0.3298  0.1247 -0.2314
  182POPC   O1220833   2.790   5.970   7.136  0.3689 -0.6546 -0.0151
  182POPC   O1120834   2.751   5.830   6.931 -0.1958  0.0570  0.2600
  182POPC    C120835   2.888   5.785   6.939  0.4597 -0.4353  0.0531
  182POPC    HA20836   2.897   5.680   6.904 -0.6835  0.2788 -2.7033
  182POPC    HB20837   2.929   5.797   7.041 -0.5596 -1.6600  0.6244
  182POPC    C220838   2.967   5.857   6.834 -0.8521 -0.2652 -0.0031
  182POPC    HS20839   2.964   5.967   6.852 -0.2555  1.0352 -5.9081
  182POPC   O2120840   2.915   5.842   6.703 -1.0783  0.2275  0.7340
  182POPC   C2120841   2.959   5.939   6.618  0.4590 -0.1199 -0.4490
  182POPC   O2220842   3.003   6.044   6.656  0.4436 -1.0224  1.0035
  182POPC   C2220843   2.951   5.898   6.470 -0.4515  0.2379 -0.1777
  182POPC   H2R20844   2.846   5.863   6.456 -0.9431  1.2698  0.7675
  182POPC   H2S20845   3.038   5.835   6.443 -0.3405  0.9189 -1.4698
  182POPC    C320846   3.112   5.808   6.849  0.2894 -0.1718 -0.8775
  182POPC    HX20847   3.107   5.697   6.855 -1.1419 -0.1277 -0.9397
  182POPC    HY20848   3.156   5.825   6.949  1.0857  2.2897 -1.5796
  182POPC   O3120849   3.201   5.850   6.742  0.0031  0.0034  0.4641
  182POPC   C3120850   3.329   5.833   6.765  0.0646  0.1311  0.3794
  182POPC   O3220851   3.375   5.783   6.869  0.0515 -0.2981  0.1756
  182POPC   C3220852   3.410   5.874   6.644  0.0808  0.5003 -0.4166
  182POPC   H2X20853   3.492   5.801   6.628  0.5399  1.0475 -0.5719
  182POPC   H2Y20854   3.447   5.975   6.669 -0.2475  0.6192 -0.4014
  182POPC   C2320855   2.970   6.020   6.373  0.0467  0.6514  0.1237
  182POPC   H3R20856   3.065   6.066   6.407  1.1358 -0.6184 -1.0681
  182POPC   H3S20857   2.888   6.091   6.395 -1.8078 -0.7770 -1.7682
  182POPC   C2420858   2.977   5.972   6.229 -0.4137 -0.6518  0.4947
  182POPC   H4R20859   3.051   5.890   6.218  0.7319  0.4524 -0.2668
  182POPC   H4S20860   3.028   6.052   6.171  0.3480  1.1773  3.4108
  182POPC   C2520861   2.843   5.933   6.158 -0.0241 -0.3541  0.0265
  182POPC   H5R20862   2.782   6.026   6.163 -0.6253 -0.6622 -1.2988
  182POPC   H5S20863   2.790   5.850   6.209 -1.2258  0.5375  0.3074
  182POPC   C2620864   2.846   5.878   6.017  0.3691  0.2142  0.1021
  182POPC   H6R20865   2.888   5.776   6.025 -1.0265 -0.3580  0.3797
  182POPC   H6S20866   2.909   5.948   5.957 -0.0877 -1.1316 -2.0359
  182POPC   C2720867   2.709   5.881   5.952 -0.1417  0.6906  0.3312
  182POPC   H7R20868   2.672   5.985   5.970 -1.6222  0.7006 -2.2495
  182POPC   H7S20869   2.634   5.810   5.992  0.0454  0.8855  1.0321
  182POPC   C2820870   2.702   5.847   5.803 -0.3628 -0.5182 -0.4014
  182POPC   H8R20871   2.598   5.842   5.766 -0.1995  1.2959 -1.2293
  182POPC   H8S20872   2.748   5.746   5.794 -1.4407 -0.8838 -2.5080
  182POPC   C2920873   2.780   5.940   5.710 -0.8032 -0.0829  0.3014
  182POPC   H9120874   2.889   5.940   5.727 -0.5369 -0.4116 -1.2396
  182POPC  C21020875   2.743   5.998   5.604 -0.6630  0.3210  0.7807
  182POPC  H10120876   2.811   6.063   5.546 -0.5539  1.8991  2.5755
  182POPC  C21120877   2.598   6.005   5.562 -0.3646  0.6607  0.4769
  182POPC  H11R20878   2.577   6.107   5.525 -3.1857  0.0019  0.0922
  182POPC  H11S20879   2.525   6.000   5.646  0.8012  0.1209  1.4983
  182POPC  C21220880   2.546   5.897   5.459 -0.4245  0.1268 -0.0692
  182POPC  H12R20881   2.437   5.901   5.438 -0.9337 -0.5154  2.1733
  182POPC  H12S20882   2.563   5.799   5.508 -1.7065  0.9044  2.1127
  182POPC  C21320883   2.626   5.912   5.330  0.2958 -0.7499  0.0880
  182POPC  H13R20884   2.729   5.873   5.339  0.0636 -1.1909  0.8526
  182POPC  H13S20885   2.619   6.015   5.288  0.7894 -0.6594  0.2199
  182POPC  C21420886   2.571   5.826   5.213  0.2336 -0.3458 -0.5183
  182POPC  H14R20887   2.474   5.869   5.179 -0.1008  0.1236  0.9521
  182POPC  H14S20888   2.547   5.729   5.263 -3.4769  0.6061 -0.1274
  182POPC  C21520889   2.669   5.801   5.099  0.1445  0.3378 -0.5467
  182POPC  H15R20890   2.686   5.889   5.034  1.3085 -1.0226 -2.1564
  182POPC  H15S20891   2.623   5.725   5.032  2.0244 -0.8851 -0.5018
  182POPC  C21620892   2.799   5.728   5.137 -0.0281  0.3273 -1.3882
  182POPC  H16R20893   2.785   5.641   5.204 -1.7029 -0.8127 -3.1164
  182POPC  H16S20894   2.870   5.790   5.197 -0.0063 -2.3150  1.6306
  182POPC  C21720895   2.879   5.684   5.011 -0.6086 -0.1712 -0.2798
  182POPC  H17R20896   2.906   5.761   4.935  1.1449 -0.2285  0.2397
  182POPC  H17S20897   2.824   5.601   4.961  0.5365 -2.1237  1.5526
  182POPC  C21820898   3.018   5.629   5.049  0.6281  0.3598  0.4314
  182POPC  H18R20899   3.013   5.543   5.119  1.3145 -1.0193 -1.1721
  182POPC  H18S20900   3.075   5.712   5.097  2.4682  0.4327 -1.7199
  182POPC  H18T20901   3.069   5.607   4.954 -1.3424  1.9447 -1.0978
  182POPC   C3320902   3.334   5.880   6.505  0.1145 -0.3630  0.3403
  182POPC   H3X20903   3.253   5.955   6.512 -0.3345 -0.8073 -0.0102
  182POPC   H3Y20904   3.295   5.780   6.475 -0.1791  0.2213 -1.3401
  182POPC   C3420905   3.427   5.907   6.384 -0.1203  0.0834 -0.5947
  182POPC   H4X20906   3.507   5.829   6.389 -2.1870 -2.0973  1.6357
  182POPC   H4Y20907   3.483   6.003   6.389  1.5246 -0.8204 -1.0034
  182POPC   C3520908   3.347   5.898   6.254  0.4042  0.0262 -0.7228
  182POPC   H5X20909   3.262   5.969   6.261 -0.1859 -0.6475 -0.8559
  182POPC   H5Y20910   3.304   5.796   6.241 -1.0642  0.6104 -0.7044
  182POPC   C3620911   3.435   5.936   6.132  0.1449 -0.1251  0.2049
  182POPC   H6X20912   3.505   5.851   6.118 -0.4275 -0.4543 -0.6827
  182POPC   H6Y20913   3.498   6.027   6.144  1.4745 -1.2080  2.2081
  182POPC   C3720914   3.368   5.963   5.995 -0.5009  0.0329  0.2342
  182POPC   H7X20915   3.447   5.991   5.921 -2.6590  0.9005 -1.8791
  182POPC   H7Y20916   3.292   6.043   6.007  0.2048  0.7162  0.2350
  182POPC   C3820917   3.305   5.837   5.944 -0.4907 -0.0156  0.4000
  182POPC   H8X20918   3.238   5.793   6.021 -1.9658 -0.3313 -1.0063
  182POPC   H8Y20919   3.390   5.766   5.928  0.4906  1.5333 -1.8549
  182POPC   C3920920   3.253   5.849   5.804 -0.2713  0.3304 -0.1338
  182POPC   H9X20921   3.334   5.856   5.729  0.2116 -1.3407  0.1995
  182POPC   H9Y20922   3.195   5.944   5.795  1.2247  1.6924  3.1450
  182POPC  C31020923   3.156   5.727   5.782  0.5055 -0.1096  0.6381
  182POPC  H10X20924   3.075   5.732   5.858 -1.1299 -0.5650 -0.9933
  182POPC  H10Y20925   3.227   5.642   5.792  1.7483  0.6535 -1.1183
  182POPC  C31120926   3.095   5.725   5.641 -0.5927  0.7084 -0.2961
  182POPC  H11X20927   3.177   5.726   5.566 -0.2742  0.4906  0.0493
  182POPC  H11Y20928   3.035   5.817   5.622 -1.0027  0.4632 -0.1887
  182POPC  C31220929   2.997   5.604   5.620 -1.4209  0.0308  0.4513
  182POPC  H12X20930   2.921   5.615   5.701 -1.9998 -0.2804 -0.0474
  182POPC  H12Y20931   3.061   5.515   5.637  0.1708  0.5591 -2.2812
  182POPC  C31320932   2.942   5.582   5.480  0.9043  0.7205  0.0766
  182POPC  H13X20933   3.037   5.568   5.425  0.3003  0.8559 -1.0423
  182POPC  H13Y20934   2.886   5.669   5.439 -0.6757 -0.4035 -0.2776
  182POPC  C31420935   2.860   5.459   5.451 -0.2868 -0.2079 -0.3499
  182POPC  H14X20936   2.752   5.466   5.477 -0.3992 -1.9158 -0.2355
  182POPC  H14Y20937   2.901   5.377   5.514  1.7919  1.3410  0.4319
  182POPC  C31520938   2.867   5.401   5.309 -0.1425  0.9498 -0.1771
  182POPC  H15X20939   2.967   5.414   5.263 -0.3737 -1.8453 -1.6965
  182POPC  H15Y20940   2.799   5.453   5.238  0.5747  0.0089 -1.5762
  182POPC  C31620941   2.828   5.252   5.319 -0.2235  0.1761  0.8947
  182POPC  H16X20942   2.894   5.189   5.383 -2.0688 -2.9491 -0.0472
  182POPC  H16Y20943   2.820   5.195   5.223  2.9380  0.0355  0.6364
  182POPC  H16Z20944   2.726   5.260   5.363  1.0025 -0.1000  4.0686
  183POPC     N20945   5.669   5.522   7.680 -0.1054 -0.1824  0.8693
  183POPC   C1220946   5.718   5.424   7.792  0.0863  0.3393  0.4865
  183POPC  H12A20947   5.631   5.386   7.842 -0.0487  1.0594  0.8091
  183POPC  H12B20948   5.764   5.481   7.871 -2.6391 -0.4147  2.7700
  183POPC   C1320949   5.579   5.628   7.730 -0.1472  0.1762  0.5204
  183POPC  H13A20950   5.545   5.685   7.645 -3.1622 -0.1499  1.3922
  183POPC  H13B20951   5.500   5.589   7.793  0.2200 -1.2130  0.1440
  183POPC  H13C20952   5.632   5.702   7.789 -0.6213  0.7811  0.2085
  183POPC   C1420953   5.784   5.591   7.607 -0.4284 -0.2741 -0.1714
  183POPC  H14A20954   5.748   5.668   7.540  0.3607  0.2945  0.0334
  183POPC  H14B20955   5.849   5.642   7.677 -1.8018  0.8089  0.3590
  183POPC  H14C20956   5.839   5.514   7.556  0.0697 -0.2411  0.3004
  183POPC   C1520957   5.588   5.460   7.571 -0.0593  0.1969  0.1766
  183POPC  H15A20958   5.547   5.534   7.504 -1.2550  0.0670  0.7368
  183POPC  H15B20959   5.499   5.417   7.613 -0.8680  0.2477 -1.4181
  183POPC  H15C20960   5.649   5.385   7.522  2.2813  2.6358 -0.8873
  183POPC   C1120961   5.803   5.304   7.749  0.6767  0.3417  0.4752
  183POPC  H11A20962   5.736   5.237   7.690  0.7369  0.4187  0.3165
  183POPC  H11B20963   5.844   5.255   7.840  2.8827 -0.3524 -0.8126
  183POPC     P20964   6.001   5.224   7.601  0.0766  0.0716  0.2019
  183POPC   O1320965   5.943   5.177   7.474  0.3667  0.3929 -0.5144
  183POPC   O1420966   6.024   5.126   7.709  0.5630  0.0943 -0.3288
  183POPC   O1220967   5.908   5.343   7.659  0.6959 -0.2645 -0.1773
  183POPC   O1120968   6.136   5.297   7.575 -0.1981 -0.0055 -0.7103
  183POPC    C120969   6.130   5.406   7.481 -0.3113  0.0996 -0.0001
  183POPC    HA20970   6.222   5.469   7.492 -0.8498  1.4088 -2.3630
  183POPC    HB20971   6.043   5.475   7.491  0.5567  1.3113 -0.5035
  183POPC    C220972   6.149   5.369   7.333 -0.0500  0.6043 -0.7281
  183POPC    HS20973   6.067   5.302   7.299  0.1836  0.7067 -1.4948
  183POPC   O2120974   6.274   5.296   7.327  0.6123 -0.3414 -0.4743
  183POPC   C2120975   6.275   5.199   7.244 -0.3363 -0.2615  0.2808
  183POPC   O2220976   6.178   5.152   7.186 -0.0689 -0.8274 -0.3533
  183POPC   C2220977   6.412   5.137   7.228 -0.0392  0.0066  0.1147
  183POPC   H2R20978   6.413   5.045   7.289  1.4541 -0.3721 -0.4486
  183POPC   H2S20979   6.492   5.200   7.271 -1.7899  0.1237  3.5350
  183POPC    C320980   6.159   5.491   7.236 -0.3071  0.5487  0.7244
  183POPC    HX20981   6.258   5.531   7.268 -0.1767  0.6438  0.2151
  183POPC    HY20982   6.083   5.568   7.260 -0.2305 -0.2834  4.0702
  183POPC   O3120983   6.161   5.450   7.094 -0.0496 -0.1688  0.6839
  183POPC   C3120984   6.048   5.445   7.035 -0.0373 -0.8272 -0.5906
  183POPC   O3220985   5.936   5.433   7.086 -0.7293 -0.7089  0.1317
  183POPC   C3220986   6.072   5.450   6.894 -0.3214 -0.7071 -0.1072
  183POPC   H2X20987   6.159   5.386   6.871  0.4911  1.0838 -2.4422
  183POPC   H2Y20988   6.100   5.551   6.858 -3.0704 -0.0528 -0.7102
  183POPC   C2320989   6.437   5.106   7.079 -0.1962 -0.6944 -0.0356
  183POPC   H3R20990   6.360   5.034   7.044  1.2398 -2.3039 -0.0040
  183POPC   H3S20991   6.539   5.065   7.064  0.3335  0.6509 -0.2662
  183POPC   C2420992   6.447   5.234   6.993 -0.1068  0.5263 -0.0323
  183POPC   H4R20993   6.551   5.272   7.002  0.2105 -0.6860  2.1829
  183POPC   H4S20994   6.384   5.317   7.032 -0.5643 -0.3471  1.1538
  183POPC   C2520995   6.402   5.197   6.855  0.0416 -0.3886  0.2413
  183POPC   H5R20996   6.296   5.164   6.856 -0.2781  0.4758 -1.3616
  183POPC   H5S20997   6.465   5.111   6.823  1.5854  0.6876  0.3134
  183POPC   C2620998   6.413   5.303   6.744 -0.2504 -0.0014 -0.0315
  183POPC   H6R20999   6.501   5.366   6.769  1.0271 -1.6913 -0.0854
  183POPC   H6S21000   6.328   5.375   6.748  0.9379  1.5567 -1.1376
  183POPC   C2721001   6.413   5.236   6.609 -0.1796  0.0301  0.7845
  183POPC   H7R21002   6.310   5.202   6.585 -0.1992  1.2993 -1.1583
  183POPC   H7S21003   6.486   5.152   6.608  0.6677  0.6807 -2.3020
  183POPC   C2821004   6.457   5.333   6.499 -0.1265  0.6949 -0.2020
  183POPC   H8R21005   6.558   5.376   6.513 -0.1640  0.1786  2.0985
  183POPC   H8S21006   6.395   5.425   6.505 -1.5403 -0.0057 -2.5675
  183POPC   C2921007   6.457   5.261   6.362  0.2342 -0.6147 -0.3892
  183POPC   H9121008   6.559   5.253   6.323  0.4710 -0.5642  0.2069
  183POPC  C21021009   6.344   5.237   6.282  0.5612 -0.5816  0.0640
  183POPC  H10121010   6.352   5.182   6.187  0.6859  1.3762 -1.1112
  183POPC  C21121011   6.205   5.252   6.329  0.5505  1.1981 -0.2178
  183POPC  H11R21012   6.192   5.318   6.417  0.4542 -2.0466  2.4197
  183POPC  H11S21013   6.180   5.149   6.362 -0.3961  2.2502  2.6564
  183POPC  C21221014   6.122   5.294   6.211 -1.1634 -0.6271  0.2210
  183POPC  H12R21015   6.016   5.297   6.243 -1.9764  3.4947 -2.1497
  183POPC  H12S21016   6.123   5.217   6.131  1.1293 -0.6869  0.2389
  183POPC  C21321017   6.149   5.440   6.157 -0.5243  0.4864 -0.4532
  183POPC  H13R21018   6.248   5.431   6.107  0.2217 -1.0804  1.1956
  183POPC  H13S21019   6.170   5.503   6.246 -0.5887 -1.3622  0.9475
  183POPC  C21421020   6.038   5.509   6.078 -0.0055  0.2777 -0.4997
  183POPC  H14R21021   6.005   5.609   6.112  0.3477 -0.0909  1.0153
  183POPC  H14S21022   5.947   5.446   6.084  0.5568 -0.4335  1.2712
  183POPC  C21521023   6.088   5.510   5.933 -0.5542 -0.0831  0.1851
  183POPC  H15R21024   6.147   5.418   5.915  0.2246  0.0764  1.7068
  183POPC  H15S21025   6.146   5.603   5.910 -0.0129 -0.5677 -0.4377
  183POPC  C21621026   5.976   5.510   5.832  0.4213 -0.6732  0.1192
  183POPC  H16R21027   5.906   5.581   5.880 -0.6325 -1.5510 -0.0724
  183POPC  H16S21028   5.924   5.412   5.837 -1.8768  0.5101  0.7964
  183POPC  C21721029   6.016   5.547   5.692  0.2291 -0.2554  0.8271
  183POPC  H17R21030   6.098   5.473   5.683  0.6401 -0.1672  3.0944
  183POPC  H17S21031   6.063   5.647   5.685 -3.6074  1.5885 -2.6167
  183POPC  C21821032   5.891   5.537   5.602  0.2587 -0.7944  0.1446
  183POPC  H18R21033   5.925   5.530   5.496 -0.4916 -1.2232 -0.0753
  183POPC  H18S21034   5.838   5.634   5.606  0.7809 -0.4348 -1.2771
  183POPC  H18T21035   5.831   5.444   5.616 -0.5274 -0.5627 -1.5403
  183POPC   C3321036   5.957   5.405   6.800  0.0217  0.0051 -0.3090
  183POPC   H3X21037   5.862   5.460   6.812  0.1503 -0.0296  1.0445
  183POPC   H3Y21038   5.926   5.305   6.836 -0.0563 -0.6912 -2.1938
  183POPC   C3421039   5.993   5.390   6.659 -0.9833 -1.1139 -0.3713
  183POPC   H4X21040   6.099   5.357   6.660 -0.2115  1.1613 -0.6461
  183POPC   H4Y21041   6.001   5.491   6.613  3.8224 -1.3530 -0.5554
  183POPC   C3521042   5.901   5.308   6.570 -0.1389 -0.2922 -0.0089
  183POPC   H5X21043   5.880   5.209   6.616 -1.4977 -0.3164 -0.6120
  183POPC   H5Y21044   5.960   5.285   6.479 -0.1063 -0.0543 -0.0489
  183POPC   C3621045   5.777   5.378   6.526  0.5896 -0.0458  0.0825
  183POPC   H6X21046   5.799   5.479   6.484  1.9415  0.8492  2.7573
  183POPC   H6Y21047   5.721   5.389   6.621  0.7135 -1.5912  0.3481
  183POPC   C3721048   5.686   5.304   6.426  0.5380 -0.0699  0.2614
  183POPC   H7X21049   5.584   5.341   6.451  0.6306  0.7168 -0.4786
  183POPC   H7Y21050   5.690   5.199   6.462  1.1011  0.2552  1.1907
  183POPC   C3821051   5.718   5.331   6.279 -0.1830 -0.2600  0.3872
  183POPC   H8X21052   5.818   5.284   6.269  0.5937  1.4715 -0.4938
  183POPC   H8Y21053   5.732   5.439   6.254 -0.6629 -0.7220 -2.0898
  183POPC   C3921054   5.613   5.262   6.192 -0.2927  0.0556  0.1935
  183POPC   H9X21055   5.509   5.282   6.225  0.1584  2.9596  0.1104
  183POPC   H9Y21056   5.630   5.152   6.190 -3.2793 -0.4923 -0.3625
  183POPC  C31021057   5.636   5.316   6.048 -0.1742  0.0620 -0.1867
  183POPC  H10X21058   5.744   5.305   6.025  0.3212  3.3372  0.1300
  183POPC  H10Y21059   5.621   5.425   6.033 -4.2035  0.1123  2.6416
  183POPC  C31121060   5.545   5.256   5.938 -0.4623  0.8462  0.6788
  183POPC  H11X21061   5.438   5.278   5.960 -0.8961  0.5772 -1.0264
  183POPC  H11Y21062   5.571   5.148   5.932 -1.0672  0.7648 -0.7178
  183POPC  C31221063   5.584   5.307   5.796 -0.0722 -0.4710 -0.2110
  183POPC  H12X21064   5.693   5.315   5.777 -0.1468 -0.5223 -0.6581
  183POPC  H12Y21065   5.559   5.415   5.808  0.7890 -0.1790 -0.9400
  183POPC  C31321066   5.528   5.241   5.678 -0.4112  0.3712 -0.3023
  183POPC  H13X21067   5.418   5.233   5.693 -0.0287  0.3062  3.2598
  183POPC  H13Y21068   5.558   5.135   5.665  1.8916  1.0230 -0.7826
  183POPC  C31421069   5.572   5.309   5.542  0.7053 -0.5466  0.0747
  183POPC  H14X21070   5.681   5.322   5.522 -0.1335  1.5332 -4.4389
  183POPC  H14Y21071   5.521   5.407   5.558 -0.4245 -0.5382 -3.0341
  183POPC  C31521072   5.494   5.242   5.422 -0.2988  0.2929  0.1443
  183POPC  H15X21073   5.383   5.234   5.429 -0.6538  2.1719 -2.0636
  183POPC  H15Y21074   5.535   5.139   5.411 -0.8697 -0.0974  1.4751
  183POPC  C31621075   5.518   5.301   5.282 -0.2435 -0.0807 -0.3834
  183POPC  H16X21076   5.505   5.411   5.289  0.6730 -0.0264  1.0388
  183POPC  H16Y21077   5.439   5.263   5.215 -1.3330 -1.4019  1.5446
  183POPC  H16Z21078   5.619   5.276   5.244  0.7195 -0.3695  2.1401
  184POPC     N21079   5.939   6.571   7.753 -0.9116 -0.3899 -0.7676
  184POPC   C1221080   5.922   6.480   7.632  0.3736  0.2327 -0.0126
  184POPC  H12A21081   5.930   6.379   7.669 -2.1497  0.0978  0.3126
  184POPC  H12B21082   6.003   6.500   7.564 -0.1810  1.9327 -0.2269
  184POPC   C1321083   5.827   6.541   7.846  0.2798 -0.0211 -0.6460
  184POPC  H13A21084   5.737   6.553   7.787 -2.0542  1.9683  2.9275
  184POPC  H13B21085   5.824   6.441   7.887  2.4870  1.3188  3.2799
  184POPC  H13C21086   5.824   6.609   7.930  0.1476 -0.1505 -0.5457
  184POPC   C1421087   6.068   6.558   7.828 -0.0869  0.3421  0.4437
  184POPC  H14A21088   6.152   6.578   7.764  0.4380 -1.3241  0.5666
  184POPC  H14B21089   6.065   6.607   7.924  1.7716 -1.6142  1.5774
  184POPC  H14C21090   6.083   6.454   7.851 -1.3322  0.4069  1.6833
  184POPC   C1521091   5.930   6.714   7.715  0.1780 -0.0578  0.0822
  184POPC  H15A21092   5.945   6.778   7.802 -0.7371  1.8917 -1.1243
  184POPC  H15B21093   5.847   6.741   7.652  0.5146  0.5167 -0.1246
  184POPC  H15C21094   6.016   6.727   7.650  1.0931 -1.7427  0.8967
  184POPC   C1121095   5.801   6.499   7.539 -0.0691 -0.5509 -0.2356
  184POPC  H11A21096   5.712   6.484   7.603 -0.7465  1.2213 -0.7200
  184POPC  H11B21097   5.795   6.419   7.462 -3.4287  0.9473 -1.6869
  184POPC     P21098   5.873   6.634   7.332 -0.1402 -0.4479 -0.3232
  184POPC   O1321099   6.001   6.566   7.333  0.3119 -0.1256 -0.0700
  184POPC   O1421100   5.880   6.779   7.303  0.1861 -0.4746  0.3032
  184POPC   O1221101   5.799   6.621   7.471  0.0119 -0.7510  0.0746
  184POPC   O1121102   5.776   6.559   7.235  0.2837 -0.4747  0.7737
  184POPC    C121103   5.703   6.637   7.137 -0.4373 -0.5604  0.0314
  184POPC    HA21104   5.727   6.745   7.128  2.4075 -1.0625  0.4911
  184POPC    HB21105   5.594   6.618   7.138 -0.4691 -0.8458 -2.3444
  184POPC    C221106   5.752   6.591   6.993 -0.5845 -0.0939 -0.0938
  184POPC    HS21107   5.752   6.481   7.006 -0.4697 -0.2882 -1.5564
  184POPC   O2121108   5.882   6.646   6.973  0.2112 -0.2756 -0.5871
  184POPC   C2121109   5.965   6.574   6.901 -0.2443 -0.0110  0.5029
  184POPC   O2221110   5.942   6.465   6.854  0.0332  0.6809  0.2191
  184POPC   C2221111   6.111   6.640   6.890  0.1224  0.0888 -0.6446
  184POPC   H2R21112   6.185   6.577   6.945 -0.6736  1.6914  2.5176
  184POPC   H2S21113   6.095   6.738   6.940 -0.5222  0.1305 -0.9284
  184POPC    C321114   5.654   6.624   6.879  0.2300 -0.1551 -0.2589
  184POPC    HX21115   5.624   6.730   6.892  1.9731  0.2977  0.3043
  184POPC    HY21116   5.563   6.561   6.892  1.3385 -1.4918  1.3318
  184POPC   O3121117   5.716   6.610   6.747 -0.8629 -0.6836  0.1312
  184POPC   C3121118   5.675   6.502   6.680 -0.5591  0.4656  0.2042
  184POPC   O3221119   5.606   6.413   6.727  0.7590  0.2992  0.3456
  184POPC   C3221120   5.739   6.496   6.542 -0.0088  0.1219 -0.4733
  184POPC   H2X21121   5.847   6.522   6.552  0.8097 -2.8608 -0.2876
  184POPC   H2Y21122   5.686   6.573   6.483  0.9509  0.1958 -1.2638
  184POPC   C2321123   6.172   6.661   6.751  0.6950 -0.2061 -0.1843
  184POPC   H3R21124   6.203   6.567   6.702 -0.3746 -0.5612 -0.2067
  184POPC   H3S21125   6.261   6.727   6.765  0.5428  0.3613 -1.7625
  184POPC   C2421126   6.077   6.718   6.644  0.3560  0.0875  0.3280
  184POPC   H4R21127   6.038   6.816   6.678  1.3416  0.5738  0.0987
  184POPC   H4S21128   5.998   6.641   6.633 -0.5049  0.9488  0.3232
  184POPC   C2521129   6.139   6.727   6.502 -0.2694 -0.4248 -0.5775
  184POPC   H5R21130   6.196   6.634   6.481  1.0270 -0.6507  3.2405
  184POPC   H5S21131   6.206   6.816   6.507  1.2790 -1.5996  2.8769
  184POPC   C2621132   6.031   6.739   6.394  0.1239  0.0173  0.6632
  184POPC   H6R21133   5.944   6.798   6.430 -1.5404 -2.3060  0.6397
  184POPC   H6S21134   5.997   6.636   6.374 -3.1527  0.9922  0.5673
  184POPC   C2721135   6.079   6.802   6.258  0.3415 -0.1874 -0.2270
  184POPC   H7R21136   6.160   6.730   6.229 -0.5330  0.0510 -3.6785
  184POPC   H7S21137   6.131   6.899   6.275  1.2704 -0.9194  1.3359
  184POPC   C2821138   5.970   6.835   6.150 -0.2536 -0.2700  0.0825
  184POPC   H8R21139   6.011   6.878   6.057 -1.9545 -2.0361 -1.5808
  184POPC   H8S21140   5.912   6.909   6.209 -0.8358 -0.7506  0.1303
  184POPC   C2921141   5.870   6.728   6.108 -0.3735  0.1515 -0.1259
  184POPC   H9121142   5.905   6.628   6.138  1.5421  1.0510  0.8834
  184POPC  C21021143   5.760   6.745   6.033  0.1799  0.0152  0.4072
  184POPC  H10121144   5.704   6.655   6.003 -2.4263  2.2467 -1.8659
  184POPC  C21121145   5.721   6.877   5.966  0.4785  0.0503  0.4462
  184POPC  H11R21146   5.780   6.964   6.003 -0.8669  1.3375 -0.3331
  184POPC  H11S21147   5.618   6.900   6.002 -0.4071  0.2811 -2.0622
  184POPC  C21221148   5.716   6.886   5.809 -0.0461 -0.3790  0.1685
  184POPC  H12R21149   5.657   6.972   5.771  0.9402  0.3693  0.3182
  184POPC  H12S21150   5.662   6.797   5.769 -1.3782  0.6128 -0.3037
  184POPC  C21321151   5.855   6.913   5.754  0.1906  0.0877 -0.0894
  184POPC  H13R21152   5.923   6.831   5.785  0.7695 -0.0348 -1.6040
  184POPC  H13S21153   5.894   7.007   5.801 -0.7100  0.3251  0.1927
  184POPC  C21421154   5.857   6.933   5.595 -0.9085  0.1062  0.1643
  184POPC  H14R21155   5.801   7.029   5.591 -0.6585  0.5156  3.8058
  184POPC  H14S21156   5.793   6.855   5.549 -1.1567  0.7793 -0.6832
  184POPC  C21521157   6.000   6.934   5.538 -0.2560 -0.0249  0.5032
  184POPC  H15R21158   6.047   6.834   5.550 -0.1231  0.0055  0.2330
  184POPC  H15S21159   6.062   7.013   5.586 -1.1842  0.0977  1.5312
  184POPC  C21621160   6.015   6.967   5.385  0.5685 -0.1557  0.0006
  184POPC  H16R21161   5.909   6.971   5.353  0.4656 -0.2846  0.3174
  184POPC  H16S21162   6.073   6.889   5.331  0.9933  0.4891 -0.4911
  184POPC  C21721163   6.085   7.105   5.358  0.4547 -0.0942  0.6693
  184POPC  H17R21164   6.061   7.184   5.433  0.0415  0.8419 -0.4123
  184POPC  H17S21165   6.050   7.131   5.256 -0.7616 -1.3748  0.7306
  184POPC  C21821166   6.231   7.095   5.331 -0.2748  0.0606 -0.2688
  184POPC  H18R21167   6.266   7.196   5.300  0.7655  0.3252  1.5978
  184POPC  H18S21168   6.255   7.013   5.260 -0.2176  1.1157 -1.4852
  184POPC  H18T21169   6.279   7.067   5.427 -0.9193 -2.3040 -0.5735
  184POPC   C3321170   5.719   6.354   6.483 -0.6661  0.7022 -0.6685
  184POPC   H3X21171   5.614   6.320   6.492 -0.6843  0.3367 -2.0081
  184POPC   H3Y21172   5.778   6.280   6.541  0.8244  1.3777 -1.2721
  184POPC   C3421173   5.768   6.340   6.339 -0.3731 -0.1725  0.8206
  184POPC   H4X21174   5.819   6.242   6.333 -0.9573 -0.4110 -0.8636
  184POPC   H4Y21175   5.851   6.407   6.308  0.7729 -1.7639  0.3229
  184POPC   C3521176   5.657   6.348   6.231 -0.1395 -0.2045 -0.4003
  184POPC   H5X21177   5.575   6.421   6.248  2.6389  3.1358 -0.4149
  184POPC   H5Y21178   5.612   6.246   6.232 -0.3792 -0.1501 -2.4622
  184POPC   C3621179   5.708   6.355   6.089  0.4829 -0.7028 -0.2309
  184POPC   H6X21180   5.796   6.290   6.070  1.4390  0.9835 -1.8469
  184POPC   H6Y21181   5.744   6.459   6.083  1.4928 -0.9516  1.0115
  184POPC   C3721182   5.598   6.319   5.981 -0.7114  0.1957 -0.6573
  184POPC   H7X21183   5.509   6.376   6.015 -1.6183 -1.3504 -0.3217
  184POPC   H7Y21184   5.566   6.213   5.973 -1.7060  0.5107 -0.9951
  184POPC   C3821185   5.643   6.369   5.839  0.0482 -0.4331 -0.0538
  184POPC   H8X21186   5.744   6.338   5.803  0.3061  2.0775 -1.7124
  184POPC   H8Y21187   5.641   6.480   5.848  0.7622 -0.5359  2.0261
  184POPC   C3921188   5.547   6.332   5.734  0.4706  0.4393 -0.5454
  184POPC   H9X21189   5.447   6.381   5.733  0.2010 -0.0281  1.2646
  184POPC   H9Y21190   5.515   6.226   5.745 -2.0073  1.2820  1.3064
  184POPC  C31021191   5.616   6.341   5.596  0.1592  0.1112  0.0599
  184POPC  H10X21192   5.697   6.265   5.591  0.2057  0.2450 -2.7407
  184POPC  H10Y21193   5.662   6.442   5.591  1.7645 -0.4970  1.6764
  184POPC  C31121194   5.515   6.340   5.472  0.4825  0.4315  0.2632
  184POPC  H11X21195   5.428   6.399   5.507  1.1688  1.5523  0.1517
  184POPC  H11Y21196   5.470   6.240   5.455  0.5597  0.3936  0.2812
  184POPC  C31221197   5.562   6.404   5.338 -0.0067 -0.2798 -0.0665
  184POPC  H12X21198   5.484   6.376   5.264 -1.8023  1.1779  1.1433
  184POPC  H12Y21199   5.659   6.356   5.314  0.9221  2.3460 -1.9673
  184POPC  C31321200   5.581   6.557   5.341  0.0242 -0.0965  0.0641
  184POPC  H13X21201   5.657   6.593   5.413 -0.7332 -0.0493  0.8672
  184POPC  H13Y21202   5.488   6.612   5.365  0.7759  0.9824  0.5798
  184POPC  C31421203   5.629   6.606   5.206  0.9283 -0.3413 -0.3113
  184POPC  H14X21204   5.551   6.596   5.127 -0.6812 -2.8310  1.4244
  184POPC  H14Y21205   5.703   6.532   5.169 -0.4646 -1.7422 -0.4214
  184POPC  C31521206   5.684   6.745   5.204 -0.0322 -0.3362 -0.6738
  184POPC  H15X21207   5.720   6.778   5.303  0.3350 -0.6104 -0.7163
  184POPC  H15Y21208   5.608   6.818   5.167 -2.3800 -2.0702  0.4895
  184POPC  C31621209   5.810   6.754   5.110  0.4010  0.4735  0.6081
  184POPC  H16X21210   5.881   6.679   5.151 -0.4871  0.5290  2.3857
  184POPC  H16Y21211   5.847   6.858   5.118 -2.7958  1.9139 -1.2731
  184POPC  H16Z21212   5.777   6.732   5.007 -0.6307  0.8476  0.8515
  185POPC     N21213   4.906   3.247   2.736 -0.1417  0.1541 -0.0270
  185POPC   C1221214   5.059   3.203   2.713  0.6243 -0.0180  0.0528
  185POPC  H12A21215   5.058   3.117   2.648 -1.8874 -0.4536  0.5678
  185POPC  H12B21216   5.094   3.176   2.811 -1.2196 -0.0281  0.7511
  185POPC   C1321217   4.843   3.295   2.608 -0.1788 -0.1692  0.3046
  185POPC  H13A21218   4.891   3.375   2.553  0.3470  0.0994  1.1322
  185POPC  H13B21219   4.835   3.212   2.539 -2.7846 -0.0988  0.4537
  185POPC  H13C21220   4.752   3.341   2.641  0.2618 -0.7727  2.5112
  185POPC   C1421221   4.827   3.133   2.795 -0.2113 -0.3811 -0.4369
  185POPC  H14A21222   4.731   3.160   2.838  1.8643  1.9995  3.1449
  185POPC  H14B21223   4.814   3.054   2.722 -4.0919  0.4081 -0.8339
  185POPC  H14C21224   4.891   3.095   2.874  0.9151  0.0657 -1.1194
  185POPC   C1521225   4.901   3.353   2.836  1.0033 -0.3620  0.0173
  185POPC  H15A21226   4.958   3.434   2.793 -0.2178 -0.6655 -2.3562
  185POPC  H15B21227   4.928   3.326   2.937 -0.2185  0.1301  0.4990
  185POPC  H15C21228   4.800   3.388   2.852  1.2207  1.0869 -1.5390
  185POPC   C1121229   5.150   3.315   2.663  0.2660 -0.2201  0.5859
  185POPC  H11A21230   5.101   3.362   2.575  3.0034  3.0980  0.6453
  185POPC  H11B21231   5.247   3.274   2.629  0.0436 -0.8975  0.7543
  185POPC     P21232   5.285   3.509   2.789  0.0453  0.3227 -0.3734
  185POPC   O1321233   5.247   3.643   2.737 -0.0133 -0.0827  0.0173
  185POPC   O1421234   5.412   3.443   2.731 -0.2520 -0.2804 -0.1522
  185POPC   O1221235   5.162   3.413   2.765  0.3939  0.3204 -0.3417
  185POPC   O1121236   5.288   3.511   2.948  0.1125  0.6791  0.2645
  185POPC    C121237   5.256   3.403   3.030  0.7858 -0.3229 -0.1861
  185POPC    HA21238   5.160   3.354   3.002 -0.4697 -1.0384  4.5475
  185POPC    HB21239   5.245   3.437   3.135 -3.1872 -1.8112  0.0423
  185POPC    C221240   5.352   3.282   3.024  0.0001 -0.7882  0.5625
  185POPC    HS21241   5.339   3.234   2.924 -0.2321  1.0822 -0.3658
  185POPC   O2121242   5.314   3.214   3.143  0.6010 -0.2194 -0.4604
  185POPC   C2121243   5.226   3.121   3.111 -0.2543  1.1865  0.1814
  185POPC   O2221244   5.178   3.102   2.998 -0.6897 -0.4322  0.0974
  185POPC   C2221245   5.186   3.042   3.238  1.2864  0.7812 -0.4653
  185POPC   H2R21246   5.222   2.937   3.229 -1.4523 -0.5299  2.0504
  185POPC   H2S21247   5.075   3.035   3.241  1.1569  2.3532  1.5746
  185POPC    C321248   5.495   3.339   3.042 -0.8471 -0.7620  0.4424
  185POPC    HX21249   5.487   3.403   3.132  1.4213 -2.0356  1.6145
  185POPC    HY21250   5.529   3.395   2.952  0.5499  0.3358  1.6091
  185POPC   O3121251   5.586   3.226   3.064  0.0120 -0.1682  0.1296
  185POPC   C3121252   5.713   3.272   3.054  0.1497  0.0892 -0.4297
  185POPC   O3221253   5.747   3.379   3.005  0.3306  0.1469  0.0512
  185POPC   C3221254   5.806   3.164   3.117  0.0558 -0.0781  0.2174
  185POPC   H2X21255   5.890   3.169   3.044 -0.5904 -0.8981 -0.6093
  185POPC   H2Y21256   5.769   3.060   3.104  0.7214 -0.0376 -2.8633
  185POPC   C2321257   5.235   3.101   3.376  0.2208 -0.0271 -0.1893
  185POPC   H3R21258   5.213   3.210   3.375 -1.2013 -0.2415  1.9884
  185POPC   H3S21259   5.342   3.071   3.376  0.8531  2.0262 -1.0394
  185POPC   C2421260   5.163   3.035   3.497  1.1223 -0.2978 -0.0871
  185POPC   H4R21261   5.191   2.928   3.497  2.6324  0.0568 -1.2775
  185POPC   H4S21262   5.054   3.051   3.477  1.1599 -0.8921 -0.7969
  185POPC   C2521263   5.212   3.094   3.628 -0.2993 -0.2996 -0.3386
  185POPC   H5R21264   5.214   3.204   3.618 -1.3722 -0.4387 -2.7927
  185POPC   H5S21265   5.319   3.065   3.633 -1.1584 -4.1476 -0.6369
  185POPC   C2621266   5.138   3.031   3.752  0.0030 -0.3186  0.9409
  185POPC   H6R21267   5.223   2.988   3.809  0.6198  1.4785  1.4615
  185POPC   H6S21268   5.066   2.956   3.713 -0.5353  1.4865 -1.9075
  185POPC   C2721269   5.055   3.135   3.836 -0.1661  0.3245 -0.0876
  185POPC   H7R21270   5.008   3.213   3.772  1.6603  0.2485 -1.6219
  185POPC   H7S21271   5.126   3.205   3.886 -0.4161  0.1899  0.4562
  185POPC   C2821272   4.974   3.062   3.949  0.0654 -0.1015 -0.0482
  185POPC   H8R21273   4.885   3.014   3.903  0.1847 -0.0060 -0.3784
  185POPC   H8S21274   4.935   3.146   4.011 -0.0554 -0.6506  0.6405
  185POPC   C2921275   5.053   2.957   4.024  0.3347 -0.5093 -0.0153
  185POPC   H9121276   5.036   2.854   3.991 -1.5799 -0.1017 -0.4757
  185POPC  C21021277   5.128   2.974   4.134  0.8894  0.0539 -0.4765
  185POPC  H10121278   5.178   2.888   4.180  0.5436 -0.2599 -0.6862
  185POPC  C21121279   5.152   3.103   4.198 -0.4130 -0.0582 -0.2574
  185POPC  H11R21280   5.131   3.185   4.125  0.2002 -0.2781 -0.6868
  185POPC  H11S21281   5.259   3.093   4.224 -1.1773 -0.5892  3.1379
  185POPC  C21221282   5.073   3.141   4.325 -0.0753 -0.2819  0.0212
  185POPC  H12R21283   4.975   3.091   4.311  0.4065 -1.4648  0.7743
  185POPC  H12S21284   5.057   3.250   4.309  1.7824 -0.0021 -0.1987
  185POPC  C21321285   5.139   3.112   4.460 -0.5043 -0.0884 -0.0993
  185POPC  H13R21286   5.248   3.132   4.457 -0.7466  1.3543  0.1475
  185POPC  H13S21287   5.130   3.002   4.470  0.1869 -0.2838 -1.4612
  185POPC  C21421288   5.064   3.162   4.582  0.0537  0.2925 -0.1673
  185POPC  H14R21289   4.962   3.118   4.579  0.0928  0.2630 -2.0295
  185POPC  H14S21290   5.041   3.271   4.577  0.5389  0.5371  2.0644
  185POPC  C21521291   5.135   3.126   4.709  0.8315  0.7544 -0.3932
  185POPC  H15R21292   5.232   3.179   4.722  1.7728 -1.4241  2.7248
  185POPC  H15S21293   5.156   3.017   4.699 -0.9094  0.4182 -0.7153
  185POPC  C21621294   5.047   3.147   4.833  0.0921 -0.1725 -0.0644
  185POPC  H16R21295   4.952   3.091   4.847 -0.1661 -0.3461 -2.2162
  185POPC  H16S21296   5.012   3.252   4.820  1.7975  0.2485 -1.5905
  185POPC  C21721297   5.134   3.126   4.955  0.1698  0.2197 -0.4011
  185POPC  H17R21298   5.219   3.196   4.963 -0.3089  0.5963  2.4692
  185POPC  H17S21299   5.183   3.027   4.947 -0.3402 -0.1515  0.8046
  185POPC  C21821300   5.054   3.127   5.092 -0.3884 -0.2710  0.4359
  185POPC  H18R21301   5.121   3.097   5.176 -0.3675  2.3278  1.4207
  185POPC  H18S21302   4.973   3.051   5.087 -2.2071  1.4261  2.4089
  185POPC  H18T21303   5.013   3.227   5.115  2.3067  1.4590 -1.6639
  185POPC   C3321304   5.846   3.196   3.261  0.0240  0.8182  0.2992
  185POPC   H3X21305   5.887   3.299   3.268  1.4970  0.3285 -0.6549
  185POPC   H3Y21306   5.939   3.141   3.286  1.0241  1.8215 -1.0780
  185POPC   C3421307   5.737   3.141   3.358 -0.1935 -0.1936  0.5977
  185POPC   H4X21308   5.726   3.033   3.335 -1.4384  0.1204 -0.4647
  185POPC   H4Y21309   5.632   3.171   3.337 -0.9127 -2.0770  1.3082
  185POPC   C3521310   5.768   3.153   3.505  1.0803 -0.4535 -0.3279
  185POPC   H5X21311   5.791   3.260   3.524 -0.9898  0.4311 -2.3041
  185POPC   H5Y21312   5.861   3.098   3.532 -0.6459 -2.2907  2.3988
  185POPC   C3621313   5.660   3.109   3.594 -0.0214  0.3490 -0.6025
  185POPC   H6X21314   5.630   3.007   3.563 -0.1419  0.2407 -0.1446
  185POPC   H6Y21315   5.580   3.178   3.561 -0.1721 -0.6336 -2.3762
  185POPC   C3721316   5.693   3.120   3.748  0.0893  0.2685 -0.4766
  185POPC   H7X21317   5.611   3.158   3.813 -0.9572 -1.0375 -0.9859
  185POPC   H7Y21318   5.783   3.183   3.761  0.5158 -0.6314  1.3776
  185POPC   C3821319   5.747   2.986   3.801  0.2604 -0.2273 -0.2642
  185POPC   H8X21320   5.828   2.947   3.735 -0.0372 -0.1077 -0.7003
  185POPC   H8Y21321   5.665   2.912   3.809 -0.2726  0.5548  2.5213
  185POPC   C3921322   5.823   2.989   3.943 -0.2063 -0.5332  0.6261
  185POPC   H9X21323   5.904   3.064   3.929 -0.3706 -0.5246 -0.4047
  185POPC   H9Y21324   5.866   2.887   3.957 -0.1919 -0.3205  2.2723
  185POPC  C31021325   5.732   3.012   4.063 -0.0120 -0.3070  0.3401
  185POPC  H10X21326   5.655   3.091   4.048  1.3192  0.8441 -0.7685
  185POPC  H10Y21327   5.805   3.055   4.135  0.8330  0.4286 -0.9078
  185POPC  C31121328   5.650   2.899   4.125 -0.4386 -0.7559 -0.0608
  185POPC  H11X21329   5.716   2.811   4.134  0.9492  0.1717 -0.8144
  185POPC  H11Y21330   5.562   2.874   4.062 -0.8733  1.3400 -0.3785
  185POPC  C31221331   5.594   2.940   4.263  0.6528  0.4184 -0.1599
  185POPC  H12X21332   5.511   3.014   4.250  1.0735  1.3483  1.9285
  185POPC  H12Y21333   5.674   2.991   4.321  2.9866 -0.7530 -2.1995
  185POPC  C31321334   5.546   2.825   4.358 -0.2544  0.0778  0.0904
  185POPC  H13X21335   5.632   2.756   4.372  0.5070  1.1439  0.8337
  185POPC  H13Y21336   5.473   2.761   4.306  0.6931 -0.2940 -0.8207
  185POPC  C31421337   5.488   2.885   4.491  0.3931  0.1393  0.6606
  185POPC  H14X21338   5.444   2.796   4.542 -0.8675  0.6419  0.4918
  185POPC  H14Y21339   5.395   2.939   4.466 -0.8077 -2.5363 -1.2151
  185POPC  C31521340   5.580   2.963   4.590 -0.8138  0.5543  0.2572
  185POPC  H15X21341   5.530   2.988   4.685 -0.0208  1.4062  0.4593
  185POPC  H15Y21342   5.594   3.054   4.529  0.0978 -0.0006 -0.3977
  185POPC  C31621343   5.711   2.895   4.628  0.4322 -0.1718 -0.5457
  185POPC  H16X21344   5.705   2.798   4.682  2.1810  0.2337  0.4324
  185POPC  H16Y21345   5.758   2.962   4.703 -2.0842  2.5316 -1.2281
  185POPC  H16Z21346   5.784   2.881   4.544 -0.8485  1.3871 -1.9860
  186POPC     N21347   6.832   5.949   2.511 -0.0562 -0.3950 -0.9783
  186POPC   C1221348   6.703   5.879   2.478 -1.3688 -0.0598  0.6132
  186POPC  H12A21349   6.671   5.912   2.380 -1.5265 -1.2090  0.2655
  186POPC  H12B21350   6.625   5.897   2.551 -1.1113 -1.4571  1.2520
  186POPC   C1321351   6.941   5.918   2.412  0.8158 -0.1630 -0.2751
  186POPC  H13A21352   7.034   5.969   2.435  1.4926 -0.6747 -1.7255
  186POPC  H13B21353   6.960   5.813   2.397 -0.1219 -0.3617 -0.1192
  186POPC  H13C21354   6.915   5.962   2.317  3.4970  3.4763  0.4272
  186POPC   C1421355   6.807   6.099   2.520  0.3698  0.4942  0.2791
  186POPC  H14A21356   6.902   6.148   2.534  0.3760  0.5709 -0.0244
  186POPC  H14B21357   6.758   6.137   2.431 -0.8136 -0.7898  0.3519
  186POPC  H14C21358   6.739   6.120   2.602 -1.2957 -1.8287 -0.4044
  186POPC   C1521359   6.883   5.910   2.645 -0.4007  0.0516  0.7476
  186POPC  H15A21360   6.974   5.967   2.663 -0.3378 -0.1577  1.0941
  186POPC  H15B21361   6.912   5.806   2.643  1.5941  0.5248 -1.9299
  186POPC  H15C21362   6.811   5.924   2.724  0.2583 -0.7460  1.5021
  186POPC   C1121363   6.708   5.722   2.473  0.4807 -0.4997  0.7514
  186POPC  H11A21364   6.773   5.689   2.388 -1.7011  0.0993 -1.2387
  186POPC  H11B21365   6.605   5.692   2.445  0.3441 -0.0760  0.7974
  186POPC     P21366   6.637   5.635   2.711  0.1341 -0.1214  0.0396
  186POPC   O1321367   6.602   5.491   2.695  0.0806 -0.5904  0.0704
  186POPC   O1421368   6.533   5.741   2.701  1.0804  0.6268 -0.2601
  186POPC   O1221369   6.751   5.668   2.598 -0.1691 -0.8047 -0.1854
  186POPC   O1121370   6.713   5.661   2.844  0.1966  0.9910 -0.0393
  186POPC    C121371   6.745   5.546   2.929 -0.5804  0.0423  0.3086
  186POPC    HA21372   6.855   5.552   2.948 -0.4999  0.6068 -0.2855
  186POPC    HB21373   6.752   5.447   2.880  0.2001 -1.3357  2.9671
  186POPC    C221374   6.659   5.549   3.060  0.1427 -0.8816  0.6624
  186POPC    HS21375   6.558   5.579   3.024  0.1426 -1.7661 -0.1378
  186POPC   O2121376   6.727   5.643   3.148 -0.0811  0.4036  0.0698
  186POPC   C2121377   6.651   5.710   3.237 -0.4767 -0.1565 -0.4551
  186POPC   O2221378   6.532   5.710   3.255 -0.6639 -1.4762  0.3560
  186POPC   C2221379   6.754   5.790   3.323 -0.3567 -0.8669  0.0330
  186POPC   H2R21380   6.808   5.863   3.259  2.8694 -1.3251  1.9844
  186POPC   H2S21381   6.830   5.716   3.355  0.4449  0.1620  0.5825
  186POPC    C321382   6.660   5.411   3.132  0.4812  0.0757  0.5673
  186POPC    HX21383   6.745   5.425   3.202  0.4375  0.9715  0.4492
  186POPC    HY21384   6.685   5.336   3.054 -1.6934  2.3764 -2.5888
  186POPC   O3121385   6.533   5.385   3.192  0.1202 -0.2651  0.7293
  186POPC   C3121386   6.530   5.276   3.261  0.4885  0.5162 -0.1844
  186POPC   O3221387   6.615   5.188   3.258 -0.1976 -0.5054 -0.3006
  186POPC   C3221388   6.406   5.271   3.338  0.2890 -0.5013 -0.1764
  186POPC   H2X21389   6.318   5.295   3.274 -1.4023 -2.1913  1.3901
  186POPC   H2Y21390   6.418   5.342   3.423  1.1312 -0.1378 -0.5923
  186POPC   C2321391   6.684   5.869   3.432 -0.4076 -0.4394 -0.8716
  186POPC   H3R21392   6.616   5.812   3.500 -0.3027  0.1615 -0.2561
  186POPC   H3S21393   6.636   5.955   3.380  2.4118  1.1732 -0.9643
  186POPC   C2421394   6.791   5.936   3.523 -0.0055  0.1242  0.0805
  186POPC   H4R21395   6.740   5.989   3.606  2.7505 -0.5543  2.3682
  186POPC   H4S21396   6.857   5.998   3.458 -1.6178  1.9531  0.1218
  186POPC   C2521397   6.876   5.836   3.601  0.0930  0.6060 -0.1034
  186POPC   H5R21398   6.941   5.775   3.535 -0.1950 -1.0538  1.1102
  186POPC   H5S21399   6.811   5.764   3.655 -1.1818  1.8824  0.1219
  186POPC   C2621400   6.951   5.905   3.718  0.4452  0.2151  0.7703
  186POPC   H6R21401   6.983   5.830   3.794  2.0330  1.1510  1.0502
  186POPC   H6S21402   6.886   5.980   3.768 -0.4742 -0.8375  1.2153
  186POPC   C2721403   7.078   5.986   3.680  0.4472 -0.1259  0.2086
  186POPC   H7R21404   7.038   6.061   3.609 -1.7761 -1.2508  0.1788
  186POPC   H7S21405   7.154   5.920   3.631 -1.9994 -2.5653 -0.5601
  186POPC   C2821406   7.142   6.064   3.795  0.1729  0.0157  0.0544
  186POPC   H8R21407   7.056   6.105   3.853 -0.0778 -1.0016  0.4187
  186POPC   H8S21408   7.208   6.149   3.764  0.9425 -0.4912  0.2769
  186POPC   C2921409   7.205   5.980   3.900  0.1422  0.0020 -0.1759
  186POPC   H9121410   7.246   5.886   3.860  0.9983  0.4805 -0.4511
  186POPC  C21021411   7.218   6.003   4.035  0.3389  0.2185  0.0542
  186POPC  H10121412   7.266   5.923   4.093 -0.0350 -0.6694 -0.8181
  186POPC  C21121413   7.172   6.124   4.111  0.7750 -0.0571 -0.3643
  186POPC  H11R21414   7.106   6.081   4.190  0.4620 -0.6157 -0.9201
  186POPC  H11S21415   7.116   6.194   4.045  0.8405  1.1634  0.8303
  186POPC  C21221416   7.281   6.198   4.185 -0.3186 -0.0568  0.6702
  186POPC  H12R21417   7.249   6.302   4.205  0.0944  0.5762 -1.6982
  186POPC  H12S21418   7.365   6.214   4.115 -1.9463 -2.2215 -2.0153
  186POPC  C21321419   7.312   6.116   4.315  0.1122  0.1091  1.1743
  186POPC  H13R21420   7.328   6.015   4.270 -1.1469  1.1333 -1.8211
  186POPC  H13S21421   7.214   6.112   4.368 -1.1543 -1.4460 -1.0622
  186POPC  C21421422   7.423   6.158   4.408  0.3553 -0.2221  0.9103
  186POPC  H14R21423   7.408   6.264   4.436  2.9456  0.8815 -1.3786
  186POPC  H14S21424   7.507   6.159   4.335 -1.7043  0.4771 -1.6181
  186POPC  C21521425   7.463   6.057   4.513  0.0057  0.1914  0.2167
  186POPC  H15R21426   7.479   5.957   4.468  0.7492  0.3289  0.1525
  186POPC  H15S21427   7.387   6.041   4.592 -1.2939  1.4512 -0.7328
  186POPC  C21621428   7.601   6.103   4.574  0.2491 -0.3227 -0.3528
  186POPC  H16R21429   7.579   6.194   4.634 -0.1577  0.6735 -1.9597
  186POPC  H16S21430   7.677   6.127   4.496  1.0147  2.1464  1.0614
  186POPC  C21721431   7.656   6.010   4.679  0.1862 -0.1731  0.0976
  186POPC  H17R21432   7.750   6.062   4.708  0.8981 -0.5454 -1.4012
  186POPC  H17S21433   7.677   5.913   4.628 -1.7492  0.3637 -1.8858
  186POPC  C21821434   7.573   5.972   4.800 -0.0973  0.8392  0.7506
  186POPC  H18R21435   7.553   6.050   4.876  0.1187  0.7383  0.9119
  186POPC  H18S21436   7.480   5.925   4.761  1.0648  0.3511 -1.6421
  186POPC  H18T21437   7.620   5.892   4.861  0.0733  0.6743  0.4091
  186POPC   C3321438   6.385   5.133   3.400  0.4091  0.1764 -0.4011
  186POPC   H3X21439   6.462   5.118   3.479 -0.7581  0.1550  0.7678
  186POPC   H3Y21440   6.395   5.055   3.321 -0.6581  0.5069 -0.8857
  186POPC   C3421441   6.245   5.118   3.467 -0.4860  0.4020  0.0749
  186POPC   H4X21442   6.161   5.144   3.400 -1.0275  2.6664  1.5033
  186POPC   H4Y21443   6.245   5.185   3.556  1.7519  1.1747 -0.4414
  186POPC   C3521444   6.229   4.977   3.532  0.5555 -0.2929  0.4636
  186POPC   H5X21445   6.262   4.903   3.457  0.0700 -1.6261  1.5198
  186POPC   H5Y21446   6.118   4.979   3.542  0.0318  1.1644 -3.6339
  186POPC   C3621447   6.299   4.978   3.670 -0.6786  0.0115 -0.2290
  186POPC   H6X21448   6.371   5.063   3.665 -0.7684  0.0860 -0.2527
  186POPC   H6Y21449   6.363   4.892   3.697 -0.7495 -0.2502 -0.8677
  186POPC   C3721450   6.210   5.014   3.795 -0.1968 -0.4532 -0.5309
  186POPC   H7X21451   6.123   4.947   3.809 -0.7065  0.1017 -0.9676
  186POPC   H7Y21452   6.165   5.114   3.779  0.6778 -0.0997 -0.8964
  186POPC   C3821453   6.307   5.019   3.915 -0.4401 -0.5361  0.2510
  186POPC   H8X21454   6.388   5.095   3.915 -0.2596 -0.6348 -2.2752
  186POPC   H8Y21455   6.353   4.920   3.937 -0.0935  0.1718  3.1105
  186POPC   C3921456   6.232   5.065   4.040 -0.3837  0.4115 -0.0283
  186POPC   H9X21457   6.160   4.982   4.059  0.2390  0.3306  2.2656
  186POPC   H9Y21458   6.170   5.155   4.018 -0.7017 -0.5948 -3.9306
  186POPC  C31021459   6.326   5.099   4.162  0.2352  0.0803  1.3478
  186POPC  H10X21460   6.359   5.204   4.146 -0.8337  0.1229 -1.0148
  186POPC  H10Y21461   6.410   5.026   4.157 -0.7488 -1.0233 -0.8143
  186POPC  C31121462   6.255   5.090   4.300  0.2315 -0.0104  0.0060
  186POPC  H11X21463   6.231   4.985   4.327 -2.1489  0.9494  2.0712
  186POPC  H11Y21464   6.165   5.154   4.316  0.2363 -0.7019  3.5394
  186POPC  C31221465   6.343   5.135   4.418 -0.1754  0.1347  0.4498
  186POPC  H12X21466   6.347   5.246   4.414 -1.3786  0.1950  0.5779
  186POPC  H12Y21467   6.451   5.113   4.398  0.4440  2.9768  0.2374
  186POPC  C31321468   6.308   5.086   4.554  0.1486 -0.4098 -0.0599
  186POPC  H13X21469   6.314   4.975   4.550  0.2011 -0.5039  1.8852
  186POPC  H13Y21470   6.203   5.114   4.580 -0.1892 -0.1276 -1.6298
  186POPC  C31421471   6.409   5.132   4.654 -0.0928 -0.1651  0.4754
  186POPC  H14X21472   6.425   5.242   4.646  2.8598 -0.6139 -1.3941
  186POPC  H14Y21473   6.508   5.083   4.642  0.4645  0.4211  2.3741
  186POPC  C31521474   6.367   5.103   4.799  0.5507 -0.1191  0.5280
  186POPC  H15X21475   6.452   5.139   4.862  0.5268  2.7122 -0.9085
  186POPC  H15Y21476   6.341   4.995   4.802 -1.3054  0.2979  0.7267
  186POPC  C31621477   6.238   5.176   4.845  0.2212 -0.1382  0.0431
  186POPC  H16X21478   6.152   5.160   4.777 -0.3628 -1.2675  1.0095
  186POPC  H16Y21479   6.251   5.286   4.856  0.8113 -0.3268  1.5438
  186POPC  H16Z21480   6.204   5.135   4.943  0.6686 -1.4991 -0.3434
  187POPC     N21481   4.636   2.658   2.449 -0.1131 -0.0141  0.4454
  187POPC   C1221482   4.676   2.514   2.458  0.0373  0.4913  1.1324
  187POPC  H12A21483   4.700   2.482   2.358  0.0962 -1.2231  1.6632
  187POPC  H12B21484   4.587   2.463   2.490  0.8016 -0.0788  2.4099
  187POPC   C1321485   4.528   2.675   2.349  0.6102  0.0476 -0.6371
  187POPC  H13A21486   4.466   2.586   2.354 -0.8382  1.0110 -0.7589
  187POPC  H13B21487   4.471   2.766   2.365  0.4606 -0.2192  0.4858
  187POPC  H13C21488   4.563   2.677   2.248 -2.0349  0.3211 -1.6335
  187POPC   C1421489   4.588   2.700   2.585 -0.1305  0.3778  0.9959
  187POPC  H14A21490   4.571   2.807   2.592  0.9820  0.7806 -1.3740
  187POPC  H14B21491   4.491   2.654   2.598  0.3168 -0.9161 -0.0466
  187POPC  H14C21492   4.658   2.668   2.660  3.5780  1.7115 -1.6142
  187POPC   C1521493   4.751   2.745   2.404 -0.1029  0.3318  0.4082
  187POPC  H15A21494   4.722   2.844   2.371  1.4930  0.2691 -1.3669
  187POPC  H15B21495   4.812   2.692   2.333  0.0418 -0.3025  0.9944
  187POPC  H15C21496   4.823   2.759   2.483  0.4431 -0.7585  0.1125
  187POPC   C1121497   4.786   2.465   2.558  0.1828 -0.4054  0.0791
  187POPC  H11A21498   4.888   2.485   2.519  0.4896  2.7051  2.1226
  187POPC  H11B21499   4.791   2.354   2.561 -0.6272 -0.4580 -0.0634
  187POPC     P21500   4.885   2.565   2.781  0.2374  0.2711  0.6362
  187POPC   O1321501   4.820   2.637   2.892 -0.6238 -0.0235 -0.1822
  187POPC   O1421502   4.970   2.656   2.698  0.2760  0.3162 -0.4779
  187POPC   O1221503   4.768   2.507   2.693  0.1648  0.2673  0.0424
  187POPC   O1121504   4.966   2.439   2.828 -0.4815  0.3988  0.1029
  187POPC    C121505   4.909   2.332   2.911 -0.4505  0.4485 -0.3516
  187POPC    HA21506   4.990   2.256   2.919 -1.6446 -0.7972  0.2831
  187POPC    HB21507   4.821   2.290   2.860  0.9473  0.1257 -2.6526
  187POPC    C221508   4.881   2.378   3.057 -0.0064 -0.3809 -0.3375
  187POPC    HS21509   4.788   2.437   3.045  1.8401  2.3564 -2.1985
  187POPC   O2121510   4.995   2.447   3.112  0.2995  0.2312  0.5315
  187POPC   C2121511   4.964   2.547   3.190  1.3152 -0.3250  0.4082
  187POPC   O2221512   4.853   2.596   3.210 -0.1082 -0.8702 -0.1905
  187POPC   C2221513   5.099   2.589   3.252  0.4909  0.3282 -0.5882
  187POPC   H2R21514   5.168   2.584   3.165  3.4872 -0.9475  1.6748
  187POPC   H2S21515   5.132   2.506   3.318 -0.7651 -0.1817 -0.5750
  187POPC    C321516   4.851   2.259   3.157  0.6985  0.1027 -0.4680
  187POPC    HX21517   4.939   2.192   3.163  0.2617 -0.3647  1.9682
  187POPC    HY21518   4.765   2.201   3.117  0.6206  0.2479 -0.5136
  187POPC   O3121519   4.831   2.306   3.289  0.3662 -0.1062 -0.6226
  187POPC   C3121520   4.711   2.327   3.344 -0.5307 -0.0900  0.5216
  187POPC   O3221521   4.610   2.283   3.293  0.0600 -0.4911  0.5674
  187POPC   C3221522   4.718   2.407   3.468  0.1951  0.2196  0.7372
  187POPC   H2X21523   4.821   2.448   3.476 -0.0287  0.5840  2.0243
  187POPC   H2Y21524   4.693   2.342   3.554 -1.1718  2.2317  1.9665
  187POPC   C2321525   5.081   2.730   3.330  0.6045  0.0154  0.2241
  187POPC   H3R21526   5.009   2.799   3.280 -0.5499 -1.3387 -0.0468
  187POPC   H3S21527   5.185   2.765   3.346  0.5776 -0.5128  1.7215
  187POPC   C2421528   5.023   2.705   3.471 -0.5406  0.6671 -0.4255
  187POPC   H4R21529   4.936   2.636   3.471  0.3586 -0.7568  3.4146
  187POPC   H4S21530   4.996   2.797   3.526 -0.0430  0.3056  0.4434
  187POPC   C2521531   5.121   2.626   3.564  0.1890 -0.0444 -0.4485
  187POPC   H5R21532   5.221   2.673   3.563  1.2488 -1.8111  3.9432
  187POPC   H5S21533   5.133   2.523   3.524  0.4686  0.7786 -2.6161
  187POPC   C2621534   5.075   2.607   3.710 -0.1944 -0.8506  0.1468
  187POPC   H6R21535   4.967   2.583   3.709 -0.4470  0.2117 -0.6666
  187POPC   H6S21536   5.080   2.711   3.749  0.0448 -0.4087 -1.0141
  187POPC   C2721537   5.159   2.515   3.797 -0.1340  0.5628 -0.0107
  187POPC   H7R21538   5.261   2.551   3.772 -0.5793  4.3919  2.8008
  187POPC   H7S21539   5.142   2.411   3.761 -0.7408 -0.3225  2.5624
  187POPC   C2821540   5.126   2.526   3.939  0.7394  0.8051 -0.8846
  187POPC   H8R21541   5.017   2.536   3.959  0.0796 -4.0638 -0.9156
  187POPC   H8S21542   5.163   2.622   3.981  1.3098  0.9031 -1.5966
  187POPC   C2921543   5.185   2.416   4.029  0.7898 -0.5222  0.5676
  187POPC   H9121544   5.233   2.331   3.979 -3.0687 -1.9375 -1.1529
  187POPC  C21021545   5.158   2.406   4.163  0.0799  0.6894 -0.4262
  187POPC  H10121546   5.209   2.329   4.224 -2.5101 -1.6419 -1.0000
  187POPC  C21121547   5.070   2.495   4.248  0.6061 -0.2554  0.2584
  187POPC  H11R21548   4.991   2.435   4.297  1.2525 -1.4160 -0.0824
  187POPC  H11S21549   5.019   2.564   4.176  2.9782 -0.1843 -1.4707
  187POPC  C21221550   5.145   2.567   4.361  0.2546  0.2802 -0.3567
  187POPC  H12R21551   5.230   2.609   4.303  0.7758  0.7317  0.6993
  187POPC  H12S21552   5.182   2.490   4.432  1.1140  3.0608  2.4097
  187POPC  C21321553   5.058   2.675   4.418 -0.2279  0.0277 -0.1867
  187POPC  H13R21554   4.951   2.647   4.434  0.4182 -1.1285  2.5651
  187POPC  H13S21555   5.058   2.770   4.360 -0.9197  0.1560  0.0146
  187POPC  C21421556   5.107   2.725   4.558  0.0163  0.1252 -0.1237
  187POPC  H14R21557   5.078   2.829   4.581  0.2483 -0.0254  0.9150
  187POPC  H14S21558   5.216   2.742   4.566  0.2129 -1.3100  0.5610
  187POPC  C21521559   5.085   2.629   4.675  1.5021 -0.2036  0.2482
  187POPC  H15R21560   5.123   2.526   4.661 -0.0925 -0.7055 -0.6968
  187POPC  H15S21561   4.975   2.629   4.693  1.1698  1.5422 -1.4091
  187POPC  C21621562   5.153   2.674   4.806  0.1137 -0.2766 -0.6076
  187POPC  H16R21563   5.123   2.779   4.827 -0.3527 -0.4883 -0.2050
  187POPC  H16S21564   5.262   2.661   4.793  0.2951 -0.7281  1.1149
  187POPC  C21721565   5.108   2.594   4.930  0.5806 -0.9418 -0.4157
  187POPC  H17R21566   5.156   2.494   4.932  0.6569 -0.9580  3.2917
  187POPC  H17S21567   4.999   2.572   4.930  0.5548 -0.8146 -0.5941
  187POPC  C21821568   5.147   2.665   5.062  0.1468 -1.1050  0.4526
  187POPC  H18R21569   5.256   2.683   5.069 -0.4433  2.8884  2.4527
  187POPC  H18S21570   5.119   2.603   5.150  0.9322 -3.0341 -0.6024
  187POPC  H18T21571   5.090   2.760   5.059  0.3040 -1.0326 -0.6969
  187POPC   C3321572   4.626   2.528   3.478 -0.0901  0.1820 -0.4775
  187POPC   H3X21573   4.519   2.498   3.478  0.1690 -0.8219  0.7179
  187POPC   H3Y21574   4.630   2.590   3.385  0.5698  2.6265  1.0768
  187POPC   C3421575   4.645   2.618   3.605 -0.2499  0.6110  0.7264
  187POPC   H4X21576   4.569   2.698   3.596 -1.2404 -0.3999 -0.2595
  187POPC   H4Y21577   4.747   2.662   3.602 -0.0609  0.3359  2.2086
  187POPC   C3521578   4.624   2.546   3.733 -0.3229 -0.0318  0.5618
  187POPC   H5X21579   4.678   2.449   3.724  1.5011  0.8086  1.9418
  187POPC   H5Y21580   4.520   2.533   3.771  0.1727 -1.1217  1.5832
  187POPC   C3621581   4.700   2.618   3.847 -0.1006  0.6886  0.2334
  187POPC   H6X21582   4.699   2.726   3.821 -0.9286  0.6276 -0.0269
  187POPC   H6Y21583   4.801   2.573   3.855  0.1379  1.0233 -0.7143
  187POPC   C3721584   4.616   2.612   3.974  0.1806 -0.3810 -0.3345
  187POPC   H7X21585   4.598   2.507   4.005  1.4654 -0.7796 -0.8835
  187POPC   H7Y21586   4.518   2.662   3.958  0.6972  0.3235 -1.4414
  187POPC   C3821587   4.679   2.683   4.092  0.3977  0.7081  0.1037
  187POPC   H8X21588   4.780   2.637   4.105  0.5822  0.7438 -1.0899
  187POPC   H8Y21589   4.612   2.667   4.179 -1.9523 -0.5174 -1.8164
  187POPC   C3921590   4.688   2.835   4.084 -0.5539  0.3018  0.4801
  187POPC   H9X21591   4.583   2.868   4.068 -1.7253 -2.7798  1.1375
  187POPC   H9Y21592   4.748   2.868   3.997  0.9415 -0.3685  1.2154
  187POPC  C31021593   4.758   2.897   4.213  0.4799 -0.1297  0.5207
  187POPC  H10X21594   4.777   3.002   4.181  0.1163  0.1660  1.2551
  187POPC  H10Y21595   4.851   2.842   4.236  0.9450  1.2122  2.0242
  187POPC  C31121596   4.678   2.895   4.342  0.3720  0.0824 -0.5882
  187POPC  H11X21597   4.639   2.793   4.363  2.5133 -0.3961  1.4134
  187POPC  H11Y21598   4.598   2.972   4.333  0.8186  0.5991 -0.1942
  187POPC  C31221599   4.757   2.928   4.468  0.3429 -0.0166 -0.6684
  187POPC  H12X21600   4.790   3.034   4.473 -2.7157  1.1285 -2.3455
  187POPC  H12Y21601   4.843   2.861   4.488  0.1450  0.0031  0.3284
  187POPC  C31321602   4.676   2.910   4.603  0.5358  0.2400  0.9029
  187POPC  H13X21603   4.629   2.809   4.605 -1.0898  0.9417 -0.0788
  187POPC  H13Y21604   4.589   2.979   4.614  0.2026  0.1333 -0.8955
  187POPC  C31421605   4.765   2.914   4.726  0.3392 -0.0593  0.1301
  187POPC  H14X21606   4.791   3.017   4.758 -0.9301  0.3732 -0.1416
  187POPC  H14Y21607   4.843   2.838   4.706  0.6784 -0.0624  1.3417
  187POPC  C31521608   4.690   2.857   4.845  0.1597 -0.8055 -0.0633
  187POPC  H15X21609   4.659   2.753   4.825  0.9105 -0.8902 -0.8448
  187POPC  H15Y21610   4.597   2.912   4.869 -0.3504 -1.3748 -0.7263
  187POPC  C31621611   4.770   2.868   4.983  0.2793  0.7560  0.1381
  187POPC  H16X21612   4.738   2.791   5.056 -0.2451 -1.0270 -1.8596
  187POPC  H16Y21613   4.742   2.966   5.028 -1.9174  0.0633  0.4023
  187POPC  H16Z21614   4.881   2.873   4.974  0.2794  2.1232  0.6127
  188POPC     N21615   5.675   3.289   2.303 -0.2115  0.5405  0.0232
  188POPC   C1221616   5.691   3.371   2.433  0.1608  0.3335  0.3113
  188POPC  H12A21617   5.752   3.317   2.504  1.5460  3.4233  1.6368
  188POPC  H12B21618   5.592   3.389   2.472  0.2087  0.3698  0.4170
  188POPC   C1321619   5.609   3.154   2.340 -0.2090 -0.5314  0.3083
  188POPC  H13A21620   5.677   3.119   2.417  0.7389  0.6036  0.0190
  188POPC  H13B21621   5.508   3.169   2.375 -0.4305 -1.2652 -0.0030
  188POPC  H13C21622   5.619   3.083   2.259 -2.1808 -1.2700  0.6611
  188POPC   C1421623   5.584   3.359   2.203  0.1994 -0.2901  0.7554
  188POPC  H14A21624   5.487   3.382   2.245  0.1786  0.1944  0.4532
  188POPC  H14B21625   5.634   3.450   2.170  0.0069 -0.5761 -0.3856
  188POPC  H14C21626   5.567   3.307   2.110 -1.2244  1.7598 -0.2268
  188POPC   C1521627   5.799   3.253   2.236 -0.0117 -0.1836 -0.6158
  188POPC  H15A21628   5.795   3.189   2.149 -0.9397 -1.6273  0.4296
  188POPC  H15B21629   5.868   3.205   2.304  1.5283  1.5588 -0.8562
  188POPC  H15C21630   5.860   3.342   2.227  0.2902 -0.3326 -0.0863
  188POPC   C1121631   5.767   3.502   2.434  0.3559 -0.0388  0.5066
  188POPC  H11A21632   5.766   3.548   2.535 -1.8374  1.7654 -0.2367
  188POPC  H11B21633   5.711   3.573   2.369 -1.1537 -1.6966 -0.0808
  188POPC     P21634   6.019   3.429   2.457 -0.3144 -0.2073  0.2069
  188POPC   O1321635   6.112   3.545   2.469 -0.0095 -0.0646 -0.4599
  188POPC   O1421636   6.068   3.307   2.390 -0.0006 -0.0377 -0.2903
  188POPC   O1221637   5.897   3.473   2.368  0.4288 -0.3241  0.1307
  188POPC   O1121638   5.957   3.400   2.600 -0.4153  0.3246  0.6362
  188POPC    C121639   6.025   3.437   2.715  0.7908  0.1838 -0.3990
  188POPC    HA21640   5.948   3.429   2.795  0.3582  0.3053 -0.7953
  188POPC    HB21641   6.042   3.547   2.705  0.2085  0.3748  0.5236
  188POPC    C221642   6.154   3.358   2.744 -0.5668  0.4776 -0.4741
  188POPC    HS21643   6.215   3.381   2.654 -1.0618 -1.6317 -1.4296
  188POPC   O2121644   6.124   3.214   2.737  0.4372  0.3029  0.1648
  188POPC   C2121645   6.232   3.143   2.722  0.5844  0.0407  0.6263
  188POPC   O2221646   6.346   3.181   2.706  0.7292 -0.3603 -0.4536
  188POPC   C2221647   6.194   2.998   2.737 -0.7766  0.3102  0.1295
  188POPC   H2R21648   6.215   2.950   2.640 -0.0311  3.5262 -1.4329
  188POPC   H2S21649   6.085   2.990   2.758 -0.4017 -0.5927  2.0023
  188POPC    C321650   6.240   3.406   2.868  0.3327  0.4577  0.1944
  188POPC    HX21651   6.278   3.508   2.846 -0.1847  0.8532  1.0743
  188POPC    HY21652   6.334   3.346   2.871 -1.3736 -2.4264  0.3660
  188POPC   O3121653   6.167   3.398   2.989  0.5851 -0.6355  0.1779
  188POPC   C3121654   6.176   3.499   3.075  0.0934 -0.4310 -1.0936
  188POPC   O3221655   6.257   3.588   3.061  0.3703 -0.5341  0.2595
  188POPC   C3221656   6.100   3.467   3.200  0.0496  0.2720  0.1387
  188POPC   H2X21657   6.090   3.356   3.199 -2.1802  0.4335 -0.4285
  188POPC   H2Y21658   5.995   3.505   3.199 -0.2640 -0.5443 -1.7126
  188POPC   C2321659   6.274   2.934   2.852  0.1334  0.2305  0.9863
  188POPC   H3R21660   6.380   2.941   2.822  0.6994 -1.0461  2.5730
  188POPC   H3S21661   6.240   2.828   2.859  1.3883 -0.1744  1.0529
  188POPC   C2421662   6.237   2.988   2.988 -0.0079 -0.2172  0.0495
  188POPC   H4R21663   6.128   2.971   3.001  0.5368 -2.6829  1.9416
  188POPC   H4S21664   6.258   3.098   2.989 -1.6068  0.1995 -2.5294
  188POPC   C2521665   6.323   2.927   3.098  0.3287  0.2816  0.0532
  188POPC   H5R21666   6.428   2.958   3.080  0.1085  0.4925 -0.9212
  188POPC   H5S21667   6.309   2.817   3.089 -1.3150  0.4399  0.3578
  188POPC   C2621668   6.276   2.965   3.241  0.3148 -0.5090  0.6432
  188POPC   H6R21669   6.165   2.959   3.234  0.4215 -1.0044 -0.9213
  188POPC   H6S21670   6.289   3.073   3.266 -1.8102 -0.2013  0.5882
  188POPC   C2721671   6.340   2.878   3.349 -0.6655 -0.1014  0.1092
  188POPC   H7R21672   6.423   2.935   3.395  0.9747 -1.0975 -1.4634
  188POPC   H7S21673   6.402   2.798   3.302 -0.2315  0.6378 -0.6133
  188POPC   C2821674   6.241   2.827   3.446 -0.4077  0.6432  0.0672
  188POPC   H8R21675   6.295   2.753   3.509 -0.4933  1.2906  0.9227
  188POPC   H8S21676   6.168   2.781   3.376  0.0004  0.5837 -0.3295
  188POPC   C2921677   6.175   2.933   3.531  0.1019 -0.5766 -0.0710
  188POPC   H9121678   6.077   2.960   3.489  0.5332 -0.6230 -1.1213
  188POPC  C21021679   6.215   2.990   3.654 -0.2111  0.2585  0.2905
  188POPC  H10121680   6.154   3.066   3.706 -2.0589  0.1984 -1.6585
  188POPC  C21121681   6.342   2.958   3.732 -0.1901  0.5488 -0.0081
  188POPC  H11R21682   6.395   3.050   3.764 -2.8093  2.2197 -0.1544
  188POPC  H11S21683   6.419   2.906   3.670 -0.0328  0.2759  0.4126
  188POPC  C21221684   6.305   2.875   3.856 -0.4038  0.2373 -0.9272
  188POPC  H12R21685   6.392   2.812   3.886 -0.4216  2.4944  5.0914
  188POPC  H12S21686   6.226   2.798   3.841 -1.5105  0.9639  0.8521
  188POPC  C21321687   6.258   2.974   3.972 -0.3359 -0.0331 -0.4861
  188POPC  H13R21688   6.170   3.028   3.930 -0.2636 -0.4743 -1.2352
  188POPC  H13S21689   6.327   3.058   3.994 -0.9607  0.6950 -1.2163
  188POPC  C21421690   6.228   2.904   4.107  0.2594 -0.3482 -0.0999
  188POPC  H14R21691   6.176   2.806   4.097 -2.9178  1.3356 -2.0940
  188POPC  H14S21692   6.153   2.968   4.158 -0.4155 -0.2309 -1.2021
  188POPC  C21521693   6.338   2.914   4.207  0.5726  0.0929  0.3635
  188POPC  H15R21694   6.301   2.898   4.310  0.8986  1.1405  0.6548
  188POPC  H15S21695   6.380   3.017   4.206  0.8777 -0.0318 -0.0369
  188POPC  C21621696   6.443   2.809   4.174  0.7154  0.6370 -0.0196
  188POPC  H16R21697   6.414   2.757   4.081  1.8350 -1.1653  0.5977
  188POPC  H16S21698   6.433   2.741   4.261 -3.6334  0.5098 -0.3681
  188POPC  C21721699   6.582   2.865   4.165 -0.2951 -0.3216  0.2142
  188POPC  H17R21700   6.661   2.787   4.174  0.4318  0.5533  1.7729
  188POPC  H17S21701   6.588   2.916   4.264  1.1275 -0.6444  0.3135
  188POPC  C21821702   6.595   2.971   4.050 -0.3857  0.6977 -0.4012
  188POPC  H18R21703   6.696   3.014   4.038  0.3589 -1.4746 -2.8372
  188POPC  H18S21704   6.529   3.059   4.069 -1.9806 -0.4508 -0.3534
  188POPC  H18T21705   6.566   2.921   3.955  1.0848 -0.1962 -0.4122
  188POPC   C3321706   6.184   3.513   3.321 -0.4708 -1.0397  0.8638
  188POPC   H3X21707   6.172   3.616   3.359  0.8443  0.0741 -1.5013
  188POPC   H3Y21708   6.294   3.500   3.312 -0.5522 -1.3078  0.2020
  188POPC   C3421709   6.145   3.418   3.436 -0.0619 -0.4318 -0.3074
  188POPC   H4X21710   6.150   3.315   3.396  1.8641  0.2572 -2.0988
  188POPC   H4Y21711   6.042   3.425   3.475 -0.0173 -0.2432 -0.2172
  188POPC   C3521712   6.247   3.425   3.552 -0.0012 -0.1154  0.5993
  188POPC   H5X21713   6.298   3.523   3.546 -1.5332  0.6940  0.0215
  188POPC   H5Y21714   6.317   3.340   3.537 -0.8179 -1.1534  2.2074
  188POPC   C3621715   6.185   3.384   3.690 -0.2157 -0.5886 -0.4491
  188POPC   H6X21716   6.133   3.288   3.669  1.7028 -1.2136 -2.8523
  188POPC   H6Y21717   6.120   3.463   3.731  1.1801  1.1705 -1.4891
  188POPC   C3721718   6.300   3.374   3.793  0.4610  0.3681  0.5261
  188POPC   H7X21719   6.355   3.470   3.802  2.2360 -0.6052  0.4831
  188POPC   H7Y21720   6.359   3.286   3.760  0.2574 -0.3189  1.9512
  188POPC   C3821721   6.263   3.342   3.940  0.1956 -0.3440 -0.0090
  188POPC   H8X21722   6.217   3.241   3.948 -2.9795  0.9773  0.2615
  188POPC   H8Y21723   6.178   3.407   3.973  0.0938 -0.0152 -0.8932
  188POPC   C3921724   6.384   3.352   4.030 -0.5292 -0.0177  0.0169
  188POPC   H9X21725   6.437   3.446   4.006 -1.9749  0.6922 -0.5711
  188POPC   H9Y21726   6.456   3.271   4.008  0.3327  0.3549  1.3629
  188POPC  C31021727   6.346   3.350   4.181  0.7490  0.0326 -0.1364
  188POPC  H10X21728   6.295   3.256   4.211  0.3310  0.1644 -0.4282
  188POPC  H10Y21729   6.283   3.438   4.204  1.4485  0.1793  1.2948
  188POPC  C31121730   6.474   3.352   4.273 -0.2506  0.6808  0.1031
  188POPC  H11X21731   6.526   3.446   4.246 -0.6108  1.1466  0.9640
  188POPC  H11Y21732   6.549   3.272   4.258 -0.6564  0.2960  0.0732
  188POPC  C31221733   6.426   3.359   4.423 -0.1125  0.3502 -0.1392
  188POPC  H12X21734   6.358   3.274   4.445  1.2854 -0.9347 -0.6201
  188POPC  H12Y21735   6.364   3.450   4.432 -1.6970 -0.7841  1.1576
  188POPC  C31321736   6.543   3.348   4.526  0.2707  0.0888 -0.2308
  188POPC  H13X21737   6.588   3.247   4.514 -1.7142 -1.2134  2.2462
  188POPC  H13Y21738   6.509   3.350   4.632 -1.1668  2.4093 -0.6498
  188POPC  C31421739   6.652   3.455   4.504  0.8049  0.3130  0.3180
  188POPC  H14X21740   6.598   3.552   4.510  0.6811  0.3275 -0.7853
  188POPC  H14Y21741   6.693   3.455   4.401  0.6550 -1.2758  0.2365
  188POPC  C31521742   6.768   3.452   4.603  0.3605 -0.2819 -0.0896
  188POPC  H15X21743   6.717   3.447   4.701  0.8872 -0.8644  0.1588
  188POPC  H15Y21744   6.837   3.538   4.585  1.3870 -1.2805 -1.1100
  188POPC  C31621745   6.867   3.336   4.589  0.3131 -0.7656  0.4039
  188POPC  H16X21746   6.906   3.329   4.485 -3.5564 -0.4140 -1.2522
  188POPC  H16Y21747   6.818   3.241   4.620 -1.7169 -0.0068 -0.3349
  188POPC  H16Z21748   6.956   3.354   4.653  1.1204 -0.2647 -0.8322
  189SAPI   C1221749   6.522   0.846   6.974  0.4572  0.7013  0.5617
  189SAPI    H221750   6.512   0.800   6.874 -1.8819  0.5289  0.8307
  189SAPI    O221751   6.439   0.780   7.070 -0.3252  0.1655 -0.4029
  189SAPI   HO221752   6.346   0.797   7.051 -0.7712  1.2468  2.2463
  189SAPI   C1321753   6.666   0.849   7.009 -0.7836 -0.1374  0.0710
  189SAPI    H321754   6.721   0.901   6.927  1.8250 -2.5680  0.1071
  189SAPI    O321755   6.721   0.716   7.010  0.5310  0.7870 -0.3981
  189SAPI   HO321756   6.728   0.675   7.096 -4.1426 -4.4041 -1.8926
  189SAPI   C1421757   6.688   0.919   7.141 -0.6285 -0.2991  0.4894
  189SAPI    H421758   6.647   0.846   7.213 -2.5360 -2.6044 -2.6835
  189SAPI    O421759   6.832   0.934   7.161  0.2961 -0.2770 -0.2715
  189SAPI   HO421760   6.860   0.981   7.083 -1.8804 -1.1366 -1.6616
  189SAPI   C1521761   6.608   1.048   7.166 -0.0931  0.4204  0.3375
  189SAPI    H521762   6.671   1.124   7.116 -0.4997  2.5767  2.9149
  189SAPI    O521763   6.600   1.079   7.305 -0.1665  0.3217 -0.0291
  189SAPI   HO521764   6.650   1.161   7.300  1.4272 -0.6443 -0.5744
  189SAPI   C1621765   6.473   1.060   7.090 -0.5548  0.0758  0.0482
  189SAPI    H621766   6.390   1.028   7.157 -0.1450 -1.6847 -0.2278
  189SAPI    O621767   6.445   1.198   7.057  0.0571  0.2209 -0.1991
  189SAPI   HO621768   6.511   1.221   6.991 -1.0876 -0.0667 -1.4856
  189SAPI   C1121769   6.467   0.985   6.962 -0.1427  0.9700  0.4251
  189SAPI    H121770   6.540   1.037   6.896  0.7047  1.1549  1.4940
  189SAPI     P21771   6.308   0.994   6.744 -0.5316 -0.0380 -0.4744
  189SAPI   O1321772   6.187   0.917   6.708  0.1338 -0.4055  0.5352
  189SAPI   O1421773   6.428   0.957   6.670  0.1700 -0.1692  0.5592
  189SAPI   O1221774   6.335   0.991   6.905 -0.0491  0.2740  0.5190
  189SAPI   O1121775   6.291   1.146   6.708 -0.4055 -0.3995 -0.0396
  189SAPI    C121776   6.179   1.231   6.723  0.0442 -0.2154  0.1804
  189SAPI    HA21777   6.093   1.184   6.775  0.1094  1.9249  2.3720
  189SAPI    HB21778   6.206   1.316   6.788 -0.5171 -0.1606  0.3450
  189SAPI    C221779   6.125   1.289   6.593 -0.5753  0.1377  0.3478
  189SAPI    HS21780   6.032   1.338   6.630 -1.0341 -1.8675  2.0083
  189SAPI   O2121781   6.119   1.183   6.492 -0.1109 -0.9042 -0.1308
  189SAPI   C2121782   6.029   1.096   6.506 -0.2682  0.6303 -0.8392
  189SAPI   O2221783   5.934   1.090   6.590 -0.1916 -0.1605  0.6294
  189SAPI   C2221784   6.067   0.978   6.414  0.2389  0.4609 -0.1251
  189SAPI   H2R21785   6.072   1.023   6.312 -1.5884 -1.1768 -0.9948
  189SAPI   H2S21786   6.173   0.953   6.436 -0.1734 -2.9711 -1.4779
  189SAPI    C321787   6.228   1.392   6.534 -0.5386  0.3633 -0.2552
  189SAPI    HX21788   6.320   1.345   6.494  0.6524  1.6825  0.8318
  189SAPI    HY21789   6.261   1.452   6.621 -1.2683 -0.5337  0.6613
  189SAPI   O3121790   6.173   1.486   6.433  0.4407  0.5875  0.1290
  189SAPI   C3121791   6.080   1.574   6.476  0.3015 -0.1302  0.4680
  189SAPI   O3221792   6.049   1.595   6.591 -0.1618 -0.0277 -0.4525
  189SAPI   C3221793   6.019   1.638   6.353  0.0162  0.0105  0.0151
  189SAPI   H2X21794   6.040   1.746   6.345  0.0704 -0.0391 -0.5700
  189SAPI   H2Y21795   5.912   1.643   6.380  0.1789  1.9882  0.4436
  189SAPI   C2321796   5.984   0.851   6.423 -0.1857 -0.4175  0.0072
  189SAPI   H3R21797   5.877   0.866   6.398  0.2350 -0.1940 -1.7875
  189SAPI   H3S21798   5.982   0.801   6.523  1.4818  0.7423  0.6670
  189SAPI   C2421799   6.030   0.738   6.319 -0.2442  0.1424  0.0756
  189SAPI   H4R21800   6.027   0.771   6.213  1.0633  1.0462  0.2962
  189SAPI   H4S21801   5.959   0.652   6.321  1.7589 -1.7325 -2.1380
  189SAPI   C2521802   6.169   0.694   6.353  0.7899 -0.0109  0.2804
  189SAPI   H5R21803   6.182   0.667   6.458  2.3532  2.1639  0.7125
  189SAPI   C2621804   6.282   0.687   6.275 -0.2586  0.4267 -0.1931
  189SAPI   H6R21805   6.375   0.661   6.327 -0.5415 -2.5996 -1.0482
  189SAPI   C2721806   6.297   0.738   6.136  0.0174 -0.3452 -1.2338
  189SAPI   H7R21807   6.373   0.818   6.127  0.3806 -0.5870 -0.3619
  189SAPI   H7S21808   6.197   0.774   6.105 -0.0267 -0.6167 -1.4179
  189SAPI   C2821809   6.338   0.624   6.043  0.0815  0.4830  0.2764
  189SAPI   H8R21810   6.405   0.546   6.081 -1.0356 -0.8393 -0.3646
  189SAPI   C2921811   6.338   0.634   5.907  0.1802 -0.5283  0.5635
  189SAPI   H9R21812   6.359   0.540   5.855 -0.2501  0.2751 -1.1139
  189SAPI  C21021813   6.248   0.733   5.832 -1.0461 -0.0845  0.3770
  189SAPI  H10R21814   6.202   0.816   5.890 -3.4396 -1.1745  0.1379
  189SAPI  H10S21815   6.159   0.678   5.797 -1.6783  0.4027  1.1900
  189SAPI  C21121816   6.332   0.794   5.713 -0.1730 -0.0533  0.1039
  189SAPI  H11R21817   6.434   0.825   5.737 -0.4457  1.3828 -0.4817
  189SAPI  C21221818   6.289   0.814   5.582 -0.1879  0.1395  0.1451
  189SAPI  H12R21819   6.361   0.850   5.507  2.4882 -0.6340  2.1863
  189SAPI  C21321820   6.153   0.766   5.524  0.2587 -0.9539 -0.0455
  189SAPI  H13R21821   6.099   0.860   5.500  0.9011 -0.0093  1.9587
  189SAPI  H13S21822   6.090   0.712   5.599 -1.0609 -3.2880 -2.6566
  189SAPI  C21421823   6.146   0.678   5.399 -0.9241 -0.1097  0.1860
  189SAPI  H14R21824   6.158   0.571   5.418 -1.9307 -0.1165  0.8479
  189SAPI  C21521825   6.122   0.715   5.269  0.2614  0.6565  0.2646
  189SAPI  H15R21826   6.121   0.635   5.194 -0.2883  1.6260 -0.7975
  189SAPI  C21621827   6.093   0.852   5.216 -0.0805 -0.0867  0.1703
  189SAPI  H16R21828   6.186   0.912   5.210 -1.0439  1.4737  0.2871
  189SAPI  H16S21829   6.031   0.910   5.287 -0.5284  0.7676 -0.8880
  189SAPI  C21721830   6.022   0.836   5.083  1.0098  0.1133  0.2591
  189SAPI  H17R21831   5.939   0.765   5.101 -0.3654  2.0769  2.1779
  189SAPI  H17S21832   6.090   0.800   5.002 -0.9948  1.5113 -2.1571
  189SAPI  C21821833   5.961   0.956   5.024  0.3126  1.0449 -0.1842
  189SAPI  H18R21834   6.033   1.040   5.016  0.8145  0.7348  0.9415
  189SAPI  H18S21835   5.882   0.993   5.093  1.4159  0.7615  1.2868
  189SAPI  C21921836   5.893   0.931   4.892 -0.4620 -0.0570 -0.8063
  189SAPI  H19R21837   5.966   0.914   4.810 -0.1226 -2.0371 -0.1468
  189SAPI  H19S21838   5.823   1.015   4.868  1.6415  1.6542 -1.2618
  189SAPI  C22021839   5.801   0.808   4.881 -0.1107 -0.3025  0.2909
  189SAPI  H20R21840   5.864   0.719   4.900  0.2648 -0.1567 -0.2482
  189SAPI  H20S21841   5.751   0.791   4.784 -1.3027  3.7338 -0.0035
  189SAPI  H20T21842   5.727   0.822   4.962  0.1681  0.3096  0.4537
  189SAPI   C3321843   6.021   1.548   6.229 -0.1544  0.0553  0.2337
  189SAPI   H3X21844   6.025   1.442   6.260  0.9027 -0.2945 -1.0031
  189SAPI   H3Y21845   6.113   1.579   6.175 -0.5742  2.7214  0.8590
  189SAPI   C3421846   5.897   1.579   6.142 -0.0748  0.7304  0.1332
  189SAPI   H4X21847   5.884   1.690   6.141 -1.1945  0.6533  2.0794
  189SAPI   H4Y21848   5.812   1.533   6.197  2.0692 -0.9966  2.1892
  189SAPI   C3521849   5.906   1.520   5.998 -0.4021  0.4774 -0.1914
  189SAPI   H5X21850   5.805   1.539   5.955 -0.7952 -0.3157  0.3469
  189SAPI   H5Y21851   5.915   1.410   6.011  1.3574  0.5087 -0.8117
  189SAPI   C3621852   6.019   1.565   5.906 -0.7625  0.0410  0.6761
  189SAPI   H6X21853   6.114   1.551   5.962 -0.3253 -1.0192 -0.2799
  189SAPI   H6Y21854   6.003   1.671   5.879 -3.4371 -0.4823 -0.1103
  189SAPI   C3721855   6.033   1.501   5.762  0.0214 -0.3227 -0.0470
  189SAPI   H7X21856   6.036   1.390   5.765 -3.4212 -0.5406 -0.7575
  189SAPI   H7Y21857   6.134   1.531   5.726  0.7889 -0.5568  1.7937
  189SAPI   C3821858   5.930   1.553   5.661 -0.3476 -0.1953  0.2042
  189SAPI   H8X21859   5.932   1.663   5.677 -0.7432 -0.0456 -0.6770
  189SAPI   H8Y21860   5.833   1.512   5.696  0.1838 -1.0065  0.7650
  189SAPI   C3921861   5.973   1.533   5.510  0.2109  0.5880 -0.5373
  189SAPI   H9X21862   5.994   1.425   5.502 -0.6210  0.3980 -0.2399
  189SAPI   H9Y21863   6.070   1.587   5.507  0.4815  0.1079 -0.3966
  189SAPI  C31021864   5.871   1.574   5.410  0.0101 -0.0794  0.3347
  189SAPI  H10X21865   5.920   1.634   5.331  0.3580 -2.4534 -1.3322
  189SAPI  H10Y21866   5.783   1.629   5.452  0.4018 -0.1343  1.2552
  189SAPI  C31121867   5.819   1.453   5.344 -0.3969 -0.6765 -0.1787
  189SAPI  H11X21868   5.789   1.383   5.425  0.8208  0.2520  1.1236
  189SAPI  H11Y21869   5.907   1.405   5.295  0.4956 -0.0633  0.7874
  189SAPI  C31221870   5.721   1.472   5.230  0.3513  0.7819  0.0992
  189SAPI  H12X21871   5.768   1.555   5.173  1.0300 -1.6167 -3.1625
  189SAPI  H12Y21872   5.625   1.518   5.263  0.6037  0.1119  1.8899
  189SAPI  C31321873   5.697   1.344   5.145 -0.2986  0.2107  0.4566
  189SAPI  H13X21874   5.657   1.265   5.212 -2.2890  0.1867 -0.7038
  189SAPI  H13Y21875   5.796   1.319   5.100 -0.4923  0.0238  0.1370
  189SAPI  C31421876   5.601   1.362   5.024  0.1217 -0.2176  0.2349
  189SAPI  H14X21877   5.629   1.451   4.964  1.9025 -0.6700  0.3579
  189SAPI  H14Y21878   5.500   1.360   5.072 -0.1187  0.3182 -0.2363
  189SAPI  C31521879   5.594   1.241   4.926 -0.4423 -0.1762  0.7599
  189SAPI  H15X21880   5.689   1.214   4.875  0.2499  0.3525  1.7215
  189SAPI  H15Y21881   5.522   1.272   4.847 -0.5570 -0.6001  0.6984
  189SAPI  C31621882   5.541   1.114   4.989 -0.9993  0.1658  0.0627
  189SAPI  H16X21883   5.606   1.096   5.077 -0.7590 -0.5118 -0.2439
  189SAPI  H16Y21884   5.572   1.033   4.919 -2.7386  0.6281 -1.3070
  189SAPI  C31721885   5.399   1.102   5.029 -0.0717  0.4533 -0.6255
  189SAPI  H17X21886   5.328   1.116   4.945 -1.4885 -1.2052  0.2280
  189SAPI  H17Y21887   5.370   1.175   5.108  1.6920 -1.1697  1.6444
  189SAPI  C31821888   5.384   0.967   5.088 -0.6704 -0.4156 -0.3405
  189SAPI  H18X21889   5.277   0.945   5.110 -0.8916  1.5243  0.7557
  189SAPI  H18Y21890   5.444   0.959   5.181 -1.2935 -0.2458  0.0807
  189SAPI  H18Z21891   5.425   0.892   5.017  0.0334 -2.2246  1.8995
  190SAPI   C1221892   6.256   5.844   7.452 -0.1077 -0.4803  0.5436
  190SAPI    H221893   6.238   5.858   7.343 -2.5921  3.8705  1.2963
  190SAPI    O221894   6.288   5.706   7.473 -0.3515  0.7989  0.8680
  190SAPI   HO221895   6.310   5.693   7.566 -0.4291  1.2250  0.9440
  190SAPI   C1321896   6.370   5.939   7.497 -0.6895 -0.5104  0.2357
  190SAPI    H321897   6.335   6.045   7.495  3.9096  1.2375 -1.9394
  190SAPI    O321898   6.488   5.934   7.411  0.0699 -0.2806  0.7017
  190SAPI   HO321899   6.487   5.844   7.377  1.3804  0.3830 -1.2632
  190SAPI   C1421900   6.416   5.916   7.639 -0.0555  0.6922 -0.3477
  190SAPI    H421901   6.453   5.812   7.644  1.8488  1.3689  0.9658
  190SAPI    O421902   6.524   5.996   7.686 -0.4589  0.0624  1.0424
  190SAPI   HO421903   6.588   5.937   7.726 -0.7706 -1.4561 -0.5465
  190SAPI   C1521904   6.294   5.923   7.725  0.5050  0.3103  0.3345
  190SAPI    H521905   6.288   6.032   7.748 -0.0865  0.2423  0.5091
  190SAPI    O521906   6.315   5.863   7.845  0.7096  0.4296  0.4137
  190SAPI   HO521907   6.324   5.943   7.899 -0.2626  0.7379  0.1362
  190SAPI   C1621908   6.150   5.882   7.673 -0.6235 -0.5671  0.0506
  190SAPI    H621909   6.124   5.779   7.704 -2.0323 -0.1568  0.2969
  190SAPI    O621910   6.051   5.969   7.726  0.2970  0.0786  0.6368
  190SAPI   HO621911   5.968   5.926   7.706  0.8588  0.2310 -2.6039
  190SAPI   C1121912   6.131   5.885   7.518 -0.2416 -0.3441  0.0348
  190SAPI    H121913   6.119   5.991   7.486  0.0738 -0.7837 -1.6564
  190SAPI     P21914   5.933   5.855   7.353 -0.6029  0.1374  0.3042
  190SAPI   O1321915   5.903   6.002   7.368 -0.5906  0.0432  0.5539
  190SAPI   O1421916   5.814   5.766   7.349 -0.0013 -0.1445  0.1034
  190SAPI   O1221917   6.018   5.803   7.481  0.3092  0.9196  0.5608
  190SAPI   O1121918   6.016   5.821   7.225  0.4483  0.1809 -0.1130
  190SAPI    C121919   5.957   5.800   7.101  0.6286  0.4114  0.4543
  190SAPI    HA21920   6.009   5.713   7.055  0.9143  0.3097  0.9622
  190SAPI    HB21921   5.855   5.755   7.104  0.2026  1.3954  1.4778
  190SAPI    C221922   5.977   5.926   7.011  0.7524  0.4489  1.2135
  190SAPI    HS21923   5.905   6.005   7.041 -0.5485  0.0858 -0.7416
  190SAPI   O2121924   5.948   5.887   6.872 -0.0262 -0.4401 -0.8971
  190SAPI   C2121925   5.813   5.889   6.846  0.0044 -0.6097 -0.2041
  190SAPI   O2221926   5.718   5.915   6.923 -0.4967 -0.1441  0.2109
  190SAPI   C2221927   5.791   5.828   6.708  0.1865  0.5423 -0.2638
  190SAPI   H2R21928   5.770   5.719   6.709 -0.1915  0.6138  0.0393
  190SAPI   H2S21929   5.698   5.878   6.673 -0.0721 -1.5350 -2.8490
  190SAPI    C321930   6.119   5.984   7.017 -0.2182 -0.6024  0.0408
  190SAPI    HX21931   6.183   5.899   6.985 -2.7191 -2.5250 -0.1173
  190SAPI    HY21932   6.141   6.019   7.120 -0.5684 -0.7404  0.1623
  190SAPI   O3121933   6.131   6.103   6.933 -0.3159  0.2530 -0.6759
  190SAPI   C3121934   6.250   6.141   6.907  0.2430  0.0798  0.5176
  190SAPI   O3221935   6.351   6.091   6.959 -0.6560 -0.1453  0.4338
  190SAPI   C3221936   6.242   6.253   6.805  0.1529  0.1183  0.0672
  190SAPI   H2X21937   6.329   6.322   6.809 -2.0753  3.2444 -1.3620
  190SAPI   H2Y21938   6.154   6.315   6.830  0.2404 -0.4626  2.0299
  190SAPI   C2321939   5.901   5.852   6.606 -0.7163  0.0419  0.2205
  190SAPI   H3R21940   5.997   5.807   6.641 -1.0595  1.0756  2.7668
  190SAPI   H3S21941   5.927   5.960   6.605  0.2786 -0.1355  1.8841
  190SAPI   C2421942   5.862   5.806   6.466 -0.4573 -0.5179  0.1578
  190SAPI   H4R21943   5.825   5.702   6.466  1.6311 -1.3124 -0.3111
  190SAPI   H4S21944   5.953   5.808   6.401  0.2290  0.8873  1.0896
  190SAPI   C2521945   5.765   5.907   6.403 -0.0084  0.0819 -0.0057
  190SAPI   H5R21946   5.722   5.983   6.470  0.0770  2.2428 -2.2414
  190SAPI   C2621947   5.756   5.931   6.272 -0.3427  0.2946 -0.6299
  190SAPI   H6R21948   5.661   5.977   6.239  0.1686  0.2849 -2.1505
  190SAPI   C2721949   5.823   5.862   6.153 -0.6700  0.5548  0.6910
  190SAPI   H7R21950   5.919   5.817   6.185 -0.4080  1.1396  0.7331
  190SAPI   H7S21951   5.866   5.930   6.076  0.8323 -1.1273 -0.0167
  190SAPI   C2821952   5.726   5.756   6.097 -1.0072  0.3873 -0.1455
  190SAPI   H8R21953   5.681   5.696   6.178  1.3471  0.1982  1.1147
  190SAPI   C2921954   5.695   5.727   5.972  0.0255  0.8467 -0.0595
  190SAPI   H9R21955   5.633   5.638   5.954  0.7525  0.1189  0.9204
  190SAPI  C21021956   5.724   5.794   5.838 -0.7111 -0.6224 -0.1625
  190SAPI  H10R21957   5.758   5.715   5.767 -0.3876 -0.1111 -0.5819
  190SAPI  H10S21958   5.813   5.859   5.850 -0.0553 -1.5754  0.2392
  190SAPI  C21121959   5.609   5.875   5.780 -0.2030 -0.0955 -0.1960
  190SAPI  H11R21960   5.592   5.974   5.825 -0.8949 -1.3016  2.3547
  190SAPI  C21221961   5.547   5.855   5.664  0.2596  0.1637 -0.0943
  190SAPI  H12R21962   5.464   5.924   5.641  0.6326  1.3981  1.9785
  190SAPI  C21321963   5.552   5.733   5.576 -0.2311 -1.0699 -0.1882
  190SAPI  H13R21964   5.483   5.649   5.602  0.3968 -2.3447 -2.3984
  190SAPI  H13S21965   5.657   5.696   5.581  1.8052  3.9272 -0.4297
  190SAPI  C21421966   5.508   5.755   5.436  0.3836  0.5831 -0.6253
  190SAPI  H14R21967   5.404   5.725   5.418  0.0101  1.5851 -0.1590
  190SAPI  C21521968   5.573   5.810   5.331 -0.2507  0.3097 -0.0363
  190SAPI  H15R21969   5.519   5.814   5.235  1.3075 -1.9433 -1.0840
  190SAPI  C21621970   5.713   5.868   5.338 -0.3841 -0.0031 -0.7213
  190SAPI  H16R21971   5.755   5.842   5.437 -2.8624  3.4418  1.4219
  190SAPI  H16S21972   5.696   5.977   5.325 -0.1100 -0.1005 -2.1525
  190SAPI  C21721973   5.807   5.829   5.222  0.3996  0.2597 -0.6798
  190SAPI  H17R21974   5.750   5.859   5.131 -1.2285  3.2525  1.1286
  190SAPI  H17S21975   5.832   5.721   5.224 -0.0189  0.1659  1.0277
  190SAPI  C21821976   5.942   5.915   5.217  0.6551 -0.5829 -0.2679
  190SAPI  H18R21977   6.008   5.894   5.304 -2.3857 -2.0499  1.8565
  190SAPI  H18S21978   5.912   6.022   5.224 -0.4264 -0.8980  0.1434
  190SAPI  C21921979   6.011   5.893   5.084 -1.0410 -0.2879  0.4170
  190SAPI  H19R21980   6.073   5.981   5.058 -0.9516 -0.0369  1.4222
  190SAPI  H19S21981   5.935   5.872   5.006 -0.1557  1.0014 -0.8413
  190SAPI  C22021982   6.112   5.770   5.074 -0.1406 -0.3049  0.1152
  190SAPI  H20R21983   6.073   5.666   5.085 -0.3438 -0.1208  1.1920
  190SAPI  H20S21984   6.192   5.789   5.149 -1.5639  1.1503  1.3263
  190SAPI  H20T21985   6.160   5.775   4.974  1.1583  0.6439  0.7706
  190SAPI   C3321986   6.227   6.196   6.665 -0.3167  0.0397 -0.5842
  190SAPI   H3X21987   6.135   6.132   6.666 -0.1556 -0.2759  2.3581
  190SAPI   H3Y21988   6.308   6.122   6.648 -1.1164 -1.1061  0.3706
  190SAPI   C3421989   6.241   6.313   6.566  0.3956 -0.2399 -0.2530
  190SAPI   H4X21990   6.329   6.378   6.581 -0.7422  1.2529  0.2507
  190SAPI   H4Y21991   6.157   6.383   6.582 -1.0984 -1.3526 -2.5741
  190SAPI   C3521992   6.246   6.263   6.420 -0.2175 -0.0343 -0.0622
  190SAPI   H5X21993   6.179   6.175   6.420  0.1761 -0.3523 -1.4315
  190SAPI   H5Y21994   6.351   6.231   6.404 -0.0452 -2.2819  4.1439
  190SAPI   C3621995   6.194   6.370   6.329  0.3375  0.0765 -0.1925
  190SAPI   H6X21996   6.256   6.462   6.321  1.6547 -0.4451  2.7672
  190SAPI   H6Y21997   6.093   6.388   6.373  0.5452 -1.1709  0.8176
  190SAPI   C3721998   6.177   6.313   6.186 -0.0958 -0.4437 -0.0852
  190SAPI   H7X21999   6.128   6.213   6.178  0.0119 -0.4398 -0.9099
  190SAPI   H7Y22000   6.276   6.298   6.136  0.6892  0.6695  1.0686
  190SAPI   C3822001   6.110   6.409   6.091  0.0395  0.4878 -0.4831
  190SAPI   H8X22002   6.148   6.513   6.104 -0.6129  0.8110 -1.0943
  190SAPI   H8Y22003   6.003   6.410   6.119  0.6957 -1.8712  2.6868
  190SAPI   C3922004   6.118   6.360   5.948  0.2883  0.0963  0.1535
  190SAPI   H9X22005   6.057   6.267   5.941 -0.1746  0.4956 -1.3907
  190SAPI   H9Y22006   6.223   6.347   5.916 -0.3267 -0.5737 -1.7011
  190SAPI  C31022007   6.047   6.456   5.851 -0.4999 -0.2034 -0.1984
  190SAPI  H10X22008   6.077   6.561   5.870 -0.0198 -0.5543  1.0177
  190SAPI  H10Y22009   5.937   6.448   5.866 -0.5012  0.6241  0.3119
  190SAPI  C31122010   6.074   6.417   5.707  0.2283 -0.5385  1.0010
  190SAPI  H11X22011   6.033   6.319   5.673  1.8439 -0.8111 -0.2879
  190SAPI  H11Y22012   6.184   6.416   5.698  0.0810 -1.3147 -1.3852
  190SAPI  C31222013   6.022   6.522   5.609 -0.9518  0.2835  0.1617
  190SAPI  H12X22014   6.053   6.621   5.649 -0.5700 -0.7278  2.5009
  190SAPI  H12Y22015   5.911   6.516   5.607 -0.8782 -2.4972 -0.2684
  190SAPI  C31322016   6.081   6.512   5.462  0.1684 -0.3929 -0.4612
  190SAPI  H13X22017   6.187   6.481   5.465 -0.4225 -2.5834 -0.7403
  190SAPI  H13Y22018   6.070   6.611   5.412  0.7166 -0.6813 -1.1696
  190SAPI  C31422019   6.010   6.413   5.369 -0.8685  0.7872 -0.8473
  190SAPI  H14X22020   5.900   6.416   5.383 -0.9758 -1.1866 -1.0929
  190SAPI  H14Y22021   6.053   6.315   5.398 -0.0766  1.3233 -0.1510
  190SAPI  C31522022   6.060   6.438   5.227  0.2501 -0.0616 -0.5906
  190SAPI  H15X22023   6.013   6.530   5.188  0.0162  0.2581  0.4107
  190SAPI  H15Y22024   6.021   6.346   5.177 -1.1172 -1.0248  2.0156
  190SAPI  C31622025   6.214   6.441   5.207 -0.0661  0.0100  0.3596
  190SAPI  H16X22026   6.254   6.361   5.272 -1.8951 -2.1034 -0.9669
  190SAPI  H16Y22027   6.253   6.541   5.237 -1.4258  0.3562  1.0645
  190SAPI  C31722028   6.254   6.405   5.059  0.4297 -0.5260  0.5770
  190SAPI  H17X22029   6.203   6.462   4.978 -0.3012 -0.1016  1.3329
  190SAPI  H17Y22030   6.220   6.301   5.040  1.0113 -0.2532 -2.5376
  190SAPI  C31822031   6.407   6.423   5.043 -0.3528  0.0511 -0.6125
  190SAPI  H18X22032   6.461   6.364   5.119  0.4489 -0.4796 -1.5740
  190SAPI  H18Y22033   6.419   6.532   5.057 -1.3885  0.0056  0.9323
  190SAPI  H18Z22034   6.424   6.397   4.936 -1.2490  0.8171 -0.9641
  191SAPI   C1222035   1.340   5.257   2.364  0.2012 -0.1544 -0.1187
  191SAPI    H222036   1.238   5.239   2.404  0.1527 -1.8348 -0.9379
  191SAPI    O222037   1.364   5.152   2.276  0.1379  0.3593  1.2758
  191SAPI   HO222038   1.406   5.077   2.319  0.7633  0.9399  1.7129
  191SAPI   C1322039   1.335   5.389   2.294  0.3240 -0.0984  0.5888
  191SAPI    H322040   1.325   5.466   2.373  1.0268  2.6293 -1.8009
  191SAPI    O322041   1.224   5.407   2.205 -0.3722  0.0668  0.3022
  191SAPI   HO322042   1.180   5.323   2.193  0.9214 -0.8148  1.4564
  191SAPI   C1422043   1.467   5.423   2.226 -0.8880  0.3071 -0.3385
  191SAPI    H422044   1.467   5.355   2.138  1.0963 -1.2815  0.8135
  191SAPI    O422045   1.470   5.554   2.184  0.2819 -0.2845  0.2505
  191SAPI   HO422046   1.475   5.625   2.249 -0.9962 -0.2225  0.2999
  191SAPI   C1522047   1.592   5.379   2.305 -0.0505 -0.2812 -0.0697
  191SAPI    H522048   1.612   5.475   2.357 -2.3231  0.1282  0.1130
  191SAPI    O522049   1.697   5.336   2.225 -0.4516 -0.7695  0.2546
  191SAPI   HO522050   1.775   5.340   2.281 -0.8640  0.3815  0.7708
  191SAPI   C1622051   1.579   5.287   2.433  0.4405  0.4236 -0.6096
  191SAPI    H622052   1.610   5.194   2.379  1.4986  2.1973 -3.2923
  191SAPI    O622053   1.660   5.309   2.545  0.4054 -0.0725 -0.0460
  191SAPI   HO622054   1.645   5.391   2.591 -0.5041  1.0822 -2.2377
  191SAPI   C1122055   1.439   5.257   2.478  0.5521  0.0432 -0.1479
  191SAPI    H122056   1.424   5.340   2.551  3.0091  1.6705 -1.3819
  191SAPI     P22057   1.356   5.104   2.687  0.3410 -0.3876 -0.2498
  191SAPI   O1322058   1.360   4.958   2.724  0.0251  0.3909 -0.2376
  191SAPI   O1422059   1.221   5.159   2.679  0.0361 -0.0797  0.7028
  191SAPI   O1222060   1.430   5.129   2.541 -0.6467  0.2026 -0.2777
  191SAPI   O1122061   1.435   5.196   2.799 -0.1109  0.2252  0.1721
  191SAPI    C122062   1.563   5.169   2.848 -0.3395  0.3797 -0.1621
  191SAPI    HA22063   1.593   5.063   2.864 -1.3627  0.1899  0.6291
  191SAPI    HB22064   1.641   5.223   2.791  0.0193 -2.1758 -2.2512
  191SAPI    C222065   1.576   5.238   2.991  0.2423  0.5284  0.3779
  191SAPI    HS22066   1.559   5.347   2.978 -1.7579  0.0632 -1.4011
  191SAPI   O2122067   1.704   5.204   3.047  0.2424 -0.2322  0.6381
  191SAPI   C2122068   1.787   5.300   3.042 -0.7412  0.0874  0.1704
  191SAPI   O2222069   1.772   5.413   3.003 -0.3388  0.2807 -0.4747
  191SAPI   C2222070   1.928   5.269   3.105  0.2936  0.2569  0.4199
  191SAPI   H2R22071   1.974   5.194   3.035  0.2076  0.8504 -0.2851
  191SAPI   H2S22072   1.978   5.368   3.100  0.0320  0.3550 -0.7097
  191SAPI    C322073   1.457   5.174   3.074  0.0083 -0.2033 -0.5551
  191SAPI    HX22074   1.491   5.069   3.080 -0.4320 -0.2761  1.5438
  191SAPI    HY22075   1.353   5.165   3.036 -0.6360 -0.6103  1.1812
  191SAPI   O3122076   1.451   5.228   3.210 -0.0645  0.2575  0.1198
  191SAPI   C3122077   1.396   5.349   3.219  0.8654 -0.4525 -0.2186
  191SAPI   O3222078   1.352   5.412   3.126 -0.0791  0.3663  0.5884
  191SAPI   C3222079   1.396   5.407   3.358  0.0772 -0.2158  0.3178
  191SAPI   H2X22080   1.372   5.514   3.338  2.7276  0.5689  0.9050
  191SAPI   H2Y22081   1.499   5.400   3.399  1.0032  1.3647 -1.5874
  191SAPI   C2322082   1.913   5.220   3.253  0.1809 -0.2146 -1.0447
  191SAPI   H3R22083   2.008   5.177   3.291  1.0735  2.2310 -0.2765
  191SAPI   H3S22084   1.832   5.144   3.253  0.2102 -0.2681  0.2442
  191SAPI   C2422085   1.878   5.340   3.349  0.5051  0.7388  0.5877
  191SAPI   H4R22086   1.832   5.308   3.445 -2.3248  1.7630 -0.3247
  191SAPI   H4S22087   1.799   5.399   3.299  1.3003 -1.3865 -3.6518
  191SAPI   C2522088   1.996   5.421   3.374  0.1280  0.1937 -0.0610
  191SAPI   H5R22089   2.060   5.454   3.291 -0.5920 -1.3716 -1.2951
  191SAPI   C2622090   2.031   5.473   3.500  0.3796 -0.1190  0.0512
  191SAPI   H6R22091   2.110   5.548   3.508  0.3759 -0.0463 -0.5068
  191SAPI   C2722092   1.966   5.446   3.631  0.0302 -0.2398 -0.0861
  191SAPI   H7R22093   1.907   5.352   3.634 -0.2797 -0.0336  0.8746
  191SAPI   H7S22094   1.898   5.529   3.660  0.0945  0.3601 -1.6072
  191SAPI   C2822095   2.080   5.427   3.731 -0.6329  0.6954 -0.3750
  191SAPI   H8R22096   2.174   5.378   3.701 -0.3780  1.7212 -1.3139
  191SAPI   C2922097   2.092   5.480   3.854 -0.3677 -0.7517 -0.4769
  191SAPI   H9R22098   2.177   5.460   3.920 -0.9990  2.3308  1.4839
  191SAPI  C21022099   1.990   5.556   3.937  0.1255  0.3000  0.4872
  191SAPI  H10R22100   1.970   5.645   3.874 -0.3455  0.5605  0.9945
  191SAPI  H10S22101   2.047   5.602   4.020  2.7771 -0.0584 -1.0121
  191SAPI  C21122102   1.861   5.485   3.979  0.7328  0.0581 -0.1334
  191SAPI  H11R22103   1.808   5.456   3.887 -0.9308 -1.1445  1.1591
  191SAPI  C21222104   1.821   5.472   4.106  0.5430 -0.6736  0.6009
  191SAPI  H12R22105   1.719   5.439   4.133 -0.9515  2.2205 -0.9834
  191SAPI  C21322106   1.912   5.518   4.218  0.0355  0.4026 -0.4098
  191SAPI  H13R22107   2.013   5.489   4.183  0.0764 -0.1586  0.1481
  191SAPI  H13S22108   1.890   5.453   4.306 -0.8892  1.0449 -0.1544
  191SAPI  C21422109   1.904   5.662   4.253  0.2400  0.3728  0.0138
  191SAPI  H14R22110   1.866   5.730   4.175 -1.7121  0.3644  0.8991
  191SAPI  C21522111   1.933   5.720   4.370 -0.0626  0.8241 -0.1406
  191SAPI  H15R22112   1.922   5.828   4.390 -0.4140  0.1560  4.2859
  191SAPI  C21622113   1.981   5.654   4.499  0.1508  0.0072  0.8584
  191SAPI  H16R22114   2.082   5.694   4.523  1.0936 -3.0451  2.6229
  191SAPI  H16S22115   1.982   5.543   4.498  2.2103 -0.0194  1.0580
  191SAPI  C21722116   1.887   5.693   4.622 -0.9581 -0.3571  0.6377
  191SAPI  H17R22117   1.901   5.625   4.709  1.1698  0.6470  1.1190
  191SAPI  H17S22118   1.784   5.673   4.584 -0.9592  0.1352  0.3730
  191SAPI  C21822119   1.902   5.838   4.673  0.5717  0.0523  0.3870
  191SAPI  H18R22120   1.899   5.904   4.584  2.5769 -2.7603 -2.0052
  191SAPI  H18S22121   2.003   5.865   4.712  0.8045 -1.4418  0.8931
  191SAPI  C21922122   1.804   5.869   4.787 -0.4007  0.3207 -0.2104
  191SAPI  H19R22123   1.836   5.803   4.870  1.1384 -0.5275 -1.4038
  191SAPI  H19S22124   1.712   5.818   4.752 -0.1596 -0.8117  0.7604
  191SAPI  C22022125   1.790   6.021   4.808 -0.2136 -0.6679  0.3462
  191SAPI  H20R22126   1.710   6.059   4.875  0.0936  1.1908 -0.2746
  191SAPI  H20S22127   1.766   6.068   4.710  0.6822 -0.8111  0.0485
  191SAPI  H20T22128   1.889   6.059   4.843 -0.5929 -1.4374  2.3604
  191SAPI   C3322129   1.300   5.334   3.454 -0.7137 -0.4290  0.3760
  191SAPI   H3X22130   1.330   5.366   3.556 -0.3431 -0.8943  0.4199
  191SAPI   H3Y22131   1.318   5.224   3.452  1.0692 -0.1883  0.9271
  191SAPI   C3422132   1.152   5.362   3.435 -0.4243  0.0007 -0.4819
  191SAPI   H4X22133   1.110   5.320   3.341 -3.6206  1.8867 -0.0662
  191SAPI   H4Y22134   1.123   5.470   3.432  1.0941  0.4138 -1.2506
  191SAPI   C3522135   1.061   5.303   3.545  0.6181 -0.7334  0.1334
  191SAPI   H5X22136   1.088   5.197   3.563 -0.9214 -1.0563  0.6759
  191SAPI   H5Y22137   0.952   5.308   3.525  0.1830 -0.9137  2.2655
  191SAPI   C3622138   1.078   5.382   3.674 -0.5019 -0.0710 -0.3302
  191SAPI   H6X22139   1.043   5.486   3.656 -1.0750  0.1154  1.6231
  191SAPI   H6Y22140   1.187   5.390   3.695  0.1084 -2.4934 -2.1296
  191SAPI   C3722141   1.000   5.336   3.796 -0.6025  0.6564  0.5197
  191SAPI   H7X22142   1.032   5.231   3.811  1.0644  1.2297  1.2114
  191SAPI   H7Y22143   0.892   5.340   3.773 -0.4149 -1.2925 -1.0659
  191SAPI   C3822144   1.032   5.413   3.920 -0.3852  0.7072 -1.3924
  191SAPI   H8X22145   0.983   5.513   3.923 -1.8464  0.0031  0.7277
  191SAPI   H8Y22146   1.140   5.434   3.930 -0.2408 -0.8777  1.9649
  191SAPI   C3922147   0.973   5.343   4.051  0.5009  0.6051  0.4200
  191SAPI   H9X22148   1.010   5.240   4.071  0.6738  0.4701 -0.5399
  191SAPI   H9Y22149   0.862   5.351   4.046  0.1987 -2.5393  0.2392
  191SAPI  C31022150   1.008   5.422   4.173  0.1539 -0.2172  0.3060
  191SAPI  H10X22151   0.981   5.529   4.158  0.5807  0.1435  1.9111
  191SAPI  H10Y22152   1.117   5.417   4.190  0.1833 -0.5978 -0.0045
  191SAPI  C31122153   0.936   5.383   4.301 -0.4985  0.3986  0.0523
  191SAPI  H11X22154   0.966   5.278   4.321 -2.2818 -0.3872 -1.2028
  191SAPI  H11Y22155   0.827   5.370   4.286 -0.7828  1.0960  1.3881
  191SAPI  C31222156   0.965   5.475   4.418  0.1775  0.0746 -0.2891
  191SAPI  H12X22157   0.913   5.568   4.389  3.1460  1.9308 -0.0858
  191SAPI  H12Y22158   1.071   5.500   4.441  0.1435  1.1150 -1.1791
  191SAPI  C31322159   0.901   5.424   4.554 -0.0726 -0.3859  0.4384
  191SAPI  H13X22160   0.938   5.325   4.586  0.6731  0.2137  1.4938
  191SAPI  H13Y22161   0.792   5.419   4.532 -0.1362  4.1998 -1.6455
  191SAPI  C31422162   0.906   5.532   4.663  0.4289  0.3841 -0.5111
  191SAPI  H14X22163   0.859   5.490   4.754 -0.6695  0.3537 -1.0807
  191SAPI  H14Y22164   0.849   5.621   4.628  0.0864  0.9834  1.4783
  191SAPI  C31522165   1.047   5.562   4.705  0.0696 -0.0557 -0.1542
  191SAPI  H15X22166   1.115   5.606   4.629 -0.4958  1.8100  0.3574
  191SAPI  H15Y22167   1.101   5.468   4.725  0.0338  0.2074  1.2689
  191SAPI  C31622168   1.051   5.637   4.828 -0.0820 -0.0121 -0.1638
  191SAPI  H16X22169   1.019   5.576   4.916 -2.3023  0.2157 -0.7372
  191SAPI  H16Y22170   0.983   5.725   4.817 -1.4694 -1.0229  0.0489
  191SAPI  C31722171   1.195   5.689   4.867 -0.1188  1.1327 -0.2434
  191SAPI  H17X22172   1.262   5.609   4.908 -0.2702  1.2180  0.1759
  191SAPI  H17Y22173   1.177   5.739   4.964  0.3241 -1.0519  1.0513
  191SAPI  C31822174   1.275   5.772   4.763  0.3523  0.0044 -0.3295
  191SAPI  H18X22175   1.238   5.877   4.767  0.6750  0.2178 -2.1092
  191SAPI  H18Y22176   1.277   5.728   4.661 -0.2696  0.5465 -0.5856
  191SAPI  H18Z22177   1.382   5.771   4.790  0.3207 -0.4758 -0.2184
  192SAPI   C1222178   4.229   4.714   3.100 -0.4230  0.1785  0.2047
  192SAPI    H222179   4.249   4.608   3.128  1.8929  0.5797  0.2220
  192SAPI    O222180   4.239   4.807   3.206 -0.6921 -0.1867 -0.2710
  192SAPI   HO222181   4.162   4.790   3.260  0.5479 -2.6495  0.8815
  192SAPI   C1322182   4.341   4.734   3.003  0.8278 -0.1001 -0.0291
  192SAPI    H322183   4.336   4.659   2.921  3.2611 -0.0190 -0.3232
  192SAPI    O322184   4.474   4.726   3.065  0.1809  0.4694  0.2042
  192SAPI   HO322185   4.526   4.695   2.990  2.0584  2.0016  0.7754
  192SAPI   C1422186   4.326   4.870   2.931  0.1073  0.7032 -0.0162
  192SAPI    H422187   4.326   4.951   3.007  1.1602  1.1043 -0.4261
  192SAPI    O422188   4.437   4.901   2.849  0.5554  0.5276  0.4486
  192SAPI   HO422189   4.414   4.980   2.800  1.0051  1.4655  1.6795
  192SAPI   C1522190   4.190   4.871   2.854  0.3903  0.9202  0.0636
  192SAPI    H522191   4.192   4.801   2.767 -1.3917  1.3697 -0.3890
  192SAPI    O522192   4.182   5.003   2.798  0.0507  0.1345  0.4036
  192SAPI   HO522193   4.211   5.070   2.860  0.5348 -1.0897  1.5433
  192SAPI   C1622194   4.069   4.847   2.946  0.5270  0.1169  0.0055
  192SAPI    H622195   4.053   4.939   3.006 -2.9148  0.5740 -1.3409
  192SAPI    O622196   3.945   4.828   2.873 -0.5047  0.2596  0.1843
  192SAPI   HO622197   3.889   4.774   2.928 -0.5074  0.3910  0.3110
  192SAPI   C1122198   4.087   4.728   3.036 -0.2762 -0.2428  0.1685
  192SAPI    H122199   4.080   4.640   2.968  0.5438  0.7344 -1.2250
  192SAPI     P22200   3.947   4.564   3.190  0.2301  0.2637 -0.0506
  192SAPI   O1322201   3.963   4.464   3.081  0.2921 -0.0743 -0.4478
  192SAPI   O1422202   3.820   4.580   3.264 -0.3714  0.2418 -0.6772
  192SAPI   O1222203   3.976   4.711   3.122  0.8002  0.4614 -0.8114
  192SAPI   O1122204   4.062   4.544   3.297  0.5100 -0.1258  0.3838
  192SAPI    C122205   4.124   4.419   3.319 -0.2047  0.7598 -0.0715
  192SAPI    HA22206   4.052   4.334   3.321  0.0956  0.5069  0.1572
  192SAPI    HB22207   4.198   4.409   3.237 -1.1409 -2.3689 -0.6957
  192SAPI    C222208   4.212   4.427   3.457 -0.5765  0.0137  0.0488
  192SAPI    HS22209   4.275   4.336   3.466  1.5997  1.3419 -1.0312
  192SAPI   O2122210   4.130   4.438   3.572  0.5058  0.5254 -0.4530
  192SAPI   C2122211   4.049   4.338   3.593 -0.0028 -0.1298  0.0282
  192SAPI   O2222212   4.046   4.231   3.527 -0.5722 -0.2025  1.0757
  192SAPI   C2222213   3.948   4.372   3.702 -0.2492 -0.3000  0.5359
  192SAPI   H2R22214   4.012   4.404   3.787  1.4845  0.6563 -1.0514
  192SAPI   H2S22215   3.883   4.458   3.673  0.1409 -0.1615  0.0732
  192SAPI    C322216   4.314   4.541   3.448 -0.7501 -0.0834 -0.1728
  192SAPI    HX22217   4.265   4.638   3.426  2.2276  1.1169 -2.0259
  192SAPI    HY22218   4.379   4.529   3.359  1.6933  0.3378  1.4658
  192SAPI   O3122219   4.401   4.542   3.562  0.3833  0.1996  0.0242
  192SAPI   C3122220   4.472   4.654   3.577 -0.0113  0.0650 -0.5730
  192SAPI   O3222221   4.457   4.749   3.504 -0.7001 -0.1860 -0.1926
  192SAPI   C3222222   4.580   4.652   3.690 -0.2400 -0.4247  0.0691
  192SAPI   H2X22223   4.667   4.596   3.650 -0.8200  0.1043 -2.0909
  192SAPI   H2Y22224   4.543   4.610   3.785  0.9624  3.7935  2.6664
  192SAPI   C2322225   3.842   4.269   3.726 -0.4477  0.2266 -0.0310
  192SAPI   H3R22226   3.803   4.236   3.628 -0.4542 -3.2713  1.0177
  192SAPI   H3S22227   3.757   4.321   3.777 -0.1580 -0.2676  0.9854
  192SAPI   C2422228   3.896   4.162   3.822 -0.0696 -0.1339  0.4397
  192SAPI   H4R22229   3.928   4.214   3.915  1.8984 -3.0746  1.5373
  192SAPI   H4S22230   3.986   4.106   3.790 -0.4525  0.3758 -1.6628
  192SAPI   C2522231   3.785   4.069   3.864  0.5746 -0.3734 -0.0278
  192SAPI   H5R22232   3.776   3.977   3.805 -1.8288  1.5988 -3.0275
  192SAPI   C2622233   3.677   4.096   3.949  0.3068 -0.0067 -0.6531
  192SAPI   H6R22234   3.597   4.020   3.961 -1.1175  1.2749 -1.6474
  192SAPI   C2722235   3.655   4.219   4.035 -0.8028 -0.1650  0.5759
  192SAPI   H7R22236   3.555   4.268   4.024 -0.6528  0.5747  2.1940
  192SAPI   H7S22237   3.727   4.297   4.001 -0.2006 -0.1769  1.7980
  192SAPI   C2822238   3.664   4.185   4.180 -0.2035 -0.4838  0.5290
  192SAPI   H8R22239   3.686   4.082   4.211 -0.1959 -0.3409  1.0228
  192SAPI   C2922240   3.646   4.278   4.275  0.7049  0.4450  0.0062
  192SAPI   H9R22241   3.652   4.243   4.379 -1.8428 -0.6525 -0.1401
  192SAPI  C21022242   3.638   4.419   4.244 -0.6302  0.7741 -0.6314
  192SAPI  H10R22243   3.543   4.446   4.192 -0.1034 -1.1592 -2.7451
  192SAPI  H10S22244   3.697   4.450   4.155 -2.9541 -0.4257 -2.7405
  192SAPI  C21122245   3.681   4.502   4.361  0.4609 -0.3464 -0.2186
  192SAPI  H11R22246   3.790   4.507   4.375  0.4761 -1.1454  0.0148
  192SAPI  C21222247   3.604   4.587   4.427  0.8586 -0.2652 -0.0329
  192SAPI  H12R22248   3.650   4.637   4.513 -3.3454  1.5856  1.3953
  192SAPI  C21322249   3.456   4.602   4.428 -0.2108 -0.2823  1.1689
  192SAPI  H13R22250   3.401   4.555   4.512 -1.1357 -2.0570 -0.3593
  192SAPI  H13S22251   3.415   4.553   4.337 -1.0584  1.9841  0.2528
  192SAPI  C21422252   3.411   4.743   4.434  0.2305 -0.1103 -0.4040
  192SAPI  H14R22253   3.373   4.782   4.338 -0.3536  2.1214  0.6672
  192SAPI  C21522254   3.424   4.829   4.536 -0.2935 -0.1111 -0.4945
  192SAPI  H15R22255   3.370   4.924   4.525 -2.0389 -1.1448 -1.2908
  192SAPI  C21622256   3.489   4.808   4.670 -0.5436 -0.2107 -0.5252
  192SAPI  H16R22257   3.577   4.874   4.683  0.8720 -2.1190  0.0451
  192SAPI  H16S22258   3.519   4.703   4.691 -0.5723 -0.0294  0.5080
  192SAPI  C21722259   3.381   4.818   4.778  0.0006 -0.0144  0.2898
  192SAPI  H17R22260   3.329   4.719   4.780 -0.6937  0.0622 -4.2334
  192SAPI  H17S22261   3.306   4.893   4.745  2.1520  2.1605  0.1220
  192SAPI  C21822262   3.437   4.857   4.915  0.3194  0.0878 -0.1388
  192SAPI  H18R22263   3.504   4.945   4.923  0.2207  0.2142 -0.6369
  192SAPI  H18S22264   3.506   4.779   4.954 -0.3966  0.8952  3.0302
  192SAPI  C21922265   3.321   4.868   5.019  0.6213  0.2988 -0.5088
  192SAPI  H19R22266   3.374   4.893   5.114 -0.3934 -0.3402  0.2616
  192SAPI  H19S22267   3.276   4.766   5.012 -0.4921  0.8243 -1.1622
  192SAPI  C22022268   3.217   4.985   5.003 -0.1746  0.2989 -0.2436
  192SAPI  H20R22269   3.190   4.998   4.896 -0.0151  0.0728 -0.3123
  192SAPI  H20S22270   3.272   5.079   5.028 -0.1622  0.1207  0.4221
  192SAPI  H20T22271   3.127   4.985   5.068  0.4810  2.8929  0.7869
  192SAPI   C3322272   4.641   4.789   3.730 -0.4372 -0.1764  0.3345
  192SAPI   H3X22273   4.664   4.844   3.637 -1.8939  1.4412  0.8826
  192SAPI   H3Y22274   4.742   4.781   3.776 -0.1433  0.7001 -0.1404
  192SAPI   C3422275   4.545   4.874   3.799  0.2060 -0.3837  0.2109
  192SAPI   H4X22276   4.441   4.852   3.770  0.9238 -1.4232 -1.7036
  192SAPI   H4Y22277   4.562   4.982   3.776 -1.0914 -0.1920  0.1245
  192SAPI   C3522278   4.569   4.852   3.954 -0.8218  0.7854 -0.5162
  192SAPI   H5X22279   4.676   4.827   3.975 -1.4961 -0.9216  1.1733
  192SAPI   H5Y22280   4.524   4.754   3.979  1.7086 -0.9047 -2.1338
  192SAPI   C3622281   4.532   4.971   4.036  0.8499 -0.4978  0.2914
  192SAPI   H6X22282   4.424   4.994   4.022  1.7051  2.6042 -2.1926
  192SAPI   H6Y22283   4.584   5.063   4.001  0.9620 -0.4191  0.6591
  192SAPI   C3722284   4.562   4.957   4.188  0.5170 -0.0671 -0.3860
  192SAPI   H7X22285   4.668   4.928   4.206  0.8052  1.1406 -0.0448
  192SAPI   H7Y22286   4.486   4.889   4.232  0.1819  0.8431  0.4625
  192SAPI   C3822287   4.548   5.102   4.237  0.3820  0.1340  0.7693
  192SAPI   H8X22288   4.447   5.143   4.213 -0.1125 -1.4420  0.0130
  192SAPI   H8Y22289   4.616   5.173   4.186 -1.3270  0.0492 -1.8008
  192SAPI   C3922290   4.554   5.101   4.389 -0.1672 -0.3048 -0.0043
  192SAPI   H9X22291   4.649   5.052   4.418  1.3583  2.4386  0.0230
  192SAPI   H9Y22292   4.470   5.041   4.429 -0.1148 -1.1970 -1.1806
  192SAPI  C31022293   4.554   5.244   4.444 -0.0363  0.1457  0.2086
  192SAPI  H10X22294   4.473   5.299   4.392  0.4807 -0.8097 -1.6845
  192SAPI  H10Y22295   4.655   5.283   4.416 -0.3889  2.1546  1.5157
  192SAPI  C31122296   4.524   5.267   4.593  1.2386  0.0576  0.1155
  192SAPI  H11X22297   4.606   5.231   4.659 -1.3826 -0.9462  3.0773
  192SAPI  H11Y22298   4.441   5.199   4.620  1.3712  0.2204  0.9580
  192SAPI  C31222299   4.497   5.415   4.629 -0.1479  0.2906  0.1468
  192SAPI  H12X22300   4.405   5.442   4.573 -1.9992 -2.4925  1.6062
  192SAPI  H12Y22301   4.575   5.488   4.599 -0.1533  0.0334 -0.5069
  192SAPI  C31322302   4.449   5.429   4.768 -0.4979  0.9322 -0.8283
  192SAPI  H13X22303   4.376   5.346   4.780 -1.4636  1.8546 -0.1880
  192SAPI  H13Y22304   4.384   5.518   4.779 -3.3698 -1.0075 -1.0519
  192SAPI  C31422305   4.572   5.415   4.873  0.1731  0.0029  0.8388
  192SAPI  H14X22306   4.640   5.491   4.828 -1.2579  0.3090 -0.9581
  192SAPI  H14Y22307   4.629   5.320   4.865 -1.1948 -0.8386  0.6935
  192SAPI  C31522308   4.527   5.448   5.018 -0.3996  0.3515 -0.1075
  192SAPI  H15X22309   4.456   5.368   5.047 -1.2446 -0.0013 -2.8304
  192SAPI  H15Y22310   4.472   5.544   5.016  0.2269  0.7275  0.5079
  192SAPI  C31622311   4.650   5.472   5.114  0.1216 -0.6118  0.3797
  192SAPI  H16X22312   4.685   5.574   5.086 -1.6201 -0.1349 -0.2028
  192SAPI  H16Y22313   4.722   5.388   5.116  1.2760  0.3402 -0.1067
  192SAPI  C31722314   4.603   5.490   5.262 -0.3127  0.7810  0.1634
  192SAPI  H17X22315   4.697   5.510   5.318 -1.0300  1.7841  1.0545
  192SAPI  H17Y22316   4.562   5.399   5.311 -2.2650  1.4202 -0.2246
  192SAPI  C31822317   4.502   5.599   5.287  0.4246 -1.0991  0.8659
  192SAPI  H18X22318   4.411   5.576   5.229  1.1191  0.4521 -0.9522
  192SAPI  H18Y22319   4.542   5.701   5.266 -2.1178 -0.5144 -1.7692
  192SAPI  H18Z22320   4.473   5.587   5.394 -0.1016  0.8235  0.9869
  193SOD    SOD22321   0.992   1.440   1.245 -0.1571  0.0328  0.2893
  194SOD    SOD22322   0.261   0.367   7.535 -0.0495  0.1913 -0.7224
  195SOD    SOD22323   2.991   3.673   7.642  0.0200 -0.6518 -0.8572
  196SOD    SOD22324   3.408   3.807   1.515 -0.1992 -0.2520  0.6563
  197SOD    SOD22325   6.082   2.716   7.119  0.2128  0.3201 -0.1432
  198SOD    SOD22326   2.354   4.999   0.490  0.1201 -0.0932 -0.4027
  199SOD    SOD22327   1.133   2.733   0.270 -0.7557  0.1429 -0.3580
  200SOD    SOD22328   3.008   0.925   1.008 -0.8849  0.1213  0.1497
  201SOD    SOD22329   4.892   2.572   0.388 -0.1125  0.1951  0.1973
  202SOD    SOD22330   3.398   6.547   8.354 -0.0652  0.0465 -0.6247
  203SOD    SOD22331   5.581   6.166   7.208 -0.3295 -0.2354  0.5820
  204SOD    SOD22332   1.350   5.152   7.777 -0.4435 -0.3286  0.2073
  205SOD    SOD22333   1.698   3.712   7.415  0.4181 -0.1850  0.1383
  206SOD    SOD22334   2.879   6.325   1.582 -0.6256 -0.1581 -0.1226
  207SOD    SOD22335   0.124   5.304   0.324  0.0062  0.2450  0.8148
  208SOD    SOD22336   5.035   5.767   1.484  0.2923 -0.1325 -0.2354
  209SOD    SOD22337   5.509   0.607   7.268 -0.1329  0.5320 -0.0583
  210SOD    SOD22338   2.769   2.557   2.195  0.6528 -0.3138 -0.0304
  211SOD    SOD22339   1.010   3.719   3.171 -0.2855  0.0247 -0.1566
  212SOD    SOD22340   1.394   4.950   1.847  0.1738  0.3485  0.3604
  213SOD    SOD22341   6.641   6.337   0.500 -0.2980  0.6124  0.8768
  214SOD    SOD22342   4.119   4.989   2.555 -0.0464 -0.5139  0.1872
  215SOD    SOD22343   2.129   1.510   0.275  0.2323 -0.2064  0.2209
  216SOD    SOD22344   0.122   0.464   0.067  0.0547 -0.1477 -0.3730
  217SOD    SOD22345   1.609   2.386   2.966 -0.0345  0.0392 -0.0407
  218SOD    SOD22346   4.819   6.603   3.040  0.2059 -0.3833  0.2248
  219SOD    SOD22347   6.447   0.570   2.563 -0.5734 -0.2848  0.0138
  220SOD    SOD22348   1.955   4.329   8.506 -0.1099  0.0786 -0.4546
  221SOD    SOD22349   0.121   2.025   2.885  0.3485 -0.2663  0.2068
  222SOD    SOD22350   5.368   2.467   7.633  0.3439  0.3759  0.3894
  223SOD    SOD22351   0.736   6.474   1.977 -0.3830 -0.1427  0.3209
  224SOD    SOD22352   1.080   5.528   1.512  0.0133 -0.1193 -0.2279
  225SOD    SOD22353   3.651   0.873   2.505  0.2360  0.9371 -0.1028
  226SOD    SOD22354   2.343   5.604   2.547 -0.1588  0.3256  0.5452
  227SOD    SOD22355   1.086   4.203   7.332 -0.0714 -0.4265  0.0481
  228SOD    SOD22356   0.911   4.406   1.947 -0.3613 -0.0291 -0.6238
  229SOD    SOD22357   4.948   1.321   1.029 -0.1820  0.3076  0.1617
  230CLA    CLA22358   1.249   4.385   2.337  0.2514 -0.0112  0.1529
  231CLA    CLA22359   6.119   1.502   8.478  0.1954  0.1654  0.0713
  232CLA    CLA22360   2.399   4.888   7.528 -0.0154 -0.3053 -0.8121
  233CLA    CLA22361   0.644   6.154   1.618  0.2643 -0.0638  0.0885
  234CLA    CLA22362   5.887   1.960   0.964  0.2169 -0.1386 -0.0855
  235CLA    CLA22363   4.554   3.265   8.637  0.4655  0.0154 -0.0830
  236CLA    CLA22364   0.998   6.319   1.383 -0.0313  0.2239 -0.1690
  237CLA    CLA22365   0.768   5.212   0.397 -0.1437  0.4133  0.1750
  238CLA    CLA22366   2.755   5.168   8.044 -0.1650  0.1649  0.2998
  239CLA    CLA22367   2.268   5.388   1.011  0.6874  0.8010  0.2998
  240CLA    CLA22368   3.093   1.503   1.220 -0.1721  0.4300 -0.4370
  241CLA    CLA22369   2.568   6.656   1.338  0.0429  0.3450 -0.0253
  242CLA    CLA22370   2.891   3.264   2.306 -0.2000  0.3166  0.0272
  243CLA    CLA22371   1.841   2.657   1.202  0.0905 -0.2684  0.1644
  244CLA    CLA22372   2.335   1.534   1.822  0.1624  0.1647 -0.1424
  245CLA    CLA22373   2.425   5.587   1.398  0.2257 -0.1967 -0.1295
  246CLA    CLA22374   1.229   4.142   1.325 -0.1006  0.4290  0.3228
  247TIP3   OH222375   1.862   2.975   1.454 -0.4847 -0.2433 -0.2444
  247TIP3    H122376   1.882   3.068   1.453 -3.0504  0.3960 -0.0264
  247TIP3    H222377   1.893   2.943   1.369 -1.8325  1.4137 -1.4420
  248TIP3   OH222378   3.029   1.164   0.990 -0.3554  0.1353 -0.0248
  248TIP3    H122379   2.972   1.219   1.043  0.5545  0.7379  0.3500
  248TIP3    H222380   3.114   1.208   0.993  0.7842 -2.0002  1.4125
  249TIP3   OH222381   1.939   5.347   2.362  0.4333 -0.4781  0.1012
  249TIP3    H122382   1.956   5.369   2.454  0.8899  2.2052 -0.5350
  249TIP3    H222383   2.019   5.304   2.332  2.0710  2.4238 -0.0584
  250TIP3   OH222384   1.572   6.332   0.840 -0.1760  0.6625  0.5552
  250TIP3    H122385   1.643   6.326   0.903 -0.0061  0.4101  0.3415
  250TIP3    H222386   1.573   6.248   0.794 -0.2611  0.8639  0.1774
  251TIP3   OH222387   4.428   4.788   1.697 -0.2647  0.1093  0.0606
  251TIP3    H122388   4.362   4.736   1.652  0.8880 -1.8499  0.5364
  251TIP3    H222389   4.413   4.772   1.790  0.9234 -0.4914  0.1731
  252TIP3   OH222390   2.288   2.689   0.245  0.2408 -0.4663 -0.5352
  252TIP3    H122391   2.212   2.634   0.226  0.1149  0.5216 -3.2170
  252TIP3    H222392   2.267   2.731   0.328 -1.4063 -1.4232 -0.4297
  253TIP3   OH222393   1.800   3.509   7.467 -0.4655 -0.2994 -0.2831
  253TIP3    H122394   1.862   3.512   7.540  0.6295  0.3670 -1.2065
  253TIP3    H222395   1.845   3.456   7.400 -1.3483 -0.6966 -0.5795
  254TIP3   OH222396   2.136   6.692   8.005 -0.1055  0.5080  0.0970
  254TIP3    H122397   2.069   6.657   8.063 -0.4727  0.3818 -0.3965
  254TIP3    H222398   2.219   6.672   8.049 -0.4020  0.9793  0.8833
  255TIP3   OH222399   2.267   1.334   1.189 -0.2774  0.1152 -0.1795
  255TIP3    H122400   2.181   1.378   1.193  0.4431  1.5469  0.5075
  255TIP3    H222401   2.270   1.280   1.268 -0.9830 -0.8419 -0.7861
  256TIP3   OH222402   4.443   0.067   1.848  0.0120  0.1732 -0.6817
  256TIP3    H122403   4.399   0.049   1.931 -0.5206  0.1809 -0.9571
  256TIP3    H222404   4.386   0.131   1.804  0.7795  0.9146 -0.6373
  257TIP3   OH222405   4.286   3.564   2.388 -0.2302  0.1108  0.2503
  257TIP3    H122406   4.254   3.642   2.434 -1.7229 -0.0002 -0.5283
  257TIP3    H222407   4.377   3.556   2.415  0.3916  2.9078 -0.6404
  258TIP3   OH222408   1.266   5.966   0.782  0.0504 -0.1069  0.2023
  258TIP3    H122409   1.210   5.951   0.707  2.3367  0.7283 -1.8135
  258TIP3    H222410   1.245   6.055   0.811  0.8617  0.5228 -1.0726
  259TIP3   OH222411   5.814   0.801   0.786 -0.0220 -0.3677  0.0453
  259TIP3    H122412   5.805   0.890   0.820  0.3758 -0.8586  1.4934
  259TIP3    H222413   5.877   0.809   0.715  1.0873  0.2985  1.0689
  260TIP3   OH222414   5.094   2.719   0.374 -0.0926  0.5867  0.1696
  260TIP3    H122415   5.159   2.649   0.374  0.9442  1.5296  0.2171
  260TIP3    H222416   5.130   2.785   0.432 -1.4379  0.8394  0.7597
  261TIP3   OH222417   0.987   2.858   2.570 -0.1422 -0.1935 -0.4712
  261TIP3    H122418   0.934   2.859   2.650  0.8743  0.9837  0.2084
  261TIP3    H222419   0.923   2.847   2.499 -1.0221 -1.7743  0.4994
  262TIP3   OH222420   2.005   0.196   8.418  0.0223  0.5998 -0.1904
  262TIP3    H122421   2.069   0.149   8.364  1.4013 -1.6392  3.0851
  262TIP3    H222422   1.921   0.160   8.391  0.7959 -1.5519  0.0963
  263TIP3   OH222423   6.358   6.120   1.125 -0.3081  0.3932 -0.3993
  263TIP3    H122424   6.399   6.033   1.121 -1.8281 -0.3510 -0.3405
  263TIP3    H222425   6.432   6.181   1.130  0.9971 -0.6082 -4.1268
  264TIP3   OH222426   6.512   4.124   1.538  0.3640 -0.0090 -0.4375
  264TIP3    H122427   6.547   4.042   1.574 -0.7402 -0.9513 -1.4283
  264TIP3    H222428   6.523   4.115   1.443  0.5450  1.1651 -0.5443
  265TIP3   OH222429   6.414   6.228   8.532  0.5032  0.1231  0.5706
  265TIP3    H122430   6.499   6.272   8.534  0.4900  0.1079  1.6480
  265TIP3    H222431   6.364   6.277   8.466  0.7377  1.2508  1.2055
  266TIP3   OH222432   1.596   1.327   8.528 -0.2783  0.1738  0.2953
  266TIP3    H122433   1.518   1.364   8.488 -0.7974 -0.2145  0.9325
  266TIP3    H222434   1.668   1.357   8.472 -0.7545  1.5082  0.3789
  267TIP3   OH222435   5.094   4.002   0.093 -0.2268  0.5497 -0.0065
  267TIP3    H122436   5.173   3.957   0.063 -1.8830 -0.9846 -2.3463
  267TIP3    H222437   5.078   4.069   0.027 -0.1515  1.8098  1.2133
  268TIP3   OH222438   3.388   3.169   1.185  0.8821 -0.2197 -0.4027
  268TIP3    H122439   3.459   3.233   1.177  1.5495 -1.1234 -1.9694
  268TIP3    H222440   3.362   3.150   1.095 -2.1932  0.9608  0.1031
  269TIP3   OH222441   4.145   6.645   2.421 -0.1202  0.5072  0.1408
  269TIP3    H122442   4.197   6.718   2.453 -0.4836  1.1898 -0.8101
  269TIP3    H222443   4.073   6.685   2.373 -0.6857 -0.4634  0.1478
  270TIP3   OH222444   4.414   3.927   8.054  0.4283  0.4658  0.3307
  270TIP3    H122445   4.355   3.865   8.097  1.9700 -1.1328  0.2758
  270TIP3    H222446   4.357   3.980   7.999 -1.3281  1.0826  2.5671
  271TIP3   OH222447   4.801   6.739   8.254 -0.6616 -0.1416 -0.6966
  271TIP3    H122448   4.875   6.799   8.268 -0.8957 -0.0821  0.3501
  271TIP3    H222449   4.727   6.796   8.234 -1.1202  0.0318  1.2805
  272TIP3   OH222450   3.087   2.569   0.072  0.1550  0.3400  0.2030
  272TIP3    H122451   3.068   2.549   0.164  1.1602  2.2588  0.9036
  272TIP3    H222452   3.182   2.561   0.065  0.3246  2.0574 -0.0987
  273TIP3   OH222453   4.332   4.389   8.264 -0.5137 -0.0232 -0.4256
  273TIP3    H122454   4.407   4.395   8.323 -1.4227 -1.1557  0.9249
  273TIP3    H222455   4.296   4.477   8.261 -1.0639 -0.1304  1.6031
  274TIP3   OH222456   4.513   5.024   7.564 -0.2479  0.2583 -0.6819
  274TIP3    H122457   4.487   5.108   7.525 -1.2491  0.6295  0.7110
  274TIP3    H222458   4.441   4.965   7.543  0.5706 -0.3734 -1.8820
  275TIP3   OH222459   3.011   1.491   1.774  0.2580 -0.8637  0.6274
  275TIP3    H122460   3.005   1.533   1.860  0.5715 -0.7844  0.6099
  275TIP3    H222461   3.055   1.556   1.718 -1.9870  0.0418 -0.2074
  276TIP3   OH222462   4.395   5.026   1.926 -0.4919  0.3854  0.3612
  276TIP3    H122463   4.376   5.116   1.954 -0.6525  0.0620  1.3568
  276TIP3    H222464   4.445   5.036   1.845  0.4728  1.3942  1.0501
  277TIP3   OH222465   2.567   1.073   2.718 -0.1147  0.5592 -0.0659
  277TIP3    H122466   2.510   1.149   2.704 -1.8593 -0.7111 -0.2104
  277TIP3    H222467   2.591   1.078   2.811  0.1318  1.5072 -0.1731
  278TIP3   OH222468   5.867   1.500   1.930 -0.1093 -0.0744 -0.2648
  278TIP3    H122469   5.879   1.447   2.009  1.4286 -1.1171 -1.1512
  278TIP3    H222470   5.851   1.588   1.963 -1.0931 -0.7671  1.2293
  279TIP3   OH222471   6.824   6.107   1.553 -0.2117  0.4830 -0.4223
  279TIP3    H122472   6.900   6.069   1.508 -1.9976 -3.7553 -0.3253
  279TIP3    H222473   6.750   6.081   1.498 -1.8002  3.0909  0.3474
  280TIP3   OH222474   0.954   0.546   1.181 -0.3464  0.3895  0.9618
  280TIP3    H122475   0.973   0.582   1.267 -0.6691  1.9818  0.4037
  280TIP3    H222476   0.861   0.521   1.185 -1.1384  2.9495  0.3139
  281TIP3   OH222477   6.019   4.282   1.737 -0.4715 -0.0403 -0.4229
  281TIP3    H122478   5.964   4.291   1.815 -1.4334  1.3055 -1.2125
  281TIP3    H222479   5.956   4.270   1.665  0.2758  1.0633 -1.2897
  282TIP3   OH222480   5.087   0.766   2.559 -0.1796  0.2987  0.4142
  282TIP3    H122481   5.067   0.796   2.471 -1.5206  0.4869  0.7621
  282TIP3    H222482   5.035   0.686   2.569 -1.7757  1.4546  1.7769
  283TIP3   OH222483   1.004   0.771   8.115  0.2944 -0.0353 -0.0757
  283TIP3    H122484   1.033   0.704   8.177  2.0766  1.6842  1.0902
  283TIP3    H222485   0.950   0.831   8.166 -0.7258 -0.1801 -0.9392
  284TIP3   OH222486   3.323   3.507   1.320 -0.4462 -0.6832 -0.6120
  284TIP3    H122487   3.380   3.583   1.308  1.6847 -2.0382  0.3683
  284TIP3    H222488   3.249   3.541   1.371  0.0104  0.9098 -0.9596
  285TIP3   OH222489   2.308   1.775   1.641 -0.4806 -0.2822  0.0410
  285TIP3    H122490   2.314   1.756   1.548  0.4663 -0.5110  0.1441
  285TIP3    H222491   2.327   1.692   1.684 -1.2132 -0.2540  0.4453
  286TIP3   OH222492   4.182   2.592   8.067  0.8084 -0.9114  0.2657
  286TIP3    H122493   4.128   2.552   8.135  1.0651  0.9486  1.6459
  286TIP3    H222494   4.119   2.635   8.009  0.6427 -1.7395 -0.1879
  287TIP3   OH222495   3.564   1.272   1.107 -0.1162  0.1768  0.1169
  287TIP3    H122496   3.609   1.350   1.075  0.3576  0.1936  0.7885
  287TIP3    H222497   3.632   1.223   1.153 -0.6393 -0.1123  0.5993
  288TIP3   OH222498   4.577   1.043   1.435  0.1029 -0.0063 -0.5775
  288TIP3    H122499   4.529   0.988   1.496 -0.0947  0.0911 -0.6442
  288TIP3    H222500   4.556   1.133   1.461  1.0015  0.0544 -0.0098
  289TIP3   OH222501   1.597   2.297   8.068 -0.0910  0.5255  0.2964
  289TIP3    H122502   1.686   2.333   8.062  0.2395 -0.1650  0.8296
  289TIP3    H222503   1.541   2.373   8.084  0.4298  0.9483  0.1206
  290TIP3   OH222504   0.818   0.635   2.025  0.6493  0.1631 -0.7643
  290TIP3    H122505   0.834   0.711   2.081 -0.8312 -0.9568  1.3083
  290TIP3    H222506   0.898   0.583   2.032  0.9308  0.6040 -0.6554
  291TIP3   OH222507   3.468   1.920   0.620 -0.5260 -0.1946  0.1717
  291TIP3    H122508   3.421   1.986   0.569 -1.8148  0.2487  1.8521
  291TIP3    H222509   3.500   1.966   0.697  0.1391 -1.1413  0.4858
  292TIP3   OH222510   5.499   5.942   8.430  0.0813  0.5518  0.1453
  292TIP3    H122511   5.449   6.016   8.465 -1.5240 -0.1209 -0.6478
  292TIP3    H222512   5.433   5.879   8.401  1.3730 -0.0161 -1.7570
  293TIP3   OH222513   1.884   3.534   6.599 -0.2699  0.2418  0.1952
  293TIP3    H122514   1.924   3.518   6.684  0.0483 -0.1346 -0.0266
  293TIP3    H222515   1.809   3.474   6.596 -1.6701  1.8602  1.1576
  294TIP3   OH222516   4.884   4.790   7.886 -0.3862  0.0382 -0.1304
  294TIP3    H122517   4.952   4.836   7.935  0.3036  0.3871 -1.3771
  294TIP3    H222518   4.805   4.843   7.897 -0.2471  0.1044  0.5871
  295TIP3   OH222519   3.094   4.138   1.261 -0.0451 -0.0300  0.1371
  295TIP3    H122520   3.000   4.157   1.259  0.2341  1.4114 -0.1521
  295TIP3    H222521   3.111   4.093   1.178 -0.1279  1.5624 -0.7680
  296TIP3   OH222522   5.545   0.092   1.734  0.1394  0.1916 -0.7587
  296TIP3    H122523   5.532   0.179   1.771 -0.5289  1.1033 -2.9972
  296TIP3    H222524   5.518   0.032   1.804  0.0932  1.7556  0.6366
  297TIP3   OH222525   6.452   5.215   0.084  0.3950 -0.1761 -0.7570
  297TIP3    H122526   6.419   5.258   0.163 -0.6066 -0.5689 -0.9478
  297TIP3    H222527   6.432   5.275   0.013 -1.4502 -1.1196 -1.0897
  298TIP3   OH222528   5.050   4.024   1.686  0.1837  0.2273  0.3712
  298TIP3    H122529   5.132   4.067   1.662 -0.5867  1.5613  0.0395
  298TIP3    H222530   5.042   4.038   1.780  0.4690 -0.1514  0.4537
  299TIP3   OH222531   0.223   4.580   0.134 -0.4248  0.6223  0.0225
  299TIP3    H122532   0.202   4.634   0.057 -1.0198  0.5482  0.1304
  299TIP3    H222533   0.156   4.604   0.198  0.0191  0.6168  0.4876
  300TIP3   OH222534   2.624   4.365   0.425  0.7082 -0.6269  1.0848
  300TIP3    H122535   2.693   4.303   0.400  1.8000  0.7768  0.4445
  300TIP3    H222536   2.609   4.418   0.346  0.1656  0.2355  1.7415
  301TIP3   OH222537   5.463   6.554   8.152 -0.5517  0.1552 -0.5563
  301TIP3    H122538   5.499   6.562   8.064 -0.9602  0.1268 -0.7238
  301TIP3    H222539   5.520   6.609   8.206  0.0641 -0.3055 -0.7271
  302TIP3   OH222540   0.691   0.266   1.499 -0.0403  0.1907 -0.6573
  302TIP3    H122541   0.782   0.260   1.529 -0.0956 -2.8638 -0.7853
  302TIP3    H222542   0.641   0.283   1.578  0.5955  1.9826 -0.5937
  303TIP3   OH222543   6.111   4.980   2.379 -0.6269 -0.2598 -0.8824
  303TIP3    H122544   6.144   4.952   2.464 -0.4977 -2.8526 -1.6921
  303TIP3    H222545   6.179   5.036   2.343 -0.1834 -0.0609  0.2351
  304TIP3   OH222546   0.239   4.349   7.533 -0.0703  1.2233 -0.1340
  304TIP3    H122547   0.170   4.403   7.574 -0.9397  1.1991 -1.5072
  304TIP3    H222548   0.203   4.260   7.535  0.8258  0.8646  0.9915
  305TIP3   OH222549   2.433   0.584   2.034  0.1447 -0.0300 -0.2314
  305TIP3    H122550   2.470   0.499   2.012  0.0465 -0.3260  0.6895
  305TIP3    H222551   2.349   0.587   1.989  1.4201  0.8366 -2.7379
  306TIP3   OH222552   4.922   6.235   2.459 -0.2526  1.0506  0.1480
  306TIP3    H122553   4.904   6.200   2.372  1.5277 -1.7668  0.8055
  306TIP3    H222554   4.950   6.325   2.442 -1.3044  1.0444 -2.0329
  307TIP3   OH222555   4.067   3.237   0.407  0.3509  0.0711 -0.5569
  307TIP3    H122556   3.999   3.295   0.440  0.2403 -0.1070 -0.4711
  307TIP3    H222557   4.061   3.159   0.463  0.6380  0.0647 -0.5346
  308TIP3   OH222558   4.860   5.706   2.661 -0.3935  0.0951 -0.0017
  308TIP3    H122559   4.890   5.680   2.748 -0.8373  1.0420  0.4421
  308TIP3    H222560   4.781   5.757   2.677 -0.5133  0.2239 -0.9657
  309TIP3   OH222561   5.807   1.052   2.050  0.2367  0.1602 -0.1218
  309TIP3    H122562   5.711   1.057   2.058  0.2740  1.1224 -0.2089
  309TIP3    H222563   5.834   0.994   2.121 -0.3721  0.2317  0.1740
  310TIP3   OH222564   0.464   2.994   0.095 -0.1611  0.0906  0.4716
  310TIP3    H122565   0.550   3.032   0.116  0.9602 -2.0876  0.0618
  310TIP3    H222566   0.429   2.966   0.179  0.1972 -0.3538  0.4741
  311TIP3   OH222567   3.707   1.006   1.934 -0.0244 -0.2291 -0.1020
  311TIP3    H122568   3.722   0.956   1.854  1.2531 -1.5566  0.9075
  311TIP3    H222569   3.639   1.070   1.910 -1.6157 -2.3037 -1.5263
  312TIP3   OH222570   5.942   6.138   2.238  0.0018  0.0186 -0.7204
  312TIP3    H122571   6.004   6.201   2.201  0.8747  0.2504  1.0282
  312TIP3    H222572   5.864   6.189   2.257  0.8262  0.6902  1.0057
  313TIP3   OH222573   4.554   2.202   8.551  0.0932 -0.6725  0.0421
  313TIP3    H122574   4.521   2.114   8.535 -2.8855  0.1430  0.9233
  313TIP3    H222575   4.501   2.258   8.493 -0.7843  0.8472  2.1782
  314TIP3   OH222576   6.189   0.568   0.501 -0.0749  0.2822  0.1889
  314TIP3    H122577   6.248   0.598   0.432  0.0664 -1.0078 -0.2727
  314TIP3    H222578   6.183   0.474   0.488 -1.0972  0.2005  1.1321
  315TIP3   OH222579   1.473   4.935   7.761  0.1816 -0.8074  0.1615
  315TIP3    H122580   1.456   4.888   7.679 -0.7305 -2.4810  1.2691
  315TIP3    H222581   1.533   4.878   7.809  0.8599  0.2548  0.6010
  316TIP3   OH222582   2.107   5.595   2.518 -0.0340  0.1576  0.9702
  316TIP3    H122583   2.039   5.541   2.557 -3.0448  0.8141 -2.8089
  316TIP3    H222584   2.063   5.676   2.493  2.5789  1.3597 -0.1200
  317TIP3   OH222585   0.973   2.916   0.304 -0.2141  0.0650  0.2215
  317TIP3    H122586   0.888   2.956   0.285  0.3601  0.9576 -0.5582
  317TIP3    H222587   0.966   2.888   0.395 -1.2203  0.4620  0.2806
  318TIP3   OH222588   3.341   0.176   1.940  0.2697  0.0770 -0.3917
  318TIP3    H122589   3.378   0.247   1.888 -0.2652  0.4650 -0.2500
  318TIP3    H222590   3.250   0.168   1.910 -0.1694  0.5812  0.7463
  319TIP3   OH222591   0.125   1.658   1.799  0.6852 -0.5488  0.8784
  319TIP3    H122592   0.186   1.622   1.863  0.0759  0.0039  1.7981
  319TIP3    H222593   0.056   1.700   1.852 -0.4765 -1.1205 -0.1225
  320TIP3   OH222594   1.270   3.598   7.191 -0.1109 -0.2760  0.3655
  320TIP3    H122595   1.202   3.665   7.185  1.0618  1.2212  2.5684
  320TIP3    H222596   1.261   3.564   7.280  2.7880  0.8787  1.1855
  321TIP3   OH222597   1.452   2.357   1.034 -0.3294  0.4793 -0.3894
  321TIP3    H122598   1.503   2.308   1.097 -0.2767 -0.5624 -1.2179
  321TIP3    H222599   1.506   2.433   1.013 -0.3317  0.8076  0.7627
  322TIP3   OH222600   6.872   3.356   1.310 -0.6914 -0.1347  0.4985
  322TIP3    H122601   6.854   3.416   1.237 -2.1947 -0.1043  0.8655
  322TIP3    H222602   6.840   3.271   1.280 -0.5859 -0.2906  0.8226
  323TIP3   OH222603   5.304   4.411   2.623 -0.0376  0.4557 -0.2283
  323TIP3    H122604   5.295   4.349   2.695  0.5914 -1.2186 -1.5204
  323TIP3    H222605   5.341   4.490   2.663  0.8395 -0.6352  1.1869
  324TIP3   OH222606   2.112   0.315   0.855  0.3426  0.0467 -0.4195
  324TIP3    H122607   2.113   0.327   0.950  1.3097 -0.3275 -0.3750
  324TIP3    H222608   2.174   0.381   0.822  0.8190 -0.5258 -0.6945
  325TIP3   OH222609   0.048   3.231   0.843  0.2004 -0.8837  0.7910
  325TIP3    H122610   0.007   3.318   0.838  1.2948 -0.4106 -0.6816
  325TIP3    H222611  -0.025   3.172   0.859 -1.0633 -0.0051 -1.2274
  326TIP3   OH222612   4.950   5.633   2.428  0.2881  0.0313 -0.3723
  326TIP3    H122613   4.901   5.690   2.369  0.6429  2.2467  1.3581
  326TIP3    H222614   4.939   5.673   2.515  1.8066 -1.7101  0.6967
  327TIP3   OH222615   6.700   0.854   6.660 -0.4259 -0.1935  0.1046
  327TIP3    H122616   6.608   0.880   6.669 -0.3417 -0.3682  1.6463
  327TIP3    H222617   6.749   0.934   6.681 -0.2048 -0.9119  2.5654
  328TIP3   OH222618   0.778   4.536   3.103  0.3337 -0.3803 -0.3415
  328TIP3    H122619   0.820   4.453   3.082 -0.3362 -1.0474  0.8311
  328TIP3    H222620   0.774   4.538   3.199 -0.9065  0.3555 -0.3805
  329TIP3   OH222621   1.445   1.563   7.347  0.2681  0.4780 -0.2387
  329TIP3    H122622   1.384   1.636   7.356  2.8678  3.1363 -2.1994
  329TIP3    H222623   1.528   1.597   7.379  1.3545 -2.1060 -0.0739
  330TIP3   OH222624   4.498   1.822   0.102 -0.4822  0.3877 -0.0538
  330TIP3    H122625   4.563   1.794   0.038 -1.3395 -0.7428 -0.4688
  330TIP3    H222626   4.525   1.781   0.184 -0.0128  0.8972  0.0448
  331TIP3   OH222627   0.997   2.639   1.199  0.8173 -0.1464  0.2014
  331TIP3    H122628   1.032   2.689   1.125  0.4179 -1.0245 -0.6144
  331TIP3    H222629   0.915   2.682   1.222  0.8008 -0.0389 -0.0596
  332TIP3   OH222630   0.935   5.160   0.128  0.6692 -0.2666  0.4084
  332TIP3    H122631   0.891   5.166   0.213 -2.2221  3.5759 -1.0592
  332TIP3    H222632   0.913   5.073   0.095 -2.7451  0.0448  1.4968
  333TIP3   OH222633   0.611   0.017   2.847  0.3551  0.5805  0.0581
  333TIP3    H122634   0.705   0.034   2.843  0.3745  0.4073 -0.3002
  333TIP3    H222635   0.571   0.100   2.818  0.4292  0.3113 -0.8596
  334TIP3   OH222636   5.893   3.218   1.108 -0.5484 -0.0643  0.1348
  334TIP3    H122637   5.970   3.232   1.053 -0.5689 -1.6810 -0.3645
  334TIP3    H222638   5.820   3.216   1.046 -1.1987  2.5567  0.7032
  335TIP3   OH222639   3.040   3.898   1.647  0.1265  0.3323 -0.0571
  335TIP3    H122640   3.006   3.986   1.632 -1.1991 -0.5587 -3.0490
  335TIP3    H222641   3.121   3.894   1.597  0.4209 -0.0308  0.4332
  336TIP3   OH222642   0.264   3.209   8.461 -0.3183 -0.0716  0.0098
  336TIP3    H122643   0.270   3.289   8.409  1.8960  0.3998  0.8736
  336TIP3    H222644   0.293   3.139   8.402  2.0455  0.4406  0.4576
  337TIP3   OH222645   5.098   1.018   2.309 -0.6510 -0.5643  0.2377
  337TIP3    H122646   5.176   1.068   2.332 -1.4685  0.6824  0.4546
  337TIP3    H222647   5.123   0.970   2.230  0.5789 -0.8533  0.7801
  338TIP3   OH222648   2.956   4.283   0.613 -0.2193  0.2623  0.2511
  338TIP3    H122649   2.972   4.377   0.619  0.2541  0.1545  0.8528
  338TIP3    H222650   2.866   4.272   0.644 -0.3217  0.5300  0.0521
  339TIP3   OH222651   4.446   5.110   2.637 -0.2996 -0.1983  0.1825
  339TIP3    H122652   4.381   5.141   2.574  1.0545  1.3445 -0.5504
  339TIP3    H222653   4.454   5.182   2.700  1.3862  0.1254 -0.3331
  340TIP3   OH222654   1.601   3.281   1.552 -0.2106  0.2127 -0.3736
  340TIP3    H122655   1.521   3.267   1.501  0.2450 -0.5157 -0.9036
  340TIP3    H222656   1.634   3.193   1.568  0.6650  0.5269 -0.4269
  341TIP3   OH222657   5.448   1.614   1.433  0.1143 -0.4162  0.2404
  341TIP3    H122658   5.420   1.682   1.494 -0.8953  0.0003 -0.6688
  341TIP3    H222659   5.457   1.659   1.349 -0.5359 -1.3818 -0.3688
  342TIP3   OH222660   4.703   3.443   0.699  0.2991 -0.0436  0.2538
  342TIP3    H122661   4.638   3.490   0.646  1.1379  0.9597  0.0790
  342TIP3    H222662   4.785   3.453   0.650  1.0509  0.7329  1.6199
  343TIP3   OH222663   3.804   1.797   0.833 -0.5426  0.1024  0.3774
  343TIP3    H122664   3.775   1.723   0.780 -3.0315  1.1846  0.0474
  343TIP3    H222665   3.773   1.777   0.921  1.3901 -0.5389  0.9656
  344TIP3   OH222666   0.257   3.706   1.003 -0.3149 -0.4977  0.5757
  344TIP3    H122667   0.276   3.757   0.925  1.9195 -1.9757  0.0542
  344TIP3    H222668   0.173   3.664   0.985 -2.4183  3.0391  1.1533
  345TIP3   OH222669   2.606   5.115   7.630 -0.2980 -1.1622  0.1661
  345TIP3    H122670   2.529   5.064   7.605 -1.8983  1.0405  0.2838
  345TIP3    H222671   2.641   5.148   7.546 -2.2267  1.4584  0.2487
  346TIP3   OH222672   5.148   0.466   8.675 -0.2480  0.3988 -0.2192
  346TIP3    H122673   5.239   0.441   8.657  0.0324  2.2224 -1.6759
  346TIP3    H222674   5.155   0.543   8.731 -0.8113  1.1696 -1.1604
  347TIP3   OH222675   4.308   4.456   7.828 -0.0179  0.5414 -0.3170
  347TIP3    H122676   4.272   4.415   7.907 -0.3532  1.6972  0.1512
  347TIP3    H222677   4.295   4.390   7.759 -1.3694  0.2116  0.2174
  348TIP3   OH222678   6.256   2.368   0.680 -0.3929 -0.0794  0.1684
  348TIP3    H122679   6.277   2.275   0.691  0.9299  0.1638 -0.2060
  348TIP3    H222680   6.273   2.386   0.588  0.1260  0.7179  0.4145
  349TIP3   OH222681   3.632   6.293   0.751 -0.5128  0.2205  0.1066
  349TIP3    H122682   3.606   6.219   0.805  0.2217  0.3277  0.6157
  349TIP3    H222683   3.720   6.272   0.721 -0.0508  1.1495  0.7533
  350TIP3   OH222684   6.220   1.440   1.379 -0.5373 -0.0725 -0.6479
  350TIP3    H122685   6.209   1.507   1.446 -0.0351  0.0231 -0.6562
  350TIP3    H222686   6.138   1.391   1.380 -0.3802 -0.3318  0.3229
  351TIP3   OH222687   3.305   1.301   0.183  0.2846 -0.0650  0.0392
  351TIP3    H122688   3.217   1.263   0.180 -0.3097  1.0176  2.0305
  351TIP3    H222689   3.295   1.381   0.235  2.0390  1.3111 -1.5569
  352TIP3   OH222690   0.776   2.386   8.460  0.1654 -0.2609  0.0375
  352TIP3    H122691   0.826   2.460   8.496 -0.4688  0.9936 -1.5204
  352TIP3    H222692   0.728   2.351   8.534 -0.9465  2.0850  0.5170
  353TIP3   OH222693   1.306   5.758   8.027 -0.1844 -0.1521  0.0261
  353TIP3    H122694   1.225   5.769   7.977 -0.1940  0.7844  0.2402
  353TIP3    H222695   1.369   5.724   7.963 -0.6964 -0.7387 -0.1759
  354TIP3   OH222696   1.245   1.771   8.161  0.3629  0.4841  0.4602
  354TIP3    H122697   1.244   1.783   8.256  0.4542  1.0779  0.3879
  354TIP3    H222698   1.336   1.754   8.140  0.5468  1.5490  0.3400
  355TIP3   OH222699   3.318   4.489   8.360 -0.8704 -0.2023  0.0723
  355TIP3    H122700   3.367   4.518   8.283  0.3945  0.0527  0.9434
  355TIP3    H222701   3.229   4.475   8.328 -1.2035  3.0662 -0.7882
  356TIP3   OH222702   2.030   6.477   1.165 -0.8100  0.6683 -0.5384
  356TIP3    H122703   2.080   6.398   1.184 -0.9830  0.9697  1.3235
  356TIP3    H222704   2.022   6.478   1.069  0.4055 -0.7977 -0.6871
  357TIP3   OH222705   2.692   3.560   0.328 -0.1398 -0.2860 -0.2171
  357TIP3    H122706   2.628   3.504   0.282  0.8409 -1.1735 -0.5316
  357TIP3    H222707   2.772   3.553   0.276  0.3067  0.5874  0.3327
  358TIP3   OH222708   1.196   6.394   0.024 -0.2020  0.3589 -0.1177
  358TIP3    H122709   1.107   6.425   0.038 -0.3701  0.6089 -1.6696
  358TIP3    H222710   1.247   6.436   0.094 -1.2436  0.3558  0.6734
  359TIP3   OH222711   2.607   0.336   0.574  0.4614 -0.5300 -0.3129
  359TIP3    H122712   2.568   0.422   0.589  2.2536  0.7546 -2.3906
  359TIP3    H222713   2.664   0.322   0.649  0.0358  0.0333  0.1220
  360TIP3   OH222714   4.300   2.885   2.422 -0.3939  0.0386  0.5775
  360TIP3    H122715   4.334   2.966   2.461 -0.8500  2.0548 -2.7909
  360TIP3    H222716   4.218   2.911   2.380  0.9925 -1.2596 -3.3448
  361TIP3   OH222717   0.791   3.747   8.621  0.0411 -0.4681  0.1605
  361TIP3    H122718   0.713   3.745   8.565 -0.5854 -0.8561  1.0147
  361TIP3    H222719   0.780   3.824   8.676  0.5704 -0.1790 -0.1331
  362TIP3   OH222720   1.579   1.326   0.860  0.0314 -0.0221 -0.0326
  362TIP3    H122721   1.538   1.292   0.780  2.5448  0.8517 -1.8409
  362TIP3    H222722   1.596   1.418   0.840  0.1915  0.3673  1.7865
  363TIP3   OH222723   5.934   0.051   0.608 -0.0774  0.2039  0.0443
  363TIP3    H122724   5.851   0.018   0.575 -0.6144  0.3158  1.2245
  363TIP3    H222725   5.917   0.143   0.627  0.2214  0.1506  0.5908
  364TIP3   OH222726   0.677   5.366   0.812  0.2009  0.3094 -0.3579
  364TIP3    H122727   0.669   5.312   0.890  0.7153  0.6433 -0.0681
  364TIP3    H222728   0.587   5.373   0.778 -0.4936  2.3679  1.6901
  365TIP3   OH222729   6.295   1.115   8.196  1.1671  0.0999  0.4757
  365TIP3    H122730   6.219   1.167   8.223 -0.8377 -2.0888 -0.6058
  365TIP3    H222731   6.365   1.142   8.255 -0.2410  2.6565  1.1187
  366TIP3   OH222732   2.568   4.838   0.932  0.0493 -0.1613 -0.0490
  366TIP3    H122733   2.639   4.898   0.955  0.6108  0.1251 -2.2970
  366TIP3    H222734   2.489   4.880   0.966  0.7319  0.4963  0.7619
  367TIP3   OH222735   0.008   3.888   2.436  0.1511  0.0550  0.2320
  367TIP3    H122736  -0.029   3.976   2.427 -1.9861 -0.8853 -0.9259
  367TIP3    H222737   0.101   3.899   2.417 -0.3952  1.7869 -1.8525
  368TIP3   OH222738   6.351   0.819   1.450  0.4017  0.0134  0.0487
  368TIP3    H122739   6.290   0.853   1.384  2.8531  2.9692 -0.9609
  368TIP3    H222740   6.326   0.728   1.461 -2.3543  0.3180 -2.3537
  369TIP3   OH222741   4.485   3.655   7.400 -0.0835  0.0511  0.1490
  369TIP3    H122742   4.509   3.724   7.461  0.5246  0.9329 -1.0462
  369TIP3    H222743   4.415   3.693   7.347  0.9901  0.1730 -1.2276
  370TIP3   OH222744   4.778   1.473   8.233  0.8965  0.8155 -0.3709
  370TIP3    H122745   4.699   1.422   8.216  0.7625  0.4798  1.1050
  370TIP3    H222746   4.817   1.486   8.146  0.0545 -0.3605 -0.9655
  371TIP3   OH222747   0.807   0.673   7.505  0.0668  0.0138  0.1106
  371TIP3    H122748   0.811   0.748   7.566  0.5029 -0.1238  0.2545
  371TIP3    H222749   0.802   0.713   7.418  0.7644  0.2178  0.1575
  372TIP3   OH222750   6.620   6.132   0.139 -0.2293  0.7081  0.2083
  372TIP3    H122751   6.702   6.181   0.145 -0.6221  1.3829  0.1638
  372TIP3    H222752   6.552   6.197   0.156 -0.8303  0.4627 -1.1224
  373TIP3   OH222753   4.447   5.556   3.404  0.3583  0.1668  0.1259
  373TIP3    H122754   4.520   5.580   3.461 -1.1171 -0.5780  2.4939
  373TIP3    H222755   4.377   5.617   3.427 -0.6222 -0.8432 -0.0891
  374TIP3   OH222756   2.696   0.072   1.255 -0.2726  0.0102 -0.0474
  374TIP3    H122757   2.661  -0.017   1.255 -0.8404  0.2315 -0.0303
  374TIP3    H222758   2.727   0.086   1.345 -0.6651  0.0161  0.0877
  375TIP3   OH222759   6.260   0.836   0.787 -0.6567  0.6701 -0.0596
  375TIP3    H122760   6.348   0.832   0.824 -0.1830  0.0683 -1.1960
  375TIP3    H222761   6.274   0.854   0.694 -1.6100 -1.7103 -0.7357
  376TIP3   OH222762   0.942   6.224   0.017 -0.1519  0.2523  0.5289
  376TIP3    H122763   1.028   6.259  -0.008  0.6375 -1.6866  0.3363
  376TIP3    H222764   0.959   6.172   0.095 -1.3598  0.6654  1.0905
  377TIP3   OH222765   1.334   4.471   1.832 -0.0897 -0.2114 -0.2302
  377TIP3    H122766   1.411   4.520   1.861  0.6166 -1.5667  0.3033
  377TIP3    H222767   1.261   4.529   1.849  0.8183  1.1972 -0.9347
  378TIP3   OH222768   5.452   6.279   0.301  0.0148  0.0285  0.1897
  378TIP3    H122769   5.509   6.325   0.241 -0.5584 -0.7988 -1.0293
  378TIP3    H222770   5.465   6.322   0.385  1.6579  0.4944 -0.2816
  379TIP3   OH222771   6.755   1.204   0.235 -0.0405 -0.3634 -0.0784
  379TIP3    H122772   6.821   1.265   0.268 -0.9786  0.6571 -0.0078
  379TIP3    H222773   6.699   1.187   0.311 -0.0591 -0.9509 -0.2216
  380TIP3   OH222774   4.169   1.903   2.630  0.5118  0.2994  0.5300
  380TIP3    H122775   4.203   1.851   2.703 -0.7883  0.3002  1.1768
  380TIP3    H222776   4.193   1.993   2.651 -0.6075  0.4202  1.4638
  381TIP3   OH222777   2.747   1.136   2.153  0.2038  0.1367 -0.1180
  381TIP3    H122778   2.816   1.190   2.115 -0.5054  0.1784 -1.3935
  381TIP3    H222779   2.713   1.085   2.080  2.8946 -4.5163  1.4788
  382TIP3   OH222780   4.607   2.501   8.647 -0.3980 -0.3167 -0.0992
  382TIP3    H122781   4.582   2.418   8.607 -0.2517 -0.3015 -0.2227
  382TIP3    H222782   4.651   2.550   8.578  0.3585 -0.5179  0.2258
  383TIP3   OH222783   1.767   6.755   1.055 -0.6057 -0.0060  0.6835
  383TIP3    H122784   1.839   6.709   1.010 -1.1622 -0.7444  0.5319
  383TIP3    H222785   1.805   6.781   1.139 -0.0001  0.0792  0.3888
  384TIP3   OH222786   0.005   4.604   0.372 -0.5670 -0.7849  0.2355
  384TIP3    H122787   0.095   4.604   0.404 -0.6098 -0.1617  0.3702
  384TIP3    H222788  -0.044   4.554   0.438 -0.5174 -0.1712  0.7393
  385TIP3   OH222789   2.050   1.348   2.873  0.3408 -0.0327 -0.4554
  385TIP3    H122790   1.955   1.339   2.865  0.0637  2.2781 -0.2741
  385TIP3    H222791   2.063   1.417   2.938  2.1645 -0.3982 -0.3683
  386TIP3   OH222792   6.385   6.555   0.041  0.3448  0.0905 -0.0757
  386TIP3    H122793   6.331   6.540  -0.036 -0.4561 -0.1374  0.5152
  386TIP3    H222794   6.415   6.468   0.067 -0.0188  0.0790  0.3150
  387TIP3   OH222795   2.779   6.060   1.943 -0.6255  0.0187  0.0348
  387TIP3    H122796   2.848   6.125   1.957 -0.5377  0.2094 -1.1895
  387TIP3    H222797   2.698   6.110   1.948 -0.9664 -0.5495  3.9041
  388TIP3   OH222798   3.136   0.920   8.642 -0.4743 -0.0619  0.0204
  388TIP3    H122799   3.151   0.902   8.549 -1.5936 -0.0755 -0.1673
  388TIP3    H222800   3.150   0.836   8.685  1.4489  0.2428  0.0637
  389TIP3   OH222801   6.858   4.279   8.382 -0.4307  0.1841  0.5306
  389TIP3    H122802   6.834   4.286   8.475  0.8696  0.2818  0.8701
  389TIP3    H222803   6.855   4.185   8.364  0.3662  0.0672  0.9697
  390TIP3   OH222804   2.110   5.033   0.693 -0.0188  0.2638  0.0198
  390TIP3    H122805   2.111   5.068   0.782 -0.4612  1.1992 -0.3268
  390TIP3    H222806   2.163   5.095   0.643 -0.1277 -0.0168 -0.4415
  391TIP3   OH222807   1.427   1.506   1.736  0.0091  0.0513 -0.7457
  391TIP3    H122808   1.458   1.493   1.826 -2.7875  1.4045  0.5602
  391TIP3    H222809   1.388   1.422   1.712  1.6439 -0.6323 -1.1526
  392TIP3   OH222810   6.447   6.098   7.976  0.4123  0.6606 -0.5030
  392TIP3    H122811   6.483   6.104   8.064  0.6701 -1.7183 -0.3660
  392TIP3    H222812   6.507   6.149   7.921  0.0284  2.4971  0.7050
  393TIP3   OH222813   3.708   4.801   0.526 -0.3350 -0.1952  0.1716
  393TIP3    H122814   3.743   4.795   0.615 -1.4330 -0.5862  0.5876
  393TIP3    H222815   3.658   4.883   0.526  1.4016  0.9220 -0.7360
  394TIP3   OH222816   0.673   1.631   8.645  0.6330  0.2485 -0.3926
  394TIP3    H122817   0.685   1.611   8.553 -3.0307 -0.9985 -0.7694
  394TIP3    H222818   0.663   1.545   8.687  2.3091  0.7863  1.2411
  395TIP3   OH222819   0.528   1.806   3.285 -0.5230  0.3725 -0.4233
  395TIP3    H122820   0.462   1.875   3.286  0.8165  1.7042 -0.3454
  395TIP3    H222821   0.602   1.842   3.334  0.1740 -1.1741 -0.2745
  396TIP3   OH222822   5.718   4.893   7.287  0.4129  0.3303  0.0561
  396TIP3    H122823   5.663   4.817   7.305 -0.7043  1.1593  0.2753
  396TIP3    H222824   5.808   4.859   7.290  0.0434 -0.6225  1.9924
  397TIP3   OH222825   3.405   5.687   2.938 -0.0627  0.3483  0.0759
  397TIP3    H122826   3.361   5.648   3.014 -0.4090  0.5280 -0.0304
  397TIP3    H222827   3.367   5.774   2.930  0.0135  0.3529 -0.2696
  398TIP3   OH222828   2.224   1.392   2.680  0.4799 -0.0021 -0.0876
  398TIP3    H122829   2.147   1.410   2.735  0.8624 -1.4967  0.9947
  398TIP3    H222830   2.246   1.477   2.642 -2.6737  0.2471 -1.7619
  399TIP3   OH222831   3.502   5.374   3.353 -0.2811  0.0847 -0.0510
  399TIP3    H122832   3.529   5.327   3.274 -0.0257 -0.1611  0.1763
  399TIP3    H222833   3.545   5.460   3.346  0.6561 -0.3306  0.3441
  400TIP3   OH222834   0.244   5.313   8.289 -0.0392  0.9055  0.4915
  400TIP3    H122835   0.313   5.289   8.228  2.1068  0.9234  2.7565
  400TIP3    H222836   0.273   5.394   8.329 -1.0174  0.5581  2.0154
  401TIP3   OH222837   0.736   4.753   6.870  0.1819 -0.8628  0.6536
  401TIP3    H122838   0.781   4.787   6.794 -0.2066 -1.4370  0.1570
  401TIP3    H222839   0.685   4.679   6.837 -0.5888 -0.6464  1.3208
  402TIP3   OH222840   4.343   3.154   2.493 -0.1251 -0.1253 -0.5375
  402TIP3    H122841   4.356   3.226   2.432  1.5319  0.4311  0.4133
  402TIP3    H222842   4.254   3.167   2.527 -0.0773  1.1137 -0.8465
  403TIP3   OH222843   3.259   0.992   1.096  0.0243 -0.4753  0.4915
  403TIP3    H122844   3.305   0.955   1.172  1.5663 -0.7116 -0.4983
  403TIP3    H222845   3.280   1.086   1.098 -0.8054 -0.2911  0.9279
  404TIP3   OH222846   4.759   6.216   1.556  0.0050 -0.0807 -0.3495
  404TIP3    H122847   4.851   6.194   1.541  0.1331  0.2612 -0.0851
  404TIP3    H222848   4.755   6.242   1.648 -0.8106 -2.3902  0.3346
  405TIP3   OH222849   2.074   4.877   2.045 -0.3928 -0.1411  0.7938
  405TIP3    H122850   2.078   4.952   1.986 -1.0110 -0.4768  0.3111
  405TIP3    H222851   2.162   4.870   2.082 -0.4483  1.0830  1.1785
  406TIP3   OH222852   6.607   4.477   1.128  0.8052  0.2310  0.5364
  406TIP3    H122853   6.538   4.502   1.066  1.1935 -2.4472 -1.0819
  406TIP3    H222854   6.665   4.553   1.130 -1.1374  1.8211  0.5035
  407TIP3   OH222855   4.092   6.113   7.824  0.3467 -0.4553 -0.5657
  407TIP3    H122856   4.166   6.145   7.773  1.9892 -2.4464  0.4401
  407TIP3    H222857   4.107   6.145   7.913 -0.6156  0.0204 -0.5514
  408TIP3   OH222858   0.481   6.761   1.810  0.0158 -0.1029  0.4339
  408TIP3    H122859   0.455   6.717   1.730 -1.3926  2.7990 -0.8742
  408TIP3    H222860   0.416   6.735   1.875 -0.6817 -0.0931 -0.2556
  409TIP3   OH222861   0.947   5.650   2.045  0.1213  0.7241  0.7985
  409TIP3    H122862   0.907   5.684   2.125 -0.4750  0.3203  0.6783
  409TIP3    H222863   0.873   5.635   1.986  0.2555 -1.5348  1.1210
  410TIP3   OH222864   4.074   1.090   1.911  0.1143 -0.2378  0.1685
  410TIP3    H122865   4.152   1.120   1.956 -0.1393 -0.0611  0.4949
  410TIP3    H222866   4.008   1.081   1.980 -0.2141 -0.1735 -0.1335
  411TIP3   OH222867   3.648   4.072   0.588 -0.3585 -0.8232 -0.2669
  411TIP3    H122868   3.568   4.020   0.581  0.5630 -2.2702 -0.4485
  411TIP3    H222869   3.719   4.010   0.569  0.8586  0.2505  0.5868
  412TIP3   OH222870   6.794   4.741   8.145  0.5169 -0.2883  0.0446
  412TIP3    H122871   6.866   4.765   8.203  1.1836 -1.5345 -0.2532
  412TIP3    H222872   6.818   4.656   8.110 -0.2862  0.0484 -1.4054
  413TIP3   OH222873   3.523   6.033   0.862 -0.4035  0.3800 -0.6817
  413TIP3    H122874   3.565   5.968   0.805  0.8564  0.5261  0.0442
  413TIP3    H222875   3.472   5.981   0.924  2.9849 -0.2597  1.8697
  414TIP3   OH222876   5.734   3.935   2.352  0.3654 -0.5157 -0.2876
  414TIP3    H122877   5.828   3.915   2.351  0.3462 -0.5952 -0.9996
  414TIP3    H222878   5.692   3.858   2.315  0.0900 -0.1573 -0.7465
  415TIP3   OH222879   3.758   3.212   1.820 -0.6972 -0.0260 -0.7016
  415TIP3    H122880   3.750   3.288   1.878 -0.5238 -0.4253 -0.1547
  415TIP3    H222881   3.673   3.206   1.777 -0.6968  0.5075 -0.7841
  416TIP3   OH222882   1.278   1.228   2.115 -0.0892 -0.0292 -0.1585
  416TIP3    H122883   1.251   1.266   2.031  0.3971  1.0289  0.1464
  416TIP3    H222884   1.196   1.217   2.163 -0.2651  0.5038 -0.3229
  417TIP3   OH222885   4.303   1.789   2.833  0.0074  0.0962 -0.1166
  417TIP3    H122886   4.379   1.834   2.869  0.8578 -1.3497 -0.0217
  417TIP3    H222887   4.320   1.696   2.850 -1.1775 -0.3548 -1.2408
  418TIP3   OH222888   1.399   1.903   7.305  0.2179  0.1558 -0.0621
  418TIP3    H122889   1.332   1.970   7.320 -0.9681 -0.7304 -1.1320
  418TIP3    H222890   1.469   1.948   7.259 -2.3541  0.0149 -4.7652
  419TIP3   OH222891   3.753   1.620   0.402 -0.4857 -0.1993 -0.0352
  419TIP3    H122892   3.814   1.658   0.339 -0.5037  0.6541  0.4410
  419TIP3    H222893   3.729   1.536   0.365 -0.6404  0.3685 -1.2596
  420TIP3   OH222894   3.138   2.035   1.177 -0.3374 -0.0720  0.0509
  420TIP3    H122895   3.138   1.952   1.225 -0.1464  0.4357  0.9633
  420TIP3    H222896   3.137   2.102   1.246 -0.8882  0.6831 -0.6750
  421TIP3   OH222897   5.673   4.060   1.293 -0.4733 -0.5210  0.0557
  421TIP3    H122898   5.614   4.133   1.273 -0.4518 -0.1707  1.2201
  421TIP3    H222899   5.727   4.051   1.215  0.0005  1.1698  0.1564
  422TIP3   OH222900   3.585   4.618   1.690  0.0790  0.1248  0.1580
  422TIP3    H122901   3.653   4.574   1.741 -0.0097  0.5928  0.6866
  422TIP3    H222902   3.504   4.601   1.739  0.2495  2.1614  1.2302
  423TIP3   OH222903   0.357   4.774   2.502 -0.0151 -0.1143 -0.1017
  423TIP3    H122904   0.337   4.691   2.545  3.0484 -1.3160 -0.7254
  423TIP3    H222905   0.412   4.820   2.565 -0.1572  0.6323 -0.5194
  424TIP3   OH222906   5.684   3.775   8.521 -0.0069 -0.6604 -0.0406
  424TIP3    H122907   5.623   3.778   8.448  1.4988 -1.2330 -1.3634
  424TIP3    H222908   5.761   3.825   8.492  0.7940 -1.2488  0.9745
  425TIP3   OH222909   3.699   2.247   1.640  0.2474  0.1985  0.0571
  425TIP3    H122910   3.611   2.216   1.664  0.2344  0.3060  0.1466
  425TIP3    H222911   3.713   2.325   1.693  2.7077 -2.8683  4.6067
  426TIP3   OH222912   3.213   1.472   1.520  0.4619 -0.0633 -0.0131
  426TIP3    H122913   3.140   1.469   1.458  1.2989  1.0403 -1.1166
  426TIP3    H222914   3.195   1.548   1.575  1.3187  0.9386 -1.0575
  427TIP3   OH222915   1.489   3.987   3.209  0.0237  0.1939  0.1768
  427TIP3    H122916   1.407   3.972   3.162 -0.1432  0.1513  0.4793
  427TIP3    H222917   1.474   3.950   3.296  0.6992 -0.6949 -0.0737
  428TIP3   OH222918   4.742   5.908   0.651 -0.5469 -0.0246  0.1614
  428TIP3    H122919   4.834   5.933   0.643 -0.8592  0.9306 -0.5544
  428TIP3    H222920   4.695   5.990   0.659 -1.2631 -0.5419  1.6377
  429TIP3   OH222921   4.507   5.841   2.274  0.3171  0.4321  0.4761
  429TIP3    H122922   4.462   5.920   2.304 -1.1995 -0.4127  0.5107
  429TIP3    H222923   4.500   5.843   2.179  1.8254  1.2019  0.3552
  430TIP3   OH222924   5.616   0.984   0.654  0.9457  0.0390  0.4739
  430TIP3    H122925   5.648   0.901   0.689 -0.4489 -0.6295  0.2517
  430TIP3    H222926   5.524   0.987   0.680  1.0244  1.6418  0.6803
  431TIP3   OH222927   2.974   6.357   1.797 -0.2502 -0.3312 -0.0491
  431TIP3    H122928   2.961   6.326   1.887  0.4021  0.3347  0.2814
  431TIP3    H222929   2.977   6.452   1.805  0.2134 -0.2851 -0.7282
  432TIP3   OH222930   5.287   6.849   8.063 -0.0435  0.2350  0.3045
  432TIP3    H122931   5.291   6.755   8.045  0.7477  0.8282 -3.5732
  432TIP3    H222932   5.195   6.873   8.045  0.3948  0.5674 -1.8047
  433TIP3   OH222933   5.000   3.350   8.481  0.2741 -0.3347  0.1452
  433TIP3    H122934   4.942   3.316   8.549  0.8617  0.4057  1.0438
  433TIP3    H222935   5.087   3.347   8.520  0.6664 -0.1630 -0.6857
  434TIP3   OH222936   3.425   1.366   1.372 -0.2452  0.1307  0.1852
  434TIP3    H122937   3.362   1.393   1.439  0.4213  1.6423  0.2248
  434TIP3    H222938   3.407   1.422   1.297  0.1629 -0.3670 -0.2994
  435TIP3   OH222939   2.528   1.221   1.108  0.1096 -1.0445 -0.7278
  435TIP3    H122940   2.486   1.255   1.029  0.1249  0.4959 -0.1090
  435TIP3    H222941   2.555   1.299   1.156  1.2774 -1.9698  0.1824
  436TIP3   OH222942   0.571   1.889   0.772 -0.3247 -0.1838 -0.3866
  436TIP3    H122943   0.587   1.837   0.693  0.8848  0.7953 -0.8199
  436TIP3    H222944   0.644   1.866   0.830 -0.6988 -0.2010  0.0824
  437TIP3   OH222945   4.400   5.558   2.068 -0.1369 -0.2699 -0.4280
  437TIP3    H122946   4.424   5.645   2.038 -1.4697  0.1660 -0.2761
  437TIP3    H222947   4.307   5.550   2.048  0.0265 -1.7908 -0.7359
  438TIP3   OH222948   2.982   3.604   1.619 -0.7545  0.0688 -0.0978
  438TIP3    H122949   2.903   3.596   1.566 -1.5348 -0.8784  1.1516
  438TIP3    H222950   2.950   3.624   1.707  0.4402  0.3215  0.3045
  439TIP3   OH222951   4.995   0.038   2.334 -0.6585  0.0817 -0.2194
  439TIP3    H122952   5.002  -0.047   2.290 -1.6736  0.0600 -0.3789
  439TIP3    H222953   5.045   0.026   2.415  0.2981 -0.2330 -0.8363
  440TIP3   OH222954   6.563   1.384   1.667 -0.5660  0.4824  0.5666
  440TIP3    H122955   6.610   1.457   1.625  1.7927 -2.1155 -1.7363
  440TIP3    H222956   6.612   1.369   1.748 -0.3129  0.6949  0.4572
  441TIP3   OH222957   4.009   3.084   0.657  0.3244 -0.0028  0.1145
  441TIP3    H122958   3.983   3.010   0.602 -0.6440 -1.1893  2.0460
  441TIP3    H222959   4.064   3.045   0.726 -0.4875  0.9736  1.3759
  442TIP3   OH222960   6.349   2.717   2.371 -0.3842 -0.5354  0.6690
  442TIP3    H122961   6.381   2.782   2.434 -0.0236  0.2277 -0.2862
  442TIP3    H222962   6.254   2.728   2.371 -0.4823 -1.2034  1.7750
  443TIP3   OH222963   6.329   2.237   8.046  0.3088  0.2935 -0.0169
  443TIP3    H122964   6.411   2.240   7.997  1.0585 -1.1326  1.0672
  443TIP3    H222965   6.262   2.262   7.982  1.3428 -0.5915 -1.5204
  444TIP3   OH222966   3.359   1.631   8.279  0.3203 -0.3981 -0.1194
  444TIP3    H122967   3.401   1.711   8.310 -0.3217  0.0619 -0.4234
  444TIP3    H222968   3.375   1.631   8.185 -1.1860  0.3007 -0.4069
  445TIP3   OH222969   6.350   1.605   1.784  0.3246 -0.0583 -0.6039
  445TIP3    H122970   6.403   1.549   1.840  0.4545  0.8462  0.1876
  445TIP3    H222971   6.294   1.655   1.844  0.6490  1.1156 -1.2405
  446TIP3   OH222972   0.343   3.889   7.740 -0.0348  0.2895  0.1217
  446TIP3    H122973   0.353   3.796   7.720  0.6477  0.6135 -1.1320
  446TIP3    H222974   0.256   3.895   7.781  0.2175 -0.9915  0.8952
  447TIP3   OH222975   4.343   5.646   1.788  0.1765 -0.7079  0.1982
  447TIP3    H122976   4.278   5.629   1.857 -0.1378 -1.0239 -0.1748
  447TIP3    H222977   4.306   5.605   1.710  0.3275  0.0181 -0.2627
  448TIP3   OH222978   3.890   1.126   1.256  0.2889  0.3178 -0.1778
  448TIP3    H122979   3.959   1.128   1.322 -0.3553  1.6945  0.4958
  448TIP3    H222980   3.815   1.168   1.298 -1.1503 -1.5711 -0.7243
  449TIP3   OH222981   3.723   3.272   0.353  0.1206 -0.5992 -0.2633
  449TIP3    H122982   3.772   3.300   0.430  0.8695  0.1613 -1.0057
  449TIP3    H222983   3.758   3.185   0.333  0.4345 -0.4931 -0.1795
  450TIP3   OH222984   4.646   3.416   7.757  0.3520 -0.0570 -0.1634
  450TIP3    H122985   4.734   3.384   7.776  0.0622  0.2708  1.8627
  450TIP3    H222986   4.637   3.497   7.807 -0.8991  0.2386 -0.8138
  451TIP3   OH222987   5.483   5.156   0.017  0.4538  0.5774  0.2392
  451TIP3    H122988   5.453   5.225   0.077  0.2350  0.6758  0.0191
  451TIP3    H222989   5.402   5.119  -0.020  0.5924  0.6566 -0.1509
  452TIP3   OH222990   4.267   0.283   1.790  0.1518  0.1241 -0.0795
  452TIP3    H122991   4.304   0.367   1.816  1.2090 -0.9121  1.9431
  452TIP3    H222992   4.288   0.276   1.697  0.3886  1.8955 -0.1960
  453TIP3   OH222993   1.831   3.808   7.576 -0.1320  0.7518  0.4554
  453TIP3    H122994   1.904   3.870   7.574  0.3740  0.1538 -0.5541
  453TIP3    H222995   1.817   3.791   7.669  0.7830  1.1558  0.6822
  454TIP3   OH222996   1.535   0.686   2.334 -0.4662 -0.6985 -0.7723
  454TIP3    H122997   1.608   0.743   2.359 -0.7693 -0.9342  0.7209
  454TIP3    H222998   1.475   0.690   2.408 -0.0495 -3.7407 -0.1645
  455TIP3   OH222999   2.324   0.884   2.381 -0.6615  0.9275 -0.2853
  455TIP3    H123000   2.390   0.866   2.448 -0.4042  1.0377 -0.5079
  455TIP3    H223001   2.323   0.979   2.373  0.6859  0.8376 -1.8036
  456TIP3   OH223002   5.074   6.251   3.043  0.0786 -0.7069 -0.3182
  456TIP3    H123003   5.043   6.190   2.976  1.3472  0.6998 -2.2968
  456TIP3    H223004   5.162   6.221   3.065  0.1454 -0.4463 -0.2202
  457TIP3   OH223005   4.389   1.701   1.157  0.3139 -0.3619  0.0219
  457TIP3    H123006   4.480   1.705   1.130  0.3477 -2.4168 -0.3669
  457TIP3    H223007   4.347   1.645   1.091 -0.6209 -1.6412  1.6208
  458TIP3   OH223008   6.239   4.028   6.999  0.0936 -0.1599  0.2374
  458TIP3    H123009   6.147   4.006   6.984  0.4904 -0.3819 -2.1696
  458TIP3    H223010   6.281   4.019   6.914  2.5489 -0.8924  1.4270
  459TIP3   OH223011   2.794   0.968   0.987 -0.0947 -0.2972 -0.0870
  459TIP3    H123012   2.745   1.016   0.919  1.0441 -0.4788 -1.0678
  459TIP3    H223013   2.740   0.976   1.065 -1.4489 -0.0567 -1.0052
  460TIP3   OH223014   0.602   2.199   7.226 -0.1009  0.5881 -0.0339
  460TIP3    H123015   0.640   2.248   7.299  0.5450 -0.1415  0.1396
  460TIP3    H223016   0.520   2.243   7.207 -0.1515  0.9494  0.9641
  461TIP3   OH223017   1.224   6.288   1.974  0.2934 -0.3245  0.1002
  461TIP3    H123018   1.191   6.376   1.955  2.3160  0.3757 -0.4268
  461TIP3    H223019   1.245   6.250   1.889 -0.9527 -1.5147  0.2919
  462TIP3   OH223020   3.615   4.678   2.776 -0.1210 -0.1213  0.2366
  462TIP3    H123021   3.528   4.679   2.736  0.5382 -0.1769 -1.2974
  462TIP3    H223022   3.608   4.737   2.851 -0.9214  1.6869 -1.1674
  463TIP3   OH223023   1.983   5.185   2.720  0.8264 -0.3489  0.5348
  463TIP3    H123024   1.975   5.273   2.755 -1.2316  0.3621 -1.4547
  463TIP3    H223025   2.071   5.182   2.682  0.5141  1.3361 -0.4398
  464TIP3   OH223026   1.366   4.161   8.340  0.1303 -0.7701  0.1439
  464TIP3    H123027   1.326   4.175   8.255 -1.8220  0.3168  1.1858
  464TIP3    H223028   1.460   4.167   8.324 -0.2024  3.4599 -1.3240
  465TIP3   OH223029   4.955   1.657   0.728  0.6145  0.2368 -0.3134
  465TIP3    H123030   4.948   1.751   0.714  0.1579  0.1611 -0.5962
  465TIP3    H223031   4.866   1.624   0.720  0.8430 -0.2974 -0.7601
  466TIP3   OH223032   2.246   6.247   0.289 -0.2548  0.4723  0.1788
  466TIP3    H123033   2.172   6.307   0.305  0.2078  1.0257  0.2886
  466TIP3    H223034   2.229   6.212   0.201 -0.1534  1.3443 -0.2083
  467TIP3   OH223035   1.504   3.873   0.684 -0.0366  0.2577 -0.2230
  467TIP3    H123036   1.565   3.822   0.737 -1.3170 -0.8338  0.2542
  467TIP3    H223037   1.417   3.847   0.715 -0.7809  0.9216 -1.6343
  468TIP3   OH223038   2.015   3.484   0.108 -0.0076  0.1774  0.2668
  468TIP3    H123039   1.959   3.421   0.155 -0.1516 -0.3364 -0.5662
  468TIP3    H223040   2.017   3.451   0.018  2.5456 -0.4521  0.4960
  469TIP3   OH223041   2.046   4.263   1.319 -0.3858 -0.5994  0.5516
  469TIP3    H123042   1.959   4.270   1.358 -1.4924 -1.1462 -1.6537
  469TIP3    H223043   2.088   4.347   1.338 -2.0568  0.3567  0.1938
  470TIP3   OH223044   1.368   4.692   2.635 -0.1052 -0.8954 -0.5543
  470TIP3    H123045   1.463   4.683   2.648 -0.0132 -0.5624 -0.9540
  470TIP3    H223046   1.350   4.784   2.657  0.0979 -0.2400 -2.8757
  471TIP3   OH223047   2.288   3.330   1.782 -0.1457  0.8253  0.2321
  471TIP3    H123048   2.372   3.363   1.752 -0.2633 -0.1182 -1.2473
  471TIP3    H223049   2.302   3.236   1.795 -1.2668  0.3997 -1.3382
  472TIP3   OH223050   1.503   3.774   0.194 -0.0767 -0.1796 -0.4122
  472TIP3    H123051   1.470   3.826   0.268 -0.3062 -0.6254 -0.1992
  472TIP3    H223052   1.522   3.688   0.231 -0.4780 -0.4996 -0.9333
  473TIP3   OH223053   1.421   2.893   1.821  0.1446  0.1411 -0.4872
  473TIP3    H123054   1.483   2.909   1.750  0.1948 -0.8239 -0.6692
  473TIP3    H223055   1.473   2.847   1.888 -0.0669  0.4588 -0.0988
  474TIP3   OH223056   2.208   5.660   7.225 -0.0444  0.2573 -0.1456
  474TIP3    H123057   2.242   5.578   7.189 -0.3627  0.3680 -0.7105
  474TIP3    H223058   2.125   5.672   7.181 -0.7652  0.0648  1.1187
  475TIP3   OH223059   4.876   4.998   2.170 -0.3960  0.2470  0.3521
  475TIP3    H123060   4.808   5.017   2.235 -0.3956 -1.1077  0.7976
  475TIP3    H223061   4.939   4.943   2.217 -0.6610 -1.2084 -0.8998
  476TIP3   OH223062   3.618   3.356   1.157 -0.1818  0.3039 -0.3663
  476TIP3    H123063   3.655   3.440   1.183 -0.7993  0.8238 -1.1249
  476TIP3    H223064   3.546   3.378   1.098 -0.6481 -0.7429 -0.2173
  477TIP3   OH223065   3.919   2.078   7.933 -0.1041 -0.5742  0.0970
  477TIP3    H123066   3.905   2.002   7.878  0.9495 -0.6491 -0.0987
  477TIP3    H223067   3.873   2.058   8.015 -0.8523 -0.8817 -0.3914
  478TIP3   OH223068   3.470   5.607   7.808  0.2044  0.3949  0.6403
  478TIP3    H123069   3.493   5.536   7.869  1.1080  1.5778  1.7399
  478TIP3    H223070   3.420   5.564   7.739  0.1929 -1.2087  1.5923
  479TIP3   OH223071   5.204   2.345   1.976  0.2797 -0.2161 -0.0492
  479TIP3    H123072   5.213   2.435   1.946 -0.4052  0.0695  0.5803
  479TIP3    H223073   5.216   2.292   1.897 -1.5938  0.5078 -0.8685
  480TIP3   OH223074   0.428   1.657   7.865 -0.0513 -0.5682 -0.3904
  480TIP3    H123075   0.435   1.702   7.948 -0.0647 -1.2825  0.0074
  480TIP3    H223076   0.368   1.711   7.813  1.0178  0.6139 -0.4575
  481TIP3   OH223077   4.525   2.326   0.557  0.0145  0.0555  0.2104
  481TIP3    H123078   4.499   2.236   0.573  0.1132  0.0460  0.3272
  481TIP3    H223079   4.503   2.372   0.638  1.1632 -0.1362  0.6606
  482TIP3   OH223080   6.646   4.903   0.803 -0.3044  0.1575  0.3873
  482TIP3    H123081   6.626   4.811   0.787 -1.9517  0.8113 -1.7884
  482TIP3    H223082   6.607   4.921   0.889  0.3417 -1.2316  0.9979
  483TIP3   OH223083   1.950   1.496   0.429 -0.6651 -0.1098  0.0911
  483TIP3    H123084   1.936   1.510   0.523 -0.5352 -2.6391  0.5590
  483TIP3    H223085   1.867   1.520   0.388 -1.6564 -1.4951  1.1936
  484TIP3   OH223086   0.845   5.271   7.310 -0.4184 -0.2435 -0.5503
  484TIP3    H123087   0.785   5.271   7.235  0.6617 -0.9147 -1.4523
  484TIP3    H223088   0.926   5.235   7.275  1.2100  2.5084  0.0888
  485TIP3   OH223089   0.165   3.758   2.163 -0.4375  0.6377 -0.3723
  485TIP3    H123090   0.243   3.704   2.174 -1.2407 -0.5727 -0.4877
  485TIP3    H223091   0.198   3.848   2.165  0.8439  0.1787  0.4883
  486TIP3   OH223092   4.339   2.815   7.783 -1.1203  0.1008  0.7347
  486TIP3    H123093   4.275   2.847   7.720 -0.4658 -0.9155 -0.4862
  486TIP3    H223094   4.420   2.806   7.733  0.6282  3.2968  2.6558
  487TIP3   OH223095   2.820   4.535   2.128 -0.2635  0.2202  0.0513
  487TIP3    H123096   2.851   4.580   2.206  3.7325  0.8012 -1.6073
  487TIP3    H223097   2.771   4.601   2.080 -0.1989  0.7681  0.7292
  488TIP3   OH223098   4.952   3.821   2.134 -0.1665 -0.1319 -0.3658
  488TIP3    H123099   5.031   3.824   2.189 -1.2972 -2.1989  1.5329
  488TIP3    H223100   4.973   3.758   2.066 -0.4355 -1.4057  0.6862
  489TIP3   OH223101   1.728   4.738   1.791  0.1629 -0.1832  0.2534
  489TIP3    H123102   1.804   4.680   1.796 -0.3810 -1.0835 -1.3031
  489TIP3    H223103   1.668   4.705   1.857 -0.0632 -1.3116 -0.4980
  490TIP3   OH223104   3.598   3.152   2.047  0.3325  0.3810  0.7047
  490TIP3    H123105   3.683   3.193   2.033  0.3694 -0.1693 -0.8951
  490TIP3    H223106   3.618   3.063   2.073  0.4188 -1.0317 -3.4303
  491TIP3   OH223107   0.569   3.685   7.502 -0.2197 -0.0992 -0.7150
  491TIP3    H123108   0.552   3.643   7.418 -0.5632 -2.2736  0.3528
  491TIP3    H223109   0.649   3.735   7.488 -1.1452  0.9260 -2.7451
  492TIP3   OH223110   2.039   1.571   7.695 -0.4029  0.0615  0.4902
  492TIP3    H123111   2.011   1.659   7.719 -0.2918 -0.3710  2.3066
  492TIP3    H223112   2.106   1.549   7.759 -1.8567 -2.1161  1.3710
  493TIP3   OH223113   3.462   5.060   2.179  0.0904  0.1625  0.0358
  493TIP3    H123114   3.426   5.071   2.091 -0.5974  0.1067  0.3016
  493TIP3    H223115   3.457   5.147   2.218 -2.0996 -0.3106  0.9305
  494TIP3   OH223116   3.294   4.640   0.305  0.4386  0.1946  0.3356
  494TIP3    H123117   3.295   4.657   0.399 -1.5694 -1.5108  0.7380
  494TIP3    H223118   3.257   4.553   0.296 -1.2649  1.0389 -2.1101
  495TIP3   OH223119   6.537   4.135   1.883  0.0977  0.1991 -0.1688
  495TIP3    H123120   6.553   4.089   1.965 -3.8021  0.2403  0.7927
  495TIP3    H223121   6.536   4.066   1.817 -1.1120 -0.5036  0.5498
  496TIP3   OH223122   1.796   3.642   1.504  0.1375  0.2993 -0.2925
  496TIP3    H123123   1.817   3.648   1.598  1.0057  1.7517 -0.5479
  496TIP3    H223124   1.722   3.701   1.492 -0.2606 -0.2251 -0.4591
  497TIP3   OH223125   3.772   2.641   0.428  0.3043  0.3777 -0.3361
  497TIP3    H123126   3.844   2.690   0.387 -0.8362  1.8396 -0.6523
  497TIP3    H223127   3.740   2.698   0.498 -1.1160  0.1390 -0.7628
  498TIP3   OH223128   5.283   4.356   1.343 -0.0216 -0.1660 -0.6876
  498TIP3    H123129   5.188   4.344   1.337 -0.1385 -0.4113  1.1411
  498TIP3    H223130   5.296   4.400   1.427  1.5386 -0.8235 -0.5594
  499TIP3   OH223131   3.206   2.291   1.296  0.0043  0.0917  0.3727
  499TIP3    H123132   3.299   2.314   1.301 -0.5777  2.5365  1.7942
  499TIP3    H223133   3.189   2.240   1.375  0.3408 -1.3765 -0.4748
  500TIP3   OH223134   3.477   5.869   0.283  0.0837  0.0116  0.2186
  500TIP3    H123135   3.525   5.936   0.331 -0.9210 -0.8330  2.6058
  500TIP3    H223136   3.391   5.908   0.268  0.0611 -0.1126  0.0282
  501TIP3   OH223137   1.114   1.542   2.369  0.2300  0.0337 -0.5494
  501TIP3    H123138   1.084   1.455   2.393  1.7319 -0.6216 -0.9187
  501TIP3    H223139   1.045   1.577   2.313 -1.6435  0.1788  1.7161
  502TIP3   OH223140   4.642   2.800   1.123  0.1403 -0.0607 -0.8633
  502TIP3    H123141   4.658   2.714   1.162 -0.5416 -0.3116 -1.1283
  502TIP3    H223142   4.674   2.792   1.033  1.8649  0.5677 -0.3446
  503TIP3   OH223143   0.458   3.970   8.545 -0.9182  0.2660 -0.5152
  503TIP3    H123144   0.464   4.061   8.514  0.8876  0.0338 -0.9647
  503TIP3    H223145   0.453   3.977   8.640 -2.9543  0.8754 -0.6203
  504TIP3   OH223146   2.150   0.473   3.069 -0.0370  0.5439  0.0967
  504TIP3    H123147   2.242   0.494   3.048 -0.1481  0.8603 -0.0816
  504TIP3    H223148   2.103   0.555   3.052 -0.4585  0.1872 -0.4767
  505TIP3   OH223149   6.118   3.204   0.747  0.1292 -0.2637  0.2513
  505TIP3    H123150   6.101   3.291   0.711  1.5388 -0.1298 -0.1734
  505TIP3    H223151   6.169   3.221   0.827 -0.9830 -0.6549  1.0677
  506TIP3   OH223152   3.804   5.519   8.178  0.3968  0.3289  0.1709
  506TIP3    H123153   3.728   5.576   8.169  1.3250  1.7370  0.8368
  506TIP3    H223154   3.863   5.545   8.107 -0.0404 -1.3244 -0.8659
  507TIP3   OH223155   4.419   3.860   0.895  0.0144 -0.2577  0.3285
  507TIP3    H123156   4.421   3.951   0.923  1.1903 -0.3832  0.7021
  507TIP3    H223157   4.362   3.860   0.818  0.3132  0.8593  0.0914
  508TIP3   OH223158   2.364   0.572   2.337  0.0983  0.5314 -0.0632
  508TIP3    H123159   2.390   0.502   2.277 -0.3676  0.1037  0.2225
  508TIP3    H223160   2.356   0.650   2.282  1.9496  0.6924 -0.1674
  509TIP3   OH223161   1.767   6.090   2.160 -0.5171  0.2525  0.0117
  509TIP3    H123162   1.830   6.155   2.131  0.8298 -0.1466  1.8299
  509TIP3    H223163   1.797   6.066   2.248 -3.3484  0.1866  1.0424
  510TIP3   OH223164   6.775   0.501   1.155  0.2202 -0.4854  0.0005
  510TIP3    H123165   6.741   0.427   1.105  0.8328  0.1175 -1.3395
  510TIP3    H223166   6.701   0.529   1.210  0.3543 -2.9260  1.6008
  511TIP3   OH223167   0.539   4.388   1.678 -0.3101 -0.2041  0.1124
  511TIP3    H123168   0.477   4.401   1.749  0.6574 -0.1775  0.9598
  511TIP3    H223169   0.624   4.381   1.720  0.3916  0.6323 -1.1003
  512TIP3   OH223170   2.211   6.485   7.045 -0.6483 -0.0322  0.6715
  512TIP3    H123171   2.129   6.499   6.997  0.0412  0.9488 -0.2810
  512TIP3    H223172   2.250   6.408   7.004 -0.5072  0.2475  0.2730
  513TIP3   OH223173   1.294   5.950   8.266 -0.1522  0.4143  0.5735
  513TIP3    H123174   1.273   5.896   8.190  1.0310 -1.4985  1.5358
  513TIP3    H223175   1.389   5.957   8.265 -0.1730  0.9678  1.5018
  514TIP3   OH223176   2.799   5.420   1.628  0.2179  0.0594 -0.0720
  514TIP3    H123177   2.802   5.387   1.538  0.5671  1.1330 -0.4786
  514TIP3    H223178   2.866   5.370   1.674  0.5173 -0.0220 -0.5879
  515TIP3   OH223179   2.936   2.333   1.456 -0.9623  0.4111 -0.5251
  515TIP3    H123180   3.025   2.367   1.462  0.0734 -1.8551 -1.7726
  515TIP3    H223181   2.889   2.375   1.529  1.1188  1.5927  0.2187
  516TIP3   OH223182   5.111   0.913   1.246  0.1575  0.3335  0.1572
  516TIP3    H123183   5.048   0.904   1.318  1.0736  1.1475  1.0934
  516TIP3    H223184   5.123   0.824   1.213 -0.9987  0.0812  0.3682
  517TIP3   OH223185   1.299   0.719   1.624 -0.6388  0.2863 -0.3527
  517TIP3    H123186   1.358   0.660   1.577 -0.0677  0.9885 -0.5372
  517TIP3    H223187   1.220   0.722   1.570 -0.5055  0.0303 -0.5653
  518TIP3   OH223188   2.916   0.794   2.546  0.1100 -0.3095 -0.3716
  518TIP3    H123189   2.893   0.729   2.612 -0.7943 -1.4693 -1.7835
  518TIP3    H223190   2.833   0.832   2.519  0.5364  0.6880 -0.3397
  519TIP3   OH223191   6.841   0.672   1.654  0.3486 -0.2019  0.7288
  519TIP3    H123192   6.783   0.745   1.633  1.4168  0.5129  0.1400
  519TIP3    H223193   6.925   0.714   1.676  2.0314 -1.2933 -2.9242
  520TIP3   OH223194   5.657   6.322   1.067  0.1581 -0.0677  0.5272
  520TIP3    H123195   5.584   6.369   1.107 -0.3370  0.3566 -0.8189
  520TIP3    H223196   5.697   6.385   1.007  1.9673 -0.1388  1.5770
  521TIP3   OH223197   5.919   5.896   8.049 -0.2356  0.6706 -0.0758
  521TIP3    H123198   5.905   5.990   8.042 -1.1733  0.6271  0.9967
  521TIP3    H223199   5.900   5.875   8.140 -2.1879 -0.8602 -0.7478
  522TIP3   OH223200   0.388   4.232   1.964  0.0676 -0.3919 -0.1077
  522TIP3    H123201   0.309   4.251   1.915 -1.0573 -1.4853  1.1934
  522TIP3    H223202   0.406   4.313   2.013 -1.0608 -0.5538  0.6214
  523TIP3   OH223203   2.692   6.237   0.165  0.2955 -0.2871 -0.1083
  523TIP3    H123204   2.649   6.306   0.216  0.0159  1.1607 -2.2103
  523TIP3    H223205   2.620   6.187   0.127  0.4713 -2.2569  1.8768
  524TIP3   OH223206   5.744   4.946   7.020  0.0378 -0.3009  0.4226
  524TIP3    H123207   5.722   4.965   7.111  1.6269 -1.2312  1.0424
  524TIP3    H223208   5.839   4.948   7.017  0.0303 -0.7507 -1.1244
  525TIP3   OH223209   1.294   0.077   0.296 -0.2736 -0.2587  0.2221
  525TIP3    H123210   1.281   0.155   0.349 -0.5033 -0.2954  0.2222
  525TIP3    H223211   1.280   0.004   0.356  1.6427 -0.3289  0.6563
  526TIP3   OH223212   4.487   1.315   8.490 -0.3396  0.3344 -0.1124
  526TIP3    H123213   4.427   1.260   8.540 -0.8292 -0.2379 -1.2880
  526TIP3    H223214   4.508   1.388   8.549 -1.5174  0.1038  0.6203
  527TIP3   OH223215   4.566   4.141   8.392  0.3330  0.0585 -0.2429
  527TIP3    H123216   4.634   4.077   8.414 -0.2104 -0.2724  0.5011
  527TIP3    H223217   4.605   4.194   8.323  0.7673 -1.1199 -0.9347
  528TIP3   OH223218   2.944   6.822   0.248 -1.0521 -0.1118  0.1752
  528TIP3    H123219   2.987   6.738   0.233 -0.9905 -0.3932  1.7873
  528TIP3    H223220   2.854   6.800   0.273 -0.8508  0.2379  1.2841
  529TIP3   OH223221   4.137   3.680   0.998 -0.0068 -0.0849  0.0180
  529TIP3    H123222   4.230   3.662   0.985  0.3331  0.8169  1.0188
  529TIP3    H223223   4.121   3.657   1.089 -0.6852  0.0804 -0.0546
  530TIP3   OH223224   1.952   5.698   7.650  0.5438 -0.2122 -0.6405
  530TIP3    H123225   1.940   5.612   7.691 -0.6932  0.3130  0.1452
  530TIP3    H223226   1.960   5.759   7.723 -3.0640  0.9324 -1.0147
  531TIP3   OH223227   4.509   3.402   7.521 -1.1486 -0.5456  0.5720
  531TIP3    H123228   4.592   3.389   7.569 -0.2277 -0.2018 -0.8698
  531TIP3    H223229   4.512   3.493   7.493 -1.4665 -0.8570 -0.4885
  532TIP3   OH223230   4.674   5.286   2.449  0.0805  0.3447 -0.0778
  532TIP3    H123231   4.638   5.374   2.438  2.1810  1.1500 -1.1912
  532TIP3    H223232   4.734   5.294   2.523 -0.6025 -0.4734  0.5738
  533TIP3   OH223233   0.958   2.260   7.664 -0.6356 -0.0724 -0.0585
  533TIP3    H123234   1.018   2.207   7.717 -0.2771  0.5936  0.2083
  533TIP3    H223235   0.962   2.221   7.577  0.4213  0.1477 -0.1161
  534TIP3   OH223236   0.932   5.421   1.676 -0.7272 -0.2970  0.5366
  534TIP3    H123237   0.970   5.400   1.761  1.3871  0.1320 -0.2323
  534TIP3    H223238   0.902   5.336   1.641  2.0115 -1.1892  0.0949
  535TIP3   OH223239   4.596   6.164   0.551 -0.1916 -0.1177 -0.0961
  535TIP3    H123240   4.555   6.082   0.523  2.5413 -1.5159 -0.3641
  535TIP3    H223241   4.679   6.166   0.505 -0.1960  2.9261 -0.1790
  536TIP3   OH223242   6.358   2.685   0.565  0.2156 -0.1388  0.3017
  536TIP3    H123243   6.368   2.663   0.472 -1.2738  1.5905 -0.3273
  536TIP3    H223244   6.418   2.758   0.579 -1.3004  1.1943  0.0428
  537TIP3   OH223245   0.093   4.916   0.450 -0.3034  0.6486  0.9900
  537TIP3    H123246   0.097   4.838   0.505  0.5324  0.4938  0.7252
  537TIP3    H223247   0.163   4.903   0.385 -0.1891  1.5974  0.9132
  538TIP3   OH223248   4.078   6.518   2.675  0.1128 -0.3404 -0.0501
  538TIP3    H123249   4.002   6.568   2.706  0.9905  0.9833  0.0823
  538TIP3    H223250   4.111   6.569   2.601 -0.6750 -2.3164 -1.8554
  539TIP3   OH223251   0.077   0.497   2.485  0.1836 -0.3892  0.1473
  539TIP3    H123252   0.168   0.505   2.510  0.4555  1.4656 -1.1666
  539TIP3    H223253   0.070   0.411   2.443  1.8156  0.2156 -1.4681
  540TIP3   OH223254   1.166   4.713   1.258 -0.0682  0.2506  0.1944
  540TIP3    H123255   1.152   4.718   1.164  0.4540 -0.1175  0.0914
  540TIP3    H223256   1.237   4.649   1.269 -0.1884  0.2134  0.8409
  541TIP3   OH223257   2.783   5.582   1.846  0.3858 -0.9263  0.7718
  541TIP3    H123258   2.787   5.524   1.770  1.2175 -0.3110  0.3310
  541TIP3    H223259   2.720   5.650   1.821  1.5376 -0.0539  0.1236
  542TIP3   OH223260   4.010   2.008   0.302 -0.0448 -0.1097 -0.0405
  542TIP3    H123261   3.922   1.996   0.265 -0.1828  1.4036 -0.2710
  542TIP3    H223262   4.050   2.076   0.248  1.2832 -0.7857  0.0585
  543TIP3   OH223263   3.663   2.357   2.342  0.0924  0.3203  0.0584
  543TIP3    H123264   3.728   2.297   2.304  0.9038 -0.0039  1.8297
  543TIP3    H223265   3.620   2.397   2.267  0.0468 -1.9207 -1.1960
  544TIP3   OH223266   4.405   0.047   7.700  0.3519 -0.2027 -0.0133
  544TIP3    H123267   4.496   0.015   7.696  0.6212  0.3780  0.9818
  544TIP3    H223268   4.413   0.137   7.733 -0.6316 -0.4351  0.9412
  545TIP3   OH223269   5.884   2.519   1.568 -0.4500  0.1830  0.0177
  545TIP3    H123270   5.958   2.532   1.627 -0.0358  1.4402 -0.7480
  545TIP3    H223271   5.923   2.492   1.485 -0.8494  0.7664 -0.3661
  546TIP3   OH223272   1.842   3.556   8.511 -0.3410  0.1293  0.0026
  546TIP3    H123273   1.785   3.600   8.448  0.4811 -0.1786 -0.9765
  546TIP3    H223274   1.820   3.463   8.503 -0.0471  0.0607 -0.0323
  547TIP3   OH223275   4.872   0.956   1.006 -0.4520 -0.1831 -0.2796
  547TIP3    H123276   4.881   0.861   0.996 -0.8121 -0.4948  1.8910
  547TIP3    H223277   4.800   0.967   1.067  1.2157  1.3635  1.5434
  548TIP3   OH223278   1.307   1.760   1.979 -0.1111 -0.3581  0.0633
  548TIP3    H123279   1.328   1.695   2.047 -0.4195  0.5274  1.0301
  548TIP3    H223280   1.391   1.799   1.957 -0.1320  0.0871  0.7237
  549TIP3   OH223281   6.720   1.737   6.634 -0.2649  0.0127  0.3399
  549TIP3    H123282   6.649   1.704   6.579  0.3478 -1.7655  0.5631
  549TIP3    H223283   6.766   1.801   6.579 -1.6104  0.6958 -0.0300
  550TIP3   OH223284   2.320   0.497   1.565  0.4200  0.8274  0.3568
  550TIP3    H123285   2.305   0.567   1.629  0.7396 -1.1940  2.7809
  550TIP3    H223286   2.305   0.416   1.613  3.6666 -0.9325 -1.2326
  551TIP3   OH223287   3.379   2.903   1.264  0.1299 -0.3327 -0.3022
  551TIP3    H123288   3.384   2.994   1.235  0.4076 -0.0207  0.6766
  551TIP3    H223289   3.470   2.875   1.270  0.1614  0.0516  1.5352
  552TIP3   OH223290   0.265   2.048   0.999 -0.0043  0.0330  0.2805
  552TIP3    H123291   0.209   2.096   0.938 -0.5403  2.0563  2.2668
  552TIP3    H223292   0.275   2.106   1.074 -0.7003 -2.9702  2.8779
  553TIP3   OH223293   6.323   4.742   7.522 -0.1977 -0.1045 -0.1045
  553TIP3    H123294   6.289   4.724   7.435 -0.5763 -0.4841  0.1206
  553TIP3    H223295   6.250   4.782   7.569 -0.2735 -0.7040  0.3049
  554TIP3   OH223296   0.150   0.101   8.300 -0.3741 -0.3185  0.2463
  554TIP3    H123297   0.075   0.149   8.266 -0.9587 -0.9371  0.6382
  554TIP3    H223298   0.125   0.009   8.296  0.5886 -0.5821 -0.1504
  555TIP3   OH223299   4.907   1.424   0.540 -0.3008 -0.0419 -0.0301
  555TIP3    H123300   4.830   1.377   0.573 -1.1433  1.8765  0.8981
  555TIP3    H223301   4.908   1.505   0.590  1.9704  0.2746 -0.5180
  556TIP3   OH223302   0.951   2.614   0.359 -0.0998 -0.3885  0.5364
  556TIP3    H123303   0.865   2.612   0.402 -0.4071 -0.3609 -0.0550
  556TIP3    H223304   0.997   2.538   0.394 -0.2535 -0.2329  1.0821
  557TIP3   OH223305   4.631   5.390   7.610  0.7457 -0.1850 -0.2227
  557TIP3    H123306   4.597   5.423   7.527 -0.0740  0.3868  0.3128
  557TIP3    H223307   4.616   5.462   7.672 -1.0978 -1.5254  0.9909
  558TIP3   OH223308   4.964   4.874   1.294 -0.4796  0.3873  0.5228
  558TIP3    H123309   4.997   4.951   1.246 -0.4409  0.8548  1.2832
  558TIP3    H223310   4.892   4.842   1.239  0.6889 -0.1561 -0.7379
  559TIP3   OH223311   6.591   3.865   8.176 -0.2543 -0.1724 -0.3907
  559TIP3    H123312   6.596   3.786   8.229 -2.6464 -0.5202 -0.5967
  559TIP3    H223313   6.520   3.916   8.215  0.2412  1.1788 -1.1779
  560TIP3   OH223314   6.755   1.264   1.272  0.1757 -0.2894  0.2662
  560TIP3    H123315   6.782   1.240   1.184 -0.1429 -0.1728  0.1375
  560TIP3    H223316   6.732   1.180   1.313 -2.4733 -0.1043 -0.6911
  561TIP3   OH223317   0.677   3.713   2.928  0.1662  0.0796  0.1107
  561TIP3    H123318   0.749   3.740   2.870 -1.9823  0.7606 -2.4250
  561TIP3    H223319   0.664   3.788   2.986  0.0282  0.9351 -0.9819
  562TIP3   OH223320   0.609   0.804   1.843  0.0776  0.4620 -0.4147
  562TIP3    H123321   0.622   0.892   1.809 -2.2374  0.5253 -1.3032
  562TIP3    H223322   0.611   0.813   1.938  0.5920  1.3199 -0.5028
  563TIP3   OH223323   2.427   0.445   3.163 -0.4433  0.3807 -0.2068
  563TIP3    H123324   2.416   0.526   3.213 -0.9855  1.5281 -2.0924
  563TIP3    H223325   2.511   0.455   3.119 -1.6568  1.1784 -2.5126
  564TIP3   OH223326   0.373   6.856   8.127 -0.0569  0.1861 -0.1428
  564TIP3    H123327   0.305   6.909   8.169  0.0106  0.6801 -0.6444
  564TIP3    H223328   0.382   6.779   8.184 -0.0235  0.7992  0.6964
  565TIP3   OH223329   3.941   6.549   7.347 -0.7222  0.1310 -0.4448
  565TIP3    H123330   3.890   6.471   7.372 -0.9212  0.8912  1.7582
  565TIP3    H223331   3.893   6.587   7.274 -1.4822 -0.9638 -0.5435
  566TIP3   OH223332   2.540   5.259   8.448 -0.0678  0.0764 -0.0644
  566TIP3    H123333   2.627   5.224   8.469 -0.6959 -0.2631  2.2465
  566TIP3    H223334   2.480   5.185   8.461 -0.8290  0.5615 -0.7029
  567TIP3   OH223335   4.127   0.626   2.633  0.0606 -0.4770 -0.6419
  567TIP3    H123336   4.145   0.573   2.556  1.1692 -1.0395 -0.0274
  567TIP3    H223337   4.112   0.562   2.703  0.2671  0.0054 -0.1436
  568TIP3   OH223338   2.719   1.479   2.219  0.4114  0.4183 -1.0332
  568TIP3    H123339   2.694   1.407   2.162  0.2656 -0.9753  0.7052
  568TIP3    H223340   2.638   1.527   2.235 -0.5666 -1.8251  1.4856
  569TIP3   OH223341   1.874   2.259   1.187 -0.0242 -0.9785 -0.0257
  569TIP3    H123342   1.906   2.349   1.196  2.5268 -1.7800 -0.2659
  569TIP3    H223343   1.838   2.255   1.098 -0.2347 -0.1992  0.0154
  570TIP3   OH223344   6.301   4.290   1.667 -0.1110  0.5320  0.5100
  570TIP3    H123345   6.358   4.220   1.698 -0.7253  0.0771  0.6472
  570TIP3    H223346   6.215   4.268   1.702 -0.4785  0.9260 -0.1146
  571TIP3   OH223347   5.859   5.862   2.249 -0.3747 -0.1817  0.0599
  571TIP3    H123348   5.890   5.828   2.333 -1.6247 -2.3439 -0.2833
  571TIP3    H223349   5.913   5.939   2.233  2.3987 -1.7679  1.1094
  572TIP3   OH223350   3.891   0.546   8.621  0.1980 -0.2069 -0.3384
  572TIP3    H123351   3.864   0.605   8.550  0.5134 -0.4477 -0.6640
  572TIP3    H223352   3.927   0.469   8.576 -0.3257 -0.7089  0.0798
  573TIP3   OH223353   4.214   3.567   0.050 -0.2306 -0.1049 -0.6813
  573TIP3    H123354   4.128   3.536   0.020 -0.6592  1.5133 -1.2420
  573TIP3    H223355   4.275   3.537  -0.017  0.0537 -3.1108  0.7563
  574TIP3   OH223356   4.982   5.189   0.009 -0.7555  0.0893 -0.1670
  574TIP3    H123357   5.031   5.211   0.088 -1.9239  1.3650  0.2389
  574TIP3    H223358   4.908   5.137   0.041 -0.0739 -1.2538 -0.6963
  575TIP3   OH223359   0.070   3.405   2.254 -0.2169 -0.0567  0.2513
  575TIP3    H123360   0.068   3.493   2.291  0.5660 -0.6590  1.8287
  575TIP3    H223361   0.021   3.351   2.317  0.8952 -1.0680  0.2937
  576TIP3   OH223362   3.378   6.036   0.617  0.3672  0.0245 -0.0076
  576TIP3    H123363   3.462   6.061   0.578  1.5061 -1.5707  1.2760
  576TIP3    H223364   3.373   5.941   0.604 -1.4928  0.1517 -0.4821
  577TIP3   OH223365   5.958   3.696   8.024  0.3464  0.0374  0.0941
  577TIP3    H123366   5.936   3.630   7.958  2.1668  1.2545 -1.9000
  577TIP3    H223367   5.916   3.666   8.104 -0.3505 -2.5780 -1.1473
  578TIP3   OH223368   5.560   5.744   3.165 -0.0844 -0.3880 -0.1595
  578TIP3    H123369   5.525   5.834   3.161 -1.2984 -0.6332  2.5772
  578TIP3    H223370   5.619   5.745   3.240 -1.0328 -2.1234  0.6718
  579TIP3   OH223371   0.644   2.244   2.361 -0.0148 -0.2763  0.2607
  579TIP3    H123372   0.654   2.149   2.357  2.0705 -0.0549 -1.3633
  579TIP3    H223373   0.570   2.263   2.303  0.4629 -0.8079 -0.5335
  580TIP3   OH223374   2.395   2.446   7.674 -0.0278 -0.2353 -0.4402
  580TIP3    H123375   2.418   2.509   7.605 -1.0238  0.1736 -0.4181
  580TIP3    H223376   2.456   2.373   7.661 -0.5759 -0.4519 -2.1677
  581TIP3   OH223377   2.246   3.721   8.166  0.8687  0.5718  0.1845
  581TIP3    H123378   2.232   3.678   8.251  0.5959  1.8643  0.8098
  581TIP3    H223379   2.251   3.648   8.104  2.6260 -0.5129  1.4775
  582TIP3   OH223380   6.426   4.236   0.094  0.2388  0.5124 -0.8207
  582TIP3    H123381   6.503   4.180   0.085  0.6575  0.6932  1.1473
  582TIP3    H223382   6.431   4.295   0.019  2.7545  1.3145 -0.1274
  583TIP3   OH223383   1.867   5.716   8.665 -0.2623  0.1376  0.0990
  583TIP3    H123384   1.871   5.687   8.756 -0.6370 -1.9255 -0.5038
  583TIP3    H223385   1.785   5.766   8.660 -1.4465 -1.7071  0.3827
  584TIP3   OH223386   2.454   3.745   7.543  0.2995 -0.2249  0.7464
  584TIP3    H123387   2.441   3.837   7.567 -0.7638 -0.2590  0.3854
  584TIP3    H223388   2.437   3.743   7.448 -0.6036 -0.9345  0.9049
  585TIP3   OH223389   4.141   4.574   8.374  0.1519  0.0941 -0.4170
  585TIP3    H123390   4.107   4.490   8.341  0.1924 -0.5438  1.0559
  585TIP3    H223391   4.117   4.638   8.308 -0.2480 -1.0245 -1.3854
  586TIP3   OH223392   1.906   3.893   1.988 -0.2674  0.5383 -0.2535
  586TIP3    H123393   1.995   3.872   1.961 -0.8781  0.3772 -2.3820
  586TIP3    H223394   1.912   3.979   2.030  0.9797  0.1796  0.3342
  587TIP3   OH223395   3.451   3.527   7.315 -0.5311  0.7779 -0.0300
  587TIP3    H123396   3.457   3.612   7.359  0.0725  0.0336  1.3867
  587TIP3    H223397   3.528   3.524   7.259  0.1768  0.6332  0.9275
  588TIP3   OH223398   3.176   1.966   2.776  0.5024 -0.1269  0.4465
  588TIP3    H123399   3.179   1.921   2.859 -0.0758 -3.3091 -1.1202
  588TIP3    H223400   3.083   1.976   2.757  0.5659 -1.5394 -0.7986
  589TIP3   OH223401   0.598   3.389   8.534  0.1771  0.3049  0.3933
  589TIP3    H123402   0.504   3.370   8.543  0.4794 -0.9989  1.0623
  589TIP3    H223403   0.615   3.384   8.440 -0.1880 -0.7655  0.3679
  590TIP3   OH223404   6.468   3.986   7.159 -0.2438 -0.2887 -0.2502
  590TIP3    H123405   6.526   3.934   7.103 -0.9446  0.2300 -1.4883
  590TIP3    H223406   6.387   3.994   7.109 -1.0100 -0.0709  0.9808
  591TIP3   OH223407   6.487   2.140   0.864 -0.2644  0.1424  0.4986
  591TIP3    H123408   6.532   2.223   0.847 -0.3654  0.0798 -0.0802
  591TIP3    H223409   6.478   2.137   0.960 -0.9461  1.1520  0.4727
  592TIP3   OH223410   4.388   3.821   8.445  0.1837  0.3387 -0.6265
  592TIP3    H123411   4.367   3.879   8.518 -0.3444 -0.1019 -0.4282
  592TIP3    H223412   4.483   3.827   8.437  0.2304  0.5073 -0.0050
  593TIP3   OH223413   5.442   5.656   0.159  0.1651  0.0916  0.1043
  593TIP3    H123414   5.473   5.742   0.131  1.6698 -0.4579  0.0017
  593TIP3    H223415   5.364   5.640   0.106  0.2686  1.0929 -0.3724
  594TIP3   OH223416   3.492   5.502   1.570 -0.4515  0.1806 -0.0782
  594TIP3    H123417   3.490   5.550   1.653  0.5398 -0.4627  0.3318
  594TIP3    H223418   3.545   5.425   1.587  1.3915  0.9622 -1.7683
  595TIP3   OH223419   4.334   5.404   7.786 -0.8298  0.5095  0.3658
  595TIP3    H123420   4.389   5.341   7.739  0.5958 -1.6312  4.3269
  595TIP3    H223421   4.247   5.365   7.787 -0.3166 -0.6879  1.4038
  596TIP3   OH223422   3.514   1.810   0.375 -0.4475 -0.5362 -0.6151
  596TIP3    H123423   3.492   1.841   0.463  1.1430 -0.2825 -0.2649
  596TIP3    H223424   3.585   1.748   0.389 -1.2564 -1.7324 -1.6125
  597TIP3   OH223425   5.045   2.099   7.242 -0.1835  0.2824  0.3576
  597TIP3    H123426   5.057   2.032   7.176 -0.8104 -0.1289  0.6509
  597TIP3    H223427   5.034   2.051   7.324 -0.0839  0.7627  0.6599
  598TIP3   OH223428   6.492   5.386   0.517 -0.1559 -0.5053  0.5063
  598TIP3    H123429   6.477   5.445   0.443  1.5721  0.8031  1.1461
  598TIP3    H223430   6.448   5.429   0.591  0.4106 -0.4162  0.7989
  599TIP3   OH223431   3.689   4.989   2.004 -0.0706 -0.2525  0.2166
  599TIP3    H123432   3.686   4.986   1.908  1.0712  1.2408  0.0856
  599TIP3    H223433   3.602   5.019   2.030 -0.0429  0.4682 -0.4549
  600TIP3   OH223434   6.293   4.935   1.404  0.5771  0.2680 -0.4204
  600TIP3    H123435   6.367   4.879   1.380  1.6557  0.9232  1.1785
  600TIP3    H223436   6.222   4.874   1.424  0.5353 -0.3663 -2.2657
  601TIP3   OH223437   0.378   4.243   7.876  0.4565 -0.1024  0.2450
  601TIP3    H123438   0.340   4.169   7.830  2.3049 -0.3356 -1.0024
  601TIP3    H223439   0.370   4.316   7.815 -1.7600  0.9329  1.6282
  602TIP3   OH223440   5.541   4.388   8.019 -0.2531 -0.3062 -0.2974
  602TIP3    H123441   5.494   4.312   8.051 -0.1766 -0.6106 -0.8939
  602TIP3    H223442   5.564   4.366   7.929 -0.4793  0.5352 -0.5705
  603TIP3   OH223443   5.508   3.445   8.562 -0.0266 -0.0678 -0.3890
  603TIP3    H123444   5.546   3.496   8.635 -1.2014  0.3783 -0.0657
  603TIP3    H223445   5.568   3.372   8.550  0.9656  0.6473  0.0667
  604TIP3   OH223446   4.109   0.266   8.661 -0.0044  0.7225 -0.2907
  604TIP3    H123447   4.083   0.191   8.608  1.1779 -0.2153  0.3920
  604TIP3    H223448   4.195   0.292   8.625  1.2636 -0.5107  1.6665
  605TIP3   OH223449   1.132   2.937   8.607  0.8093 -0.4194  0.3727
  605TIP3    H123450   1.053   2.894   8.640 -1.0567 -0.4031 -3.4691
  605TIP3    H223451   1.113   3.030   8.613  0.6356 -0.4097 -0.2088
  606TIP3   OH223452   1.976   0.161   8.010 -0.0792  0.4686 -0.8351
  606TIP3    H123453   1.906   0.099   8.030  0.1200  0.4459 -0.1747
  606TIP3    H223454   2.056   0.112   8.030  0.0757  0.9831 -0.1375
  607TIP3   OH223455   5.175   3.042   0.731 -0.8224 -0.5762  0.0589
  607TIP3    H123456   5.150   3.114   0.789 -0.5521  0.2335 -0.8038
  607TIP3    H223457   5.225   2.983   0.787 -0.5144  0.2112  0.6446
  608TIP3   OH223458   4.986   5.808   1.001  0.4311 -0.0304  0.0715
  608TIP3    H123459   5.044   5.875   1.036 -1.1218  1.2412  0.3225
  608TIP3    H223460   4.915   5.857   0.960 -0.5325 -1.5226 -0.1105
  609TIP3   OH223461   3.925   4.941   8.219 -0.0811 -0.2720  0.3350
  609TIP3    H123462   3.993   4.877   8.200 -1.3238 -1.1716 -1.2716
  609TIP3    H223463   3.967   5.026   8.201  1.8951 -0.4297  3.4392
  610TIP3   OH223464   0.293   0.464   2.112 -0.2432  0.2427  0.1104
  610TIP3    H123465   0.219   0.430   2.061  0.7432 -1.0232 -0.5287
  610TIP3    H223466   0.369   0.452   2.055  0.5716  0.8949  1.0197
  611TIP3   OH223467   2.494   3.445   2.107  0.2881  0.3277  0.1667
  611TIP3    H123468   2.581   3.454   2.146  0.9008 -2.3621 -0.3326
  611TIP3    H223469   2.492   3.355   2.074 -2.2232  0.7250 -1.0299
  612TIP3   OH223470   5.755   0.447   7.890 -0.3422 -0.1408 -0.6391
  612TIP3    H123471   5.669   0.442   7.848 -0.5145 -2.8800 -0.1450
  612TIP3    H223472   5.766   0.363   7.933  1.9455  0.7254  0.6722
  613TIP3   OH223473   6.492   4.058   0.990 -0.8720  0.4092  0.2931
  613TIP3    H123474   6.488   3.964   1.006 -3.0977  0.4372  0.2834
  613TIP3    H223475   6.574   4.072   0.944 -0.7321 -1.5958 -0.1318
  614TIP3   OH223476   3.969   0.296   2.376  0.5369 -0.1725 -0.2851
  614TIP3    H123477   3.897   0.233   2.378  0.1593  0.2417 -0.6051
  614TIP3    H223478   4.036   0.259   2.435  1.4031 -2.1422 -2.3845
  615TIP3   OH223479   1.635   2.942   1.591  0.0207 -0.0034  0.3334
  615TIP3    H123480   1.724   2.956   1.560  0.2436  0.9446  1.3379
  615TIP3    H223481   1.595   2.885   1.524  1.6640 -1.3118  0.3879
  616TIP3   OH223482   1.969   2.497   1.518  0.0343 -0.1817  0.5960
  616TIP3    H123483   2.058   2.520   1.546  0.9384 -0.2067 -2.0113
  616TIP3    H223484   1.969   2.512   1.424 -2.6424 -0.5625  0.4635
  617TIP3   OH223485   0.803   6.053   7.966 -0.1075  0.5528  0.0585
  617TIP3    H123486   0.811   6.080   8.057 -0.9314 -0.0024  0.2963
  617TIP3    H223487   0.709   6.051   7.949 -0.1110 -2.0434  0.0238
  618TIP3   OH223488   2.690   1.971   0.061 -0.0539  0.1980 -0.3865
  618TIP3    H123489   2.669   2.052   0.014  2.6670  1.1266 -0.1974
  618TIP3    H223490   2.755   1.927   0.006  1.2243 -0.0008  1.1918
  619TIP3   OH223491   3.015   5.841   2.734  0.3278 -0.1362 -0.1418
  619TIP3    H123492   3.074   5.767   2.743  0.0596 -0.3393 -0.0519
  619TIP3    H223493   2.970   5.827   2.651  0.5274  0.1104 -0.2970
  620TIP3   OH223494   0.925   6.845   7.552  0.6318 -0.3050  0.0463
  620TIP3    H123495   0.851   6.891   7.511  1.1117 -0.0644 -0.5633
  620TIP3    H223496   0.901   6.752   7.548  0.3258 -0.2215 -0.0675
  621TIP3   OH223497   2.726   6.601   8.012  0.1869  0.0603 -1.0920
  621TIP3    H123498   2.672   6.525   8.035 -2.2860  1.7484 -0.9332
  621TIP3    H223499   2.699   6.622   7.922  0.7981  0.7675 -1.1137
  622TIP3   OH223500   6.150   2.912   0.340  0.1423  0.1670  0.4638
  622TIP3    H123501   6.164   2.818   0.356 -0.2459  0.0438  0.0918
  622TIP3    H223502   6.195   2.955   0.413 -1.0738 -0.3673  1.5772
  623TIP3   OH223503   3.606   2.584   3.616  0.1295 -0.0767 -0.1283
  623TIP3    H123504   3.514   2.571   3.637 -0.5393  0.0739 -2.5689
  623TIP3    H223505   3.649   2.502   3.640 -0.6135 -0.1432  1.0500
  624TIP3   OH223506   2.164   2.244   7.460  0.0187  0.0954  0.4259
  624TIP3    H123507   2.117   2.327   7.450 -3.1169 -1.3181  2.1823
  624TIP3    H223508   2.201   2.227   7.373  0.1489  2.9218 -0.1702
  625TIP3   OH223509   6.781   5.256   2.287  0.2868 -0.1917 -0.8431
  625TIP3    H123510   6.851   5.190   2.288 -0.2593 -0.7790 -0.7597
  625TIP3    H223511   6.812   5.323   2.226  0.9479 -0.4120 -0.7630
  626TIP3   OH223512   5.091   1.161   1.097 -0.1451  0.2967  0.5013
  626TIP3    H123513   5.071   1.088   1.156  0.9204 -0.0317  0.4778
  626TIP3    H223514   5.186   1.170   1.103 -0.0823  0.5705 -0.8169
  627TIP3   OH223515   2.254   6.639   0.247 -0.8237 -0.2289  0.8009
  627TIP3    H123516   2.347   6.619   0.257 -0.6468 -0.2632 -0.7217
  627TIP3    H223517   2.249   6.734   0.249 -0.8746 -0.2414  1.7088
  628TIP3   OH223518   2.507   0.094   7.846  0.4453  0.3854  0.2593
  628TIP3    H123519   2.485   0.015   7.795 -0.4229  0.7817  0.0121
  628TIP3    H223520   2.567   0.062   7.914  1.2261 -0.2399 -0.6982
  629TIP3   OH223521   1.379   3.910   7.113 -0.1830 -0.2700  0.1466
  629TIP3    H123522   1.434   3.851   7.164 -1.6970 -1.4355  0.4917
  629TIP3    H223523   1.358   3.861   7.033 -1.4500 -0.2318  0.4304
  630TIP3   OH223524   6.364   0.169   2.867 -0.1022  0.4706  0.4410
  630TIP3    H123525   6.392   0.080   2.845  0.5591  0.6860  0.4043
  630TIP3    H223526   6.299   0.191   2.801 -0.0678  0.1137  0.2881
  631TIP3   OH223527   2.212   6.722   2.701  0.9368  0.1799  0.3575
  631TIP3    H123528   2.216   6.726   2.606 -1.0869  0.5530  0.2471
  631TIP3    H223529   2.152   6.792   2.726 -1.5156 -2.1485  1.5899
  632TIP3   OH223530   2.816   1.151   0.058 -0.4593 -0.3270 -0.5248
  632TIP3    H123531   2.789   1.115  -0.026 -1.7085  0.1767 -0.3581
  632TIP3    H223532   2.773   1.236   0.063  0.9806  0.4242 -0.1218
  633TIP3   OH223533   4.251   1.360   1.325  0.0873 -0.0742  0.7158
  633TIP3    H123534   4.331   1.389   1.280 -0.3058 -0.5028 -0.2815
  633TIP3    H223535   4.254   1.405   1.409  2.7447 -2.0590  1.8611
  634TIP3   OH223536   6.813   1.294   7.317 -0.5695  0.1773 -0.4215
  634TIP3    H123537   6.883   1.304   7.253 -1.7395  1.8705 -1.5429
  634TIP3    H223538   6.848   1.234   7.382  1.9780  1.0807 -0.8387
  635TIP3   OH223539   6.869   3.054   1.468  0.0067  0.1766 -0.2102
  635TIP3    H123540   6.831   3.115   1.532 -1.1883 -1.6024  0.8715
  635TIP3    H223541   6.885   2.974   1.519  0.4072 -0.8053 -1.8306
  636TIP3   OH223542   3.348   0.744   7.397 -0.6412 -0.0654  0.5426
  636TIP3    H123543   3.306   0.830   7.390 -0.8685 -0.3004 -1.7822
  636TIP3    H223544   3.276   0.682   7.390 -0.3012 -0.4436  0.3867
  637TIP3   OH223545   2.132   2.486   0.684  0.5007 -0.0102  0.4685
  637TIP3    H123546   2.100   2.496   0.774 -0.0755  0.4635  0.2171
  637TIP3    H223547   2.138   2.575   0.651  0.6188 -0.1882  0.0022
  638TIP3   OH223548   0.457   2.587   8.161 -0.0451  0.3168 -0.5226
  638TIP3    H123549   0.481   2.631   8.080  0.8337  0.8647  0.0244
  638TIP3    H223550   0.463   2.655   8.229 -3.1790  0.5220 -0.3056
  639TIP3   OH223551   0.539   1.406   7.663  0.3261  0.1861  0.3751
  639TIP3    H123552   0.516   1.495   7.692  2.8203  0.5027  1.6629
  639TIP3    H223553   0.626   1.391   7.699  0.4100 -2.4238 -0.7021
  640TIP3   OH223554   3.324   5.329   7.262 -0.1415  0.0909 -0.0023
  640TIP3    H123555   3.285   5.342   7.175 -0.9973 -1.7481  0.0633
  640TIP3    H223556   3.333   5.417   7.297 -1.2303  0.7801 -1.3511
  641TIP3   OH223557   5.215   3.290   2.328  0.4221 -0.0498  0.7010
  641TIP3    H123558   5.239   3.276   2.236  1.6345 -0.7905  1.1018
  641TIP3    H223559   5.221   3.204   2.368 -0.4345  0.2063  1.4213
  642TIP3   OH223560   5.619   0.631   8.677 -0.5116 -0.0484 -0.6728
  642TIP3    H123561   5.646   0.621   8.768 -0.3503 -0.4015 -0.7584
  642TIP3    H223562   5.699   0.652   8.630 -0.5054 -0.3805 -0.8129
  643TIP3   OH223563   6.750   5.911   2.953 -0.0251  0.1744  0.2865
  643TIP3    H123564   6.738   5.817   2.942  2.0289  0.0631 -1.5746
  643TIP3    H223565   6.827   5.919   3.009  0.7746  0.6932 -0.8451
  644TIP3   OH223566   4.344   4.923   0.923 -0.1912  0.5846  0.2407
  644TIP3    H123567   4.309   4.835   0.937 -1.0503  0.8176 -0.3836
  644TIP3    H223568   4.429   4.922   0.968  0.5729 -1.0883 -1.0831
  645TIP3   OH223569   4.490   2.113   2.813 -0.0557  0.4563  0.2072
  645TIP3    H123570   4.531   2.193   2.844 -0.2622  0.5223  0.3060
  645TIP3    H223571   4.526   2.044   2.869  0.3238  0.4390 -0.0461
  646TIP3   OH223572   6.386   5.130   0.894 -0.6984  0.4773 -0.4329
  646TIP3    H123573   6.379   5.175   0.810 -3.7238  0.0961 -0.4899
  646TIP3    H223574   6.424   5.194   0.953  0.6935  1.0281 -1.8518
  647TIP3   OH223575   5.378   2.535   0.133  0.5428 -0.0273  0.4053
  647TIP3    H123576   5.473   2.523   0.121  0.6574  1.1447  0.0089
  647TIP3    H223577   5.371   2.600   0.203 -0.0608 -2.5216  2.8344
  648TIP3   OH223578   4.073   4.528   1.331  0.4820 -0.6816 -0.0379
  648TIP3    H123579   4.115   4.460   1.278  0.7230 -0.3456 -0.2812
  648TIP3    H223580   4.003   4.562   1.275  0.8466 -0.2080 -0.2174
  649TIP3   OH223581   2.041   2.507   0.977 -0.0434 -0.4956  0.4482
  649TIP3    H123582   2.017   2.563   1.051 -0.4568 -1.8567  1.3739
  649TIP3    H223583   1.960   2.461   0.954 -0.0073  0.1383 -1.0893
  650TIP3   OH223584   3.624   6.363   1.918 -0.1983  0.1237  0.0504
  650TIP3    H123585   3.694   6.395   1.974  0.6874 -1.2970 -0.1964
  650TIP3    H223586   3.635   6.410   1.836  1.4712 -1.1813 -0.5200
  651TIP3   OH223587   5.409   0.545   8.516  0.1536 -0.2723  0.4428
  651TIP3    H123588   5.481   0.573   8.572 -0.2620  1.3413  0.2164
  651TIP3    H223589   5.344   0.615   8.523  0.5237  0.5978 -2.8787
  652TIP3   OH223590   3.054   5.479   3.133  0.1338 -0.5210 -0.0634
  652TIP3    H123591   3.120   5.542   3.162 -1.7286  1.3102  0.5033
  652TIP3    H223592   2.983   5.533   3.098 -1.0050 -2.3864 -0.8086
  653TIP3   OH223593   3.273   0.937   2.037  0.4252 -0.2225 -0.2384
  653TIP3    H123594   3.268   0.872   2.106  1.1867  0.5779  0.6027
  653TIP3    H223595   3.271   0.887   1.956  0.6978 -1.2619  0.3838
  654TIP3   OH223596   3.143   0.852   0.380 -0.2710  0.1699  0.2632
  654TIP3    H123597   3.212   0.816   0.436  0.4560  0.4393 -0.4353
  654TIP3    H223598   3.188   0.877   0.300 -0.8799  1.8962  0.4063
  655TIP3   OH223599   6.167   3.306   2.142  0.0421 -0.2231 -0.0554
  655TIP3    H123600   6.133   3.228   2.098 -3.6105  0.7299  0.7191
  655TIP3    H223601   6.110   3.317   2.218  0.1769  3.3442 -0.3076
  656TIP3   OH223602   6.825   3.528   2.563  0.3812  0.2030 -0.3223
  656TIP3    H123603   6.811   3.574   2.646 -0.1742  0.0043 -0.3039
  656TIP3    H223604   6.887   3.458   2.584 -0.0256 -0.0601 -0.0005
  657TIP3   OH223605   5.438   5.359   2.531 -0.7439 -0.2168  0.5294
  657TIP3    H123606   5.360   5.376   2.478 -0.3942 -2.3454 -0.7885
  657TIP3    H223607   5.438   5.264   2.545  2.4534 -0.5922 -0.9878
  658TIP3   OH223608   1.839   3.258   8.356  0.0663 -0.5724 -0.0605
  658TIP3    H123609   1.882   3.193   8.300 -0.3987 -2.3656  1.5617
  658TIP3    H223610   1.748   3.228   8.363 -0.0171 -0.0967  1.1973
  659TIP3   OH223611   3.692   6.867   3.074  0.0552 -0.0630  0.2641
  659TIP3    H123612   3.778   6.904   3.054 -0.5084  0.3952 -1.4485
  659TIP3    H223613   3.649   6.934   3.127  0.3347  0.1736  0.1963
  660TIP3   OH223614   1.261   4.150   7.154  0.0102 -0.3762  0.4994
  660TIP3    H123615   1.264   4.176   7.061  0.6022  0.3629  0.7153
  660TIP3    H223616   1.280   4.056   7.153 -0.5512 -0.4970 -0.1697
  661TIP3   OH223617   0.872   2.463   1.577  0.1768  0.0696  0.9923
  661TIP3    H123618   0.901   2.442   1.665  1.4375 -0.3064  0.5070
  661TIP3    H223619   0.926   2.409   1.520 -0.2295  0.7170 -0.0361
  662TIP3   OH223620   1.696   3.126   0.450  1.0821  0.7810  0.3391
  662TIP3    H123621   1.727   3.061   0.387  0.0861  0.5563  0.0539
  662TIP3    H223622   1.726   3.093   0.535 -0.7321 -0.9299  0.3814
  663TIP3   OH223623   5.326   0.963   2.939  0.1576  0.2901  0.5307
  663TIP3    H123624   5.356   0.994   3.025 -0.8703  1.3739  0.5115
  663TIP3    H223625   5.235   0.937   2.953  0.0859  0.1515 -0.1632
  664TIP3   OH223626   3.528   0.566   0.303  0.1035  0.1784 -0.4080
  664TIP3    H123627   3.612   0.587   0.263  1.7214 -1.3961  1.9459
  664TIP3    H223628   3.497   0.650   0.337  2.1238  0.3742  1.1160
  665TIP3   OH223629   6.111   2.729   8.435  0.3042  0.1821 -0.2156
  665TIP3    H123630   6.140   2.795   8.372  1.4277 -0.6150 -0.5592
  665TIP3    H223631   6.181   2.725   8.499 -1.1166  1.4823  1.5466
  666TIP3   OH223632   1.222   2.736   8.192  0.1778 -0.5493 -0.1041
  666TIP3    H123633   1.300   2.769   8.236 -1.1805  0.1638  1.9119
  666TIP3    H223634   1.213   2.646   8.224 -0.3397 -0.3095  0.4491
  667TIP3   OH223635   2.199   5.110   0.331 -0.4309  0.1478  0.2308
  667TIP3    H123636   2.173   5.085   0.243 -0.6161  0.7881  0.0942
  667TIP3    H223637   2.146   5.187   0.350  1.0602  1.2529  0.1044
  668TIP3   OH223638   0.323   0.570   7.930  0.0522 -0.0760  0.3643
  668TIP3    H123639   0.364   0.518   7.999  0.3321 -0.5952 -0.1848
  668TIP3    H223640   0.233   0.537   7.925 -0.0490  0.1494  0.6617
  669TIP3   OH223641   4.750   4.003   2.995 -0.2958 -0.5191 -0.0178
  669TIP3    H123642   4.727   4.074   3.055  1.0284 -1.8274  2.1564
  669TIP3    H223643   4.669   3.953   2.985 -0.9829  0.6872 -0.7929
  670TIP3   OH223644   2.389   2.266   0.218 -0.0005 -0.4373 -0.0219
  670TIP3    H123645   2.386   2.350   0.264  0.0208  0.8852 -2.2868
  670TIP3    H223646   2.433   2.207   0.280  0.8824  1.4511  1.2701
  671TIP3   OH223647   5.969   0.620   2.859 -0.1280  0.2600  0.0702
  671TIP3    H123648   5.964   0.525   2.851  2.2453  0.1127 -0.6308
  671TIP3    H223649   5.886   0.652   2.824 -0.2096 -1.5113 -1.5274
  672TIP3   OH223650   3.599   4.525   0.903  0.6343  0.1230  0.3901
  672TIP3    H123651   3.538   4.496   0.835  0.2621 -0.5424  1.0084
  672TIP3    H223652   3.667   4.573   0.854  0.4914 -0.5340 -0.4792
  673TIP3   OH223653   2.479   5.653   0.527  0.1988 -0.3204 -0.2274
  673TIP3    H123654   2.471   5.628   0.435  0.0923  0.7230 -0.5145
  673TIP3    H223655   2.573   5.659   0.542  0.2121  0.4944 -0.5626
  674TIP3   OH223656   0.601   0.417   2.887  0.2523  0.6230 -0.3857
  674TIP3    H123657   0.646   0.351   2.834  0.4185  0.3496  0.0869
  674TIP3    H223658   0.672   0.459   2.937  0.0461  0.5383 -0.0172
  675TIP3   OH223659   2.859   0.023   0.678  0.1338  0.4629 -0.0541
  675TIP3    H123660   2.773  -0.006   0.709 -0.3383  0.9212 -0.8653
  675TIP3    H223661   2.855   0.119   0.683 -1.0372  0.8203 -3.8966
  676TIP3   OH223662   5.155   4.807   3.019 -0.9808 -0.5578 -0.0174
  676TIP3    H123663   5.225   4.764   3.067  0.3091 -1.0327 -2.1799
  676TIP3    H223664   5.094   4.837   3.086  0.8222 -0.9402  1.8822
  677TIP3   OH223665   5.817   3.609   8.283 -0.4600  0.2675 -0.3077
  677TIP3    H123666   5.832   3.516   8.265 -0.4798  0.0707  0.6624
  677TIP3    H223667   5.724   3.614   8.305 -0.0193  0.1621  1.7126
  678TIP3   OH223668   1.080   6.091   8.132 -0.0986  0.5688 -0.3829
  678TIP3    H123669   1.147   6.044   8.183 -2.1448 -3.6302 -1.1551
  678TIP3    H223670   1.001   6.087   8.186 -1.1555  0.1436 -1.8951
  679TIP3   OH223671   0.606   2.784   0.622 -0.4937  0.4264  0.1350
  679TIP3    H123672   0.617   2.808   0.714 -1.9304 -1.5833  0.9061
  679TIP3    H223673   0.570   2.862   0.580 -1.3388  0.8764  1.6392
  680TIP3   OH223674   3.949   2.846   3.238  0.3129 -0.1466 -0.0562
  680TIP3    H123675   4.025   2.901   3.258  0.4532 -0.4343  0.2248
  680TIP3    H223676   3.874   2.904   3.244  0.3271 -0.2403  1.4733
  681TIP3   OH223677   1.553   6.421   7.389  0.0896 -0.0280  0.0076
  681TIP3    H123678   1.553   6.367   7.310  2.5586  1.3102 -0.9939
  681TIP3    H223679   1.482   6.484   7.375  0.3012 -0.0010 -0.9993
  682TIP3   OH223680   1.316   4.007   1.859 -0.2138  0.5077 -0.0941
  682TIP3    H123681   1.249   3.968   1.915 -0.0345  1.7721  1.0601
  682TIP3    H223682   1.270   4.074   1.809 -0.2894 -0.3340 -1.1710
  683TIP3   OH223683   1.879   2.593   2.270  0.1436  0.0299 -0.0229
  683TIP3    H123684   1.805   2.629   2.319  1.6673  2.7696  0.4989
  683TIP3    H223685   1.843   2.571   2.184 -1.5311 -0.0484  0.6598
  684TIP3   OH223686   0.587   0.753   1.078 -0.4674 -0.0715  0.5384
  684TIP3    H123687   0.581   0.665   1.115 -0.8311  0.8927  2.9118
  684TIP3    H223688   0.676   0.781   1.096 -0.2778 -0.0128 -0.4306
  685TIP3   OH223689   0.752   5.510   0.505 -0.6497 -0.0190 -0.8255
  685TIP3    H123690   0.780   5.424   0.472 -1.4159 -0.4753 -0.3080
  685TIP3    H223691   0.657   5.505   0.506 -0.6768 -0.2363  1.9194
  686TIP3   OH223692   0.212   5.514   0.417 -0.3655 -0.3066  0.8825
  686TIP3    H123693   0.179   5.592   0.463 -0.7105 -0.4419  0.8700
  686TIP3    H223694   0.307   5.524   0.417 -0.3396 -0.4177  1.8426
  687TIP3   OH223695   4.026   5.261   0.536 -0.3694 -0.0670 -0.1916
  687TIP3    H123696   3.958   5.256   0.468 -1.2729  1.4702  0.5566
  687TIP3    H223697   4.077   5.180   0.525 -1.8204 -0.8714 -1.2912
  688TIP3   OH223698   5.467   4.943   1.538 -0.5331  0.4676 -0.5540
  688TIP3    H123699   5.500   5.007   1.476 -1.2928  0.9500 -0.4677
  688TIP3    H223700   5.445   4.994   1.616  0.5209 -0.1401  0.1784
  689TIP3   OH223701   2.075   6.295   7.488 -0.4415  0.6138  0.3541
  689TIP3    H123702   2.092   6.343   7.407  1.8988  0.4760  0.6963
  689TIP3    H223703   2.024   6.356   7.542 -1.7901  0.8101 -1.0512
  690TIP3   OH223704   5.183   0.361   0.277  0.0001  0.2606 -0.1747
  690TIP3    H123705   5.134   0.319   0.206  0.6424  0.1756 -0.5806
  690TIP3    H223706   5.183   0.297   0.348  0.4263 -0.1704 -0.5576
  691TIP3   OH223707   6.065   4.630   0.620 -0.2033 -0.3467 -0.1047
  691TIP3    H123708   6.082   4.622   0.713  0.7309 -0.2929 -0.2643
  691TIP3    H223709   5.969   4.627   0.613 -0.2344 -1.8809  0.6988
  692TIP3   OH223710   1.790   2.652   1.678 -0.4619  0.5685 -0.6452
  692TIP3    H123711   1.849   2.725   1.659 -1.5264  1.0099 -2.4503
  692TIP3    H223712   1.836   2.575   1.645  0.1407  0.5618  0.1766
  693TIP3   OH223713   1.399   3.284   1.739 -0.3893  0.3250  0.2984
  693TIP3    H123714   1.471   3.319   1.686 -0.2225 -0.6428 -0.1346
  693TIP3    H223715   1.344   3.360   1.757  0.4400  0.9756  0.1526
  694TIP3   OH223716   4.466   4.300   8.040 -0.0015 -0.3353 -0.2182
  694TIP3    H123717   4.410   4.242   7.988 -0.2836  0.2871 -0.6200
  694TIP3    H223718   4.409   4.330   8.111  0.4809 -1.4530  0.6711
  695TIP3   OH223719   6.076   5.524   7.766  0.0283 -0.0605 -0.2135
  695TIP3    H123720   6.031   5.454   7.719  0.6229 -0.1205 -0.7057
  695TIP3    H223721   6.157   5.538   7.716 -0.1916  1.1360 -0.2642
  696TIP3   OH223722   3.978   0.068   0.926  0.3177  0.1437 -0.1059
  696TIP3    H123723   4.033   0.138   0.959  0.1563 -0.4861  1.5764
  696TIP3    H223724   3.998  -0.007   0.982 -1.8008 -0.2733  0.1715
  697TIP3   OH223725   5.963   1.099   1.391 -0.0145 -0.4325 -0.3328
  697TIP3    H123726   6.007   1.038   1.333 -1.3696 -2.9743  1.1333
  697TIP3    H223727   6.000   1.082   1.477  0.1112  1.4103  0.0190
  698TIP3   OH223728   3.822   6.509   0.284 -0.3394 -0.0609  0.2180
  698TIP3    H123729   3.729   6.486   0.284 -0.2257 -0.5377  0.5048
  698TIP3    H223730   3.825   6.597   0.322 -0.6534 -0.1243  0.3914
  699TIP3   OH223731   4.138   3.298   2.844  0.3770 -0.0220  0.2786
  699TIP3    H123732   4.220   3.321   2.888  1.0910 -0.2421 -0.8862
  699TIP3    H223733   4.084   3.258   2.912  1.2944  0.0002  1.0370
  700TIP3   OH223734   2.029   6.401   8.209 -0.2583  0.2202  0.1240
  700TIP3    H123735   1.953   6.458   8.199 -0.7366  0.1104  2.4913
  700TIP3    H223736   2.094   6.455   8.252 -0.0846 -0.5036  0.7925
  701TIP3   OH223737   6.570   0.722   0.041 -0.1104  0.0181  0.5850
  701TIP3    H123738   6.512   0.780   0.091  0.0716 -0.2472  1.1141
  701TIP3    H223739   6.519   0.641   0.032  0.0564 -0.1134  0.7973
  702TIP3   OH223740   0.018   6.567   1.352  0.0097 -0.4533 -0.4349
  702TIP3    H123741   0.026   6.661   1.365 -0.3312 -0.3598 -0.8588
  702TIP3    H223742  -0.021   6.535   1.433  0.9403 -0.3582  0.0568
  703TIP3   OH223743   4.015   6.106   0.866  0.0238  0.8109 -0.0602
  703TIP3    H123744   4.062   6.062   0.796 -2.9931 -0.7126 -1.2792
  703TIP3    H223745   3.991   6.036   0.927 -0.0218  1.6579  0.9291
  704TIP3   OH223746   4.450   4.451   1.604 -0.2797  0.1949 -0.6352
  704TIP3    H123747   4.533   4.499   1.606  0.0112 -0.2720 -1.1407
  704TIP3    H223748   4.384   4.518   1.621  0.1647  0.6575 -0.6694
  705TIP3   OH223749   2.729   0.142   1.638  0.2269 -0.3254  0.4044
  705TIP3    H123750   2.653   0.180   1.594  0.8037  1.8550  1.1589
  705TIP3    H223751   2.802   0.159   1.578  0.2199 -2.1188 -0.1683
  706TIP3   OH223752   3.695   0.574   0.929  0.4972  0.1304  0.4267
  706TIP3    H123753   3.735   0.615   1.005  0.8437  0.2229  0.1965
  706TIP3    H223754   3.735   0.487   0.924  0.7334  0.2515  0.1513
  707TIP3   OH223755   0.870   6.861   7.826 -0.0485  0.2009 -0.3902
  707TIP3    H123756   0.930   6.838   7.754 -0.7315 -0.9143 -0.6333
  707TIP3    H223757   0.921   6.843   7.905 -0.2421 -1.3615 -0.5864
  708TIP3   OH223758   5.644   1.394   0.780  0.1787 -0.3566 -0.0176
  708TIP3    H123759   5.703   1.368   0.851  0.8446 -0.3491 -0.5613
  708TIP3    H223760   5.645   1.489   0.780  0.2225 -0.3569 -0.0713
  709TIP3   OH223761   4.922   6.007   2.961 -0.1365  0.6009  0.7104
  709TIP3    H123762   4.885   5.958   3.034  1.2329 -0.2431  0.8772
  709TIP3    H223763   4.846   6.036   2.910 -1.0327 -1.7360  0.5787
  710TIP3   OH223764   4.031   1.743   2.973 -0.0656 -0.2685 -0.0680
  710TIP3    H123765   3.985   1.737   2.890 -0.6524  0.0224  0.2254
  710TIP3    H223766   4.116   1.781   2.951 -1.2139  2.5202 -0.2332
  711TIP3   OH223767   0.726   5.411   7.034  0.4023  0.3208  0.4284
  711TIP3    H123768   0.668   5.488   7.031 -0.8159 -0.5878 -1.1433
  711TIP3    H223769   0.676   5.345   7.081  0.3734 -0.3127 -0.4820
  712TIP3   OH223770   4.802   4.026   1.002 -0.6251  0.3604 -0.0028
  712TIP3    H123771   4.851   3.949   1.032 -1.1650 -0.7548 -1.7805
  712TIP3    H223772   4.832   4.098   1.058  2.9742 -0.2413 -0.9594
  713TIP3   OH223773   1.433   4.815   2.369 -0.5370 -0.1502  0.0145
  713TIP3    H123774   1.409   4.788   2.458 -0.3000  0.9074  0.4137
  713TIP3    H223775   1.529   4.816   2.369 -0.5275 -0.6885 -0.4270
  714TIP3   OH223776   4.446   6.764   1.530 -0.3047 -0.1502 -0.1318
  714TIP3    H123777   4.351   6.753   1.525 -0.3632  0.6834 -1.1669
  714TIP3    H223778   4.477   6.746   1.441  0.8696 -3.1928  0.7392
  715TIP3   OH223779   1.403   0.111   0.995 -0.1991 -0.4798 -0.0737
  715TIP3    H123780   1.447   0.052   1.056 -0.7608  0.8961  1.7504
  715TIP3    H223781   1.318   0.069   0.978 -0.2917 -0.5742  0.6062
  716TIP3   OH223782   1.148   2.863   7.328 -0.3418 -0.0784 -0.2617
  716TIP3    H123783   1.239   2.891   7.317 -0.1051 -0.7941 -0.1838
  716TIP3    H223784   1.136   2.795   7.261 -1.2777  1.0541 -1.2890
  717TIP3   OH223785   5.445   6.878   8.413  0.1708 -0.4129  0.0896
  717TIP3    H123786   5.526   6.832   8.433  0.0681 -1.1023 -0.9945
  717TIP3    H223787   5.383   6.809   8.390 -0.0403  0.2228 -1.3593
  718TIP3   OH223788   3.048   4.859   8.029  0.7552  0.3776  0.1143
  718TIP3    H123789   3.103   4.920   8.078  0.4191  0.1280  0.8183
  718TIP3    H223790   3.002   4.914   7.965  0.1924  0.9317  0.9715
  719TIP3   OH223791   6.266   1.635   7.064 -0.0031 -0.3728 -0.0603
  719TIP3    H123792   6.291   1.701   7.129  0.1655 -1.2228  0.7698
  719TIP3    H223793   6.172   1.622   7.079  0.1333 -0.9175  0.3520
  720TIP3   OH223794   0.598   1.618   0.620 -0.2974 -0.3327  0.2515
  720TIP3    H123795   0.524   1.581   0.668  0.5153 -1.4404  0.6941
  720TIP3    H223796   0.651   1.662   0.686 -0.8717  1.0506 -0.1634
  721TIP3   OH223797   6.231   5.622   2.419 -0.1043 -0.2089 -0.7298
  721TIP3    H123798   6.178   5.654   2.492  1.3905 -1.4343  1.0091
  721TIP3    H223799   6.284   5.697   2.393  0.4485 -0.1280  0.5375
  722TIP3   OH223800   5.880   4.178   7.896 -0.5658  0.2942 -0.3728
  722TIP3    H123801   5.835   4.167   7.812 -0.4573 -0.4205 -0.3441
  722TIP3    H223802   5.885   4.089   7.932 -2.2595  0.7855  1.2429
  723TIP3   OH223803   0.978   6.070   7.353 -0.2003  0.1202  0.6622
  723TIP3    H123804   1.044   6.135   7.328  0.0279  0.2936  1.6850
  723TIP3    H223805   0.919   6.067   7.278  1.7945 -1.1748 -0.9476
  724TIP3   OH223806   0.074   4.598   7.411  0.2797 -0.1637 -0.8341
  724TIP3    H123807   0.120   4.682   7.411 -0.6989  0.4009  0.0023
  724TIP3    H223808   0.055   4.581   7.503 -2.5807  0.4747 -1.2043
  725TIP3   OH223809   6.675   3.367   0.983  0.0636 -0.7600  0.5589
  725TIP3    H123810   6.665   3.305   1.055  0.9185  0.7500  2.0483
  725TIP3    H223811   6.589   3.410   0.976  0.2081 -0.3583  1.2173
  726TIP3   OH223812   5.028   6.244   8.174 -0.5394 -0.4425 -0.1568
  726TIP3    H123813   4.995   6.155   8.159  0.4830 -0.3689 -3.8434
  726TIP3    H223814   4.954   6.301   8.153 -0.6333 -0.3608  0.3706
  727TIP3   OH223815   2.382   2.045   0.055 -0.2285  0.3211  0.4694
  727TIP3    H123816   2.344   2.132   0.064  2.3186  1.6774 -0.5941
  727TIP3    H223817   2.452   2.042   0.121  1.3534  0.1401 -1.1152
  728TIP3   OH223818   1.090   0.966   8.432 -0.0211 -0.0223  0.5105
  728TIP3    H123819   1.164   1.002   8.383 -0.2736  0.1349  0.2439
  728TIP3    H223820   1.120   0.966   8.523 -0.9319  3.3698  0.9445
  729TIP3   OH223821   0.111   0.788   0.902  0.4496 -0.9933  0.4175
  729TIP3    H123822   0.201   0.820   0.907  0.1884  0.0112 -0.8238
  729TIP3    H223823   0.119   0.693   0.908  1.6295 -0.9433 -0.0862
  730TIP3   OH223824   2.835   0.045   7.083 -0.0277  0.1528  0.0858
  730TIP3    H123825   2.782   0.036   7.163  0.8167  1.9334  0.8805
  730TIP3    H223826   2.828   0.137   7.059  2.6107  0.4556  0.1743
  731TIP3   OH223827   3.361   5.120   1.908  0.4355  0.3944 -0.4997
  731TIP3    H123828   3.398   5.198   1.866  0.7190 -0.0989 -1.1825
  731TIP3    H223829   3.347   5.059   1.836  0.6625 -0.3594  0.0906
  732TIP3   OH223830   1.236   2.442   8.398  0.8855 -0.4511 -0.4471
  732TIP3    H123831   1.249   2.525   8.443  0.9914  0.2679 -1.7635
  732TIP3    H223832   1.180   2.391   8.458 -0.5873  1.1900 -0.3303
  733TIP3   OH223833   3.284   5.872   1.281  0.0261  0.4514 -0.5826
  733TIP3    H123834   3.305   5.892   1.190  2.4026 -0.8290 -0.4124
  733TIP3    H223835   3.308   5.951   1.329  0.6194  0.4555 -0.8775
  734TIP3   OH223836   1.976   1.929   8.531  0.2042  0.5572  0.7238
  734TIP3    H123837   1.976   1.833   8.541  0.1686  0.3691 -0.7657
  734TIP3    H223838   1.891   1.949   8.492  0.8747  0.9690 -0.5955
  735TIP3   OH223839   0.833   4.513   1.026 -0.1189 -0.4069 -0.1838
  735TIP3    H123840   0.898   4.443   1.020  0.0737 -0.2318 -0.1290
  735TIP3    H223841   0.824   4.529   1.120  1.3229  1.0341 -0.2479
  736TIP3   OH223842   3.810   2.398   2.067  0.3610  0.1475  0.0545
  736TIP3    H123843   3.774   2.487   2.060 -1.1916 -0.5329 -1.2115
  736TIP3    H223844   3.870   2.390   1.993  0.5749  0.1631  0.2246
  737TIP3   OH223845   0.267   2.675   0.585 -0.1789 -0.2475 -0.0213
  737TIP3    H123846   0.214   2.663   0.507  0.3335 -0.1278 -0.3934
  737TIP3    H223847   0.334   2.738   0.559  1.9174 -2.5153 -0.4543
  738TIP3   OH223848   5.653   4.450   8.545 -0.3328  0.0621  0.7349
  738TIP3    H123849   5.669   4.532   8.592  0.1762  1.1531 -1.2582
  738TIP3    H223850   5.559   4.435   8.555 -0.5450  1.2291  0.6164
  739TIP3   OH223851   3.349   4.734   7.996 -0.2112  0.7644  0.3724
  739TIP3    H123852   3.375   4.757   7.907 -2.4509 -0.6542 -0.7528
  739TIP3    H223853   3.292   4.806   8.023 -1.4547  0.0802 -0.3325
  740TIP3   OH223854   6.022   1.551   7.976  0.8015 -0.0078 -0.0037
  740TIP3    H123855   5.956   1.615   8.002 -1.2780 -2.4917  1.3055
  740TIP3    H223856   6.082   1.548   8.050 -0.1750 -0.8471  0.7913
  741TIP3   OH223857   1.897   5.258   1.672 -0.0719  0.5569  0.0008
  741TIP3    H123858   1.862   5.180   1.715 -0.8041  1.0443  0.3198
  741TIP3    H223859   1.842   5.269   1.595 -0.1167  0.8767  0.0764
  742TIP3   OH223860   3.172   5.287   0.002  0.5439  0.4363 -0.1218
  742TIP3    H123861   3.206   5.307  -0.086  0.8655 -1.8941 -0.5987
  742TIP3    H223862   3.243   5.238   0.044 -0.0648  0.5068  1.0310
  743TIP3   OH223863   2.589   3.285   1.760  0.2390 -0.0380 -0.0175
  743TIP3    H123864   2.619   3.223   1.693 -2.8013 -1.2352 -0.4073
  743TIP3    H223865   2.593   3.370   1.716 -1.8291 -0.8211 -1.8687
  744TIP3   OH223866   3.246   5.238   0.319 -0.7946 -0.4555 -0.1712
  744TIP3    H123867   3.297   5.220   0.239  1.4665 -0.7399  1.2430
  744TIP3    H223868   3.245   5.154   0.365 -2.3107 -0.3549  0.0023
  745TIP3   OH223869   6.361   2.803   1.613  0.4242  0.2485  0.4252
  745TIP3    H123870   6.392   2.715   1.593  0.8911  0.9049 -2.0785
  745TIP3    H223871   6.413   2.830   1.688  0.8807 -1.2641  0.6953
  746TIP3   OH223872   2.066   5.092   7.765  0.0787  0.0810  0.3200
  746TIP3    H123873   2.099   5.151   7.697 -1.1445  1.8200  1.1551
  746TIP3    H223874   2.067   5.005   7.724  1.1843  0.7865 -1.2338
  747TIP3   OH223875   2.680   4.356   1.932 -0.8931 -0.2124 -0.7419
  747TIP3    H123876   2.701   4.402   2.013 -2.1670 -0.5826 -0.1866
  747TIP3    H223877   2.625   4.283   1.959  0.9911 -2.0642 -1.5991
  748TIP3   OH223878   6.862   3.968   0.637  0.6689 -0.4732 -0.3289
  748TIP3    H123879   6.916   4.034   0.681  1.5028 -0.7071 -0.9729
  748TIP3    H223880   6.774   3.982   0.672  1.0931  0.0878  0.5487
  749TIP3   OH223881   1.583   5.668   8.230  0.2139 -1.1771  0.2566
  749TIP3    H123882   1.561   5.750   8.185  2.6905  0.0046  1.0209
  749TIP3    H223883   1.528   5.668   8.308  1.0578  0.4208  0.8832
  750TIP3   OH223884   6.445   3.506   1.073  0.4645 -0.2957  0.6878
  750TIP3    H123885   6.468   3.596   1.095  0.3889 -0.6113  2.1486
  750TIP3    H223886   6.426   3.465   1.157 -2.1590 -0.9793 -0.1488
  751TIP3   OH223887   3.551   4.436   2.937  0.5896  0.2520  0.1595
  751TIP3    H123888   3.465   4.396   2.924  0.8115 -0.0688 -0.3505
  751TIP3    H223889   3.576   4.469   2.851  0.2191  1.9212  0.6418
  752TIP3   OH223890   2.775   5.936   7.881  0.4905  0.2877  0.0197
  752TIP3    H123891   2.865   5.904   7.886  0.3754  0.1280  1.9602
  752TIP3    H223892   2.726   5.864   7.842  0.4626 -1.5836  3.1107
  753TIP3   OH223893   1.854   2.072   8.152 -0.0436  0.1726 -0.2952
  753TIP3    H123894   1.944   2.044   8.168 -0.0185 -0.2510 -1.1564
  753TIP3    H223895   1.861   2.165   8.128 -0.0745  0.8241  1.9556
  754TIP3   OH223896   6.681   2.769   1.499 -0.3245 -0.0096  0.1117
  754TIP3    H123897   6.725   2.723   1.570  2.1529  0.6719 -0.8847
  754TIP3    H223898   6.636   2.701   1.450  1.2994 -1.0915  0.0512
  755TIP3   OH223899   3.722   5.956   2.492 -0.5887  0.0742 -0.4260
  755TIP3    H123900   3.718   5.863   2.515  0.1741  0.5554  1.9341
  755TIP3    H223901   3.815   5.977   2.495 -0.7495  0.9070 -1.0395
  756TIP3   OH223902   0.358   5.057   0.739 -0.2478 -0.2478  0.1634
  756TIP3    H123903   0.402   5.050   0.654  0.0396 -0.0438  0.2957
  756TIP3    H223904   0.414   5.008   0.799 -1.5978 -2.3672 -0.1815
  757TIP3   OH223905   3.478   3.695   0.468 -0.1747  0.7792 -0.3880
  757TIP3    H123906   3.540   3.658   0.405 -0.5374  0.6561 -0.6732
  757TIP3    H223907   3.392   3.676   0.431 -0.4224 -0.0934  0.5972
  758TIP3   OH223908   5.725   3.278   7.963 -0.5219 -0.2803 -0.0822
  758TIP3    H123909   5.755   3.189   7.980 -0.1887 -0.7630 -2.7549
  758TIP3    H223910   5.637   3.281   8.002 -0.5237 -1.7468  0.1013
  759TIP3   OH223911   2.852   1.600   3.593 -0.5164  0.5279  0.2131
  759TIP3    H123912   2.787   1.648   3.644 -1.3242  0.9524 -1.1418
  759TIP3    H223913   2.811   1.590   3.507  1.1700  0.7017 -0.6522
  760TIP3   OH223914   2.462   5.758   2.406 -0.0957 -0.1219 -0.2510
  760TIP3    H123915   2.549   5.748   2.366  0.8553  1.5887  1.2392
  760TIP3    H223916   2.471   5.834   2.463 -2.4691 -0.2024  0.3065
  761TIP3   OH223917   3.247   3.779   0.297  0.2901 -0.0980 -0.6626
  761TIP3    H123918   3.195   3.701   0.280  0.2643 -0.4237  0.8143
  761TIP3    H223919   3.182   3.847   0.315  0.3504 -0.3070  0.3683
  762TIP3   OH223920   1.403   4.742   0.437  0.1172 -0.3531 -0.2017
  762TIP3    H123921   1.322   4.748   0.386  0.4667 -2.6885 -1.1531
  762TIP3    H223922   1.379   4.692   0.515  0.3857 -0.0328  0.0864
  763TIP3   OH223923   1.529   2.906   8.020  0.7418 -0.4756 -0.5934
  763TIP3    H123924   1.576   2.976   7.974  0.8914 -1.1879 -1.5513
  763TIP3    H223925   1.455   2.885   7.962 -0.3276  0.0796  0.5161
  764TIP3   OH223926   5.730   0.062   0.854 -1.0167  0.0664  0.7743
  764TIP3    H123927   5.660  -0.003   0.860  0.0886 -1.0205  3.3492
  764TIP3    H223928   5.779   0.039   0.775 -0.9963 -1.9134  1.3219
  765TIP3   OH223929   0.185   6.156   7.371  0.1432  0.6203 -0.2090
  765TIP3    H123930   0.135   6.208   7.308  1.2582 -0.5148 -2.1370
  765TIP3    H223931   0.270   6.143   7.329 -0.0275 -2.6046  0.1752
  766TIP3   OH223932   4.595   3.681   7.850  0.2305 -0.7798 -0.1367
  766TIP3    H123933   4.656   3.746   7.885 -1.5155  1.7722 -1.4938
  766TIP3    H223934   4.539   3.658   7.924  1.6347 -1.7292  0.6586
  767TIP3   OH223935   1.097   3.984   2.348  0.0933 -0.7571  0.2222
  767TIP3    H123936   1.100   4.012   2.257 -0.1760  0.3286  0.5378
  767TIP3    H223937   1.130   4.059   2.398  0.9829 -1.6077  0.9728
  768TIP3   OH223938   5.531   2.465   8.269  0.6865  0.8096  0.1639
  768TIP3    H123939   5.492   2.468   8.181 -0.6301  0.8355  0.7280
  768TIP3    H223940   5.582   2.384   8.269 -0.6684 -0.0760 -0.0889
  769TIP3   OH223941   5.286   3.762   0.162 -0.1243 -0.0483 -0.2549
  769TIP3    H123942   5.332   3.680   0.179 -2.2101 -1.1506  0.3080
  769TIP3    H223943   5.234   3.778   0.241 -1.5785  0.5304 -1.2832
  770TIP3   OH223944   0.075   5.253   1.693  0.2118  0.4197 -0.2902
  770TIP3    H123945   0.061   5.171   1.739 -1.5913  1.4970  1.2322
  770TIP3    H223946   0.164   5.279   1.719  1.4562 -1.7302 -2.0673
  771TIP3   OH223947   6.607   1.001   1.322  0.1384  0.8414 -0.2175
  771TIP3    H123948   6.572   0.997   1.411  2.5848 -1.7766  0.7593
  771TIP3    H223949   6.536   1.041   1.271 -1.8838  1.1820  2.6094
  772TIP3   OH223950   4.244   4.181   1.470 -0.3800 -0.1825 -0.0480
  772TIP3    H123951   4.203   4.238   1.536 -0.7730 -1.4553  0.8408
  772TIP3    H223952   4.172   4.130   1.434 -0.0118 -0.2288 -0.7201
  773TIP3   OH223953   1.524   1.923   1.972 -0.0597  0.0872  0.3831
  773TIP3    H123954   1.536   2.017   1.966  4.3675 -0.3815 -2.8348
  773TIP3    H223955   1.590   1.894   2.035  1.5955 -1.0719 -1.7706
  774TIP3   OH223956   5.371   4.416   3.022 -0.7849  0.2705  0.2079
  774TIP3    H123957   5.420   4.480   2.970  2.0889 -0.9445  1.2047
  774TIP3    H223958   5.352   4.346   2.960  0.8940 -0.2885  0.2688
  775TIP3   OH223959   3.216   2.654   8.046  0.4141  0.2420  1.1573
  775TIP3    H123960   3.277   2.689   8.110  1.0871 -1.0996  1.3033
  775TIP3    H223961   3.135   2.641   8.095  0.7351 -0.1842  1.5927
  776TIP3   OH223962   1.790   5.454   8.616  0.1007  0.2872 -0.3085
  776TIP3    H123963   1.826   5.540   8.635  0.3975  0.4566 -1.5815
  776TIP3    H223964   1.808   5.439   8.523  0.9332 -1.5688  0.1037
  777TIP3   OH223965   3.352   2.775   2.581  0.4881  0.0891 -0.0306
  777TIP3    H123966   3.407   2.850   2.602  0.8326  0.4437 -2.0478
  777TIP3    H223967   3.414   2.702   2.573  0.3041 -0.1459  0.6357
  778TIP3   OH223968   2.110   1.246   0.271  0.2970  0.2648 -0.2713
  778TIP3    H123969   2.200   1.233   0.298 -0.2891 -2.0505  0.9017
  778TIP3    H223970   2.084   1.161   0.233 -1.7648  0.3512  0.7607
  779TIP3   OH223971   2.290   2.363   7.145  0.2438  0.1339  0.0883
  779TIP3    H123972   2.212   2.418   7.156  0.1235 -0.3476  1.9721
  779TIP3    H223973   2.264   2.277   7.177  1.0174 -0.5302 -1.0032
  780TIP3   OH223974   5.496   1.705   0.355 -0.4536 -0.0830  1.0405
  780TIP3    H123975   5.590   1.719   0.344 -0.4575  0.7716  1.9860
  780TIP3    H223976   5.467   1.673   0.270  1.1956 -3.2911  1.4822
  781TIP3   OH223977   2.457   5.547   2.955  0.3119 -0.4493 -0.0052
  781TIP3    H123978   2.448   5.455   2.979  1.5170 -0.1113  1.9937
  781TIP3    H223979   2.396   5.593   3.012  0.8876  0.1045  0.1820
  782TIP3   OH223980   6.351   1.016   7.451  0.5415 -0.5624  0.3326
  782TIP3    H123981   6.438   1.040   7.420 -0.4800  0.9652 -1.6081
  782TIP3    H223982   6.302   1.098   7.449 -0.6680 -1.1569  2.5114
  783TIP3   OH223983   6.002   6.605   1.587  0.0739  0.2743 -0.3701
  783TIP3    H123984   6.096   6.614   1.603 -0.1765  0.1616  1.3477
  783TIP3    H223985   5.966   6.690   1.611 -0.2190  0.5614 -1.7085
  784TIP3   OH223986   5.884   0.604   7.613 -0.4969  0.1176  0.0705
  784TIP3    H123987   5.879   0.645   7.526 -0.1665 -0.6730 -0.3319
  784TIP3    H223988   5.839   0.665   7.671 -2.2517 -0.1356 -0.9528
  785TIP3   OH223989   0.303   3.833   6.751 -0.2669  0.3289  0.2777
  785TIP3    H123990   0.304   3.746   6.791  0.8734  0.3822  0.3957
  785TIP3    H223991   0.395   3.852   6.733 -0.6907  0.1469 -2.7168
  786TIP3   OH223992   1.628   1.082   1.535 -0.0154  0.1582  0.1074
  786TIP3    H123993   1.723   1.073   1.532 -0.0363 -0.0881  0.1763
  786TIP3    H223994   1.601   1.035   1.614 -0.2158  0.0348 -0.0315
  787TIP3   OH223995   5.934   3.614   1.869  0.0323 -0.2206 -0.2304
  787TIP3    H123996   5.992   3.545   1.838  1.5414  0.9236 -0.0574
  787TIP3    H223997   5.918   3.592   1.961  0.1797 -0.5525 -0.2825
  788TIP3   OH223998   5.473   2.929   7.598  0.2420 -0.0662 -0.1964
  788TIP3    H123999   5.432   2.929   7.512 -0.3142 -1.6818  0.0214
  788TIP3    H224000   5.567   2.938   7.580  0.0251  0.9416 -0.8702
  789TIP3   OH224001   3.162   6.268   2.143 -0.0855  0.2480 -0.2940
  789TIP3    H124002   3.203   6.255   2.057  0.1437  0.0164 -0.1491
  789TIP3    H224003   3.223   6.326   2.189 -1.2195  2.0996 -1.0295
  790TIP3   OH224004   5.640   3.582   1.160 -0.4631 -0.0150 -0.7858
  790TIP3    H124005   5.674   3.671   1.151 -3.1123  1.0889 -0.7206
  790TIP3    H224006   5.663   3.540   1.077  1.9509  0.2390 -0.3338
  791TIP3   OH224007   6.163   0.952   0.096  0.1329  0.1682 -0.2467
  791TIP3    H124008   6.257   0.949   0.115  0.4880 -0.5209 -1.9409
  791TIP3    H224009   6.143   1.045   0.088  1.0200  0.2828 -1.3837
  792TIP3   OH224010   1.726   0.252   7.335  0.0072  0.0810  0.5666
  792TIP3    H124011   1.755   0.343   7.322 -0.4343  0.3227  1.2435
  792TIP3    H224012   1.631   0.256   7.329 -0.0179 -0.3220  0.6819
  793TIP3   OH224013   3.021   5.281   1.747  0.3650  0.3812  0.0177
  793TIP3    H124014   3.101   5.281   1.694  0.1322  0.4253 -0.3382
  793TIP3    H224015   2.998   5.189   1.755  0.8637  0.3135  0.7556
  794TIP3   OH224016   6.345   2.299   8.662 -0.6084 -0.5368  0.3268
  794TIP3    H124017   6.335   2.204   8.664 -1.3535 -0.4683  0.1506
  794TIP3    H224018   6.423   2.317   8.714  0.7332 -1.4014 -1.2812
  795TIP3   OH224019   5.621   3.898   1.511 -0.0345  0.9115 -0.2828
  795TIP3    H124020   5.647   3.967   1.450  2.1749  1.5471  1.2721
  795TIP3    H224021   5.600   3.945   1.592 -1.0956 -0.0665  0.0302
  796TIP3   OH224022   6.106   2.078   2.482  0.2158 -0.8035 -0.4367
  796TIP3    H124023   6.126   2.171   2.478 -0.2611 -0.6460  0.7148
  796TIP3    H224024   6.019   2.073   2.520  0.1697 -1.7183 -0.6355
  797TIP3   OH224025   2.790   5.091   0.774 -0.1583 -0.5595 -0.5643
  797TIP3    H124026   2.800   5.093   0.679  0.4449 -1.0604 -0.5192
  797TIP3    H224027   2.793   5.183   0.800 -1.0549 -0.3782 -1.0944
  798TIP3   OH224028   5.291   4.486   3.277 -0.1461 -0.8944 -0.6266
  798TIP3    H124029   5.374   4.521   3.309  0.2320 -2.2500 -0.0390
  798TIP3    H224030   5.312   4.452   3.190 -0.5524  0.4307 -1.2674
  799TIP3   OH224031   3.380   1.776   7.813 -0.0630 -0.0781  0.4528
  799TIP3    H124032   3.318   1.798   7.743 -1.4613 -1.2906  1.2567
  799TIP3    H224033   3.466   1.796   7.776 -0.6907 -1.2584 -1.8572
  800TIP3   OH224034   6.420   4.781   1.812  0.0385 -0.1387 -0.0985
  800TIP3    H124035   6.504   4.795   1.769 -0.7322  1.0727 -1.2845
  800TIP3    H224036   6.424   4.836   1.891 -0.6092  2.0962 -1.5420
  801TIP3   OH224037   4.970   2.952   0.220 -0.5653 -0.4500  0.1371
  801TIP3    H124038   5.027   3.003   0.277  0.6104 -0.9791 -0.5377
  801TIP3    H224039   4.979   2.862   0.250 -0.7379 -0.5939 -0.2309
  802TIP3   OH224040   5.085   6.684   8.656 -0.3347  0.1062  0.1814
  802TIP3    H124041   5.135   6.610   8.692 -0.5091  0.4054  1.0793
  802TIP3    H224042   5.024   6.644   8.594  0.9649 -0.2772 -0.9148
  803TIP3   OH224043   3.311   2.461   7.830 -0.0825  0.5940 -0.0162
  803TIP3    H124044   3.282   2.526   7.895 -1.5079  0.5581 -0.5751
  803TIP3    H224045   3.330   2.383   7.881  0.0122  0.9456  0.4929
  804TIP3   OH224046   1.864   5.605   0.542 -0.3343  0.4113  0.1892
  804TIP3    H124047   1.877   5.514   0.515  0.5827  0.3604  0.7762
  804TIP3    H224048   1.843   5.651   0.460  1.0633  0.0112 -0.4243
  805TIP3   OH224049   1.566   1.756   0.240 -0.2001 -0.1304  0.1732
  805TIP3    H124050   1.480   1.755   0.198  0.1446 -0.2787 -0.5419
  805TIP3    H224051   1.612   1.830   0.199 -1.1194  2.1953  2.9284
  806TIP3   OH224052   4.289   0.784   1.905  0.2150  0.2613  0.1254
  806TIP3    H124053   4.225   0.725   1.944  0.6426  0.8448  1.7689
  806TIP3    H224054   4.366   0.777   1.961  1.1239  0.5859 -1.0446
  807TIP3   OH224055   2.917   4.180   1.881 -0.1564  0.2006 -0.4826
  807TIP3    H124056   2.945   4.226   1.802  0.6914 -0.7600 -0.7543
  807TIP3    H224057   2.825   4.157   1.865 -0.2570  0.7973 -0.7963
  808TIP3   OH224058   6.864   5.136   0.264  0.0775 -0.6016  0.4817
  808TIP3    H124059   6.846   5.093   0.180 -2.0365 -0.1562  0.6520
  808TIP3    H224060   6.834   5.073   0.330  0.2658 -0.3027  0.8558
  809TIP3   OH224061   4.745   4.371   2.282 -0.6659 -0.5197  0.0103
  809TIP3    H124062   4.797   4.387   2.203 -0.3778  0.4874  0.3806
  809TIP3    H224063   4.655   4.391   2.255 -0.2685  2.7324  0.6031
  810TIP3   OH224064   4.217   5.733   1.395 -0.3734  0.2894  0.1037
  810TIP3    H124065   4.239   5.641   1.407 -0.2831  0.4292  1.1354
  810TIP3    H224066   4.123   5.737   1.414 -0.5553  0.2902 -0.7345
  811TIP3   OH224067   6.231   6.750   1.663  0.3541  0.7323  0.5908
  811TIP3    H124068   6.291   6.709   1.725 -0.2052  1.9806  2.0121
  811TIP3    H224069   6.243   6.844   1.676  1.7952  1.1518 -2.7453
  812TIP3   OH224070   6.704   1.862   6.887 -0.5581  0.4640 -0.2279
  812TIP3    H124071   6.726   1.826   6.802 -1.0724  0.3525 -0.3171
  812TIP3    H224072   6.741   1.950   6.886 -0.3325  0.3676 -0.4617
  813TIP3   OH224073   3.681   5.718   0.739  0.6397 -0.3202 -0.1383
  813TIP3    H124074   3.723   5.761   0.664 -1.3747  0.3448 -0.9375
  813TIP3    H224075   3.604   5.675   0.702 -1.7716  1.9968  1.8174
  814TIP3   OH224076   2.518   6.242   1.500 -0.5744 -0.4083  0.1307
  814TIP3    H124077   2.572   6.297   1.556  0.2071  1.3710 -2.2076
  814TIP3    H224078   2.578   6.176   1.465 -0.8224 -0.8537  0.5300
  815TIP3   OH224079   2.412   3.764   0.588 -0.1963  0.0315  0.3397
  815TIP3    H124080   2.339   3.811   0.628 -0.9615 -1.5293  0.8663
  815TIP3    H224081   2.372   3.705   0.525  0.6283 -0.6047  0.3834
  816TIP3   OH224082   3.963   6.289   0.399 -0.6849  0.6147 -0.3390
  816TIP3    H124083   3.893   6.345   0.368 -0.1428  1.1534 -0.6106
  816TIP3    H224084   4.038   6.347   0.409 -0.5142  0.2264  0.8264
  817TIP3   OH224085   2.987   0.227   2.799 -0.1021 -0.1336  0.2069
  817TIP3    H124086   2.922   0.158   2.788  0.7963 -0.9223 -0.2810
  817TIP3    H224087   3.069   0.181   2.812  0.2923  0.8375  1.3933
  818TIP3   OH224088   6.274   3.533   2.052  0.2392 -0.5152  0.1071
  818TIP3    H124089   6.256   3.594   2.124  1.6924 -2.4695  2.2758
  818TIP3    H224090   6.232   3.451   2.079 -0.7420 -0.8299 -2.2061
  819TIP3   OH224091   5.344   0.883   1.818  0.4767  0.4588  0.2376
  819TIP3    H124092   5.403   0.835   1.759  0.0976  1.5241 -1.0570
  819TIP3    H224093   5.345   0.973   1.784  0.7077  1.2619  2.2377
  820TIP3   OH224094   0.738   3.688   0.780  0.3335  0.3300 -0.0306
  820TIP3    H124095   0.748   3.734   0.863  0.3388  2.1134 -0.9646
  820TIP3    H224096   0.812   3.628   0.777  2.4605  2.7631 -0.2594
  821TIP3   OH224097   3.023   2.105   7.964  0.0761 -0.5481 -0.5969
  821TIP3    H124098   2.958   2.042   7.934 -0.9051 -0.8537  1.9343
  821TIP3    H224099   2.996   2.188   7.925 -0.7536 -1.0141 -1.0392
  822TIP3   OH224100   3.475   4.102   2.948  0.2804 -0.6724 -0.5123
  822TIP3    H124101   3.419   4.174   2.916  2.3680  0.9224 -0.7868
  822TIP3    H224102   3.508   4.061   2.868  0.7506 -0.5707 -0.3727
  823TIP3   OH224103   0.450   6.245   0.070  0.3640 -0.0183  0.1942
  823TIP3    H124104   0.469   6.334   0.041  0.1851 -0.4743 -1.4300
  823TIP3    H224105   0.463   6.191  -0.008 -0.5084 -1.2924  0.8885
  824TIP3   OH224106   6.554   0.482   6.864 -0.1476 -0.2436 -0.0696
  824TIP3    H124107   6.590   0.501   6.950 -0.9395  1.5309 -0.0831
  824TIP3    H224108   6.460   0.470   6.879 -0.0491 -1.7458 -0.4599
  825TIP3   OH224109   0.564   5.207   2.684  0.4939 -0.4754 -1.0368
  825TIP3    H124110   0.561   5.129   2.740  0.4322  0.3980  0.2209
  825TIP3    H224111   0.515   5.273   2.733  4.1452  1.7090  0.0979
  826TIP3   OH224112   0.846   1.422   2.068  0.3519  0.1765  0.2728
  826TIP3    H124113   0.906   1.489   2.099 -0.6751  0.7710  1.0574
  826TIP3    H224114   0.760   1.466   2.065  0.0299 -0.4553 -1.4090
  827TIP3   OH224115   5.028   2.475   8.332 -0.1602  0.6539  0.7159
  827TIP3    H124116   5.062   2.565   8.335  0.7886  0.2863  1.5728
  827TIP3    H224117   4.957   2.479   8.269 -0.7016  2.2100  1.3534
  828TIP3   OH224118   0.230   0.169   2.044  0.3259  0.2795  0.5031
  828TIP3    H124119   0.193   0.116   1.974  0.3631  1.8248 -0.7441
  828TIP3    H224120   0.281   0.236   1.999 -0.2566  1.7751  1.9809
  829TIP3   OH224121   3.073   4.124   7.956 -0.4079 -0.7412  0.3403
  829TIP3    H124122   3.161   4.090   7.940  0.3387  0.3294  1.9107
  829TIP3    H224123   3.058   4.188   7.886 -0.6816 -2.1315 -0.9407
  830TIP3   OH224124   6.325   4.260   1.990  0.7760  0.0604  0.2258
  830TIP3    H124125   6.390   4.236   1.924  1.4929  1.7057  0.2921
  830TIP3    H224126   6.354   4.217   2.070  0.0729 -1.6951 -0.4052
  831TIP3   OH224127   3.842   6.469   2.054  0.4159  0.0160 -0.2263
  831TIP3    H124128   3.878   6.465   1.966 -0.4863 -2.1418 -0.5571
  831TIP3    H224129   3.918   6.478   2.111  1.1136  0.0383 -1.1475
  832TIP3   OH224130   4.135   3.202   1.353 -0.1382  0.0991 -0.8252
  832TIP3    H124131   4.137   3.242   1.440  1.6758  1.0090 -1.2390
  832TIP3    H224132   4.059   3.242   1.310  1.0691  2.5021 -0.8944
  833TIP3   OH224133   5.916   6.400   1.952 -0.4846  0.2946 -0.3628
  833TIP3    H124134   6.000   6.355   1.960 -0.7103 -0.1370 -0.3560
  833TIP3    H224135   5.857   6.333   1.917 -0.4757  1.0037 -1.8044
  834TIP3   OH224136   3.398   6.668   1.056  0.0625  0.0575  0.4150
  834TIP3    H124137   3.400   6.636   0.966 -2.0605 -1.2944  0.7893
  834TIP3    H224138   3.347   6.749   1.051  0.7152  0.4699  0.2924
  835TIP3   OH224139   2.596   2.732   7.896 -0.2402  0.0737 -0.3597
  835TIP3    H124140   2.518   2.786   7.910  0.1238  0.6967 -0.6563
  835TIP3    H224141   2.600   2.720   7.801  1.5826  2.5213 -0.7021
  836TIP3   OH224142   3.450   6.746   1.675 -0.0299  0.5438  0.3094
  836TIP3    H124143   3.507   6.675   1.646 -0.1898  0.5105  0.0709
  836TIP3    H224144   3.495   6.784   1.750  0.4371  0.6933 -0.0422
  837TIP3   OH224145   2.927   0.001   1.026  0.6242 -0.1012 -0.5769
  837TIP3    H124146   2.838   0.014   0.995 -0.6689 -0.0072  2.7104
  837TIP3    H224147   2.931  -0.091   1.052  1.5764 -0.1755 -0.9359
  838TIP3   OH224148   6.416   6.828   0.302 -0.0447  0.5774  0.3282
  838TIP3    H124149   6.507   6.811   0.279 -0.4669 -1.2051 -0.2247
  838TIP3    H224150   6.420   6.896   0.369  1.7533 -0.0676  0.9247
  839TIP3   OH224151   4.553   4.798   2.262 -0.0578  0.2907  0.1758
  839TIP3    H124152   4.564   4.751   2.345 -0.2705 -1.2791 -0.6527
  839TIP3    H224153   4.584   4.886   2.280  1.8922 -0.5818  1.3470
  840TIP3   OH224154   4.840   4.725   3.429 -0.2323  0.5035 -0.2855
  840TIP3    H124155   4.773   4.711   3.362  0.0560  0.6737 -0.6137
  840TIP3    H224156   4.883   4.806   3.403 -1.4317  1.6807  1.2154
  841TIP3   OH224157   6.028   2.282   6.967 -0.3559 -0.0081 -0.0938
  841TIP3    H124158   6.123   2.285   6.960 -0.4722  0.6245 -1.8406
  841TIP3    H224159   6.003   2.202   6.922 -0.6731 -0.0449  0.1424
  842TIP3   OH224160   0.430   1.743   8.113 -0.5957 -0.4228 -0.0645
  842TIP3    H124161   0.353   1.781   8.155 -1.2827 -2.1039  0.2645
  842TIP3    H224162   0.476   1.698   8.183  1.9716  2.3707  0.2365
  843TIP3   OH224163   5.202   1.060   2.707  0.4620  0.4724  0.3615
  843TIP3    H124164   5.270   1.058   2.774  0.6122 -0.5849  0.1907
  843TIP3    H224165   5.227   0.992   2.645 -1.0234 -0.2886  0.5523
  844TIP3   OH224166   4.476   4.669   0.343 -0.2417  0.1082  0.1431
  844TIP3    H124167   4.415   4.648   0.414  0.1224  0.6889  0.6353
  844TIP3    H224168   4.421   4.676   0.265 -0.9313  1.4351  0.7235
  845TIP3   OH224169   2.765   1.723   0.731 -0.3985  0.7050 -0.0550
  845TIP3    H124170   2.750   1.751   0.641 -0.9268  0.5369 -0.0227
  845TIP3    H224171   2.845   1.767   0.757  1.0731 -1.0053 -1.3868
  846TIP3   OH224172   3.510   0.381   0.076  0.4484 -0.2066  0.1257
  846TIP3    H124173   3.502   0.436   0.154  0.8053  0.6898 -0.4495
  846TIP3    H224174   3.569   0.430   0.019 -1.4316  0.2071 -1.5930
  847TIP3   OH224175   1.524   4.877   0.668 -0.3812  0.4550 -0.1670
  847TIP3    H124176   1.456   4.902   0.731 -0.2612  0.8838 -0.2088
  847TIP3    H224177   1.486   4.803   0.620  0.0886 -0.8779  1.4017
  848TIP3   OH224178   5.235   5.107   1.420 -0.3272 -0.3408  0.0601
  848TIP3    H124179   5.209   5.159   1.496 -2.0302 -0.1858 -0.5761
  848TIP3    H224180   5.173   5.131   1.352 -1.1734 -3.1137 -0.3024
  849TIP3   OH224181   2.632   3.234   0.313 -0.2385 -0.1254  0.3776
  849TIP3    H124182   2.602   3.184   0.389 -1.8372  0.7453  0.3453
  849TIP3    H224183   2.553   3.274   0.277  0.3052 -1.2169 -2.3072
  850TIP3   OH224184   2.325   1.563   0.998  0.0408  0.3667  0.5305
  850TIP3    H124185   2.356   1.638   1.047 -0.0967 -0.6437  2.2200
  850TIP3    H224186   2.332   1.489   1.058 -0.3184 -0.8987 -0.8999
  851TIP3   OH224187   6.576   1.770   1.628 -0.3754 -0.2152  0.0626
  851TIP3    H124188   6.498   1.715   1.619  0.6921 -1.6765 -0.5687
  851TIP3    H224189   6.615   1.742   1.711  0.0687 -0.2953 -0.1700
  852TIP3   OH224190   2.026   6.675   1.343  0.1534 -0.2709 -0.6700
  852TIP3    H124191   2.014   6.591   1.298  1.0116 -1.8878  1.8769
  852TIP3    H224192   2.104   6.663   1.397  0.1471  2.0973 -0.0087
  853TIP3   OH224193   4.517   1.228   2.478  0.0538 -0.1843  0.2832
  853TIP3    H124194   4.512   1.133   2.489 -2.5913  0.0166  1.5754
  853TIP3    H224195   4.427   1.255   2.461  1.0106  1.9512 -1.8143
  854TIP3   OH224196   0.400   6.435   1.251 -0.1466  0.5226 -0.5620
  854TIP3    H124197   0.410   6.365   1.317  0.1857 -0.0221 -1.1710
  854TIP3    H224198   0.485   6.436   1.206 -0.1118  1.4066 -0.4899
  855TIP3   OH224199   4.222   3.237   0.149 -0.2007  0.3179 -0.5923
  855TIP3    H124200   4.310   3.232   0.186 -0.2544 -0.5310 -0.5619
  855TIP3    H224201   4.167   3.261   0.224 -0.0267  0.6770 -0.5751
  856TIP3   OH224202   4.913   5.312   0.576  0.2292  0.1746 -0.0232
  856TIP3    H124203   4.847   5.374   0.547  0.0892 -0.2973 -0.7517
  856TIP3    H224204   4.891   5.231   0.530 -0.7058 -0.9776  2.3128
  857TIP3   OH224205   3.788   2.982   0.293  0.2386  0.0761  0.1473
  857TIP3    H124206   3.758   2.937   0.214  0.8439  0.4572 -0.3065
  857TIP3    H224207   3.751   2.931   0.365  0.9864 -1.2167 -0.3519
  858TIP3   OH224208   3.198   0.470   0.855 -0.4117  0.2652 -0.3299
  858TIP3    H124209   3.285   0.503   0.834 -0.5420  2.1234  1.7077
  858TIP3    H224210   3.211   0.376   0.872  1.3024  0.6096  0.4298
  859TIP3   OH224211   0.106   4.265   0.599  0.1862  0.0970 -0.4222
  859TIP3    H124212   0.091   4.219   0.681  1.8553 -3.7831 -2.0072
  859TIP3    H224213   0.202   4.267   0.590  0.0502  0.3206 -2.2350
  860TIP3   OH224214   6.827   4.166   7.956  0.0846  0.0556  0.5098
  860TIP3    H124215   6.906   4.190   8.004  1.6465 -0.6738 -1.5545
  860TIP3    H224216   6.827   4.070   7.956  0.1792  0.0274 -0.9504
  861TIP3   OH224217   3.569   4.610   1.174  0.2105  0.0675 -0.2908
  861TIP3    H124218   3.630   4.684   1.171 -1.4669  1.4881 -1.1231
  861TIP3    H224219   3.571   4.575   1.085  1.4196 -1.3157  0.2361
  862TIP3   OH224220   4.035   5.014   2.299 -0.2492  0.0306 -0.4714
  862TIP3    H124221   4.117   5.001   2.252 -0.7636 -2.7515 -0.7508
  862TIP3    H224222   3.967   4.997   2.233 -1.0881  1.6241 -0.0712
  863TIP3   OH224223   3.435   3.048   2.627  0.0545 -0.3515 -0.5208
  863TIP3    H124224   3.458   3.124   2.574 -0.7584  0.3855  0.1472
  863TIP3    H224225   3.505   3.041   2.692 -0.0545  0.0520 -0.3582
  864TIP3   OH224226   3.967   3.797   2.259 -0.0321 -0.2066 -0.3263
  864TIP3    H124227   4.003   3.753   2.336 -1.7783  0.6704  1.0725
  864TIP3    H224228   4.042   3.839   2.218  0.9728 -0.8401  0.7868
  865TIP3   OH224229   6.706   0.471   0.719 -0.2536  0.3031 -0.4189
  865TIP3    H124230   6.642   0.438   0.782  0.4793 -2.5388 -1.0277
  865TIP3    H224231   6.654   0.515   0.652 -1.4214 -0.4357 -0.0317
  866TIP3   OH224232   5.117   2.811   1.182  0.2890  0.3168  0.0011
  866TIP3    H124233   5.145   2.838   1.269  0.8272  0.7574 -0.2974
  866TIP3    H224234   5.061   2.735   1.197 -0.5623  1.0775  0.8101
  867TIP3   OH224235   1.430   3.256   7.268  0.3941  0.1020  0.0987
  867TIP3    H124236   1.525   3.261   7.261  0.5187 -2.1425 -0.5826
  867TIP3    H224237   1.414   3.206   7.348 -0.0677 -2.3367 -1.4428
  868TIP3   OH224238   2.061   5.675   8.455  0.0329 -0.0529 -0.5619
  868TIP3    H124239   2.012   5.687   8.536  1.3412  0.6014  0.1671
  868TIP3    H224240   2.004   5.709   8.387 -0.8665 -0.1021  0.1475
  869TIP3   OH224241   2.641   2.448   2.812  0.1341 -0.2983  0.2762
  869TIP3    H124242   2.687   2.528   2.837 -1.2250  0.4436  0.4731
  869TIP3    H224243   2.703   2.377   2.832  0.5736  0.5444  2.0764
  870TIP3   OH224244   0.107   2.567   1.263  0.3886  0.1337 -0.0865
  870TIP3    H124245   0.147   2.559   1.176  0.1701 -0.4350 -0.1375
  870TIP3    H224246   0.060   2.651   1.259  2.3270  1.3114  0.3049
  871TIP3   OH224247   4.876   1.827   8.198 -0.2106 -0.2378  0.0270
  871TIP3    H124248   4.858   1.891   8.266  0.8932  1.5490 -1.2770
  871TIP3    H224249   4.793   1.817   8.152 -0.2129  0.8896 -0.2460
  872TIP3   OH224250   2.537   3.571   8.012 -0.0975  0.5209 -0.3635
  872TIP3    H124251   2.448   3.543   7.989 -0.8661  1.3380  1.4561
  872TIP3    H224252   2.543   3.660   7.976 -0.3309  0.7842  0.2409
  873TIP3   OH224253   6.452   6.134   2.555 -0.1445  0.5349  0.4915
  873TIP3    H124254   6.486   6.074   2.621  0.7862  0.8634  0.3151
  873TIP3    H224255   6.402   6.198   2.605  2.0371  1.8448  1.1128
  874TIP3   OH224256   1.431   3.374   8.632 -0.2709 -0.0962 -0.0671
  874TIP3    H124257   1.358   3.390   8.692 -0.7309  3.1117 -1.2889
  874TIP3    H224258   1.452   3.460   8.596  3.0896 -1.1490 -1.0157
  875TIP3   OH224259   1.014   5.479   8.464 -0.3060 -0.1489 -0.2429
  875TIP3    H124260   1.040   5.411   8.526 -1.7092 -0.4445  0.0633
  875TIP3    H224261   1.035   5.561   8.509  1.3298 -0.3606 -0.5893
  876TIP3   OH224262   2.536   1.386   8.286  0.0009  0.6238 -0.2735
  876TIP3    H124263   2.450   1.424   8.304 -0.0709  0.1839  0.3029
  876TIP3    H224264   2.520   1.320   8.219  0.0382  1.1856 -0.8504
  877TIP3   OH224265   4.291   0.895   7.548  0.1839 -0.3394  0.6643
  877TIP3    H124266   4.366   0.939   7.510  0.1735 -1.0542 -0.2231
  877TIP3    H224267   4.323   0.808   7.572 -0.2537 -0.5136  0.6393
  878TIP3   OH224268   5.317   4.138   7.962 -0.5049  0.2560  0.1746
  878TIP3    H124269   5.404   4.112   7.991 -0.8132  0.7830  1.6168
  878TIP3    H224270   5.331   4.168   7.872  0.3669 -1.9262 -0.5066
  879TIP3   OH224271   5.703   6.133   1.552  0.1459 -0.2772 -0.2015
  879TIP3    H124272   5.671   6.059   1.604  0.8899 -1.1297 -0.9173
  879TIP3    H224273   5.628   6.156   1.496 -0.1792 -0.3125  0.2158
  880TIP3   OH224274   4.708   5.310   8.456  0.0135 -0.0144 -0.7432
  880TIP3    H124275   4.629   5.265   8.425  0.3924 -0.3513 -1.2468
  880TIP3    H224276   4.774   5.290   8.390  1.3093 -2.0754  1.0460
  881TIP3   OH224277   0.751   5.275   8.165 -0.2448  0.8105  0.4586
  881TIP3    H124278   0.725   5.322   8.244 -0.0652 -0.9330  1.6095
  881TIP3    H224279   0.671   5.235   8.132  0.0096 -0.1720  0.9761
  882TIP3   OH224280   3.350   4.317   0.046 -0.0790  0.2972  0.3116
  882TIP3    H124281   3.429   4.371   0.053  0.1527  0.0408 -0.2880
  882TIP3    H224282   3.356   4.276  -0.040  0.0227 -1.0873  0.9467
  883TIP3   OH224283   0.691   3.888   7.703 -0.1515  0.0207 -0.0941
  883TIP3    H124284   0.702   3.831   7.778 -0.6065  1.7808  1.3788
  883TIP3    H224285   0.608   3.862   7.664 -1.4026  0.9478  1.7922
  884TIP3   OH224286   0.257   4.879   6.907 -0.1014  0.3171  0.1770
  884TIP3    H124287   0.299   4.805   6.950 -2.7816 -2.1831 -1.1411
  884TIP3    H224288   0.317   4.904   6.837  0.8918 -0.5134  0.7059
  885TIP3   OH224289   0.899   3.074   1.132  0.5399  0.0618 -0.4425
  885TIP3    H124290   0.946   3.011   1.185 -0.9461 -0.1110  0.7414
  885TIP3    H224291   0.853   3.022   1.066 -0.1879 -0.0653  0.1473
  886TIP3   OH224292   3.365   4.746   1.815 -0.1159  0.0788 -0.6956
  886TIP3    H124293   3.448   4.791   1.804  0.3581 -0.4656  0.4977
  886TIP3    H224294   3.300   4.808   1.783  0.7191  0.6025 -1.4138
  887TIP3   OH224295   5.839   5.835   8.550  0.2050  0.2447  0.2835
  887TIP3    H124296   5.896   5.903   8.515  0.4788  0.6311  1.4272
  887TIP3    H224297   5.897   5.782   8.605 -0.4773  0.4922  1.2574
  888TIP3   OH224298   6.089   0.510   1.189 -0.2183 -0.5897 -0.2784
  888TIP3    H124299   6.042   0.583   1.147 -1.3307  0.9679  3.3282
  888TIP3    H224300   6.060   0.433   1.140 -1.4641  1.0046 -2.2695
  889TIP3   OH224301   2.281   0.019   0.156 -0.0256  0.1522  0.3575
  889TIP3    H124302   2.357   0.074   0.135 -0.0019  0.8629  2.1365
  889TIP3    H224303   2.216   0.042   0.089  0.9323  0.3455 -0.5309
  890TIP3   OH224304   1.365   1.780   1.088 -0.0017  0.1984 -0.1803
  890TIP3    H124305   1.331   1.706   1.037  0.7216  1.3180 -2.4431
  890TIP3    H224306   1.455   1.790   1.058  1.1133 -0.2192  2.7837
  891TIP3   OH224307   1.888   0.387   0.562 -0.2011 -0.1263 -0.1786
  891TIP3    H124308   1.983   0.390   0.568 -0.0963 -0.0426 -1.5506
  891TIP3    H224309   1.862   0.320   0.625  0.7924 -0.4343 -0.0822
  892TIP3   OH224310   2.912   3.822   1.884  0.4087  0.3320 -0.0440
  892TIP3    H124311   2.953   3.838   1.799 -0.7416  0.7279 -0.5532
  892TIP3    H224312   2.933   3.731   1.905  1.3021  0.4479 -0.4118
  893TIP3   OH224313   2.110   4.515   6.797  0.1614  0.4447 -0.1948
  893TIP3    H124314   2.178   4.527   6.731 -0.5700  2.3845 -0.6741
  893TIP3    H224315   2.132   4.576   6.867  0.1453 -0.5627  0.7140
  894TIP3   OH224316   4.798   0.434   8.344 -0.0634 -0.0124  0.0694
  894TIP3    H124317   4.780   0.500   8.411  1.1956  0.7476 -0.3108
  894TIP3    H224318   4.861   0.375   8.385  0.0061 -0.0748 -0.1265
  895TIP3   OH224319   0.039   4.155   2.074 -0.3443 -0.4743  0.4370
  895TIP3    H124320  -0.032   4.192   2.128  0.1876  1.6581 -0.2094
  895TIP3    H224321   0.023   4.192   1.987  0.4398 -1.5701 -0.1841
  896TIP3   OH224322   4.720   6.620   2.256  0.1115  1.1157 -0.3361
  896TIP3    H124323   4.813   6.600   2.262  0.3810  1.8081 -1.6839
  896TIP3    H224324   4.712   6.708   2.293  0.4128  1.9868 -2.1909
  897TIP3   OH224325   0.324   0.258   0.807 -0.4208 -0.4187 -0.0312
  897TIP3    H124326   0.419   0.244   0.801 -0.0449  1.6280  0.2725
  897TIP3    H224327   0.296   0.205   0.882  0.2948 -1.8042 -0.7154
  898TIP3   OH224328   1.280   2.712   8.502 -0.0922  0.6567 -0.4938
  898TIP3    H124329   1.200   2.764   8.500 -0.6799 -0.1531  0.8164
  898TIP3    H224330   1.347   2.773   8.532 -0.6876  0.7890  0.6201
  899TIP3   OH224331   4.017   6.812   0.329 -0.4931 -0.2192 -0.4447
  899TIP3    H124332   3.935   6.803   0.377  0.1332 -0.0869  0.6720
  899TIP3    H224333   4.016   6.903   0.298 -0.1170  0.2425  0.8275
  900TIP3   OH224334   4.592   6.558   0.700  0.2083 -0.8330 -0.5117
  900TIP3    H124335   4.520   6.537   0.640 -1.5843 -0.5795  1.4470
  900TIP3    H224336   4.652   6.484   0.692 -1.0374 -1.8169 -1.0849
  901TIP3   OH224337   2.481   6.018   2.505 -0.3243  0.7261 -0.2058
  901TIP3    H124338   2.547   6.088   2.508  0.8947 -0.3813  0.3846
  901TIP3    H224339   2.434   6.027   2.588  2.1813 -1.2066  1.6058
  902TIP3   OH224340   5.353   5.213   1.875  0.4075  0.2751 -0.3501
  902TIP3    H124341   5.423   5.194   1.936 -2.1415 -2.4194  2.0518
  902TIP3    H224342   5.394   5.210   1.789  3.5489  0.9725  1.0052
  903TIP3   OH224343   1.791   4.269   1.387  0.1657  0.0805  0.0262
  903TIP3    H124344   1.754   4.203   1.446  0.4898  0.2658  0.4471
  903TIP3    H224345   1.739   4.348   1.404 -0.0554  0.0038 -0.2910
  904TIP3   OH224346   2.223   0.729   7.539 -0.3179 -0.5981 -0.5427
  904TIP3    H124347   2.208   0.819   7.508 -0.2121 -0.1349  0.6985
  904TIP3    H224348   2.151   0.679   7.502 -1.5134  0.3977  0.3585
  905TIP3   OH224349   6.618   3.991   2.086 -0.2237  0.6301  0.1060
  905TIP3    H124350   6.559   3.946   2.146  0.2118 -0.6966 -0.4222
  905TIP3    H224351   6.670   3.921   2.046  0.2599  1.5769 -0.9924
  906TIP3   OH224352   6.063   6.875   7.161 -0.0827 -0.0228 -0.0391
  906TIP3    H124353   6.001   6.850   7.230 -0.6674 -0.5684 -0.7399
  906TIP3    H224354   6.014   6.861   7.079  1.0027 -0.5590 -0.6125
  907TIP3   OH224355   1.043   4.627   2.292  0.0612 -0.0294  0.5888
  907TIP3    H124356   1.119   4.568   2.285  1.2177  1.6333 -2.4473
  907TIP3    H224357   1.049   4.661   2.381  3.6870  0.9490  0.1567
  908TIP3   OH224358   2.198   0.514   7.967 -0.2782 -0.4005 -0.0485
  908TIP3    H124359   2.241   0.561   7.896 -1.0399  1.2614  0.5224
  908TIP3    H224360   2.145   0.447   7.924  0.6218 -0.5631 -0.9221
  909TIP3   OH224361   6.210   0.140   7.821 -0.2298 -0.0151  0.4533
  909TIP3    H124362   6.221   0.225   7.777  0.4412 -0.3509 -0.0514
  909TIP3    H224363   6.127   0.107   7.788  0.2724 -0.2682 -0.6069
  910TIP3   OH224364   2.881   5.769   2.510 -0.5704 -0.2980  0.6647
  910TIP3    H124365   2.890   5.675   2.527  1.6299 -0.5053 -1.1866
  910TIP3    H224366   2.841   5.774   2.424  0.3877  0.4060  0.2385
  911TIP3   OH224367   0.897   6.418   1.815 -0.2202 -0.7801 -0.3594
  911TIP3    H124368   0.991   6.429   1.800 -0.4023  1.1170 -0.4185
  911TIP3    H224369   0.880   6.325   1.798  1.8704 -1.4788  1.0828
  912TIP3   OH224370   6.704   1.927   0.262 -0.1510  0.2819 -0.1231
  912TIP3    H124371   6.648   1.867   0.213  2.0837 -1.3904 -0.7825
  912TIP3    H224372   6.768   1.870   0.305  0.2205  2.0061  1.7400
  913TIP3   OH224373   6.170   4.365   2.491 -0.4700  0.1057 -0.2226
  913TIP3    H124374   6.208   4.289   2.447 -0.1859  0.0701  0.0751
  913TIP3    H224375   6.243   4.403   2.540 -0.4998  0.8335 -0.7177
  914TIP3   OH224376   2.275   1.469   7.900 -0.3375 -0.0019  0.1673
  914TIP3    H124377   2.280   1.405   7.830  1.6808 -0.5157  0.7070
  914TIP3    H224378   2.274   1.417   7.981  2.8110  0.5114  0.6881
  915TIP3   OH224379   1.165   5.582   8.687 -0.3982  0.2184 -0.0505
  915TIP3    H124380   1.114   5.544   8.759  0.5316  0.5897  0.8336
  915TIP3    H224381   1.106   5.648   8.650 -1.4717 -1.0240 -0.6632
  916TIP3   OH224382   0.415   1.699   3.053  0.2339 -0.0116  0.6081
  916TIP3    H124383   0.402   1.604   3.046  0.0065 -0.0087  0.9766
  916TIP3    H224384   0.445   1.712   3.143 -1.4867  0.4624  1.1407
  917TIP3   OH224385   6.162   0.193   2.683 -0.0643 -0.3570  0.4271
  917TIP3    H124386   6.077   0.149   2.678 -0.5342  0.6647 -1.2218
  917TIP3    H224387   6.201   0.180   2.597  0.5115  0.9751  0.4674
  918TIP3   OH224388   1.325   2.333   0.108  0.0536  0.0972 -0.3148
  918TIP3    H124389   1.344   2.253   0.157  1.4907  0.4866 -0.1915
  918TIP3    H224390   1.276   2.302   0.031 -0.0616 -0.8027  0.1006
  919TIP3   OH224391   3.067   2.663   8.481  0.7566  0.1070 -0.3585
  919TIP3    H124392   3.099   2.581   8.444  0.8811  0.4620 -1.0501
  919TIP3    H224393   3.069   2.649   8.576  0.8125 -0.6697 -0.4696
  920TIP3   OH224394   4.850   6.663   2.804 -0.2442 -0.3688 -0.5031
  920TIP3    H124395   4.943   6.682   2.794  0.0565 -1.4732 -0.0151
  920TIP3    H224396   4.812   6.681   2.718  0.3281  0.5591 -0.5704
  921TIP3   OH224397   0.311   1.810   7.659  0.1274  0.5686  0.2544
  921TIP3    H124398   0.319   1.717   7.642  0.5824  0.5467  0.5575
  921TIP3    H224399   0.249   1.842   7.593  0.5062  0.1787 -0.3020
  922TIP3   OH224400   1.888   0.697   2.574 -0.8264 -0.2039  0.1225
  922TIP3    H124401   1.864   0.621   2.521 -1.2862  0.5237 -0.7289
  922TIP3    H224402   1.973   0.725   2.539  0.1964 -1.3336  1.5664
  923TIP3   OH224403   1.523   0.183   1.526  0.0447 -0.0958  0.6448
  923TIP3    H124404   1.544   0.226   1.443  1.6069  1.9809  2.0224
  923TIP3    H224405   1.431   0.158   1.516  0.0957  0.3358 -1.6029
  924TIP3   OH224406   2.813   1.306   1.921 -0.1110  0.3817  0.4783
  924TIP3    H124407   2.718   1.316   1.931 -0.3785 -0.6948 -0.6541
  924TIP3    H224408   2.838   1.373   1.857 -0.3940 -0.3603 -0.4275
  925TIP3   OH224409   3.887   6.593   3.016 -0.2362  0.0806 -0.2124
  925TIP3    H124410   3.871   6.505   3.050  0.0172 -0.3413 -1.1538
  925TIP3    H224411   3.885   6.649   3.094  1.1057 -0.9450  0.6229
  926TIP3   OH224412   4.740   0.656   0.135 -0.7401  0.2003 -0.4872
  926TIP3    H124413   4.779   0.579   0.177 -0.5885 -0.1567 -1.2535
  926TIP3    H224414   4.698   0.704   0.206 -0.5661 -0.4305  0.0517
  927TIP3   OH224415   4.762   0.439   2.913  0.3169  0.3123  0.3162
  927TIP3    H124416   4.672   0.438   2.878  0.1123 -0.5185  0.8222
  927TIP3    H224417   4.810   0.378   2.856  0.2021 -0.3420  0.9022
  928TIP3   OH224418   1.064   4.848   8.363  0.6560 -0.5815  0.3136
  928TIP3    H124419   0.997   4.794   8.321  0.5099  0.7630 -1.2780
  928TIP3    H224420   1.147   4.807   8.337  0.6228  0.8533 -2.3691
  929TIP3   OH224421   6.247   2.268   1.407 -0.3621 -0.0624  0.4564
  929TIP3    H124422   6.230   2.195   1.467 -0.0729 -0.0002  0.6171
  929TIP3    H224423   6.342   2.267   1.395 -0.2055  1.0602  1.4517
  930TIP3   OH224424   2.059   3.795   7.859 -0.1872  0.5245 -0.4392
  930TIP3    H124425   2.143   3.818   7.898 -1.8573  3.1632  2.0129
  930TIP3    H224426   2.037   3.870   7.804 -0.2895 -0.8628 -2.4038
  931TIP3   OH224427   2.710   1.841   0.454 -0.2307  0.5392  0.1265
  931TIP3    H124428   2.683   1.918   0.503 -0.0276  0.3563  0.5305
  931TIP3    H224429   2.778   1.873   0.395  1.1082  0.3665  1.4996
  932TIP3   OH224430   0.508   6.803   0.465  0.3128  0.2048  0.1567
  932TIP3    H124431   0.547   6.869   0.409  0.1604 -0.1683 -0.3957
  932TIP3    H224432   0.413   6.812   0.451  0.2891 -0.1057  0.0975
  933TIP3   OH224433   3.255   4.988   1.693  0.0095 -0.3470 -0.0544
  933TIP3    H124434   3.327   4.993   1.630 -0.3133  0.5051 -0.3596
  933TIP3    H224435   3.176   4.986   1.639 -0.2697  0.4197  0.3141
  934TIP3   OH224436   3.571   5.632   3.289 -0.2477 -0.1066  0.3130
  934TIP3    H124437   3.663   5.613   3.270 -0.7179 -1.4952 -0.6801
  934TIP3    H224438   3.561   5.724   3.264  0.1204 -0.7874 -2.7585
  935TIP3   OH224439   1.606   5.159   6.573 -0.6016  0.4689 -0.1615
  935TIP3    H124440   1.642   5.130   6.657 -0.6039  0.2096 -0.2522
  935TIP3    H224441   1.596   5.079   6.522 -1.0532  0.5734 -0.2337
  936TIP3   OH224442   3.599   2.205   1.996 -0.2811  0.4793  0.2539
  936TIP3    H124443   3.667   2.264   2.029 -0.8138  0.9149  0.5772
  936TIP3    H224444   3.644   2.121   1.986  0.4047  0.8622  0.0793
  937TIP3   OH224445   2.849   2.530   1.657 -0.2711  0.1603 -0.1725
  937TIP3    H124446   2.805   2.497   1.735  0.3945  0.2654  0.2549
  937TIP3    H224447   2.884   2.615   1.683  0.8558 -0.2601 -0.2596
  938TIP3   OH224448   1.999   1.822   1.719 -0.3286 -0.2981 -0.1879
  938TIP3    H124449   1.952   1.739   1.706 -0.3645 -0.5441  1.4088
  938TIP3    H224450   2.076   1.799   1.769  0.3898  0.4509 -0.9196
  939TIP3   OH224451   2.060   3.882   1.185  0.0632 -0.6275  0.3442
  939TIP3    H124452   2.089   3.938   1.257  2.1620 -0.0578 -0.8532
  939TIP3    H224453   2.100   3.797   1.203 -0.4191 -0.8312  0.4682
  940TIP3   OH224454   3.401   6.047   1.457  0.0586 -0.3212 -0.1752
  940TIP3    H124455   3.436   6.093   1.533  1.1485 -1.7464  0.2035
  940TIP3    H224456   3.463   6.066   1.387  1.0736 -1.9689  0.2291
  941TIP3   OH224457   3.980   2.106   2.218 -0.2951  0.1339 -0.2908
  941TIP3    H124458   3.951   2.074   2.133  0.0709 -1.1621  0.0656
  941TIP3    H224459   4.040   2.178   2.198  0.2386 -0.5416 -1.1398
  942TIP3   OH224460   0.436   1.460   7.116 -0.1800 -0.1590 -0.8706
  942TIP3    H124461   0.530   1.478   7.123 -0.0763 -1.2927  2.8058
  942TIP3    H224462   0.394   1.545   7.132  0.2455 -0.0578 -0.2555
  943TIP3   OH224463   1.544   2.756   2.025 -0.5165  0.5020  0.1992
  943TIP3    H124464   1.632   2.793   2.038  0.4170 -1.9615  1.5159
  943TIP3    H224465   1.494   2.789   2.099 -0.3110  0.8233  0.1992
  944TIP3   OH224466   0.004   2.829   1.294  0.3317  0.2588 -0.2140
  944TIP3    H124467   0.080   2.850   1.347  1.2899  0.3643 -1.5582
  944TIP3    H224468  -0.071   2.848   1.349  1.2529  1.9560  0.5086
  945TIP3   OH224469   2.206   1.203   1.446  0.6438  0.2964  0.0602
  945TIP3    H124470   2.185   1.284   1.492 -1.6907  0.3978 -1.0656
  945TIP3    H224471   2.133   1.144   1.465  2.3136 -1.6637  0.9330
  946TIP3   OH224472   5.902   4.365   1.385 -0.2447 -0.3676 -0.5542
  946TIP3    H124473   5.886   4.324   1.470 -1.7540  0.2677 -0.5003
  946TIP3    H224474   5.888   4.459   1.401  1.5038  0.0148 -1.0469
  947TIP3   OH224475   2.321   4.909   1.029  0.3828 -0.0688 -0.2911
  947TIP3    H124476   2.360   4.954   1.104 -0.4069  0.1010  0.0218
  947TIP3    H224477   2.253   4.968   0.998 -1.3809 -1.4398  0.7496
  948TIP3   OH224478   2.692   6.615   1.023 -0.3251 -0.2328 -0.5629
  948TIP3    H124479   2.628   6.546   1.042  0.7775 -1.4391 -1.1390
  948TIP3    H224480   2.746   6.620   1.102 -0.7036  0.3449 -0.3279
  949TIP3   OH224481   5.774   2.538   7.991  0.3407  0.2613 -0.1913
  949TIP3    H124482   5.753   2.558   8.082  0.5406  0.1785 -0.1275
  949TIP3    H224483   5.717   2.464   7.968 -1.1200  1.4813 -0.7219
  950TIP3   OH224484   2.701   3.076   7.810 -0.2994 -0.2980 -0.2751
  950TIP3    H124485   2.733   3.152   7.762 -1.0783 -0.1169 -0.5072
  950TIP3    H224486   2.627   3.109   7.861  1.3601 -0.1232  2.2234
  951TIP3   OH224487   3.587   1.356   0.246  0.0865 -0.1830  0.4227
  951TIP3    H124488   3.522   1.286   0.252 -1.5499  1.1263 -0.8552
  951TIP3    H224489   3.536   1.434   0.225  1.7900  1.5105  2.1084
  952TIP3   OH224490   3.732   4.761   8.684  0.2323 -0.1462  0.3093
  952TIP3    H124491   3.775   4.806   8.611  0.8432 -0.9372  0.1671
  952TIP3    H224492   3.801   4.709   8.724 -0.4949 -1.1515  0.3084
  953TIP3   OH224493   5.702   2.282   7.844 -0.5170  0.0230  0.2117
  953TIP3    H124494   5.628   2.249   7.895 -1.5550  1.2557 -0.4379
  953TIP3    H224495   5.696   2.234   7.761 -1.9889  1.6746 -0.7085
  954TIP3   OH224496   4.023   5.317   2.788 -0.4098  0.0542 -0.0159
  954TIP3    H124497   3.989   5.314   2.878 -0.0581 -0.2352  0.1097
  954TIP3    H224498   4.006   5.229   2.754  1.2526 -0.4667  0.4331
  955TIP3   OH224499   4.101   0.831   7.799  1.2896  0.3680 -0.0707
  955TIP3    H124500   4.083   0.762   7.735  0.4254  1.1711 -0.7340
  955TIP3    H224501   4.181   0.872   7.768  1.6475 -0.1485  0.1621
  956TIP3   OH224502   1.611   5.164   7.885 -0.2868  0.4393 -0.0535
  956TIP3    H124503   1.585   5.256   7.887 -2.0375  0.0397 -1.5183
  956TIP3    H224504   1.584   5.130   7.970 -0.1367  1.1509  0.2884
  957TIP3   OH224505   5.339   6.733   0.219 -0.4311 -0.9348  0.2963
  957TIP3    H124506   5.378   6.790   0.285 -0.3126 -1.1749  0.4307
  957TIP3    H224507   5.287   6.793   0.165 -0.2369 -0.6829  0.3834
  958TIP3   OH224508   1.290   5.314   7.062  0.3878 -0.9436 -0.6092
  958TIP3    H124509   1.266   5.397   7.022 -0.2764 -0.4772  0.6958
  958TIP3    H224510   1.264   5.323   7.153  2.9814 -1.4747  0.2744
  959TIP3   OH224511   0.856   2.619   8.252  0.4683  0.3894  0.7524
  959TIP3    H124512   0.937   2.602   8.203  1.8843  3.5204  1.7210
  959TIP3    H224513   0.810   2.684   8.199 -0.1808  0.4913  1.4249
  960TIP3   OH224514   5.533   3.814   7.560 -0.7764 -0.1700 -0.3075
  960TIP3    H124515   5.518   3.792   7.651 -0.8656 -1.0379 -0.5289
  960TIP3    H224516   5.541   3.910   7.559  1.6466 -0.2930  0.9563
  961TIP3   OH224517   3.777   0.624   0.163  0.4564  0.0940  0.3247
  961TIP3    H124518   3.817   0.576   0.091 -1.8947  0.6056 -1.4103
  961TIP3    H224519   3.842   0.690   0.187  1.9575 -1.1616 -0.1593
  962TIP3   OH224520   6.197   0.672   0.072 -0.4049 -0.1868  0.1386
  962TIP3    H124521   6.174   0.764   0.084  1.1898  0.4919 -1.4928
  962TIP3    H224522   6.129   0.636   0.016 -1.7708 -0.4219  1.8556
  963TIP3   OH224523   5.892   3.085   8.119  0.5342  0.3406  0.2569
  963TIP3    H124524   5.806   3.089   8.161  1.1251 -1.5735  1.7901
  963TIP3    H224525   5.954   3.091   8.192  1.6614 -0.1556 -0.6406
  964TIP3   OH224526   2.930   0.820   1.253 -0.2506 -0.0974 -0.7177
  964TIP3    H124527   2.835   0.834   1.263 -0.1719  0.6065 -0.9572
  964TIP3    H224528   2.970   0.884   1.312  0.0975  0.3365 -1.4194
  965TIP3   OH224529   5.438   2.929   7.866  0.2463 -0.3054  0.5075
  965TIP3    H124530   5.444   2.908   7.773  1.2095 -2.1927  0.9383
  965TIP3    H224531   5.435   3.024   7.869  0.1992 -0.2036 -1.4477
  966TIP3   OH224532   4.993   3.391   1.073 -0.0017 -0.0702 -0.5117
  966TIP3    H124533   4.938   3.456   1.029 -0.0521  1.2012  1.3162
  966TIP3    H224534   5.052   3.443   1.128  0.8194 -1.5401  0.0525
  967TIP3   OH224535   2.813   3.292   7.645  0.2385 -0.1208  0.2953
  967TIP3    H124536   2.874   3.241   7.593 -1.3853  0.3268 -2.2026
  967TIP3    H224537   2.857   3.376   7.658  0.4132  0.0078 -0.9898
  968TIP3   OH224538   4.845   2.613   2.099 -0.0171  0.1619  0.1262
  968TIP3    H124539   4.857   2.584   2.009 -2.4966 -0.8064  0.0064
  968TIP3    H224540   4.783   2.685   2.093 -0.8289 -0.4206  1.0739
  969TIP3   OH224541   1.909   2.781   0.157  0.2739 -0.4506  0.4937
  969TIP3    H124542   1.970   2.709   0.168 -0.1009 -0.8547 -0.0633
  969TIP3    H224543   1.950   2.854   0.203  0.7599 -0.9532  0.8687
  970TIP3   OH224544   6.100   3.801   2.946 -0.5797  0.2032 -0.5439
  970TIP3    H124545   6.028   3.739   2.950  0.0593 -0.5113  0.5654
  970TIP3    H224546   6.088   3.856   3.024 -0.3678  0.5848 -0.7765
  971TIP3   OH224547   6.343   3.559   1.516 -0.1435 -0.5081 -0.2538
  971TIP3    H124548   6.400   3.547   1.592  0.3473 -1.9046 -0.8057
  971TIP3    H224549   6.255   3.551   1.551 -0.0952  2.1349  0.6894
  972TIP3   OH224550   1.873   3.186   7.012 -0.6018 -0.2419  0.1944
  972TIP3    H124551   1.850   3.111   7.066  0.8943  0.0377  1.2789
  972TIP3    H224552   1.948   3.226   7.056 -0.5315  1.1251 -1.0669
  973TIP3   OH224553   5.324   4.069   2.110 -0.0378 -0.4870  0.7922
  973TIP3    H124554   5.345   4.133   2.178 -1.0307  0.6130  0.1105
  973TIP3    H224555   5.271   4.003   2.155 -0.4063  0.0568  1.1709
  974TIP3   OH224556   6.481   0.763   7.504 -0.1199 -0.0822  0.1904
  974TIP3    H124557   6.569   0.799   7.490 -0.0800 -0.2614 -0.0442
  974TIP3    H224558   6.422   0.832   7.477 -0.0421 -0.6495 -1.5586
  975TIP3   OH224559   5.486   5.002   3.125 -0.1659  0.1716 -0.0113
  975TIP3    H124560   5.410   5.031   3.175 -0.7026 -1.4107  0.1445
  975TIP3    H224561   5.545   4.964   3.190  1.3370  2.3758  0.0423
  976TIP3   OH224562   3.112   1.216   0.642 -0.2403 -0.4509  0.3707
  976TIP3    H124563   3.155   1.264   0.571 -1.9028 -0.4399 -0.6743
  976TIP3    H224564   3.043   1.275   0.672 -0.6180 -1.1430  0.8687
  977TIP3   OH224565   0.040   3.919   6.836  0.2059 -0.0713 -0.1043
  977TIP3    H124566   0.069   3.996   6.886 -1.1392  0.6056 -0.3045
  977TIP3    H224567   0.118   3.892   6.788  0.8528  0.8558  0.3694
  978TIP3   OH224568   1.751   2.552   7.884 -0.1122  0.0289  0.4134
  978TIP3    H124569   1.731   2.548   7.978 -0.4865  0.5268  0.3606
  978TIP3    H224570   1.828   2.609   7.878  0.2300 -0.4225  0.4587
  979TIP3   OH224571   5.025   6.179   1.449  0.9127 -0.3920  0.2372
  979TIP3    H124572   5.051   6.260   1.406  1.6616 -0.7436  0.0158
  979TIP3    H224573   5.105   6.147   1.490  1.1261 -2.0722 -1.3698
  980TIP3   OH224574   3.686   1.973   1.493 -0.2908 -0.0912 -0.3535
  980TIP3    H124575   3.699   1.896   1.549 -0.8012  0.1576  0.1187
  980TIP3    H224576   3.695   2.047   1.552 -1.5665  0.1566 -0.4423
  981TIP3   OH224577   6.055   3.752   0.549  0.0987  0.3444  0.2492
  981TIP3    H124578   6.077   3.844   0.539  1.1404  0.2318  1.2564
  981TIP3    H224579   5.971   3.742   0.505 -0.4466  1.9519  0.8790
  982TIP3   OH224580   0.096   4.120   2.942 -0.2562 -0.4899 -0.1561
  982TIP3    H124581   0.117   4.130   3.035 -1.0012 -1.0159  0.0800
  982TIP3    H224582   0.046   4.038   2.938 -0.8234 -0.1196 -0.9162
  983TIP3   OH224583   2.984   4.786   1.613 -0.6647 -0.5057  0.1704
  983TIP3    H124584   3.028   4.858   1.567  0.4258 -1.7541 -0.8154
  983TIP3    H224585   2.957   4.726   1.543 -1.9701 -0.8615  0.9378
  984TIP3   OH224586   3.331   4.232   8.490  0.3437 -0.0716  0.0565
  984TIP3    H124587   3.355   4.320   8.462 -0.7437 -0.1480 -1.2161
  984TIP3    H224588   3.295   4.191   8.411  0.9019 -1.6846  0.6026
  985TIP3   OH224589   2.910   0.679   7.575 -0.2705 -0.1028 -0.2321
  985TIP3    H124590   2.907   0.620   7.500  1.5082 -0.4040 -0.0977
  985TIP3    H224591   2.941   0.762   7.538  0.9074 -0.3368  0.1987
  986TIP3   OH224592   0.298   0.870   7.782  0.0751 -0.1988 -0.5364
  986TIP3    H124593   0.307   0.831   7.869 -0.9295  0.6770 -0.0164
  986TIP3    H224594   0.346   0.952   7.787 -0.1922 -0.0268 -0.7194
  987TIP3   OH224595   3.552   6.281   2.468  0.5742  0.6850 -0.0729
  987TIP3    H124596   3.607   6.247   2.397 -0.6863 -0.9406 -0.3244
  987TIP3    H224597   3.611   6.286   2.543  1.1287 -0.9713 -0.3500
  988TIP3   OH224598   2.982   1.220   1.326  0.1121  0.1786  0.1399
  988TIP3    H124599   3.055   1.269   1.287  1.2148 -0.2041  1.6244
  988TIP3    H224600   2.905   1.274   1.309  0.6534  0.4123 -1.7936
  989TIP3   OH224601   1.574   1.495   1.978  0.3098 -0.1729 -0.3713
  989TIP3    H124602   1.617   1.505   2.063  1.7323 -0.5970 -1.0159
  989TIP3    H224603   1.612   1.564   1.924  1.5892 -1.7128 -1.4985
  990TIP3   OH224604   0.307   4.922   2.276  0.0135 -0.0017  0.2191
  990TIP3    H124605   0.295   4.857   2.346 -0.2870 -1.2037 -0.9188
  990TIP3    H224606   0.401   4.942   2.278 -0.0241  0.1506  1.0978
  991TIP3   OH224607   1.113   3.977   8.025  0.1176  0.4352 -0.0514
  991TIP3    H124608   1.101   3.991   7.931  0.4931 -1.4662 -0.4188
  991TIP3    H224609   1.063   3.897   8.044  0.4131  0.5451  1.2880
  992TIP3   OH224610   0.260   4.378   8.391 -0.0258 -0.2308 -0.1728
  992TIP3    H124611   0.179   4.328   8.386 -0.3849  0.0211  2.1242
  992TIP3    H224612   0.246   4.440   8.463  2.2629 -0.2970  0.4167
  993TIP3   OH224613   5.192   3.648   8.573 -0.4446 -0.5462 -0.5226
  993TIP3    H124614   5.195   3.555   8.596 -0.1945 -0.1220  1.2925
  993TIP3    H224615   5.191   3.694   8.657 -0.2372  1.1130 -1.3797
  994TIP3   OH224616   6.203   6.513   7.489 -0.1104 -0.2033 -0.3218
  994TIP3    H124617   6.126   6.531   7.435 -0.0498 -1.0012 -0.6911
  994TIP3    H224618   6.242   6.599   7.504 -0.9049  0.1759 -0.3778
  995TIP3   OH224619   4.778   2.463   0.795 -0.0435  0.0881 -0.1218
  995TIP3    H124620   4.822   2.512   0.726 -0.8099  1.6304  0.4408
  995TIP3    H224621   4.685   2.465   0.770 -0.1722 -0.4622  0.2964
  996TIP3   OH224622   0.719   0.300   7.419 -0.8039  0.3115  0.0668
  996TIP3    H124623   0.781   0.319   7.349 -1.4395 -1.8320 -1.1775
  996TIP3    H224624   0.745   0.357   7.491  0.3403  2.0365 -1.6424
  997TIP3   OH224625   0.312   1.264   2.781 -0.4777  0.6759  0.0436
  997TIP3    H124626   0.374   1.221   2.721  1.1675  0.5736  1.7119
  997TIP3    H224627   0.248   1.196   2.801 -1.4876  0.9252 -2.0996
  998TIP3   OH224628   2.579   5.765   7.792  0.0545  0.2081  0.5943
  998TIP3    H124629   2.639   5.706   7.836 -1.4240 -1.2330  0.7669
  998TIP3    H224630   2.510   5.782   7.856 -2.0857 -1.8289 -0.9709
  999TIP3   OH224631   1.198   5.695   1.375 -0.2453  0.0174 -0.2544
  999TIP3    H124632   1.269   5.650   1.329  0.9880  1.0928  0.5008
  999TIP3    H224633   1.199   5.784   1.340  0.3022  0.6808  1.3206
 1000TIP3   OH224634   5.790   1.068   1.180  0.0000  0.0657 -0.3092
 1000TIP3    H124635   5.842   1.066   1.260 -0.9088 -2.0441  0.3077
 1000TIP3    H224636   5.718   1.006   1.196 -1.3327  1.0572 -2.0210
 1001TIP3   OH224637   0.918   6.566   8.453 -0.2645  0.0263 -0.0547
 1001TIP3    H124638   0.940   6.490   8.400  2.0722  0.7842 -0.2934
 1001TIP3    H224639   0.996   6.621   8.450 -1.3603  1.7785  1.2683
 1002TIP3   OH224640   3.203   0.249   3.119  0.1351 -0.1995 -0.0154
 1002TIP3    H124641   3.193   0.336   3.080  3.3122  0.9957  1.4904
 1002TIP3    H224642   3.132   0.243   3.183  0.0466  1.4456  0.0839
 1003TIP3   OH224643   3.434   6.849   1.246 -0.0856 -0.1228 -0.2009
 1003TIP3    H124644   3.462   6.775   1.192  1.4275 -0.4589  0.9518
 1003TIP3    H224645   3.503   6.915   1.233 -0.5330  0.4047  0.0860
 1004TIP3   OH224646   6.562   4.648   0.708  0.2571  0.5703 -0.1491
 1004TIP3    H124647   6.574   4.615   0.619 -0.2415  0.8656 -0.3364
 1004TIP3    H224648   6.492   4.594   0.744  1.3249 -0.3878  0.5178
 1005TIP3   OH224649   6.389   3.457   8.137 -0.1083  0.3280  0.4441
 1005TIP3    H124650   6.424   3.502   8.214 -2.1246  3.0173 -0.0578
 1005TIP3    H224651   6.298   3.438   8.160 -0.0431 -1.0973 -0.3930
 1006TIP3   OH224652   4.343   1.983   7.774  0.2717 -0.4478  0.0496
 1006TIP3    H124653   4.427   2.027   7.758 -1.0039  1.8021 -0.9250
 1006TIP3    H224654   4.334   1.984   7.869  1.4673 -1.0221  0.1975
 1007TIP3   OH224655   6.100   2.272   7.438  0.4534 -0.2444  0.1647
 1007TIP3    H124656   6.122   2.231   7.354  1.5592  0.5991  0.0308
 1007TIP3    H224657   6.159   2.230   7.501 -1.2741 -1.8645  0.8281
 1008TIP3   OH224658   3.821   3.938   1.891 -0.3582  0.2822 -0.9194
 1008TIP3    H124659   3.871   3.857   1.886  0.0483  0.4422  0.2278
 1008TIP3    H224660   3.865   3.997   1.830 -2.5405 -1.2505 -4.2823
 1009TIP3   OH224661   2.695   1.323   0.323  0.8710  0.2032 -1.1077
 1009TIP3    H124662   2.678   1.386   0.394 -0.5611 -1.1202 -0.2027
 1009TIP3    H224663   2.649   1.359   0.248 -1.3290 -0.4984 -0.1678
 1010TIP3   OH224664   4.144   6.033   1.401  0.1452  0.2921 -0.2716
 1010TIP3    H124665   4.166   5.946   1.368  1.3255  0.7851 -0.8016
 1010TIP3    H224666   4.146   6.090   1.325 -3.3914  0.3679 -0.4855
 1011TIP3   OH224667   4.588   2.774   7.663  0.5752  0.1194 -0.4053
 1011TIP3    H124668   4.679   2.755   7.639  0.5027  0.4787 -0.9941
 1011TIP3    H224669   4.552   2.818   7.586 -0.2304 -0.4178 -0.3484
 1012TIP3   OH224670   0.513   0.231   2.500 -0.7815 -0.1765 -0.0296
 1012TIP3    H124671   0.587   0.292   2.506 -2.3368  1.7671  0.3176
 1012TIP3    H224672   0.517   0.198   2.410  0.1541  0.3637 -0.2031
 1013TIP3   OH224673   4.380   2.211   0.983 -0.0385  0.1320  0.0495
 1013TIP3    H124674   4.305   2.268   0.965 -0.6580 -0.2229  1.3608
 1013TIP3    H224675   4.392   2.216   1.078 -0.1108 -1.8923  0.2121
 1014TIP3   OH224676   4.906   2.856   3.033  0.4555 -0.8043 -0.5121
 1014TIP3    H124677   4.846   2.884   3.102  1.8745  0.8384  0.1381
 1014TIP3    H224678   4.871   2.773   3.002 -1.9484 -0.0612  0.0443
 1015TIP3   OH224679   5.070   0.618   8.397  0.1660 -0.0447  0.5213
 1015TIP3    H124680   5.125   0.572   8.333  0.3424  1.6254 -0.5674
 1015TIP3    H224681   5.055   0.553   8.466  0.8663 -1.5456 -0.6869
 1016TIP3   OH224682   0.216   1.046   6.850  0.6129 -0.4789 -0.4480
 1016TIP3    H124683   0.285   1.084   6.904 -0.9091  1.5598  0.1881
 1016TIP3    H224684   0.147   1.112   6.849 -1.0454 -2.1187 -1.6728
 1017TIP3   OH224685   0.585   2.838   1.701 -0.3014 -0.1334 -0.3594
 1017TIP3    H124686   0.679   2.837   1.689 -0.0871  1.6308  0.8059
 1017TIP3    H224687   0.563   2.930   1.716 -2.1148 -0.5725 -0.0037
 1018TIP3   OH224688   0.339   2.654   0.187  0.3326  0.1662  0.1308
 1018TIP3    H124689   0.337   2.575   0.241  0.1758  0.4955  0.6111
 1018TIP3    H224690   0.249   2.668   0.161  0.2568  0.5405  0.5747
 1019TIP3   OH224691   5.196   5.918   1.541  0.0303 -0.4769  0.1208
 1019TIP3    H124692   5.225   5.958   1.623  1.1226  1.4601 -1.1414
 1019TIP3    H224693   5.274   5.878   1.504  0.0395  0.4171 -0.8982
 1020TIP3   OH224694   4.486   4.810   8.679 -0.5701 -0.4726  0.5506
 1020TIP3    H124695   4.428   4.876   8.641 -2.9422 -2.5271  0.3238
 1020TIP3    H224696   4.522   4.852   8.757 -3.4665  0.5332  1.4996
 1021TIP3   OH224697   1.844   0.122   2.527 -0.4271  0.3715  0.8014
 1021TIP3    H124698   1.792   0.049   2.561 -0.4916 -0.1077 -0.2680
 1021TIP3    H224699   1.819   0.197   2.581 -3.3955  0.5170 -0.5592
 1022TIP3   OH224700   4.892   1.886   7.776  0.4867 -0.1402  0.2846
 1022TIP3    H124701   4.907   1.979   7.756  1.4033 -0.3202  0.0906
 1022TIP3    H224702   4.980   1.851   7.795  0.0601 -0.7893  1.1311
 1023TIP3   OH224703   1.960   6.049   0.647  0.1950 -0.3676  0.5338
 1023TIP3    H124704   1.919   5.963   0.656  0.3536 -0.4963  0.0599
 1023TIP3    H224705   2.048   6.030   0.616  0.1536 -0.0226  0.1958
 1024TIP3   OH224706   2.627   0.806   7.608 -0.0937  0.0960 -0.4053
 1024TIP3    H124707   2.606   0.816   7.515  0.4245 -0.1146 -0.5519
 1024TIP3    H224708   2.705   0.750   7.609  0.4124  0.7835  0.1125
 1025TIP3   OH224709   3.938   1.341   8.386 -0.1722  0.1779  0.1298
 1025TIP3    H124710   3.940   1.252   8.422 -0.7956 -0.4191 -1.2430
 1025TIP3    H224711   4.030   1.367   8.381  0.0702 -0.7376 -0.2837
 1026TIP3   OH224712   2.725   1.634   8.018 -0.0911 -0.2253  0.3115
 1026TIP3    H124713   2.671   1.574   7.967  0.7650 -0.4754 -0.3342
 1026TIP3    H224714   2.798   1.580   8.049  0.7137  0.4736 -0.3098
 1027TIP3   OH224715   3.709   0.356   3.023 -0.1229 -0.0661  0.2168
 1027TIP3    H124716   3.797   0.322   3.037 -0.3243 -0.5665  0.3100
 1027TIP3    H224717   3.710   0.444   3.060  0.2929 -0.1289  0.3573
 1028TIP3   OH224718   4.156   6.416   0.838  0.2687 -0.1773  0.4733
 1028TIP3    H124719   4.181   6.338   0.789  0.9848 -0.7888  1.7496
 1028TIP3    H224720   4.237   6.445   0.880  0.1015  1.5119 -0.2963
 1029TIP3   OH224721   3.890   2.385   0.334 -0.0152 -0.1237 -0.2290
 1029TIP3    H124722   3.905   2.473   0.370 -1.1796  0.7475 -1.7224
 1029TIP3    H224723   3.963   2.333   0.366 -0.4648  0.7794  2.5631
 1030TIP3   OH224724   0.683   5.425   1.452  0.1111 -0.6760 -0.6313
 1030TIP3    H124725   0.667   5.509   1.409  0.4085 -0.2807  0.0146
 1030TIP3    H224726   0.764   5.438   1.502 -1.5582 -0.2170  2.2294
 1031TIP3   OH224727   0.413   1.919   8.535  0.1681  0.5006  0.5463
 1031TIP3    H124728   0.335   1.957   8.494  0.5620  0.6141 -0.1121
 1031TIP3    H224729   0.486   1.960   8.489  0.6168 -1.4648 -0.6020
 1032TIP3   OH224730   2.880   6.259   8.654  0.3761  0.0006 -1.2082
 1032TIP3    H124731   2.893   6.165   8.637 -0.0405  0.2919 -3.4804
 1032TIP3    H224732   2.809   6.262   8.718  0.7023 -1.2446 -0.7579
 1033TIP3   OH224733   3.040   0.610   1.925 -0.3931 -0.1744 -0.4904
 1033TIP3    H124734   3.131   0.633   1.907 -0.7938  1.2990 -0.7332
 1033TIP3    H224735   3.025   0.530   1.874  1.4154 -1.8677  1.4009
 1034TIP3   OH224736   2.365   6.564   0.822 -0.2932  0.4204  0.7186
 1034TIP3    H124737   2.393   6.632   0.761 -1.6385  0.5162  0.1772
 1034TIP3    H224738   2.362   6.609   0.907 -1.6856  1.2144  0.2825
 1035TIP3   OH224739   3.348   4.159   2.322 -0.1395 -0.8818 -0.4369
 1035TIP3    H124740   3.398   4.239   2.338  0.5691 -1.6670  1.6717
 1035TIP3    H224741   3.388   4.120   2.244 -0.1799  0.5526 -1.1921
 1036TIP3   OH224742   1.013   3.146   6.626 -0.2934 -0.2887 -0.1455
 1036TIP3    H124743   0.971   3.218   6.671 -2.0647 -0.7652 -0.9518
 1036TIP3    H224744   0.952   3.072   6.635  0.2651 -0.9624 -1.4889
 1037TIP3   OH224745   5.927   3.958   6.971 -0.1485 -0.1590  0.6273
 1037TIP3    H124746   5.850   3.925   7.019 -0.9105  0.7688  0.0853
 1037TIP3    H224747   5.959   3.883   6.922 -1.3447 -0.3281  0.0660
 1038TIP3   OH224748   5.552   2.037   0.319  0.0684  0.2668  0.6414
 1038TIP3    H124749   5.473   2.071   0.360 -0.3344 -0.3578  0.3971
 1038TIP3    H224750   5.524   1.958   0.273  0.8540 -0.0213  0.6311
 1039TIP3   OH224751   0.375   1.470   0.220  0.0382 -0.3983  0.2075
 1039TIP3    H124752   0.309   1.495   0.156  2.0522  2.9062 -0.8447
 1039TIP3    H224753   0.340   1.501   0.304 -0.2316  0.3654 -0.1767
 1040TIP3   OH224754   4.077   3.964   8.313 -0.8296 -0.4054 -0.4749
 1040TIP3    H124755   3.997   4.013   8.294 -0.0654  0.8151 -0.6666
 1040TIP3    H224756   4.137   4.029   8.350  0.2412 -1.1863 -0.7755
 1041TIP3   OH224757   0.948   5.746   7.539 -0.1588  0.2201  0.2844
 1041TIP3    H124758   0.920   5.814   7.601 -0.4849 -0.7502  1.2332
 1041TIP3    H224759   1.018   5.786   7.489 -1.5219  1.8671 -0.3921
 1042TIP3   OH224760   4.621   5.873   1.751  0.1454 -0.6967 -0.1610
 1042TIP3    H124761   4.607   5.952   1.805 -0.3232 -0.1996 -0.9942
 1042TIP3    H224762   4.716   5.869   1.739  0.2455 -0.7490  0.6051
 1043TIP3   OH224763   4.296   2.581   2.672  0.4922 -0.8399 -0.1646
 1043TIP3    H124764   4.260   2.570   2.760  0.4318  0.2077 -0.0424
 1043TIP3    H224765   4.348   2.503   2.657 -1.6389 -2.3361 -0.2535
 1044TIP3   OH224766   4.246   1.574   7.918 -0.3632 -0.0923  0.1756
 1044TIP3    H124767   4.196   1.597   7.840 -0.4122  0.7001  0.4284
 1044TIP3    H224768   4.187   1.596   7.991  0.5604  1.4604  0.4969
 1045TIP3   OH224769   5.917   1.382   1.357 -0.4136 -0.2749 -0.2454
 1045TIP3    H124770   5.930   1.287   1.357 -1.6500 -0.4660  0.3682
 1045TIP3    H224771   5.844   1.396   1.417  1.1901  1.2879  1.4587
 1046TIP3   OH224772   5.986   2.465   1.327  0.2997  0.0041 -0.5103
 1046TIP3    H124773   5.984   2.534   1.261  0.1926  0.1753 -0.3260
 1046TIP3    H224774   6.079   2.441   1.333  0.4213  0.5462 -0.1412
 1047TIP3   OH224775   3.659   3.110   1.515 -0.4123 -0.5426 -0.5099
 1047TIP3    H124776   3.643   3.023   1.479 -0.6256 -0.9862  0.6192
 1047TIP3    H224777   3.582   3.128   1.570 -0.3434  0.3337 -0.6850
 1048TIP3   OH224778   2.232   5.173   7.552 -0.3772 -0.2843  0.3123
 1048TIP3    H124779   2.283   5.094   7.532 -0.4194 -0.3763  0.5555
 1048TIP3    H224780   2.297   5.242   7.559 -0.3088 -0.3553  0.3845
 1049TIP3   OH224781   1.578   4.698   7.828  0.2808 -0.4990  0.2298
 1049TIP3    H124782   1.668   4.671   7.812  0.5091 -1.7763  3.1339
 1049TIP3    H224783   1.525   4.628   7.787  0.7672 -2.0374  2.0764
 1050TIP3   OH224784   4.917   5.329   8.226  0.1789 -0.2632 -0.9144
 1050TIP3    H124785   4.998   5.354   8.269 -1.8006  1.3976  2.2183
 1050TIP3    H224786   4.912   5.385   8.148  1.2042  0.8869 -0.1752
 1051TIP3   OH224787   0.576   6.450   0.435 -0.5182 -0.2890  0.0177
 1051TIP3    H124788   0.618   6.502   0.367 -0.9417  0.2489  0.1550
 1051TIP3    H224789   0.601   6.494   0.517  1.3991 -1.9126  0.3698
 1052TIP3   OH224790   0.852   3.164   0.817  0.4244  0.2424 -0.7360
 1052TIP3    H124791   0.930   3.197   0.862 -0.6178  0.1014  1.2652
 1052TIP3    H224792   0.795   3.241   0.809 -0.0037 -0.0462 -0.4805
 1053TIP3   OH224793   4.652   1.239   2.245 -0.6860  0.3512 -0.1956
 1053TIP3    H124794   4.705   1.318   2.236 -1.7407  0.9308 -1.7880
 1053TIP3    H224795   4.620   1.241   2.335  0.0426  1.2401  0.0616
 1054TIP3   OH224796   0.833   4.560   2.128 -0.8055 -0.6849  0.0391
 1054TIP3    H124797   0.760   4.520   2.175 -1.6882  0.6422 -0.1546
 1054TIP3    H224798   0.901   4.569   2.194 -2.1254  1.4042  1.2168
 1055TIP3   OH224799   5.233   0.632   1.843  0.3365 -0.2497  0.2286
 1055TIP3    H124800   5.174   0.647   1.917  1.5147  0.6766  1.0126
 1055TIP3    H224801   5.268   0.719   1.822  2.5296 -0.9517  0.7455
 1056TIP3   OH224802   6.088   0.239   7.251 -0.1825  0.1486  0.4240
 1056TIP3    H124803   6.087   0.152   7.212  0.1852  0.3213  0.0109
 1056TIP3    H224804   6.123   0.226   7.339 -2.1122 -0.4157  1.1580
 1057TIP3   OH224805   6.355   5.667   2.116  0.3148 -0.4754  0.3248
 1057TIP3    H124806   6.357   5.575   2.141  1.5801 -0.8534 -1.0702
 1057TIP3    H224807   6.287   5.672   2.049  0.4747 -0.4483  0.1661
 1058TIP3   OH224808   0.636   4.374   8.257  0.5199 -0.8790 -0.7189
 1058TIP3    H124809   0.644   4.421   8.340  0.8364 -2.4291  0.1670
 1058TIP3    H224810   0.722   4.383   8.216  0.9291 -1.5632 -0.0438
 1059TIP3   OH224811   1.672   3.435   1.797  0.1051 -0.2400  0.3432
 1059TIP3    H124812   1.749   3.442   1.740 -0.8272 -1.4929 -1.1735
 1059TIP3    H224813   1.618   3.510   1.772  1.0989  1.0671  1.9321
 1060TIP3   OH224814   1.037   1.117   1.648 -0.1558 -0.4311  0.3416
 1060TIP3    H124815   1.027   1.127   1.742 -1.2221 -1.0143  0.3027
 1060TIP3    H224816   1.002   1.198   1.611  0.4779 -0.1037  0.4488
 1061TIP3   OH224817   5.504   4.749   8.432  0.5939 -0.6046  0.5385
 1061TIP3    H124818   5.539   4.665   8.402  0.6699 -0.4165  0.0966
 1061TIP3    H224819   5.431   4.767   8.373  0.0363 -0.7677  1.1636
 1062TIP3   OH224820   4.814   1.552   7.965  0.6286  0.3753  0.5656
 1062TIP3    H124821   4.784   1.641   7.946  1.5470  0.6416  0.3484
 1062TIP3    H224822   4.907   1.562   7.987  1.0647 -0.6905 -0.7312
 1063TIP3   OH224823   0.264   6.180   2.426 -0.3293  0.0772  0.0655
 1063TIP3    H124824   0.255   6.156   2.518 -2.2197  1.1727  0.2096
 1063TIP3    H224825   0.212   6.260   2.417  2.4082  1.8943 -1.2550
 1064TIP3   OH224826   1.106   0.958   0.438  0.0250  0.0577  0.0224
 1064TIP3    H124827   1.100   1.052   0.451 -3.0683 -0.0341  0.0002
 1064TIP3    H224828   1.144   0.947   0.351  3.2536  1.1132  1.1622
 1065TIP3   OH224829   6.371   5.849   2.493  0.2452  0.2024 -0.7729
 1065TIP3    H124830   6.425   5.814   2.563  0.5547  0.4701 -0.8783
 1065TIP3    H224831   6.294   5.885   2.538 -0.2896 -0.9820 -0.6950
 1066TIP3   OH224832   0.326   2.275   7.047 -0.1063  0.0979  0.0024
 1066TIP3    H124833   0.271   2.353   7.040  1.7646  1.8413  2.5156
 1066TIP3    H224834   0.385   2.280   6.972  0.6507  1.7657  0.6551
 1067TIP3   OH224835   3.625   6.035   0.482 -0.1303  0.4290 -0.2323
 1067TIP3    H124836   3.692   6.098   0.456  1.2495 -1.4621 -1.5517
 1067TIP3    H224837   3.671   5.973   0.538 -0.9281 -0.4856 -0.5566
 1068TIP3   OH224838   5.624   5.377   0.471 -0.3296 -0.1129  0.6274
 1068TIP3    H124839   5.661   5.292   0.450 -0.8035 -0.6199  1.7714
 1068TIP3    H224840   5.642   5.389   0.564  0.8632  1.6209  0.2242
 1069TIP3   OH224841   5.466   2.282   0.747 -0.1853  0.8636 -0.1816
 1069TIP3    H124842   5.436   2.319   0.664  0.3429 -0.3468 -0.9382
 1069TIP3    H224843   5.556   2.255   0.729  0.2447  1.4067  1.0627
 1070TIP3   OH224844   1.885   2.031   1.878 -0.2834 -0.2344  0.0670
 1070TIP3    H124845   1.922   1.956   1.832 -1.0698 -2.3844  2.6405
 1070TIP3    H224846   1.941   2.041   1.955 -1.8284 -0.0646  1.2158
 1071TIP3   OH224847   2.877   2.384   0.965  0.0886  0.5563  0.6350
 1071TIP3    H124848   2.864   2.361   1.057 -2.5474  0.4124  0.2941
 1071TIP3    H224849   2.833   2.469   0.955  1.0130  0.9414 -0.3447
 1072TIP3   OH224850   3.916   4.573   2.222 -0.3017  0.3446  0.2055
 1072TIP3    H124851   3.874   4.512   2.162  1.6214  1.1461 -2.1202
 1072TIP3    H224852   3.922   4.655   2.173  0.9902  1.1724  1.6404
 1073TIP3   OH224853   3.688   0.030   7.814 -0.1483  0.6355  0.5136
 1073TIP3    H124854   3.741  -0.034   7.861  1.0424 -0.7947 -2.4972
 1073TIP3    H224855   3.615  -0.020   7.779  0.5039  0.9269 -1.4289
 1074TIP3   OH224856   4.055   1.651   1.008 -0.2512  0.0711  0.5894
 1074TIP3    H124857   4.035   1.663   0.915  1.7870  0.6742  0.1672
 1074TIP3    H224858   4.135   1.599   1.008 -0.3835 -0.1598  2.0308
 1075TIP3   OH224859   5.972   0.756   0.568  0.2556 -0.2641  0.2602
 1075TIP3    H124860   5.923   0.797   0.497  2.0591  0.8712 -0.3891
 1075TIP3    H224861   6.042   0.707   0.525  1.9686  1.2255  1.2141
 1076TIP3   OH224862   2.384   3.162   7.956 -0.4167  0.1397 -0.0451
 1076TIP3    H124863   2.323   3.196   7.891 -1.1090  2.1903  1.5398
 1076TIP3    H224864   2.343   3.181   8.040  1.0781 -1.1168  1.0374
 1077TIP3   OH224865   3.501   2.087   3.140  0.2000 -0.2451 -0.0700
 1077TIP3    H124866   3.520   2.015   3.080  0.8552 -0.7975  0.7694
 1077TIP3    H224867   3.430   2.054   3.196  2.2703 -1.3691  2.0957
 1078TIP3   OH224868   6.165   0.006   8.060  0.6529 -0.1253 -0.2386
 1078TIP3    H124869   6.220   0.060   8.003  1.1863  1.2261  1.4718
 1078TIP3    H224870   6.209   0.007   8.144 -0.4440 -1.5470  0.3838
 1079TIP3   OH224871   5.858   3.017   2.007  0.0687 -0.0947 -0.4204
 1079TIP3    H124872   5.949   3.038   1.985  0.0295 -0.3327 -0.8191
 1079TIP3    H224873   5.860   2.996   2.100  0.3356  0.3809 -0.3182
 1080TIP3   OH224874   2.378   2.645   0.689 -0.1012  0.2897 -0.0894
 1080TIP3    H124875   2.346   2.699   0.617 -0.3861 -0.1138 -0.2688
 1080TIP3    H224876   2.430   2.577   0.646 -0.7954 -0.3277  0.0318
 1081TIP3   OH224877   5.516   2.600   0.650 -0.1199 -0.9187  0.6092
 1081TIP3    H124878   5.496   2.680   0.698  2.5478  1.3071 -1.6172
 1081TIP3    H224879   5.599   2.570   0.687  1.0833 -0.1254 -1.2738
 1082TIP3   OH224880   6.433   2.704   0.854 -0.7967  0.7005 -0.4012
 1082TIP3    H124881   6.390   2.782   0.891  1.0713  2.1213 -1.0755
 1082TIP3    H224882   6.388   2.691   0.770 -0.8774  1.2862 -0.4557
 1083TIP3   OH224883   5.642   6.718   3.064  0.0443 -0.0928  0.2686
 1083TIP3    H124884   5.676   6.804   3.038  0.7880 -0.8558 -1.4104
 1083TIP3    H224885   5.570   6.702   3.004  0.3412 -0.9327  0.1302
 1084TIP3   OH224886   5.103   3.405   0.684  0.1848 -0.0876 -0.3125
 1084TIP3    H124887   5.086   3.434   0.773  0.8227  2.8542 -1.0531
 1084TIP3    H224888   5.027   3.352   0.661 -1.1611  1.1125  1.1783
 1085TIP3   OH224889   3.453   0.116   2.213  0.3071 -0.0072 -0.2257
 1085TIP3    H124890   3.478   0.139   2.124  2.3472  0.6994  0.4813
 1085TIP3    H224891   3.361   0.090   2.206  0.8512 -1.5934 -2.8021
 1086TIP3   OH224892   2.237   5.267   1.563  0.6246 -0.3986 -0.0274
 1086TIP3    H124893   2.258   5.321   1.487  0.3194  0.0823  0.2191
 1086TIP3    H224894   2.197   5.329   1.625 -2.7897 -1.4201 -0.9773
 1087TIP3   OH224895   4.539   2.467   7.396 -0.0280  0.0659  0.7178
 1087TIP3    H124896   4.551   2.534   7.328  1.2898 -0.4954  0.3801
 1087TIP3    H224897   4.475   2.406   7.358  2.1379 -1.3280 -0.9123
 1088TIP3   OH224898   0.553   5.622   7.393 -0.1040 -0.2984 -0.0286
 1088TIP3    H124899   0.641   5.586   7.410 -1.1024 -1.9027  2.2776
 1088TIP3    H224900   0.507   5.553   7.346  0.0832  0.9061 -2.0743
 1089TIP3   OH224901   1.821   1.543   2.426  0.2771  0.6215  0.1634
 1089TIP3    H124902   1.812   1.549   2.521 -0.6112 -2.0044  0.3160
 1089TIP3    H224903   1.901   1.492   2.412  0.9065  1.7647 -0.5569
 1090TIP3   OH224904   0.524   6.751   0.084 -0.0641 -0.1150 -0.4309
 1090TIP3    H124905   0.566   6.792   0.008 -0.5037  0.7172 -0.2395
 1090TIP3    H224906   0.564   6.794   0.159 -1.4496  0.9251 -0.2469
 1091TIP3   OH224907   4.439   6.425   2.198 -0.2404  0.2118  0.1451
 1091TIP3    H124908   4.439   6.521   2.202 -0.6630  0.2104  0.2126
 1091TIP3    H224909   4.385   6.405   2.121  2.5888  0.1021 -1.9927
 1092TIP3   OH224910   1.739   2.359   2.046 -0.2296  0.5285 -0.5819
 1092TIP3    H124911   1.664   2.418   2.035  0.5598  1.8553  0.6852
 1092TIP3    H224912   1.811   2.402   1.999  0.4766  0.8568  0.7476
 1093TIP3   OH224913   1.609   2.811   0.448 -0.0499  0.0221 -0.2334
 1093TIP3    H124914   1.610   2.721   0.417  1.2491 -0.0282 -0.0973
 1093TIP3    H224915   1.642   2.862   0.375 -2.0040  0.5738 -0.7730
 1094TIP3   OH224916   6.016   5.008   1.745 -0.0351 -0.2771  0.2056
 1094TIP3    H124917   6.084   4.961   1.697  0.4802  0.8605 -0.2219
 1094TIP3    H224918   5.971   5.060   1.678  0.4723  1.0771  0.8809
 1095TIP3   OH224919   2.417   4.754   7.795 -0.0940 -0.0468  0.3455
 1095TIP3    H124920   2.481   4.809   7.839  2.6630 -1.9618 -1.0302
 1095TIP3    H224921   2.402   4.797   7.711  0.8291 -0.5134 -0.0721
 1096TIP3   OH224922   3.537   1.221   1.807  0.3187 -0.1396 -0.2674
 1096TIP3    H124923   3.530   1.303   1.759  0.7061 -0.4155 -0.8145
 1096TIP3    H224924   3.446   1.194   1.822  0.0339  2.0497  2.9099
 1097TIP3   OH224925   4.855   0.298   1.997  0.2914 -0.3207 -0.2683
 1097TIP3    H124926   4.895   0.315   2.082  0.4240 -0.4910 -0.2966
 1097TIP3    H224927   4.921   0.247   1.949 -0.1226 -0.9580 -0.1701
 1098TIP3   OH224928   5.059   0.031   0.286  0.4263 -0.0089 -0.2191
 1098TIP3    H124929   5.127   0.022   0.219  0.6649 -0.0650  0.0269
 1098TIP3    H224930   4.977   0.014   0.240  0.5838  0.0072 -0.5086
 1099TIP3   OH224931   4.909   4.290   1.613 -0.4319  0.3600  0.1588
 1099TIP3    H124932   4.956   4.317   1.692  0.0704  1.1554 -0.3930
 1099TIP3    H224933   4.972   4.239   1.563 -0.2624  1.0851 -0.3925
 1100TIP3   OH224934   2.671   5.286   0.324 -0.6745  0.2852  0.0134
 1100TIP3    H124935   2.594   5.332   0.356 -1.3614 -1.1486  0.4979
 1100TIP3    H224936   2.668   5.295   0.229 -1.3441  0.3639  0.0432
 1101TIP3   OH224937   0.837   6.563   7.575  0.4568 -0.2006  0.1228
 1101TIP3    H124938   0.873   6.532   7.492 -1.3030 -0.1277 -0.7106
 1101TIP3    H224939   0.838   6.485   7.631  0.6293 -0.5353 -0.3336
 1102TIP3   OH224940   0.070   0.447   7.887 -0.3219 -0.0553 -0.2639
 1102TIP3    H124941   0.114   0.404   7.814  2.3243  1.2216  0.4253
 1102TIP3    H224942   0.028   0.524   7.849 -1.7751 -1.1257 -0.8920
 1103TIP3   OH224943   1.187   4.466   2.633 -0.0778 -0.5299  0.3057
 1103TIP3    H124944   1.270   4.513   2.645 -0.2248  0.6410 -2.5150
 1103TIP3    H224945   1.192   4.430   2.545 -2.4457 -0.7130  0.1850
 1104TIP3   OH224946   5.649   2.538   0.338  0.3755  0.0603 -0.1625
 1104TIP3    H124947   5.730   2.518   0.385  1.7092  0.6333 -2.0945
 1104TIP3    H224948   5.652   2.632   0.325 -0.4147  0.0249 -0.6070
 1105TIP3   OH224949   2.772   6.295   8.350  0.2157  0.2023 -0.2097
 1105TIP3    H124950   2.716   6.219   8.336  0.8910 -0.4089  0.3426
 1105TIP3    H224951   2.720   6.354   8.405 -0.7678  0.6874 -1.6032
 1106TIP3   OH224952   6.100   0.235   8.565 -0.3451  0.0836  0.0450
 1106TIP3    H124953   6.009   0.262   8.552 -0.1111  0.9385  0.0621
 1106TIP3    H224954   6.095   0.151   8.609 -1.1321 -0.3447 -0.8379
 1107TIP3   OH224955   4.375   2.938   1.127 -0.0910 -0.5454 -0.1978
 1107TIP3    H124956   4.347   2.943   1.218 -0.4289  2.4283 -0.3660
 1107TIP3    H224957   4.459   2.892   1.131  0.5376  0.6217  1.8253
 1108TIP3   OH224958   3.593   5.276   8.294 -0.3670 -0.1073 -0.3588
 1108TIP3    H124959   3.520   5.325   8.333 -0.3038 -0.6313  0.4321
 1108TIP3    H224960   3.651   5.344   8.260  0.4328  0.4830  1.9781
 1109TIP3   OH224961   1.778   5.297   7.582 -0.8302  0.1133 -0.7964
 1109TIP3    H124962   1.866   5.293   7.545 -0.4720 -0.3930  0.0659
 1109TIP3    H224963   1.790   5.338   7.668 -1.2303 -1.1784 -0.1036
 1110TIP3   OH224964   1.174   2.254   1.153  0.1907 -0.3151 -0.3949
 1110TIP3    H124965   1.246   2.256   1.091 -0.1753 -2.3659 -0.9364
 1110TIP3    H224966   1.208   2.206   1.228  0.0199  0.5007  0.2202
 1111TIP3   OH224967   1.572   3.164   7.867 -0.1707 -0.3212 -0.1506
 1111TIP3    H124968   1.639   3.231   7.878  0.2799 -0.6377 -0.8876
 1111TIP3    H224969   1.593   3.122   7.783 -1.1402 -0.5925 -0.2772
 1112TIP3   OH224970   0.353   0.855   1.938 -0.0862 -0.0783 -0.2998
 1112TIP3    H124971   0.417   0.818   1.878  1.0221  0.5606  0.4670
 1112TIP3    H224972   0.386   0.835   2.025 -0.4625  1.0123  0.1184
 1113TIP3   OH224973   6.560   6.570   2.696 -0.1123  0.4501  0.0753
 1113TIP3    H124974   6.612   6.514   2.754 -0.3772  0.5209  0.3869
 1113TIP3    H224975   6.609   6.571   2.614 -0.2350 -0.4480 -0.0227
 1114TIP3   OH224976   2.731   0.936   2.355 -0.3049  0.0096  0.1414
 1114TIP3    H124977   2.705   0.865   2.296 -1.4567  0.7158 -0.2422
 1114TIP3    H224978   2.733   1.013   2.300  0.9813  0.2911  0.5480
 1115TIP3   OH224979   0.194   1.088   1.043 -0.1489 -0.1726 -0.2417
 1115TIP3    H124980   0.247   1.149   1.094  0.4275 -1.7615  1.1655
 1115TIP3    H224981   0.104   1.110   1.066  0.0891 -0.5797  1.2324
 1116TIP3   OH224982   1.691   3.872   2.185  0.3632  0.2584 -0.0802
 1116TIP3    H124983   1.614   3.929   2.179  0.7312  0.8892  0.8805
 1116TIP3    H224984   1.715   3.855   2.094 -0.0386  1.2596 -0.3945
 1117TIP3   OH224985   5.914   6.866   1.684 -0.4204  0.2640  0.6323
 1117TIP3    H124986   5.970   6.931   1.725  0.4047  0.6904 -1.1079
 1117TIP3    H224987   5.859   6.916   1.623 -0.6112 -0.5093  0.1520
 1118TIP3   OH224988   0.448   5.476   2.329  0.0912 -0.3629  0.7690
 1118TIP3    H124989   0.395   5.427   2.266 -2.8810 -0.5619  3.2116
 1118TIP3    H224990   0.479   5.552   2.280 -2.2977 -0.3627 -0.9417
 1119TIP3   OH224991   3.605   0.517   8.528  0.5572  0.0876  0.4268
 1119TIP3    H124992   3.657   0.593   8.553  0.8244  0.0847 -0.1154
 1119TIP3    H224993   3.580   0.533   8.437 -0.1677 -0.0365  0.5967
 1120TIP3   OH224994   3.834   3.912   0.483  0.0870  0.0965 -0.4652
 1120TIP3    H124995   3.927   3.926   0.469  0.0125  0.2037 -0.8552
 1120TIP3    H224996   3.818   3.821   0.459  0.3010 -0.2711  0.7021
 1121TIP3   OH224997   0.057   1.960   7.083 -0.5607  0.3216  0.0718
 1121TIP3    H124998   0.126   2.008   7.129  0.9666  1.2019 -2.8719
 1121TIP3    H224999   0.001   2.028   7.045 -0.7181 -0.2888 -0.8360
 1122TIP3   OH225000   5.138   5.635   8.061 -0.1767 -0.1302  0.3632
 1122TIP3    H125001   5.129   5.557   8.117  0.9806  0.3732  1.2910
 1122TIP3    H225002   5.230   5.636   8.038 -0.6163 -0.2749 -1.5367
 1123TIP3   OH225003   4.713   3.307   1.182  0.0315 -0.0322 -0.3884
 1123TIP3    H125004   4.716   3.234   1.244 -0.2082  0.5412  0.3026
 1123TIP3    H225005   4.805   3.332   1.171 -0.0535  1.1404  1.2748
 1124TIP3   OH225006   0.996   5.417   7.037  0.6279  0.1489  0.5802
 1124TIP3    H125007   1.022   5.339   6.989  0.7537 -0.7803  2.0714
 1124TIP3    H225008   0.908   5.436   7.006  0.9533 -0.0304 -0.4708
 1125TIP3   OH225009   0.737   3.780   7.323  0.1862  0.1861 -0.0625
 1125TIP3    H125010   0.759   3.704   7.269  0.5803 -0.2256  0.6621
 1125TIP3    H225011   0.656   3.814   7.285 -0.4632 -1.1035  0.1273
 1126TIP3   OH225012   6.599   0.808   8.023 -0.8853 -0.2184  0.2144
 1126TIP3    H125013   6.581   0.891   8.067  0.8840  0.9777 -1.1649
 1126TIP3    H225014   6.534   0.801   7.954  0.4424  1.3569 -1.2864
 1127TIP3   OH225015   0.581   4.618   1.471 -0.2665 -0.1443  0.2306
 1127TIP3    H125016   0.535   4.612   1.555  0.2164 -0.9859  0.4529
 1127TIP3    H225017   0.656   4.675   1.489  1.3277 -2.3622  1.1298
 1128TIP3   OH225018   5.246   4.766   1.212 -0.2816  0.3366  0.2773
 1128TIP3    H125019   5.322   4.725   1.253 -0.0577  0.6415  0.1777
 1128TIP3    H225020   5.171   4.718   1.245 -0.0702  0.2788  0.6797
 1129TIP3   OH225021   3.693   1.481   0.987  0.1950 -0.4426  0.0639
 1129TIP3    H125022   3.730   1.439   0.909  0.4050 -1.8712  0.8979
 1129TIP3    H225023   3.600   1.493   0.965  0.1392 -1.3175 -0.2260
 1130TIP3   OH225024   2.245   6.168   3.127 -0.0001  0.3871 -0.2466
 1130TIP3    H125025   2.193   6.202   3.054  0.4009  0.5487 -0.4596
 1130TIP3    H225026   2.183   6.162   3.199 -0.4214  0.1494 -0.6202
 1131TIP3   OH225027   6.341   6.529   8.140  0.1142  0.2290  0.1827
 1131TIP3    H125028   6.366   6.466   8.072  1.5561 -0.3954  1.2326
 1131TIP3    H225029   6.387   6.609   8.115 -1.5725  0.8500 -1.0518
 1132TIP3   OH225030   3.739   2.701   8.335  0.0971  0.0505 -0.5288
 1132TIP3    H125031   3.645   2.684   8.331  0.2513 -1.7932  1.6826
 1132TIP3    H225032   3.753   2.770   8.270 -3.1696  2.2214  0.7884
 1133TIP3   OH225033   2.499   2.044   7.612 -0.3917 -0.1613  0.6951
 1133TIP3    H125034   2.545   1.960   7.607 -0.4609 -0.1451 -0.3498
 1133TIP3    H225035   2.447   2.047   7.533  0.6223  1.4624  0.0449
 1134TIP3   OH225036   4.489   3.230   0.946  0.3605 -0.5789  0.5052
 1134TIP3    H125037   4.504   3.137   0.957 -0.8322 -0.8145  0.3283
 1134TIP3    H225038   4.471   3.263   1.034  1.1047 -0.4443  0.6121
 1135TIP3   OH225039   2.720   4.996   2.305 -0.4742 -0.0315 -0.1558
 1135TIP3    H125040   2.653   4.995   2.236 -0.7304 -0.9774  0.0867
 1135TIP3    H225041   2.676   4.959   2.381  0.2871 -0.5722  0.0383
 1136TIP3   OH225042   0.296   1.483   6.745 -0.3706  0.0266  0.3230
 1136TIP3    H125043   0.370   1.422   6.750  0.9908  1.5987  0.3424
 1136TIP3    H225044   0.296   1.512   6.654  1.5662  2.8916  1.0805
 1137TIP3   OH225045   1.063   3.425   1.509 -0.0657 -0.5891 -0.2234
 1137TIP3    H125046   1.116   3.346   1.506  0.4693 -0.2245 -1.6380
 1137TIP3    H225047   0.993   3.410   1.446 -1.5264 -0.9476  1.4152
 1138TIP3   OH225048   0.967   4.959   2.328 -0.0412 -0.0939  0.4969
 1138TIP3    H125049   1.020   4.907   2.388 -0.6177 -1.4137 -0.0831
 1138TIP3    H225050   0.935   5.032   2.380  2.0795  0.5659  0.9336
 1139TIP3   OH225051   0.990   2.209   8.406 -0.0211 -0.1063  0.5327
 1139TIP3    H125052   1.018   2.212   8.314  1.3367  0.1363  0.9373
 1139TIP3    H225053   0.910   2.261   8.408  1.0590  1.6481 -0.1397
 1140TIP3   OH225054   5.072   1.082   0.232 -0.8906  0.5815 -0.3876
 1140TIP3    H125055   5.133   1.131   0.176  0.0029 -0.1899 -0.1117
 1140TIP3    H225056   5.046   1.007   0.179 -0.0946 -0.1169  0.1732
 1141TIP3   OH225057   1.623   5.900   1.592  0.1871 -0.2507 -0.0310
 1141TIP3    H125058   1.674   5.881   1.514  1.2911  0.8476  0.3865
 1141TIP3    H225059   1.614   5.996   1.591 -0.5785 -0.3038  0.7041
 1142TIP3   OH225060   4.583   5.418   1.038 -0.0362  0.1346 -0.1794
 1142TIP3    H125061   4.604   5.511   1.029  1.3257 -0.0792  0.4840
 1142TIP3    H225062   4.638   5.375   0.973  0.2380 -0.3015  0.3358
 1143TIP3   OH225063   3.217   6.657   1.762  0.3073 -0.2483 -0.0840
 1143TIP3    H125064   3.150   6.626   1.700  0.6226 -2.2417  0.5159
 1143TIP3    H225065   3.281   6.701   1.706 -0.3460 -0.3518 -0.9542
 1144TIP3   OH225066   5.597   2.450   7.599  0.3727  0.5821 -0.5947
 1144TIP3    H125067   5.670   2.459   7.661  0.8277  1.3124 -1.2219
 1144TIP3    H225068   5.638   2.459   7.513 -0.2281 -0.5906 -1.0246
 1145TIP3   OH225069   4.904   3.433   1.617 -0.1337  0.3879 -0.1036
 1145TIP3    H125070   4.918   3.353   1.565 -0.3044  0.4615 -0.2639
 1145TIP3    H225071   4.991   3.470   1.628 -0.0261  0.0444  0.1821
 1146TIP3   OH225072   3.437   0.489   1.169  0.0279  0.0547 -0.3634
 1146TIP3    H125073   3.533   0.493   1.172  0.0934 -1.0753 -0.6204
 1146TIP3    H225074   3.418   0.434   1.093 -0.7792 -1.6408  1.0121
 1147TIP3   OH225075   3.023   0.028   7.360  0.0895 -0.1598  0.4138
 1147TIP3    H125076   2.980   0.098   7.409  1.3259  0.1279  1.1050
 1147TIP3    H225077   2.987   0.036   7.271 -0.1914  0.9927  0.6142
 1148TIP3   OH225078   3.265   1.309   2.497 -0.2872 -0.2540  0.1510
 1148TIP3    H125079   3.346   1.258   2.509  1.2804  1.8180 -0.8551
 1148TIP3    H225080   3.195   1.245   2.503  1.4026 -2.1187  1.3607
 1149TIP3   OH225081   6.028   5.527   8.173  0.2496  0.5643 -0.0491
 1149TIP3    H125082   6.049   5.542   8.265  1.3452  0.6902 -0.3013
 1149TIP3    H225083   6.048   5.610   8.129  1.1892  0.0682 -0.6134
 1150TIP3   OH225084   1.441   1.723   0.617  0.4559 -0.0940  0.1094
 1150TIP3    H125085   1.478   1.803   0.578  1.0121 -0.6918 -0.6258
 1150TIP3    H225086   1.368   1.700   0.561  2.3561 -1.9815 -1.8004
 1151TIP3   OH225087   5.683   1.661   7.295 -0.1295 -0.1460  0.2116
 1151TIP3    H125088   5.592   1.633   7.300  0.3200 -1.6056  0.7557
 1151TIP3    H225089   5.725   1.619   7.370  1.4282 -1.2530 -1.2152
 1152TIP3   OH225090   6.124   4.650   0.326  0.3106 -0.3114 -0.5198
 1152TIP3    H125091   6.049   4.643   0.267  0.2049 -0.0531 -0.4196
 1152TIP3    H225092   6.109   4.583   0.393  1.4297 -1.9919 -1.8658
 1153TIP3   OH225093   0.206   1.807   8.258 -0.3636 -0.0093  0.0670
 1153TIP3    H125094   0.185   1.728   8.208  0.4007 -1.1719  1.5100
 1153TIP3    H225095   0.214   1.777   8.348 -0.5183  1.8225  0.7330
 1154TIP3   OH225096   5.285   3.793   1.062 -0.4079  0.1406 -0.3420
 1154TIP3    H125097   5.291   3.699   1.076  0.2615 -0.0470 -1.7198
 1154TIP3    H225098   5.371   3.818   1.028 -0.6832  1.1873 -0.3202
 1155TIP3   OH225099   3.217   6.239   7.617  0.0388  0.1829  0.2340
 1155TIP3    H125100   3.306   6.272   7.630  0.6487 -1.0932 -0.5248
 1155TIP3    H225101   3.188   6.216   7.705  1.4956 -1.8526  0.2568
 1156TIP3   OH225102   4.124   6.539   0.408  0.0734 -0.0795  0.2865
 1156TIP3    H125103   4.097   6.615   0.357  1.4787  0.0688 -0.2781
 1156TIP3    H225104   4.131   6.571   0.498 -1.3241 -0.0714  0.4173
 1157TIP3   OH225105   3.675   6.212   2.217 -0.1591  0.4778  0.1558
 1157TIP3    H125106   3.710   6.294   2.183  1.5773  0.4537  1.7476
 1157TIP3    H225107   3.752   6.157   2.235 -1.2742 -1.7722 -1.3792
 1158TIP3   OH225108   6.444   1.585   6.812  0.3313  0.1574 -0.2941
 1158TIP3    H125109   6.372   1.594   6.874  0.2896  0.1447 -0.3412
 1158TIP3    H225110   6.458   1.491   6.805  2.0247  0.1920  1.6794
 1159TIP3   OH225111   2.622   3.930   2.415 -0.3878 -0.7458  0.0477
 1159TIP3    H125112   2.532   3.961   2.410 -0.7237 -1.1104  2.3810
 1159TIP3    H225113   2.676   4.009   2.414 -0.8260 -0.4475 -0.0625
 1160TIP3   OH225114   3.395   3.720   0.044 -0.0681 -0.6585 -0.2294
 1160TIP3    H125115   3.426   3.657   0.109  0.2157 -1.0610 -0.7497
 1160TIP3    H225116   3.361   3.793   0.096  0.1994 -0.9530  0.3699
 1161TIP3   OH225117   3.085   6.371   7.429 -0.0241 -0.0190 -0.2250
 1161TIP3    H125118   3.117   6.330   7.509  0.4140  0.1766 -0.2984
 1161TIP3    H225119   3.104   6.464   7.440 -0.5774  0.1025 -0.2662
 1162TIP3   OH225120   6.566   5.438   2.380 -0.3517  0.1727 -0.1497
 1162TIP3    H125121   6.636   5.375   2.364  0.3180  0.8489  0.0520
 1162TIP3    H225122   6.522   5.404   2.458 -0.5043 -0.4702 -0.5104
 1163TIP3   OH225123   4.135   1.675   7.190  0.3682 -0.4724 -0.8513
 1163TIP3    H125124   4.058   1.664   7.246  0.7616  1.1240  0.0761
 1163TIP3    H225125   4.126   1.762   7.153  2.1510  0.1444  0.0273
 1164TIP3   OH225126   6.304   0.046   0.814 -0.1794  0.0392  0.2323
 1164TIP3    H125127   6.259   0.040   0.898  1.1431  0.0096  0.9684
 1164TIP3    H225128   6.300  -0.042   0.777 -1.2642  0.1842 -0.0159
 1165TIP3   OH225129   4.997   4.307   7.331  0.2136 -0.2243  0.3266
 1165TIP3    H125130   5.016   4.234   7.272 -0.2576  0.9660 -1.3521
 1165TIP3    H225131   5.053   4.290   7.408  0.6272 -1.9647 -0.3032
 1166TIP3   OH225132   0.594   6.869   8.536 -0.4619  0.3946 -0.5838
 1166TIP3    H125133   0.684   6.895   8.559 -0.1729 -1.8242  1.1793
 1166TIP3    H225134   0.604   6.813   8.459 -0.1180 -0.9082  0.3688
 1167TIP3   OH225135   6.522   0.669   2.762 -0.2297 -0.0452 -0.0537
 1167TIP3    H125136   6.589   0.733   2.787  0.1007 -0.0964 -0.8005
 1167TIP3    H225137   6.465   0.665   2.838  0.0869  0.6917  0.2381
 1168TIP3   OH225138   4.507   5.550   2.586  0.5534  0.2147 -0.0958
 1168TIP3    H125139   4.538   5.510   2.667  1.0580 -0.5744 -0.6622
 1168TIP3    H225140   4.545   5.638   2.587  1.8437 -0.3107 -0.1778
 1169TIP3   OH225141   3.690   6.716   2.113 -0.3088  0.0340 -0.0898
 1169TIP3    H125142   3.622   6.726   2.047 -0.7504 -2.0415 -0.0114
 1169TIP3    H225143   3.735   6.634   2.091  0.5717  0.1036  1.2642
 1170TIP3   OH225144   0.577   0.946   8.209 -0.1283 -0.0380 -0.1093
 1170TIP3    H125145   0.510   1.011   8.187 -0.2763 -0.7323 -1.9310
 1170TIP3    H225146   0.650   0.998   8.244 -0.9874  0.8885  0.3765
 1171TIP3   OH225147   4.990   3.025   2.364  0.2302  0.2059 -0.2001
 1171TIP3    H125148   5.017   2.974   2.440  1.1299  0.9767  0.0083
 1171TIP3    H225149   5.011   2.968   2.289  0.1941 -0.1791  0.0781
 1172TIP3   OH225150   6.173   0.032   1.074  0.5126  0.1719  0.0355
 1172TIP3    H125151   6.238  -0.023   1.117  0.6382  0.6300  0.4319
 1172TIP3    H225152   6.091   0.012   1.119  0.6650  0.7358  0.5605
 1173TIP3   OH225153   3.073   0.299   8.118  0.0075 -0.5408 -0.8461
 1173TIP3    H125154   3.129   0.228   8.148  0.6353  0.1074 -0.4603
 1173TIP3    H225155   3.074   0.363   8.190 -0.8057 -0.2837 -1.0481
 1174TIP3   OH225156   6.330   3.942   8.287  0.2861 -0.7697  0.1302
 1174TIP3    H125157   6.254   3.946   8.345 -0.6343  0.6510 -1.1106
 1174TIP3    H225158   6.312   3.868   8.229  1.4605 -2.5464  1.8767
 1175TIP3   OH225159   3.575   4.917   1.753  0.2355 -0.2009 -0.0815
 1175TIP3    H125160   3.642   4.858   1.718 -1.4172 -1.4310 -1.3528
 1175TIP3    H225161   3.560   4.980   1.682 -1.0782 -0.9310 -0.4789
 1176TIP3   OH225162   2.665   4.820   1.288  0.2765  0.2315  0.3883
 1176TIP3    H125163   2.710   4.891   1.335  2.1540  0.6384 -1.8109
 1176TIP3    H225164   2.667   4.847   1.196 -2.2739 -1.0134 -0.1273
 1177TIP3   OH225165   4.518   4.426   0.082 -0.5254  0.3492  0.3776
 1177TIP3    H125166   4.450   4.361   0.068 -2.0839  1.7505  1.0521
 1177TIP3    H225167   4.580   4.412   0.011 -1.6943 -0.7670 -0.4707
 1178TIP3   OH225168   3.514   1.686   1.561  0.1038  0.3718  0.5118
 1178TIP3    H125169   3.606   1.678   1.534 -0.3111  0.1147 -0.8823
 1178TIP3    H225170   3.474   1.742   1.494 -0.8285  0.2777  0.9708
 1179TIP3   OH225171   4.232   4.368   0.584  0.6238 -0.0533 -0.2581
 1179TIP3    H125172   4.267   4.281   0.603 -0.4251 -0.3613  0.4070
 1179TIP3    H225173   4.258   4.386   0.494  0.7432 -1.1158 -0.4482
 1180TIP3   OH225174   2.569   3.490   0.613 -0.2041 -0.3152 -0.5130
 1180TIP3    H125175   2.636   3.490   0.545 -0.9726  0.1808 -1.2970
 1180TIP3    H225176   2.526   3.575   0.604  0.3466  0.2083  1.2850
 1181TIP3   OH225177   6.852   5.078   1.095 -0.6053 -0.6098  0.2614
 1181TIP3    H125178   6.799   4.998   1.100 -0.7785 -0.5176 -0.0466
 1181TIP3    H225179   6.941   5.049   1.115 -0.1574 -1.4134 -2.4282
 1182TIP3   OH225180   3.101   3.126   0.373  0.2445  0.1075 -0.0944
 1182TIP3    H125181   3.030   3.190   0.365  0.7452  0.5003 -2.1779
 1182TIP3    H225182   3.177   3.178   0.397  0.2759  0.0184 -0.0011
 1183TIP3   OH225183   6.386   5.362   2.611  0.2534  0.1403  0.3653
 1183TIP3    H125184   6.325   5.426   2.573  0.1466 -0.3130 -0.2374
 1183TIP3    H225185   6.456   5.416   2.649 -0.1107  0.6341  0.3452
 1184TIP3   OH225186   0.687   1.987   1.957  0.1204 -0.3284  0.8019
 1184TIP3    H125187   0.724   1.972   1.870 -1.4505 -1.8266  0.3553
 1184TIP3    H225188   0.764   1.997   2.013  1.1700  0.5794 -0.6999
 1185TIP3   OH225189   2.958   3.649   0.973  0.1466 -0.4501 -0.1908
 1185TIP3    H125190   2.872   3.660   0.933  0.4269  0.9226 -0.4754
 1185TIP3    H225191   3.018   3.691   0.911  1.0394 -1.4681 -0.0394
 1186TIP3   OH225192   2.479   2.549   3.157  0.4052 -0.1882 -0.1061
 1186TIP3    H125193   2.449   2.575   3.244  0.3150 -0.9150  0.0868
 1186TIP3    H225194   2.551   2.609   3.137 -1.0767  1.5123 -0.5336
 1187TIP3   OH225195   6.022   4.094   8.206 -0.2372  0.4777  0.1662
 1187TIP3    H125196   5.950   4.156   8.193 -0.4608 -0.2525 -2.6375
 1187TIP3    H225197   6.100   4.150   8.214 -0.9464  1.2616  3.0197
 1188TIP3   OH225198   1.818   2.450   0.598  0.7865  0.4315 -0.1126
 1188TIP3    H125199   1.905   2.430   0.633  1.3985  1.3692 -1.0211
 1188TIP3    H225200   1.813   2.400   0.517  1.8644  2.8250 -1.7879
 1189TIP3   OH225201   2.027   5.331   7.481 -0.5256 -0.0170  0.2715
 1189TIP3    H125202   2.049   5.351   7.389 -0.0873  2.0989  0.7716
 1189TIP3    H225203   2.096   5.271   7.509  2.2098  2.9510  0.4791
 1190TIP3   OH225204   5.954   6.024   0.864 -0.0953 -0.2434  0.2778
 1190TIP3    H125205   6.012   5.993   0.933  0.9010 -1.1012 -0.9011
 1190TIP3    H225206   5.866   6.002   0.895  0.4005 -1.6049  0.8027
 1191TIP3   OH225207   3.752   3.752   7.927 -0.4515  0.2739  0.8639
 1191TIP3    H125208   3.664   3.745   7.966 -1.4503  1.8320 -0.9489
 1191TIP3    H225209   3.777   3.662   7.908 -2.0126 -0.1566  0.6938
 1192TIP3   OH225210   1.589   3.315   6.618  0.1239  0.4212  0.9030
 1192TIP3    H125211   1.593   3.354   6.530  2.5247 -0.8045  0.3780
 1192TIP3    H225212   1.514   3.256   6.614 -0.5741  1.3075  0.1366
 1193TIP3   OH225213   3.662   0.766   1.185  0.4736 -0.2431  0.0780
 1193TIP3    H125214   3.677   0.741   1.276  1.0705 -1.3819 -0.3210
 1193TIP3    H225215   3.568   0.785   1.181  0.3302 -0.7722  0.7885
 1194TIP3   OH225216   6.532   2.899   0.624  0.1745  0.4950  0.0160
 1194TIP3    H125217   6.606   2.846   0.653  0.6403  1.8377  1.4579
 1194TIP3    H225218   6.571   2.966   0.569  0.1281  1.4563  1.1197
 1195TIP3   OH225219   1.229   3.797   3.138  0.5684  0.9957 -0.2033
 1195TIP3    H125220   1.245   3.885   3.105  2.5277  0.5686 -0.5069
 1195TIP3    H225221   1.303   3.745   3.106 -0.4349 -0.7275  0.1166
 1196TIP3   OH225222   3.643   5.533   7.516 -0.0042  0.0002  0.0254
 1196TIP3    H125223   3.641   5.489   7.431 -0.4581 -0.0326  0.0481
 1196TIP3    H225224   3.727   5.579   7.517  0.0920 -0.1589 -0.3593
 1197TIP3   OH225225   3.638   4.195   0.340  0.1180  0.2844  0.1980
 1197TIP3    H125226   3.583   4.126   0.303 -0.9271  0.8698  0.6262
 1197TIP3    H225227   3.682   4.154   0.414  1.3596 -0.5776 -0.9554
 1198TIP3   OH225228   0.279   4.937   7.187 -0.0967  0.5245  0.4860
 1198TIP3    H125229   0.298   4.942   7.093  0.9916  1.1580  0.7111
 1198TIP3    H225230   0.302   5.025   7.220 -1.2296  0.5641  1.2153
 1199TIP3   OH225231   1.882   2.059   1.597  0.0531  0.4742 -0.0253
 1199TIP3    H125232   1.929   1.999   1.654  0.5952  1.0844  0.1910
 1199TIP3    H225233   1.924   2.048   1.511  1.0640  1.4736  0.3046
 1200TIP3   OH225234   2.236   5.863   7.696 -0.5629 -0.1491 -0.1844
 1200TIP3    H125235   2.246   5.860   7.791  1.0625 -1.2142 -0.3600
 1200TIP3    H225236   2.244   5.772   7.668 -0.3100  0.2392 -1.4094
 1201TIP3   OH225237   2.673   3.125   2.768 -0.0801  0.3540  0.6526
 1201TIP3    H125238   2.720   3.186   2.825 -1.6992  1.0551  1.2979
 1201TIP3    H225239   2.677   3.042   2.815  2.9215 -0.3690 -0.6551
 1202TIP3   OH225240   3.377   1.373   7.749 -0.2265 -0.2123 -0.1336
 1202TIP3    H125241   3.379   1.453   7.697 -1.2247 -0.5451 -0.7092
 1202TIP3    H225242   3.439   1.314   7.706 -1.7936 -0.8566 -1.6063
 1203TIP3   OH225243   3.507   4.378   2.374  0.4208  0.0725 -0.4933
 1203TIP3    H125244   3.474   4.457   2.332 -0.8262  0.5826  1.3388
 1203TIP3    H225245   3.593   4.402   2.408 -0.2514  0.9078  0.6828
 1204TIP3   OH225246   2.773   3.139   1.017  0.1023 -0.1155  0.0614
 1204TIP3    H125247   2.694   3.085   1.022  0.4671 -0.7317 -0.6369
 1204TIP3    H225248   2.754   3.215   1.071 -1.4768  0.3794 -1.1200
 1205TIP3   OH225249   1.096   5.250   8.628  0.0094 -0.0108 -0.5884
 1205TIP3    H125250   1.052   5.222   8.707 -0.9912 -0.7591 -1.3820
 1205TIP3    H225251   1.147   5.174   8.600  0.3503  0.2436 -0.6757
 1206TIP3   OH225252   3.622   2.766   3.401  0.5622  0.2766 -0.1649
 1206TIP3    H125253   3.616   2.703   3.473  0.8558  2.1132  1.5409
 1206TIP3    H225254   3.625   2.852   3.443  0.7642  1.4458 -2.3775
 1207TIP3   OH225255   5.534   6.614   7.884 -0.0617  0.6971 -0.2912
 1207TIP3    H125256   5.473   6.545   7.858  0.6517  0.4172 -1.2679
 1207TIP3    H225257   5.502   6.692   7.837  0.4251  0.5045 -0.9652
 1208TIP3   OH225258   4.275   6.181   0.416 -0.0940 -0.0854 -0.5107
 1208TIP3    H125259   4.254   6.087   0.418 -0.6043  0.0215 -0.8756
 1208TIP3    H225260   4.239   6.212   0.334 -1.8176  0.8743  0.5584
 1209TIP3   OH225261   3.993   1.658   7.796  0.4393  0.3344  0.0501
 1209TIP3    H125262   3.959   1.582   7.843  1.4678  0.9606  1.9158
 1209TIP3    H225263   3.921   1.722   7.800  1.3099  1.2997  3.1238
 1210TIP3   OH225264   2.133   2.972   7.476  0.2659  0.2120  0.2064
 1210TIP3    H125265   2.214   2.951   7.431  0.1622 -2.3649  1.0548
 1210TIP3    H225266   2.158   3.034   7.544  1.0402  1.3946 -1.1241
 1211TIP3   OH225267   2.381   5.410   2.663 -0.1079  1.0384 -0.2451
 1211TIP3    H125268   2.331   5.334   2.630  0.9918  0.1386  0.0959
 1211TIP3    H225269   2.472   5.387   2.645  0.2889  1.9366  0.6098
 1212TIP3   OH225270   6.867   6.314   0.925 -0.2076 -0.0421 -0.1964
 1212TIP3    H125271   6.938   6.329   0.987  0.3412 -0.5678 -0.6840
 1212TIP3    H225272   6.893   6.236   0.876  0.0817  1.1762 -2.0980
 1213TIP3   OH225273   1.474   4.777   0.971  0.0605 -0.0397 -0.5376
 1213TIP3    H125274   1.560   4.813   0.990  0.0427 -1.5022  2.8949
 1213TIP3    H225275   1.489   4.683   0.959 -1.0537 -0.3128  0.0986
 1214TIP3   OH225276   4.025   1.766   2.451 -0.4038  0.0745  0.2464
 1214TIP3    H125277   4.073   1.799   2.527  1.2140 -1.7420  0.0909
 1214TIP3    H225278   3.934   1.764   2.480  0.0327  0.4430  1.7789
 1215TIP3   OH225279   4.127   5.000   0.535  0.0524  0.1462 -0.1644
 1215TIP3    H125280   4.200   5.030   0.589  0.1824 -0.1857 -0.1541
 1215TIP3    H225281   4.168   4.956   0.461 -0.1242  0.7589 -0.6340
 1216TIP3   OH225282   5.225   4.612   0.976  0.2119 -0.2408 -0.0637
 1216TIP3    H125283   5.227   4.675   1.048 -1.8281 -0.2837  0.1068
 1216TIP3    H225284   5.312   4.616   0.938  0.3660  2.2289  0.3415
 1217TIP3   OH225285   5.376   3.529   1.084 -0.5844  0.8250 -0.3687
 1217TIP3    H125286   5.456   3.528   1.136  0.2360  2.6228 -1.4970
 1217TIP3    H225287   5.393   3.467   1.013 -0.9466 -0.1712  0.3912
 1218TIP3   OH225288   3.030   1.904   8.182  0.3365 -0.1930 -0.0803
 1218TIP3    H125289   2.934   1.900   8.187  0.2780 -2.3010 -1.6299
 1218TIP3    H225290   3.048   1.969   8.114 -0.0668 -0.7745 -0.7607
 1219TIP3   OH225291   0.349   3.579   1.472 -0.2968  1.2558  0.4217
 1219TIP3    H125292   0.271   3.523   1.477  0.1499  0.6456  0.6463
 1219TIP3    H225293   0.374   3.576   1.380  0.9153 -0.5924  0.7585
 1220TIP3   OH225294   0.591   0.141   0.796  0.5518  0.8461 -0.1668
 1220TIP3    H125295   0.618   0.050   0.806  1.6588  1.0086 -1.2923
 1220TIP3    H225296   0.659   0.191   0.841  1.2657  1.1948 -1.5709
 1221TIP3   OH225297   0.591   2.243   8.635 -0.1040  0.2326 -0.0878
 1221TIP3    H125298   0.598   2.159   8.680  0.9609  0.1678 -0.3472
 1221TIP3    H225299   0.551   2.301   8.700 -0.9288 -0.4829  0.0623
 1222TIP3   OH225300   4.853   1.172   0.393 -0.0980  0.0571 -0.4379
 1222TIP3    H125301   4.924   1.149   0.333  0.5909  0.4922  0.1969
 1222TIP3    H225302   4.873   1.262   0.420 -0.3381 -0.1703  0.5274
 1223TIP3   OH225303   0.443   5.214   8.100  0.5894  0.2655 -0.1432
 1223TIP3    H125304   0.445   5.262   8.016 -1.2609 -0.4029 -0.6294
 1223TIP3    H225305   0.463   5.124   8.076 -1.5003 -0.2392 -0.1768
 1224TIP3   OH225306   0.286   0.870   0.121 -0.3955 -0.2794 -1.0436
 1224TIP3    H125307   0.194   0.889   0.140  0.2694  0.3560  1.9854
 1224TIP3    H225308   0.315   0.943   0.067 -0.4942  2.2696  2.0753
 1225TIP3   OH225309   6.071   0.591   8.522 -0.5171  0.0661 -0.1039
 1225TIP3    H125310   6.041   0.679   8.500  0.8081  1.4369  3.0535
 1225TIP3    H225311   6.002   0.555   8.578 -0.2877 -0.2355 -0.0123
 1226TIP3   OH225312   2.338   1.749   8.076 -0.2128 -0.2776  0.3319
 1226TIP3    H125313   2.308   1.679   8.018  0.9143  0.2783 -0.9622
 1226TIP3    H225314   2.410   1.790   8.029 -0.7093  1.6317  1.1576
 1227TIP3   OH225315   6.677   3.689   0.120  0.4994  0.0736 -1.1328
 1227TIP3    H125316   6.591   3.730   0.115  0.6403  0.3234 -1.5980
 1227TIP3    H225317   6.739   3.761   0.103  0.9087  0.3200  1.0559
 1228TIP3   OH225318   1.208   5.088   1.490  0.3628  0.6530  0.3089
 1228TIP3    H125319   1.288   5.037   1.481 -0.0018 -0.0689  0.9853
 1228TIP3    H225320   1.173   5.095   1.401 -0.0397 -1.0725  0.2997
 1229TIP3   OH225321   6.440   1.212   1.496 -0.1714 -0.2217  0.7206
 1229TIP3    H125322   6.392   1.279   1.447 -0.0467  0.5426  1.6078
 1229TIP3    H225323   6.496   1.262   1.555  1.5207 -1.0854 -0.0697
 1230TIP3   OH225324   2.531   6.080   7.781 -0.1997  0.1073  0.4212
 1230TIP3    H125325   2.488   6.023   7.717 -1.2128  0.3003  0.9085
 1230TIP3    H225326   2.623   6.053   7.780  0.4915  1.9582 -3.1675
 1231TIP3   OH225327   0.528   3.710   8.452  0.2289  0.4649 -0.3856
 1231TIP3    H125328   0.519   3.799   8.487 -0.7260 -0.4333  1.8600
 1231TIP3    H225329   0.438   3.682   8.434 -0.0373 -1.4636  3.0207
 1232TIP3   OH225330   4.335   3.159   0.727  0.4995  0.2827 -0.3735
 1232TIP3    H125331   4.375   3.075   0.705 -0.7545 -0.1198 -1.2552
 1232TIP3    H225332   4.383   3.190   0.803  1.0908 -1.1606 -0.1338
 1233TIP3   OH225333   5.556   1.977   0.890  0.3357  0.1183 -0.1672
 1233TIP3    H125334   5.649   1.991   0.910  0.3064  0.9463 -0.5664
 1233TIP3    H225335   5.553   1.976   0.794 -0.2189  1.2797 -0.1791
 1234TIP3   OH225336   4.215   3.987   2.429 -0.7786  0.1120 -0.2388
 1234TIP3    H125337   4.208   4.037   2.510  0.1821 -0.9095  0.4970
 1234TIP3    H225338   4.309   3.975   2.416 -0.9733 -1.0830 -0.6622
 1235TIP3   OH225339   2.055   5.304   0.181  0.2197 -0.1256 -0.1124
 1235TIP3    H125340   1.990   5.276   0.117 -0.0340 -1.2499  0.6105
 1235TIP3    H225341   2.004   5.342   0.252  0.4882  0.8921 -0.4451
 1236TIP3   OH225342   1.851   0.103   1.324  0.0885 -0.4497  0.2934
 1236TIP3    H125343   1.875   0.188   1.361 -1.1784 -0.7474  1.9507
 1236TIP3    H225344   1.924   0.080   1.267  1.3456  0.8846  1.2780
 1237TIP3   OH225345   5.651   6.185   0.798 -0.0493 -0.5482  0.0607
 1237TIP3    H125346   5.585   6.230   0.744 -0.6011 -1.8709 -0.3948
 1237TIP3    H225347   5.617   6.193   0.888 -0.3401 -0.3836 -0.0601
 1238TIP3   OH225348   3.651   1.760   3.273 -0.1669  0.1803 -0.3156
 1238TIP3    H125349   3.613   1.836   3.319  0.5357  0.9903 -1.0444
 1238TIP3    H225350   3.741   1.786   3.255  1.7201 -2.6432  3.6264
 1239TIP3   OH225351   6.661   6.031   8.142  0.6876 -0.4994 -1.0141
 1239TIP3    H125352   6.599   5.970   8.182  0.7022  0.0392 -0.1418
 1239TIP3    H225353   6.747   5.996   8.166  0.7121 -0.8916 -1.6771
 1240TIP3   OH225354   6.211   5.253   0.285 -0.1309 -0.4671 -0.3341
 1240TIP3    H125355   6.192   5.340   0.250 -0.8882 -0.3259  0.3782
 1240TIP3    H225356   6.202   5.263   0.380  2.2267 -0.7453 -0.0161
 1241TIP3   OH225357   2.969   1.849   8.675  0.0186 -0.2259  0.2966
 1241TIP3    H125358   2.965   1.775   8.614 -1.3766 -0.1546  0.2856
 1241TIP3    H225359   3.002   1.922   8.622 -0.7828 -0.2698 -0.2782
 1242TIP3   OH225360   6.761   6.276   8.054 -0.4540  0.4348  0.4991
 1242TIP3    H125361   6.742   6.183   8.066 -0.6396  0.1975 -1.3593
 1242TIP3    H225362   6.687   6.310   8.005 -0.3878  1.5885  1.1562
 1243TIP3   OH225363   1.412   2.131   8.239  0.5155  0.0296 -0.0026
 1243TIP3    H125364   1.414   2.196   8.169 -2.2083 -0.5043 -0.6953
 1243TIP3    H225365   1.449   2.052   8.199  0.2143  0.0938 -0.4077
 1244TIP3   OH225366   1.962   2.094   0.301 -0.4941  0.5662 -1.0588
 1244TIP3    H125367   2.035   2.102   0.363  0.0740 -3.4428 -0.9388
 1244TIP3    H225368   2.001   2.106   0.215  0.4453 -1.5867 -0.9969
 1245TIP3   OH225369   0.094   6.871   1.874  0.6306  0.3065  0.0461
 1245TIP3    H125370   0.004   6.893   1.848  0.2939 -0.4808  0.5143
 1245TIP3    H225371   0.128   6.820   1.800  0.0523 -0.9784  0.6437
 1246TIP3   OH225372   6.204   5.677   1.890 -0.1581  0.1415  0.2323
 1246TIP3    H125373   6.166   5.619   1.825  0.7424 -0.0461 -0.1443
 1246TIP3    H225374   6.129   5.716   1.935 -0.7722 -0.8462  0.0799
 1247TIP3   OH225375   5.180   1.379   2.512  0.4657  0.9082  0.6960
 1247TIP3    H125376   5.095   1.398   2.553 -0.7415 -1.6772 -0.4141
 1247TIP3    H225377   5.186   1.442   2.440 -0.6088  1.0172  0.6870
 1248TIP3   OH225378   4.643   4.354   0.465  0.5491 -0.0353  0.6600
 1248TIP3    H125379   4.710   4.395   0.410  0.7119 -1.6917 -0.4524
 1248TIP3    H225380   4.563   4.359   0.413  0.6356 -1.3497  0.3696
 1249TIP3   OH225381   4.921   3.607   0.950 -0.1207 -0.2552 -0.0996
 1249TIP3    H125382   4.913   3.645   0.862  0.6530 -0.3542 -0.2238
 1249TIP3    H225383   4.922   3.683   1.008  0.0928 -0.1525 -0.2365
 1250TIP3   OH225384   2.522   1.931   1.459 -0.0863 -0.9051  0.3685
 1250TIP3    H125385   2.535   1.924   1.553 -0.8833 -2.9267  0.3880
 1250TIP3    H225386   2.457   1.863   1.439  0.3640 -0.7969 -1.6911
 1251TIP3   OH225387   3.149   5.814   3.301 -0.3947  0.6610  0.4874
 1251TIP3    H125388   3.087   5.776   3.238 -0.8067  2.2929 -0.1465
 1251TIP3    H225389   3.093   5.849   3.371 -0.0959  1.0703  0.5196
 1252TIP3   OH225390   3.268   5.924   2.947  0.0919 -0.0681 -0.8067
 1252TIP3    H125391   3.179   5.958   2.961 -0.5265 -2.0160  0.3608
 1252TIP3    H225392   3.325   6.001   2.957 -1.3529  0.9514 -0.0723
 1253TIP3   OH225393   3.503   5.094   1.540 -0.0154  0.1990  0.0396
 1253TIP3    H125394   3.493   5.068   1.448  0.2470 -0.0997  0.0936
 1253TIP3    H225395   3.582   5.148   1.540 -0.0077  0.1877  0.0907
 1254TIP3   OH225396   3.434   4.652   2.418 -0.2703 -0.0232  0.2207
 1254TIP3    H125397   3.437   4.669   2.513  2.3503  0.9234  0.0446
 1254TIP3    H225398   3.525   4.644   2.392 -0.8721  0.7752 -2.4455
 1255TIP3   OH225399   0.026   1.278   7.819 -0.0144  0.2156 -0.9141
 1255TIP3    H125400  -0.031   1.321   7.756 -0.5786  1.9280  0.6643
 1255TIP3    H225401  -0.021   1.197   7.843 -0.7262  0.5236 -1.2490
 1256TIP3   OH225402   1.882   0.484   2.413  0.2872  0.1655 -0.2666
 1256TIP3    H125403   1.970   0.453   2.396  0.5194  1.0913 -0.8575
 1256TIP3    H225404   1.845   0.422   2.476  1.3703 -0.1926  0.0237
 1257TIP3   OH225405   4.166   5.844   0.971  0.2347  0.2194 -1.0308
 1257TIP3    H125406   4.071   5.834   0.976  0.2711 -0.3262 -1.3182
 1257TIP3    H225407   4.197   5.834   1.061  0.1192 -0.7617 -1.0857
 1258TIP3   OH225408   3.256   3.432   0.757  0.5465 -0.2788 -0.0964
 1258TIP3    H125409   3.205   3.400   0.831 -0.3719 -0.2219 -0.6719
 1258TIP3    H225410   3.265   3.526   0.772 -3.4577  0.6589 -2.0865
 1259TIP3   OH225411   1.569   4.438   0.708  0.0193 -0.6164 -0.2146
 1259TIP3    H125412   1.662   4.459   0.711 -0.0340 -0.3866 -0.1700
 1259TIP3    H225413   1.563   4.363   0.649  0.4691 -1.8716  1.2599
 1260TIP3   OH225414   1.968   1.387   3.244 -0.6896  0.3393 -0.6431
 1260TIP3    H125415   2.023   1.433   3.181 -0.3479  2.4778  1.1338
 1260TIP3    H225416   1.931   1.314   3.194  1.8337  0.2323 -2.5208
 1261TIP3   OH225417   5.803   3.989   1.792 -0.1770  0.1619 -0.5633
 1261TIP3    H125418   5.744   4.019   1.861 -0.4656  1.2341 -1.2524
 1261TIP3    H225419   5.852   4.067   1.767  2.1874 -0.8420  0.5690
 1262TIP3   OH225420   2.023   0.223   0.232 -0.4163  0.0877 -0.0198
 1262TIP3    H125421   2.100   0.196   0.283  1.1446 -1.2694 -2.8492
 1262TIP3    H225422   2.018   0.318   0.244  1.2718  0.1048  0.8363
 1263TIP3   OH225423   5.564   0.922   2.356 -0.1264  0.0712 -0.2295
 1263TIP3    H125424   5.535   0.998   2.407  0.0962  0.3679 -0.5484
 1263TIP3    H225425   5.565   0.952   2.265  0.0355 -0.2904 -0.3503
 1264TIP3   OH225426   4.614   3.814   7.575 -0.3844 -0.2742  0.0187
 1264TIP3    H125427   4.590   3.906   7.567 -1.0257 -0.3830  0.6092
 1264TIP3    H225428   4.615   3.797   7.669  1.5806 -0.4022  0.0083
 1265TIP3   OH225429   0.849   2.771   1.554  0.2483  0.3966 -0.3640
 1265TIP3    H125430   0.834   2.678   1.568 -0.9701  0.8013  1.4221
 1265TIP3    H225431   0.936   2.788   1.590  0.5105 -0.0478 -0.7806
 1266TIP3   OH225432   3.058   6.236   1.457 -0.5936 -0.0668  0.3388
 1266TIP3    H125433   3.037   6.160   1.403 -0.9300 -0.0334  0.4164
 1266TIP3    H225434   3.148   6.222   1.486 -0.4898 -0.1967 -0.0463
 1267TIP3   OH225435   1.431   2.214   8.529 -0.1158  0.5313  0.0112
 1267TIP3    H125436   1.397   2.302   8.518 -1.7703 -0.1886 -1.0596
 1267TIP3    H225437   1.411   2.169   8.447  2.0799 -0.4338 -0.0784
 1268TIP3   OH225438   5.577   0.771   8.282 -0.7086 -0.0723 -0.0871
 1268TIP3    H125439   5.610   0.828   8.212  1.2159 -0.9092  0.0655
 1268TIP3    H225440   5.550   0.831   8.351  2.9240  0.7925  0.8004
 1269TIP3   OH225441   2.781   6.386   7.779  0.1628  0.1348  0.5612
 1269TIP3    H125442   2.724   6.459   7.799 -0.8000  0.3408 -2.3809
 1269TIP3    H225443   2.867   6.426   7.762 -0.2885  0.5885 -0.7498
 1270TIP3   OH225444   4.163   5.535   8.041 -0.0955  0.0440 -0.1849
 1270TIP3    H125445   4.160   5.455   7.988 -1.4857 -1.5479  2.1114
 1270TIP3    H225446   4.081   5.580   8.020 -0.3901 -0.3131  0.1737
 1271TIP3   OH225447   1.363   6.878   2.975  0.3476 -0.2817 -0.6274
 1271TIP3    H125448   1.419   6.831   3.036  1.1047  0.5266 -0.6822
 1271TIP3    H225449   1.277   6.880   3.018  0.5818 -0.7242 -0.1271
 1272TIP3   OH225450   5.135   0.958   2.044  0.2328 -0.0390  0.3880
 1272TIP3    H125451   5.191   0.928   1.974 -0.8421 -1.6063  0.1395
 1272TIP3    H225452   5.048   0.966   2.004 -0.1463  0.2693  1.2375
 1273TIP3   OH225453   2.774   4.952   1.081 -0.1569  0.7912 -0.2740
 1273TIP3    H125454   2.869   4.944   1.092 -0.2932  1.2296  1.6199
 1273TIP3    H225455   2.760   5.044   1.061 -0.2629  1.0580  0.9411
 1274TIP3   OH225456   4.988   2.869   0.656  0.3066  0.1736  0.0267
 1274TIP3    H125457   5.066   2.913   0.622 -0.3248  1.5094  0.2323
 1274TIP3    H225458   4.978   2.903   0.745  0.0515 -0.7717  0.3772
 1275TIP3   OH225459   5.856   4.297   8.427  0.1017  0.0384  0.7512
 1275TIP3    H125460   5.790   4.364   8.445 -2.8428 -2.1134 -1.0697
 1275TIP3    H225461   5.879   4.310   8.335  1.4572  0.0564  1.0674
 1276TIP3   OH225462   1.823   3.963   0.123  0.1099  0.4194  0.3281
 1276TIP3    H125463   1.798   3.908   0.197 -0.5468 -1.3971 -1.1626
 1276TIP3    H225464   1.850   3.901   0.055 -1.3064  1.8752 -1.6717
 1277TIP3   OH225465   2.770   4.132   7.981 -0.0316  0.5374  0.1360
 1277TIP3    H125466   2.749   4.185   8.057  0.9729  0.9061  0.1766
 1277TIP3    H225467   2.865   4.143   7.969  0.1045 -0.7967 -0.1988
 1278TIP3   OH225468   1.634   5.313   0.341 -0.2779 -0.8729 -0.6857
 1278TIP3    H125469   1.539   5.302   0.336 -0.0423 -2.9069 -2.5738
 1278TIP3    H225470   1.664   5.237   0.391  0.3668 -0.0928  0.1464
 1279TIP3   OH225471   1.783   4.855   7.541 -0.3192 -0.7843  0.3516
 1279TIP3    H125472   1.816   4.767   7.521 -2.9778 -2.4222  2.3988
 1279TIP3    H225473   1.789   4.861   7.636  0.9729  1.8529  0.1815
 1280TIP3   OH225474   4.082   3.897   2.866  0.2362  0.1719 -0.0462
 1280TIP3    H125475   3.995   3.867   2.840  0.5040 -0.8694  0.2154
 1280TIP3    H225476   4.110   3.955   2.794  0.8539 -2.4233 -2.0499
 1281TIP3   OH225477   4.632   5.175   1.423  0.1174  0.7621  0.3177
 1281TIP3    H125478   4.627   5.257   1.472 -0.3677 -0.5677  2.6438
 1281TIP3    H225479   4.554   5.126   1.450  0.3700 -0.4620 -1.0428
 1282TIP3   OH225480   1.669   4.854   8.160 -0.0571 -0.7027 -0.0155
 1282TIP3    H125481   1.646   4.906   8.237  1.1597 -0.8116  0.4386
 1282TIP3    H225482   1.585   4.828   8.123 -0.6728 -0.8550  1.4193
 1283TIP3   OH225483   3.781   6.287   1.465 -0.2016 -0.1245 -0.0409
 1283TIP3    H125484   3.812   6.207   1.506 -0.4973 -0.5815 -0.6916
 1283TIP3    H225485   3.829   6.292   1.383 -1.6361 -0.7275 -0.9602
 1284TIP3   OH225486   5.439   1.626   0.102 -0.5118  0.8485  0.2128
 1284TIP3    H125487   5.507   1.646   0.038 -0.8899 -0.0162 -0.4855
 1284TIP3    H225488   5.423   1.532   0.091 -0.4932  0.6516  1.6807
 1285TIP3   OH225489   2.844   4.380   2.868  0.1644 -0.0288 -0.0235
 1285TIP3    H125490   2.850   4.465   2.824 -0.2560 -0.3719 -0.7608
 1285TIP3    H225491   2.934   4.358   2.892  0.2405  0.7794  0.4836
 1286TIP3   OH225492   1.733   6.853   7.346  0.2365 -0.2124 -0.2945
 1286TIP3    H125493   1.753   6.946   7.359 -0.6448  0.0942 -1.0325
 1286TIP3    H225494   1.661   6.852   7.283 -1.0352 -1.3198  1.0968
 1287TIP3   OH225495   3.859   2.524   8.112  0.0247 -0.2546  0.0855
 1287TIP3    H125496   3.867   2.619   8.114 -1.8147 -0.0743  0.9517
 1287TIP3    H225497   3.866   2.501   8.019  1.7188  0.5611 -0.0252
 1288TIP3   OH225498   2.885   5.141   0.256 -0.3166  0.2477  0.3311
 1288TIP3    H125499   2.944   5.198   0.206 -0.1760  1.1733  1.5064
 1288TIP3    H225500   2.819   5.200   0.291 -0.5512 -0.4187  1.0329
 1289TIP3   OH225501   3.567   2.532   0.283  0.1059  0.0727  0.2340
 1289TIP3    H125502   3.633   2.555   0.348  2.3213 -4.4307 -0.0221
 1289TIP3    H225503   3.616   2.527   0.201 -1.7142  1.3677 -1.0051
 1290TIP3   OH225504   0.772   1.883   0.500 -0.5118  0.2689  0.0818
 1290TIP3    H125505   0.764   1.795   0.463 -0.2322  0.2266  0.1229
 1290TIP3    H225506   0.865   1.895   0.513 -0.7084 -0.5835  2.8640
 1291TIP3   OH225507   4.924   5.197   7.864 -0.3537 -0.2471 -0.0500
 1291TIP3    H125508   4.987   5.128   7.844 -0.2832 -0.1095 -0.2997
 1291TIP3    H225509   4.852   5.184   7.803 -0.7394 -0.6273  0.4772
 1292TIP3   OH225510   2.985   2.693   2.221 -0.1787  0.2870 -0.2395
 1292TIP3    H125511   2.993   2.783   2.189  2.5992  0.1808 -0.1242
 1292TIP3    H225512   3.038   2.692   2.301 -1.1035 -1.2036  0.3848
 1293TIP3   OH225513   3.193   1.697   2.688  0.5282  0.3077 -0.0478
 1293TIP3    H125514   3.228   1.740   2.610  1.4164  0.0614  0.2062
 1293TIP3    H225515   3.189   1.765   2.754  0.9863  0.2367  0.0589
 1294TIP3   OH225516   0.873   2.536   7.119 -0.3393  0.4125  0.2317
 1294TIP3    H125517   0.815   2.492   7.181 -0.9270 -1.7657 -1.7279
 1294TIP3    H225518   0.944   2.473   7.103  0.2948  1.3024 -0.5824
 1295TIP3   OH225519   6.483   3.457   0.079  0.0810 -0.4874 -0.0420
 1295TIP3    H125520   6.443   3.497   0.002 -0.6412  2.1100  1.5769
 1295TIP3    H225521   6.560   3.511   0.097  0.6677 -1.5073  0.6793
 1296TIP3   OH225522   3.629   2.352   3.025 -0.0286 -0.0177 -0.2253
 1296TIP3    H125523   3.714   2.309   3.029 -0.6909 -1.4147 -0.6302
 1296TIP3    H225524   3.567   2.287   3.057 -1.0664  0.6211 -0.8695
 1297TIP3   OH225525   3.139   0.937   7.632 -0.0012 -0.6264  0.2767
 1297TIP3    H125526   3.047   0.961   7.640  0.4702  1.0588  1.2872
 1297TIP3    H225527   3.165   0.967   7.545  0.2368  1.5324  1.0246
 1298TIP3   OH225528   2.411   1.458   3.101 -0.1751 -0.3709 -0.1709
 1298TIP3    H125529   2.469   1.445   3.176 -2.5239  1.6175  2.1667
 1298TIP3    H225530   2.438   1.542   3.065  0.0995 -0.7155 -0.7888
 1299TIP3   OH225531   1.219   2.295   0.566 -0.4080  0.0615  0.1388
 1299TIP3    H125532   1.135   2.315   0.526  0.3451 -0.2204 -1.6609
 1299TIP3    H225533   1.284   2.332   0.506  0.7615  0.5591  1.6490
 1300TIP3   OH225534   2.285   6.519   2.375 -0.9833 -0.2873 -0.4299
 1300TIP3    H125535   2.212   6.460   2.394 -1.2307  0.5269  1.4029
 1300TIP3    H225536   2.358   6.484   2.426 -1.1019  0.8705  0.5933
 1301TIP3   OH225537   3.467   0.394   2.509  0.6401 -0.2976 -0.4818
 1301TIP3    H125538   3.497   0.332   2.576  0.1175 -0.3496 -0.2934
 1301TIP3    H225539   3.372   0.380   2.505  0.4686  0.7329 -0.1900
 1302TIP3   OH225540   6.261   6.322   8.332 -0.3162  0.4897  0.1379
 1302TIP3    H125541   6.285   6.316   8.240 -0.0112 -0.8403  0.2890
 1302TIP3    H225542   6.198   6.251   8.346 -2.6914  2.4664  0.2924
 1303TIP3   OH225543   6.630   3.045   8.129  0.7046  0.1983 -0.1486
 1303TIP3    H125544   6.599   3.120   8.077 -0.9406 -0.8340 -0.7710
 1303TIP3    H225545   6.603   2.969   8.077 -0.7310 -0.8877  2.0383
 1304TIP3   OH225546   3.225   5.516   2.403 -0.3681  0.0069 -0.5133
 1304TIP3    H125547   3.213   5.445   2.340 -0.7115  1.0641 -1.6803
 1304TIP3    H225548   3.136   5.549   2.419 -0.1391  0.6750 -0.5949
 1305TIP3   OH225549   4.025   6.725   8.305  0.2740 -0.2047 -0.2121
 1305TIP3    H125550   3.983   6.643   8.332 -0.3423  0.3713  0.6406
 1305TIP3    H225551   4.065   6.759   8.385 -0.2459  0.7602 -0.3425
 1306TIP3   OH225552   0.625   5.371   1.909 -0.1842  0.2774  0.2509
 1306TIP3    H125553   0.666   5.388   1.994 -1.3855  0.3610  0.8299
 1306TIP3    H225554   0.638   5.277   1.896  2.1489  0.6529 -0.6613
 1307TIP3   OH225555   5.105   3.143   0.994  0.2732  0.0287  0.1279
 1307TIP3    H125556   5.050   3.221   1.002 -0.9551 -0.7591 -0.3559
 1307TIP3    H225557   5.130   3.122   1.084  0.6350  0.9778  0.2602
 1308TIP3   OH225558   4.945   6.570   8.452 -0.4511  0.8202 -0.1688
 1308TIP3    H125559   4.972   6.482   8.425  1.9623  1.2535  0.5624
 1308TIP3    H225560   4.888   6.600   8.381 -1.0452 -1.1560 -0.6178
 1309TIP3   OH225561   6.510   3.847   7.409  0.0407  0.7826  0.0333
 1309TIP3    H125562   6.425   3.826   7.447 -1.3485 -0.5387 -3.3474
 1309TIP3    H225563   6.489   3.890   7.326  2.7788  3.2087  0.4470
 1310TIP3   OH225564   6.195   2.973   0.073  0.5343 -0.1773  0.6073
 1310TIP3    H125565   6.240   2.896   0.038  2.0639 -0.5050  3.0630
 1310TIP3    H225566   6.157   2.943   0.156 -2.4586  0.6952 -0.3242
 1311TIP3   OH225567   5.120   2.032   8.481  0.6052 -0.3627  0.7274
 1311TIP3    H125568   5.089   2.100   8.540  0.3778  0.9325 -0.8220
 1311TIP3    H225569   5.122   2.073   8.395 -0.5152 -2.5997 -0.4589
 1312TIP3   OH225570   5.341   1.892   7.565  0.3749  0.1969  0.1682
 1312TIP3    H125571   5.289   1.845   7.500  0.0068 -0.0313  0.6283
 1312TIP3    H225572   5.277   1.934   7.622  0.6974  0.8013  0.1041
 1313TIP3   OH225573   0.711   3.552   8.328  0.1096 -0.6001 -0.8987
 1313TIP3    H125574   0.792   3.571   8.376  0.2141  0.5623 -1.4987
 1313TIP3    H225575   0.650   3.620   8.357  0.6547  1.1556 -3.4826
 1314TIP3   OH225576   4.636   5.840   7.105 -0.0905 -0.0110  0.2047
 1314TIP3    H125577   4.716   5.818   7.057  0.4268  2.0743  0.0080
 1314TIP3    H225578   4.567   5.837   7.038 -0.1271 -1.3062  0.2691
 1315TIP3   OH225579   1.901   1.830   1.422  0.2940 -0.7055 -0.0716
 1315TIP3    H125580   1.974   1.834   1.483  0.3395  0.4872 -0.1732
 1315TIP3    H225581   1.861   1.744   1.436  1.0017 -0.8950  0.8100
 1316TIP3   OH225582   0.366   3.467   2.411 -0.1157 -0.1732  0.1991
 1316TIP3    H125583   0.445   3.516   2.431 -0.4650  1.1920 -1.5649
 1316TIP3    H225584   0.387   3.417   2.332 -1.5470  1.7179 -1.4631
 1317TIP3   OH225585   4.784   5.040   0.865  0.1165 -1.1543  0.2342
 1317TIP3    H125586   4.706   5.012   0.914 -0.8928  0.1887 -0.5321
 1317TIP3    H225587   4.766   5.131   0.841  0.3376 -1.8290 -2.9682
 1318TIP3   OH225588   3.738   1.792   2.468  0.0809  0.3250  0.0547
 1318TIP3    H125589   3.654   1.807   2.425 -0.0899 -0.9827 -0.1167
 1318TIP3    H225590   3.739   1.855   2.540 -0.9957  0.4399 -0.0085
 1319TIP3   OH225591   2.646   6.858   0.917 -0.2515  0.3553 -0.5647
 1319TIP3    H125592   2.552   6.876   0.916 -0.3250  0.7984  2.7154
 1319TIP3    H225593   2.653   6.773   0.961  0.8811 -0.1878 -1.7312
 1320TIP3   OH225594   0.765   0.407   6.820 -0.2887  0.1927  0.2665
 1320TIP3    H125595   0.774   0.424   6.726  0.3091 -0.4671  0.1939
 1320TIP3    H225596   0.756   0.312   6.827  2.3289 -0.0885  1.0131
 1321TIP3   OH225597   3.641   3.608   1.281 -0.3166  0.3648  0.2101
 1321TIP3    H125598   3.625   3.669   1.209 -2.5314  1.5092  1.5467
 1321TIP3    H225599   3.685   3.661   1.347  0.6347 -0.3667  0.1805
 1322TIP3   OH225600   4.121   2.347   2.486  0.1208 -0.1556  0.0406
 1322TIP3    H125601   4.033   2.381   2.506  0.3697  1.6422 -1.5840
 1322TIP3    H225602   4.147   2.300   2.565 -2.2714 -0.7170  0.5882
 1323TIP3   OH225603   1.200   3.336   6.520 -0.0085  0.3138  0.0703
 1323TIP3    H125604   1.125   3.346   6.461 -0.9948  1.3403  1.4432
 1323TIP3    H225605   1.237   3.251   6.497 -0.5100  0.5512 -1.8268
 1324TIP3   OH225606   0.759   5.402   2.141  0.2960 -0.2112 -0.3122
 1324TIP3    H125607   0.792   5.323   2.184  1.4342  0.0519 -0.6647
 1324TIP3    H225608   0.767   5.471   2.207  1.8748  0.1552 -0.8444
 1325TIP3   OH225609   6.236   1.668   0.362 -0.3702  0.3944  0.4494
 1325TIP3    H125610   6.203   1.578   0.363 -0.6741  0.4820 -0.4459
 1325TIP3    H225611   6.252   1.686   0.269  0.0034  1.1538  0.6538
 1326TIP3   OH225612   3.683   3.181   8.090 -0.4614 -0.0331 -0.5429
 1326TIP3    H125613   3.689   3.273   8.118 -0.9947 -0.4340  1.0055
 1326TIP3    H225614   3.774   3.153   8.082 -0.2724  0.1293  0.8130
 1327TIP3   OH225615   4.651   0.725   1.494  0.2732 -0.2582  0.1249
 1327TIP3    H125616   4.739   0.740   1.530  0.5396 -1.3989 -0.0285
 1327TIP3    H225617   4.606   0.808   1.508  1.1247  0.0954  0.9164
 1328TIP3   OH225618   3.987   1.178   2.333  0.1611  0.2262 -0.3442
 1328TIP3    H125619   3.940   1.176   2.250  1.1848 -0.4345 -0.9262
 1328TIP3    H225620   3.956   1.101   2.380  1.4965 -0.9156 -1.2366
 1329TIP3   OH225621   5.869   2.231   1.740  0.0110  0.0289 -0.1236
 1329TIP3    H125622   5.876   2.326   1.728  1.0427 -0.1385 -0.9303
 1329TIP3    H225623   5.885   2.195   1.653  1.7822 -0.9788  0.5788
 1330TIP3   OH225624   1.069   5.430   0.262  0.3454 -0.3475 -0.2340
 1330TIP3    H125625   1.014   5.354   0.241  1.6199 -0.7846 -2.3253
 1330TIP3    H225626   1.105   5.410   0.348  0.4784 -2.0463 -0.6377
 1331TIP3   OH225627   6.309   4.996   1.681 -0.4965 -0.1460 -0.2476
 1331TIP3    H125628   6.309   4.978   1.587 -2.3454 -1.0701 -0.1193
 1331TIP3    H225629   6.343   4.917   1.721 -1.1138 -0.3394 -0.0858
 1332TIP3   OH225630   5.860   3.565   2.127  0.0532 -0.3211 -0.3512
 1332TIP3    H125631   5.880   3.512   2.205  0.2928  1.0951  0.5845
 1332TIP3    H225632   5.832   3.650   2.162  2.5248  1.2111 -1.8168
 1333TIP3   OH225633   2.010   6.831   1.680  0.2380  0.1258  0.1841
 1333TIP3    H125634   1.957   6.861   1.754  1.2707  0.0583  0.9926
 1333TIP3    H225635   2.003   6.736   1.683  0.5465  0.1067  0.4199
 1334TIP3   OH225636   6.223   4.059   1.216 -0.0305 -0.1846 -0.1059
 1334TIP3    H125637   6.221   4.049   1.311 -0.6190  1.1899  0.0562
 1334TIP3    H225638   6.310   4.095   1.198  0.3528 -1.1288 -0.1790
 1335TIP3   OH225639   4.570   3.972   0.505  0.2174  0.6495 -0.2467
 1335TIP3    H125640   4.628   4.041   0.473  0.4402  1.1064  1.0970
 1335TIP3    H225641   4.602   3.951   0.593 -1.0142  0.1863  0.1212
 1336TIP3   OH225642   0.475   3.627   1.158  0.4777  0.1208 -0.4576
 1336TIP3    H125643   0.413   3.669   1.097  1.0188  0.7965 -0.5575
 1336TIP3    H225644   0.468   3.534   1.140 -0.7775  0.1534 -0.2225
 1337TIP3   OH225645   5.608   3.246   7.636 -0.1334 -0.2243  0.1070
 1337TIP3    H125646   5.684   3.282   7.682 -0.4596  0.9214 -0.2362
 1337TIP3    H225647   5.569   3.320   7.591 -1.0772 -0.9282 -0.2747
 1338TIP3   OH225648   1.155   3.240   8.610  0.2957 -0.1414  0.0553
 1338TIP3    H125649   1.120   3.289   8.536 -0.1955 -2.2144 -1.1701
 1338TIP3    H225650   1.141   3.297   8.686  1.4589  2.3429 -1.4857
 1339TIP3   OH225651   3.858   0.474   8.022 -0.1963 -0.6092 -0.1849
 1339TIP3    H125652   3.809   0.527   7.959 -0.9696  0.1844  1.0405
 1339TIP3    H225653   3.802   0.398   8.038 -0.0916 -0.7093 -0.2860
 1340TIP3   OH225654   5.590   3.169   1.718  0.5205  0.0168 -0.8044
 1340TIP3    H125655   5.681   3.181   1.747  0.3908  0.5564 -0.6303
 1340TIP3    H225656   5.557   3.257   1.703 -0.9279  0.0735  1.9971
 1341TIP3   OH225657   3.190   3.847   1.153  0.4731  0.2405 -0.5466
 1341TIP3    H125658   3.176   3.932   1.112  0.6956  0.3854 -0.3267
 1341TIP3    H225659   3.119   3.838   1.216  0.3857  0.2137 -0.6489
 1342TIP3   OH225660   5.609   3.213   0.951  0.6698 -0.3983  0.4752
 1342TIP3    H125661   5.610   3.304   0.922  0.3040 -1.4282 -3.2457
 1342TIP3    H225662   5.524   3.203   0.995  1.0260  1.1603  1.6132
 1343TIP3   OH225663   4.647   3.935   0.762  0.4695  0.2576  0.2157
 1343TIP3    H125664   4.675   3.966   0.848 -1.4951  1.0565  0.6085
 1343TIP3    H225665   4.559   3.901   0.776 -1.3202  3.4816 -2.0276
 1344TIP3   OH225666   4.866   6.400   7.039 -0.1662  0.2993 -0.4977
 1344TIP3    H125667   4.902   6.488   7.040  1.6522 -0.2389 -3.7734
 1344TIP3    H225668   4.812   6.397   6.960  3.6098 -2.6348 -3.3763
 1345TIP3   OH225669   4.387   0.095   0.299 -0.1925 -0.4222  0.2345
 1345TIP3    H125670   4.322   0.165   0.308 -1.3031 -1.1000 -1.8083
 1345TIP3    H225671   4.459   0.135   0.251 -0.2769 -0.3439  0.1720
 1346TIP3   OH225672   3.180   2.274   0.971 -0.1399 -0.0810 -0.5624
 1346TIP3    H125673   3.106   2.323   0.935  0.3944  0.2299 -1.2490
 1346TIP3    H225674   3.148   2.242   1.055 -0.8751  0.5120 -0.6034
 1347TIP3   OH225675   1.786   3.710   7.818 -0.5602 -0.1237  0.2404
 1347TIP3    H125676   1.877   3.712   7.849 -0.4810 -1.0076  0.1047
 1347TIP3    H225677   1.734   3.725   7.897 -0.2907  1.6297  0.1208
 1348TIP3   OH225678   5.818   5.832   2.925 -0.1753  0.3738  0.1076
 1348TIP3    H125679   5.820   5.789   2.840  0.2446 -0.0289  0.3162
 1348TIP3    H225680   5.725   5.839   2.946 -0.2823  0.6251 -0.4579
 1349TIP3   OH225681   4.507   0.767   0.224 -0.3019 -0.0255  0.4296
 1349TIP3    H125682   4.462   0.838   0.178 -0.0212  1.7096  2.6595
 1349TIP3    H225683   4.440   0.699   0.234 -0.9319  0.4032 -0.6901
 1350TIP3   OH225684   5.081   4.646   0.373  0.7689  0.2619 -0.0634
 1350TIP3    H125685   5.151   4.707   0.395  0.5973  0.8403 -1.0698
 1350TIP3    H225686   5.001   4.697   0.377  0.5498 -0.0595 -0.2571
 1351TIP3   OH225687   1.573   3.174   8.363 -0.2424 -0.1517 -0.1985
 1351TIP3    H125688   1.525   3.128   8.431 -0.0139 -0.2109 -0.0758
 1351TIP3    H225689   1.513   3.241   8.331 -1.2344 -1.5958 -1.5443
 1352TIP3   OH225690   0.907   4.422   1.473  0.2487  0.0064 -0.4845
 1352TIP3    H125691   0.885   4.490   1.410  1.7203 -1.5711 -2.8633
 1352TIP3    H225692   1.001   4.434   1.491  0.3663 -0.9309 -0.3812
 1353TIP3   OH225693   3.460   1.870   8.336  0.3137 -0.0072  0.3039
 1353TIP3    H125694   3.408   1.926   8.393  1.4420  1.1201  0.2952
 1353TIP3    H225695   3.549   1.874   8.373  0.4029 -1.9676  0.4077
 1354TIP3   OH225696   4.190   6.451   7.541 -0.0197 -0.0067  0.4251
 1354TIP3    H125697   4.198   6.379   7.479  0.4010 -0.0383  0.5136
 1354TIP3    H225698   4.236   6.524   7.500  1.9510 -0.5628  1.5129
 1355TIP3   OH225699   3.486   2.576   3.132  0.1892  0.4413  0.2991
 1355TIP3    H125700   3.550   2.612   3.071  1.3907 -1.0707  0.6103
 1355TIP3    H225701   3.483   2.483   3.111  1.5363 -0.3790  3.2822
 1356TIP3   OH225702   1.185   1.991   0.772  0.5117  0.0960 -0.4722
 1356TIP3    H125703   1.206   2.055   0.840  2.1050 -1.1647  0.2884
 1356TIP3    H225704   1.270   1.973   0.730 -0.1688 -0.3943 -1.6949
 1357TIP3   OH225705   4.247   3.472   7.987 -0.1656 -0.7026 -0.4834
 1357TIP3    H125706   4.304   3.514   8.051 -0.8760 -1.4585  0.6925
 1357TIP3    H225707   4.261   3.378   8.000 -0.3277 -0.8714 -1.4445
 1358TIP3   OH225708   2.444   2.811   8.265  0.1158 -0.0230  0.1526
 1358TIP3    H125709   2.377   2.745   8.279  2.1538 -2.1418  0.5734
 1358TIP3    H225710   2.436   2.834   8.173 -1.7614  0.5279  0.4060
 1359TIP3   OH225711   3.094   3.328   7.915 -0.2377 -0.5710  0.2616
 1359TIP3    H125712   3.123   3.260   7.854 -1.7683  0.4318 -1.6991
 1359TIP3    H225713   3.021   3.288   7.963 -0.2022 -0.7732  0.1468
 1360TIP3   OH225714   0.077   0.937   1.909 -0.2188 -0.3482  0.1867
 1360TIP3    H125715   0.165   0.937   1.946 -0.4066  0.4799  0.6741
 1360TIP3    H225716   0.021   0.902   1.978 -0.5624  1.1548  0.7272
 1361TIP3   OH225717   6.042   5.953   0.164  0.4798  0.6628 -0.1661
 1361TIP3    H125718   6.103   5.932   0.235 -0.1469 -1.9021 -0.3027
 1361TIP3    H225719   5.957   5.962   0.207  0.1267 -0.7376 -0.5168
 1362TIP3   OH225720   3.314   5.705   8.093 -0.1088 -0.7763 -0.3632
 1362TIP3    H125721   3.389   5.679   8.039  1.1768 -0.8980  1.4101
 1362TIP3    H225722   3.328   5.661   8.177 -1.2308  0.6430  0.6127
 1363TIP3   OH225723   0.104   2.041   1.705 -0.5443  0.1607  0.2725
 1363TIP3    H125724   0.144   1.955   1.716 -1.6548 -0.5020 -0.5575
 1363TIP3    H225725   0.052   2.053   1.785 -0.5457 -0.0292  0.3015
 1364TIP3   OH225726   6.042   4.901   0.059 -0.5130 -0.0402  0.5959
 1364TIP3    H125727   6.004   4.982   0.027 -0.5298  0.1788  1.1636
 1364TIP3    H225728   6.096   4.927   0.133  0.5820 -0.3797 -0.0644
 1365TIP3   OH225729   1.157   3.708   1.634 -0.7121 -0.4092 -0.1159
 1365TIP3    H125730   1.228   3.758   1.595 -1.5355 -0.0723 -1.2444
 1365TIP3    H225731   1.133   3.645   1.567  0.0306 -2.0976  1.1248
 1366TIP3   OH225732   1.537   1.743   7.076 -0.3979  0.0368  0.6760
 1366TIP3    H125733   1.505   1.764   7.163  1.6078 -1.8790  1.9829
 1366TIP3    H225734   1.631   1.760   7.080 -0.4315  1.2066 -1.5907
 1367TIP3   OH225735   4.286   6.823   7.901  0.3463 -0.1763 -0.0498
 1367TIP3    H125736   4.310   6.865   7.819  0.8801  2.0564  1.1813
 1367TIP3    H225737   4.347   6.750   7.909  0.2768 -0.4396 -1.6152
 1368TIP3   OH225738   4.798   6.358   2.933  0.4463  0.6710  0.5202
 1368TIP3    H125739   4.736   6.287   2.922 -0.5873  1.6586 -0.3257
 1368TIP3    H225740   4.881   6.323   2.899 -0.0496 -0.1049  0.0815
 1369TIP3   OH225741   0.752   2.703   6.825 -0.3253  0.1410 -0.2835
 1369TIP3    H125742   0.667   2.663   6.846 -0.2216 -0.4652 -0.9855
 1369TIP3    H225743   0.816   2.634   6.844  0.0363  0.6457  0.3880
 1370TIP3   OH225744   0.524   1.186   7.362  0.5218 -0.4462  0.4980
 1370TIP3    H125745   0.616   1.214   7.357  1.3120 -3.0082 -0.6638
 1370TIP3    H225746   0.515   1.121   7.293 -2.5128  0.5132 -0.1451
 1371TIP3   OH225747   3.527   6.103   1.693 -0.2296  1.0306 -0.3224
 1371TIP3    H125748   3.473   6.122   1.770 -0.8558 -1.2620 -0.1382
 1371TIP3    H225749   3.617   6.114   1.723 -0.4828  0.6774  0.5876
 1372TIP3   OH225750   1.116   5.725   1.800  0.1137  0.7252  0.1652
 1372TIP3    H125751   1.029   5.757   1.822 -1.0388 -1.5163 -0.7578
 1372TIP3    H225752   1.147   5.683   1.881 -0.3555  0.1781  0.0704
 1373TIP3   OH225753   6.453   0.932   0.191 -0.2315 -0.0744 -0.3595
 1373TIP3    H125754   6.494   0.997   0.134 -1.1838  1.5119  0.6990
 1373TIP3    H225755   6.489   0.951   0.278  1.3228 -2.5446 -0.3656
 1374TIP3   OH225756   4.687   0.732   0.639 -0.4907  0.4823  0.2264
 1374TIP3    H125757   4.631   0.695   0.570 -1.4463  3.6351 -0.8991
 1374TIP3    H225758   4.744   0.794   0.593  2.2517 -0.7658  1.7195
 1375TIP3   OH225759   2.772   4.333   6.996 -0.1411  0.3600  0.6026
 1375TIP3    H125760   2.861   4.344   7.030  0.0471 -0.3603  0.3809
 1375TIP3    H225761   2.732   4.420   7.002  0.3027  0.5197  1.4707
 1376TIP3   OH225762   6.645   5.288   1.933  0.1980 -0.1362  0.9716
 1376TIP3    H125763   6.608   5.355   1.876  0.3416 -1.1767 -0.3963
 1376TIP3    H225764   6.737   5.283   1.908 -0.0059 -1.4679  0.3632
 1377TIP3   OH225765   0.521   3.456   2.079 -0.0189  0.0821  0.6943
 1377TIP3    H125766   0.517   3.520   2.008  0.7931 -1.8908 -1.2444
 1377TIP3    H225767   0.429   3.434   2.095 -0.1896 -0.0805 -0.3930
 1378TIP3   OH225768   1.306   1.375   0.975 -0.4748  0.0839  0.7977
 1378TIP3    H125769   1.303   1.456   0.923  2.2601 -0.5529 -0.5046
 1378TIP3    H225770   1.356   1.399   1.053  1.1832 -0.5318 -0.0448
 1379TIP3   OH225771   2.153   2.100   8.122 -0.0924  0.1916 -0.5555
 1379TIP3    H125772   2.127   2.174   8.067 -0.6097 -0.8060 -1.7118
 1379TIP3    H225773   2.198   2.040   8.061  0.0871 -0.5566  0.2943
 1380TIP3   OH225774   2.439   6.097   0.414 -0.0007 -0.6329  0.0124
 1380TIP3    H125775   2.399   6.173   0.372 -0.6789 -0.7060  0.5130
 1380TIP3    H225776   2.448   6.033   0.343 -1.9378 -1.0764  0.1213
 1381TIP3   OH225777   4.787   2.745   0.896 -0.9140  1.0153  0.3564
 1381TIP3    H125778   4.810   2.659   0.862 -1.5775  0.6118  0.9014
 1381TIP3    H225779   4.869   2.795   0.894 -0.8126  0.8244 -1.2670
 1382TIP3   OH225780   1.883   1.081   0.169 -0.0229 -0.1975 -0.4037
 1382TIP3    H125781   1.921   1.017   0.229 -0.7890  1.0139  1.4774
 1382TIP3    H225782   1.842   1.028   0.100 -1.0783 -1.7852  1.3396
 1383TIP3   OH225783   3.797   6.292   7.394  0.2993  0.0309 -0.1823
 1383TIP3    H125784   3.824   6.245   7.473  1.2930  0.2382 -0.3868
 1383TIP3    H225785   3.857   6.261   7.326 -0.7404 -0.3750 -0.9382
 1384TIP3   OH225786   1.729   1.295   1.812 -0.3606 -0.3846 -0.2504
 1384TIP3    H125787   1.699   1.222   1.867  0.2482  0.0703  0.7260
 1384TIP3    H225788   1.718   1.372   1.868  0.4929  0.0652 -0.6869
 1385TIP3   OH225789   3.980   1.275   7.002  0.2233  0.0021 -0.1602
 1385TIP3    H125790   4.024   1.209   7.055  0.1827  0.3834  0.3559
 1385TIP3    H225791   4.033   1.354   7.014 -0.7907  0.5751  0.7791
 1386TIP3   OH225792   0.919   0.109   2.198 -0.0998 -0.1277 -0.0769
 1386TIP3    H125793   0.958   0.164   2.265 -1.3474  0.8287 -0.0935
 1386TIP3    H225794   0.836   0.152   2.177 -0.2750 -1.0373 -1.3961
 1387TIP3   OH225795   2.721   3.342   6.903  0.6526  0.3695 -0.2761
 1387TIP3    H125796   2.696   3.364   6.993  1.8923 -0.4346  0.2910
 1387TIP3    H225797   2.640   3.310   6.863 -0.0785  1.4069  0.3288
 1388TIP3   OH225798   6.348   4.433   2.937 -0.1770  0.6239 -0.0441
 1388TIP3    H125799   6.272   4.392   2.978 -0.3342  1.1968  0.2405
 1388TIP3    H225800   6.364   4.511   2.989  2.2742 -0.8357  1.6011
 1389TIP3   OH225801   4.436   2.307   1.222  0.0390  0.0516  0.0275
 1389TIP3    H125802   4.483   2.245   1.278  0.8627  1.8678  1.4781
 1389TIP3    H225803   4.373   2.349   1.281 -0.8408  0.2606 -1.0334
 1390TIP3   OH225804   5.253   3.367   8.625 -0.6182 -0.2125  0.5364
 1390TIP3    H125805   5.253   3.302   8.696 -1.0104  0.2552  0.9731
 1390TIP3    H225806   5.345   3.377   8.601 -0.5467 -0.8715  0.5205
 1391TIP3   OH225807   5.662   1.715   0.802  0.0580  0.3813 -0.1374
 1391TIP3    H125808   5.657   1.790   0.743 -1.7402  1.0326  0.7668
 1391TIP3    H225809   5.722   1.742   0.871  1.9614 -0.2841 -1.4369
 1392TIP3   OH225810   0.252   1.234   0.591 -0.2192 -0.2446 -0.0248
 1392TIP3    H125811   0.233   1.188   0.510  1.1766 -1.0936  0.1039
 1392TIP3    H225812   0.317   1.179   0.636  1.1823  1.6064  0.3385
 1393TIP3   OH225813   3.155   6.375   8.641 -0.0621  0.3214  0.2778
 1393TIP3    H125814   3.061   6.367   8.628  0.0175 -0.4265  0.1141
 1393TIP3    H225815   3.194   6.361   8.555  0.2599 -0.7914  0.5790
 1394TIP3   OH225816   1.214   1.235   6.827 -0.3545 -0.0091  0.1541
 1394TIP3    H125817   1.202   1.299   6.896  1.2803 -0.3967  0.8594
 1394TIP3    H225818   1.253   1.159   6.871 -1.1396 -1.0474 -0.8595
 1395TIP3   OH225819   3.248   4.749   1.013  0.1928  0.0524 -0.1856
 1395TIP3    H125820   3.179   4.699   1.057  2.3921 -0.8725  2.5454
 1395TIP3    H225821   3.276   4.692   0.941  0.1809 -0.9972  0.6203
 1396TIP3   OH225822   5.832   5.178   1.180 -0.1770 -0.5686 -0.0179
 1396TIP3    H125823   5.783   5.104   1.215  0.5465 -0.1431  2.0071
 1396TIP3    H225824   5.923   5.160   1.201 -0.0038  0.9683  0.7478
 1397TIP3   OH225825   1.790   6.602   7.171 -0.1239  0.0970  0.5491
 1397TIP3    H125826   1.838   6.684   7.160 -0.1642 -0.0337 -0.6845
 1397TIP3    H225827   1.708   6.616   7.123  0.5727 -1.2381 -1.1212
 1398TIP3   OH225828   0.521   1.995   0.441  0.0718 -0.6516  0.4686
 1398TIP3    H125829   0.612   1.982   0.467  1.0300  1.8320 -1.3350
 1398TIP3    H225830   0.491   2.070   0.492 -0.3260 -0.2649 -0.3099
 1399TIP3   OH225831   5.830   1.051   0.902 -0.1146 -0.0534  0.5712
 1399TIP3    H125832   5.832   1.125   0.842 -0.6528  0.6605  1.4232
 1399TIP3    H225833   5.840   1.089   0.989 -0.7216 -0.9412  1.0510
 1400TIP3   OH225834   3.150   2.479   1.670 -0.2107  0.2588  0.3172
 1400TIP3    H125835   3.149   2.567   1.633  1.9861  0.1626 -0.1213
 1400TIP3    H225836   3.114   2.490   1.758 -0.5454  1.4801  0.0457
 1401TIP3   OH225837   5.793   3.677   7.413 -0.5464  0.6718  0.3612
 1401TIP3    H125838   5.746   3.668   7.496  0.6495 -0.1669  0.9870
 1401TIP3    H225839   5.885   3.681   7.439 -0.1873  0.9300 -0.8995
 1402TIP3   OH225840   4.062   0.521   0.836 -0.2158  0.5049 -0.0980
 1402TIP3    H125841   4.027   0.564   0.914 -0.5974  0.4232 -0.2234
 1402TIP3    H225842   4.157   0.537   0.840  0.0758 -1.2651  1.4945
 1403TIP3   OH225843   6.471   6.206   0.385  0.7563  0.2619 -0.1987
 1403TIP3    H125844   6.495   6.124   0.342  4.4792 -0.3646  2.6261
 1403TIP3    H225845   6.406   6.181   0.451  0.0126  0.0981 -0.9714
 1404TIP3   OH225846   1.562   5.248   7.302  0.0454  0.0496  0.4961
 1404TIP3    H125847   1.644   5.282   7.265 -0.1706  1.1201  0.9789
 1404TIP3    H225848   1.585   5.220   7.390 -0.1564  0.5745  0.7174
 1405TIP3   OH225849   0.051   3.162   2.420  0.0455 -0.2842 -0.5671
 1405TIP3    H125850  -0.001   3.097   2.469  0.2145  0.2462  0.3359
 1405TIP3    H225851   0.127   3.178   2.476  1.1970 -1.0202 -1.8491
 1406TIP3   OH225852   5.728   0.497   1.132 -0.1291  0.5039 -0.4679
 1406TIP3    H125853   5.797   0.563   1.130  0.4995 -0.1493 -2.0794
 1406TIP3    H225854   5.726   0.462   1.043 -0.7424 -1.3456  0.2263
 1407TIP3   OH225855   1.358   2.236   2.638 -0.3329 -0.8675 -0.1101
 1407TIP3    H125856   1.301   2.169   2.677 -0.2899 -1.8938 -1.7006
 1407TIP3    H225857   1.393   2.194   2.559  1.3474  0.3257 -0.0471
 1408TIP3   OH225858   3.630   0.487   2.005  0.0792  0.7375  1.0609
 1408TIP3    H125859   3.595   0.461   2.090 -2.4128 -0.2689 -0.1511
 1408TIP3    H225860   3.573   0.558   1.976  0.9321  1.1096  0.2388
 1409TIP3   OH225861   2.516   1.647   0.373  0.2662 -0.2439  0.2739
 1409TIP3    H125862   2.583   1.707   0.407 -0.6504  0.6934  0.4798
 1409TIP3    H225863   2.509   1.669   0.280 -0.5907  0.5066  0.5004
 1410TIP3   OH225864   4.551   5.731   8.036 -0.5898  0.3681 -0.3944
 1410TIP3    H125865   4.536   5.658   8.097 -1.0255  2.3279  2.0033
 1410TIP3    H225866   4.467   5.777   8.033 -0.2402  0.9476 -1.6092
 1411TIP3   OH225867   3.518   3.452   8.108 -0.0452  0.5484  0.3183
 1411TIP3    H125868   3.465   3.456   8.188 -0.3729  0.2955  0.1179
 1411TIP3    H225869   3.544   3.542   8.091 -0.7278  0.7285  0.2087
 1412TIP3   OH225870   4.871   0.699   1.985 -0.3044 -0.3377 -0.4258
 1412TIP3    H125871   4.866   0.745   2.068 -1.0284 -0.7725 -0.2223
 1412TIP3    H225872   4.941   0.634   1.998  0.2105  0.2064 -0.4681
 1413TIP3   OH225873   1.671   4.693   0.319  0.0241  0.0497 -0.4384
 1413TIP3    H125874   1.584   4.700   0.357 -0.3252  0.3754 -1.2674
 1413TIP3    H225875   1.724   4.651   0.387 -0.6709  0.2399  0.2313
 1414TIP3   OH225876   0.344   5.775   0.781 -0.5114  0.0372  0.4784
 1414TIP3    H125877   0.282   5.734   0.721  0.1806  0.4300 -0.5348
 1414TIP3    H225878   0.301   5.857   0.806 -0.8873 -0.2172  0.6741
 1415TIP3   OH225879   1.705   1.623   0.417 -0.3302 -0.4766 -0.0402
 1415TIP3    H125880   1.648   1.650   0.346 -0.6091 -0.8582  0.0376
 1415TIP3    H225881   1.755   1.702   0.438 -1.3651  0.0934  0.4028
 1416TIP3   OH225882   2.053   2.796   1.407  0.0443 -0.5346 -0.2808
 1416TIP3    H125883   1.987   2.827   1.469 -0.4457 -0.7925 -0.6613
 1416TIP3    H225884   2.002   2.753   1.338  0.6012 -0.5591 -0.6823
 1417TIP3   OH225885   4.819   0.961   0.564 -0.2172 -0.1298 -0.0867
 1417TIP3    H125886   4.826   1.016   0.642  2.5956  1.7655 -1.5051
 1417TIP3    H225887   4.822   1.023   0.491  1.3836 -2.0312 -1.7558
 1418TIP3   OH225888   3.078   1.922   2.428 -0.1293 -0.5470 -0.0166
 1418TIP3    H125889   3.047   1.947   2.516  0.1222 -0.6616  0.1057
 1418TIP3    H225890   3.018   1.852   2.401 -0.5573 -0.1216 -0.1746
 1419TIP3   OH225891   1.954   1.537   2.015  0.3227  0.3064  0.2090
 1419TIP3    H125892   2.036   1.581   1.992  0.5102 -0.0338  0.2230
 1419TIP3    H225893   1.902   1.605   2.060  0.5650  0.5412  0.1363
 1420TIP3   OH225894   6.149   5.977   1.048 -0.5253  0.1925  0.0634
 1420TIP3    H125895   6.231   6.022   1.070 -1.2243  2.1799 -1.0733
 1420TIP3    H225896   6.120   5.939   1.131  1.0334  0.3031  0.7085
 1421TIP3   OH225897   3.978   0.082   1.603 -0.3719  0.4124  0.0388
 1421TIP3    H125898   3.907   0.095   1.542  0.0441 -1.1150 -0.8181
 1421TIP3    H225899   3.936   0.069   1.688 -1.0634  0.4490 -0.2999
 1422TIP3   OH225900   2.399   6.764   0.642  0.0977 -0.0001 -0.7698
 1422TIP3    H125901   2.356   6.848   0.652  0.8718  0.4447 -1.1246
 1422TIP3    H225902   2.472   6.780   0.583  0.5984 -0.7888 -0.3970
 1423TIP3   OH225903   4.774   4.226   1.220  0.0992  0.0063 -0.2407
 1423TIP3    H125904   4.695   4.203   1.171 -0.3332 -1.2671  0.9964
 1423TIP3    H225905   4.761   4.187   1.306  2.1207 -0.2874 -0.0232
 1424TIP3   OH225906   3.378   0.749   1.268 -0.1309  0.0820  0.0914
 1424TIP3    H125907   3.356   0.702   1.188  1.6810 -2.7259  1.1110
 1424TIP3    H225908   3.312   0.721   1.332 -0.4449  0.8322  0.1134
 1425TIP3   OH225909   2.098   2.496   1.923  0.3766 -0.2499 -0.2250
 1425TIP3    H125910   2.034   2.445   1.873 -0.9885  1.8770 -0.7434
 1425TIP3    H225911   2.046   2.559   1.972  2.0296  2.7344 -1.9921
 1426TIP3   OH225912   3.911   3.139   7.059 -0.8134  0.8207  0.2996
 1426TIP3    H125913   3.820   3.120   7.079 -1.2065  1.7043 -0.5409
 1426TIP3    H225914   3.961   3.085   7.119 -1.8817 -0.2240  0.2819
 1427TIP3   OH225915   0.720   4.127   1.690 -0.3106  0.2275 -0.4547
 1427TIP3    H125916   0.725   4.187   1.615 -0.5126  1.0925  0.2071
 1427TIP3    H225917   0.709   4.040   1.651  1.4214  0.4280 -1.4865
 1428TIP3   OH225918   5.697   5.685   1.976  0.0312 -0.1562  0.1375
 1428TIP3    H125919   5.634   5.627   1.932 -1.5857  1.9969 -0.5444
 1428TIP3    H225920   5.650   5.719   2.051  0.7091  0.7647  0.1633
 1429TIP3   OH225921   0.820   0.762   2.499  0.2988 -0.1393  0.5639
 1429TIP3    H125922   0.854   0.781   2.586  0.9536  0.7992  0.1173
 1429TIP3    H225923   0.755   0.692   2.513  2.2532 -1.8654  1.4591
 1430TIP3   OH225924   5.505   4.143   7.224  0.2396 -0.4395  0.1019
 1430TIP3    H125925   5.425   4.146   7.172  0.1060 -0.6697  0.2884
 1430TIP3    H225926   5.566   4.200   7.178 -0.3713  0.5823  0.5395
 1431TIP3   OH225927   4.984   3.521   7.777 -0.2112  0.2765  0.2933
 1431TIP3    H125928   4.931   3.498   7.854 -0.9998  0.5673 -0.1492
 1431TIP3    H225929   4.959   3.457   7.711 -0.3485  0.6855 -0.0590
 1432TIP3   OH225930   0.828   2.951   6.738  0.3169 -0.2867 -0.3418
 1432TIP3    H125931   0.810   2.999   6.818 -0.2943  0.3389 -0.8377
 1432TIP3    H225932   0.842   2.860   6.766  0.5359  0.0079  0.5039
 1433TIP3   OH225933   1.488   2.392   0.489 -0.3100  0.0170  0.1028
 1433TIP3    H125934   1.570   2.421   0.449 -1.6222  2.3211 -1.1231
 1433TIP3    H225935   1.482   2.442   0.570 -1.2677  1.2191 -0.6655
 1434TIP3   OH225936   6.808   5.276   8.629 -0.3142  0.1358  0.1822
 1434TIP3    H125937   6.746   5.294   8.699 -0.3271  0.1803  0.1588
 1434TIP3    H225938   6.797   5.183   8.610 -1.2450  0.4022 -0.6595
 1435TIP3   OH225939   1.135   4.950   2.875  0.0165  0.8379 -0.3083
 1435TIP3    H125940   1.139   5.007   2.799 -0.1755  1.7450  0.3440
 1435TIP3    H225941   1.225   4.922   2.889  0.0959  0.8958 -0.6999
 1436TIP3   OH225942   2.436   4.046   0.983  0.3844 -0.2588  0.1729
 1436TIP3    H125943   2.428   4.059   1.077 -0.3317 -0.2735  0.1186
 1436TIP3    H225944   2.391   4.122   0.945  0.5048 -0.3504 -0.1556
 1437TIP3   OH225945   4.194   6.651   7.348  0.6135  0.4569  0.4765
 1437TIP3    H125946   4.099   6.634   7.350  0.4551  1.2938  0.4378
 1437TIP3    H225947   4.223   6.613   7.265 -0.2359  2.7567 -0.9763
 1438TIP3   OH225948   1.946   3.245   7.777  0.6440  0.1495  0.2939
 1438TIP3    H125949   1.905   3.169   7.736 -1.3465  0.6694  1.2191
 1438TIP3    H225950   2.034   3.247   7.740 -0.0482 -1.1869 -1.5918
 1439TIP3   OH225951   5.771   4.297   0.294  0.4669  0.2647  0.0927
 1439TIP3    H125952   5.792   4.290   0.201 -0.0417  1.5675 -0.1406
 1439TIP3    H225953   5.699   4.360   0.298  1.1424  0.9940  1.4519
 1440TIP3   OH225954   5.139   6.153   1.100 -0.1030 -0.1411 -0.8059
 1440TIP3    H125955   5.172   6.149   1.010  0.1565 -2.5304 -0.6749
 1440TIP3    H225956   5.217   6.142   1.155 -0.5691 -1.6742 -0.3982
 1441TIP3   OH225957   4.436   1.454   7.486 -0.6501  0.1360  0.0656
 1441TIP3    H125958   4.505   1.481   7.425 -0.8645 -0.8863 -0.6663
 1441TIP3    H225959   4.371   1.523   7.480 -0.9111 -0.1923 -1.3071
 1442TIP3   OH225960   6.502   3.044   7.400  0.0557 -0.0965 -0.1832
 1442TIP3    H125961   6.424   3.093   7.427 -0.7771 -1.6267  0.2469
 1442TIP3    H225962   6.568   3.065   7.466 -0.9891 -1.2917  1.2983
 1443TIP3   OH225963   2.102   6.216   1.919  0.1971 -0.2056 -0.5554
 1443TIP3    H125964   2.135   6.181   1.836  0.9358 -0.4038 -0.1840
 1443TIP3    H225965   2.105   6.142   1.979 -0.9287 -0.2276 -0.5001
 1444TIP3   OH225966   5.268   6.438   1.749  0.6176  0.8466  0.1331
 1444TIP3    H125967   5.325   6.456   1.675 -0.5210  0.2729 -0.9141
 1444TIP3    H225968   5.321   6.383   1.807  0.5248 -1.4325 -1.7864
 1445TIP3   OH225969   5.375   5.081   2.544 -0.4044 -0.0352 -0.0575
 1445TIP3    H125970   5.347   5.076   2.452 -0.8059 -0.8787  0.1049
 1445TIP3    H225971   5.313   5.025   2.591 -0.4370  0.6900  0.7902
 1446TIP3   OH225972   3.849   0.616   3.058  0.7807  0.2705 -0.2246
 1446TIP3    H125973   3.783   0.631   2.991 -0.5892  1.3076  1.2963
 1446TIP3    H225974   3.926   0.663   3.027  0.2910  0.4130 -1.2454
 1447TIP3   OH225975   1.243   4.848   1.998 -0.2179 -0.0766  0.4508
 1447TIP3    H125976   1.175   4.831   2.063  0.2741 -0.6936  0.8170
 1447TIP3    H225977   1.325   4.828   2.044  0.0971 -1.2004 -0.5730
 1448TIP3   OH225978   0.093   5.588   2.272 -0.2297 -0.6840 -0.0625
 1448TIP3    H125979   0.002   5.608   2.253 -0.3814  0.0484  1.2885
 1448TIP3    H225980   0.093   5.562   2.364  0.8373 -1.3073 -0.2214
 1449TIP3   OH225981   5.907   6.808   0.335  0.3544 -0.2542 -0.0219
 1449TIP3    H125982   5.845   6.832   0.404  1.7725  1.6662  0.6826
 1449TIP3    H225983   5.978   6.764   0.382  0.7630 -0.0114 -0.4090
 1450TIP3   OH225984   5.204   0.029   0.049 -0.3914  0.4139  0.6527
 1450TIP3    H125985   5.215   0.091  -0.023 -0.1403  0.1197  0.4367
 1450TIP3    H225986   5.143  -0.037   0.016  0.9569 -0.6100  0.1165
 1451TIP3   OH225987   6.455   0.482   1.090 -0.5031  0.4423 -0.0347
 1451TIP3    H125988   6.361   0.478   1.102 -0.7334  0.0980 -1.7566
 1451TIP3    H225989   6.488   0.400   1.128 -1.1048 -0.2685 -1.0118
 1452TIP3   OH225990   5.580   0.911   1.607  0.1282 -0.4611  0.2831
 1452TIP3    H125991   5.627   0.958   1.676 -0.6883  1.7463 -0.5755
 1452TIP3    H225992   5.645   0.850   1.571  2.3142  2.1487 -0.5599
 1453TIP3   OH225993   1.737   1.990   8.411 -0.1711  0.2817  0.2964
 1453TIP3    H125994   1.759   2.005   8.319  0.3932  1.2063  0.5598
 1453TIP3    H225995   1.648   1.956   8.410 -0.3502  0.7569 -0.5611
 1454TIP3   OH225996   4.267   0.583   1.447 -0.4473 -0.3377  0.0026
 1454TIP3    H125997   4.246   0.586   1.541 -1.5066  1.8642 -0.2390
 1454TIP3    H225998   4.360   0.563   1.444 -0.5823 -1.3945  1.4670
 1455TIP3   OH225999   1.389   6.742   1.994  0.2127 -0.0313 -0.3242
 1455TIP3    H126000   1.407   6.784   2.078  0.3634  0.9926 -0.8516
 1455TIP3    H226001   1.373   6.815   1.934 -3.7244 -0.7773 -0.3976
 1456TIP3   OH226002   5.490   0.597   7.996 -0.1159  0.6345 -0.0333
 1456TIP3    H126003   5.421   0.634   8.052  0.3378  0.0844  0.9122
 1456TIP3    H226004   5.497   0.506   8.024 -0.5213  0.0681 -1.6411
 1457TIP3   OH226005   3.362   0.311   8.516 -0.1046 -0.6668 -0.3541
 1457TIP3    H126006   3.412   0.355   8.585  0.3093  2.2714 -2.3373
 1457TIP3    H226007   3.271   0.330   8.536 -0.0572 -0.7100 -0.0916
 1458TIP3   OH226008   4.022   4.197   0.367 -0.3592 -0.1534 -0.1738
 1458TIP3    H126009   3.982   4.119   0.327 -1.9378  0.7915 -0.5238
 1458TIP3    H226010   4.014   4.265   0.300  1.1994  0.2871  0.0472
 1459TIP3   OH226011   0.258   3.591   8.558  0.8015 -0.1343  0.3836
 1459TIP3    H126012   0.265   3.633   8.644  2.3816 -0.7692  0.5978
 1459TIP3    H226013   0.167   3.607   8.531  0.3281  0.2480  2.0665
 1460TIP3   OH226014   6.734   2.491   8.361  0.0705  0.1585 -0.1911
 1460TIP3    H126015   6.783   2.411   8.345  0.1734  0.2167 -0.1707
 1460TIP3    H226016   6.644   2.462   8.377  0.1903  0.0132  0.2410
 1461TIP3   OH226017   1.642   3.293   0.990  0.2322 -0.7562  0.7267
 1461TIP3    H126018   1.677   3.247   1.065  2.9118 -0.1279 -0.0403
 1461TIP3    H226019   1.672   3.383   1.000  0.7407 -0.6774 -1.1121
 1462TIP3   OH226020   5.779   5.920   7.757 -0.2518 -0.2164 -0.0851
 1462TIP3    H126021   5.743   5.879   7.835  1.4531  1.9244  1.9474
 1462TIP3    H226022   5.702   5.945   7.706 -1.4831 -0.1962  1.6900
 1463TIP3   OH226023   1.788   4.985   1.691 -0.2124 -0.1159  0.5015
 1463TIP3    H126024   1.732   4.981   1.613  0.4316 -0.5367  0.0471
 1463TIP3    H226025   1.782   4.898   1.730  1.4087 -0.7154 -0.4914
 1464TIP3   OH226026   3.872   5.248   7.949  0.2199  0.0576  0.1392
 1464TIP3    H126027   3.873   5.248   8.045  0.6659  0.6465  0.1427
 1464TIP3    H226028   3.846   5.160   7.925 -0.6915  0.1219  0.8143
 1465TIP3   OH226029   6.006   1.395   1.077 -0.5711 -0.4542 -0.8218
 1465TIP3    H126030   6.004   1.486   1.050  0.3038  0.0819  0.7613
 1465TIP3    H226031   5.971   1.396   1.167  0.4560 -1.5025 -0.3838
 1466TIP3   OH226032   1.562   0.345   0.987  0.0762 -0.0490  0.0839
 1466TIP3    H126033   1.549   0.400   0.910 -1.5714 -0.5476 -0.0226
 1466TIP3    H226034   1.534   0.257   0.959  0.5351 -0.4693  0.9138
 1467TIP3   OH226035   3.251   5.255   3.384 -0.0998  0.4385 -0.1886
 1467TIP3    H126036   3.319   5.322   3.392 -0.7214  1.0369  0.2280
 1467TIP3    H226037   3.273   5.208   3.303  0.8436  0.5673 -0.0168
 1468TIP3   OH226038   6.120   5.131   7.970 -0.6531  0.3025  0.5727
 1468TIP3    H126039   6.080   5.134   7.883 -0.2154 -0.7429  0.3187
 1468TIP3    H226040   6.148   5.221   7.987 -3.3094  1.1413  0.8897
 1469TIP3   OH226041   4.877   6.659   0.394 -0.7286 -0.4167  0.1213
 1469TIP3    H126042   4.961   6.668   0.348 -0.5938  0.3852  0.5113
 1469TIP3    H226043   4.863   6.565   0.401  0.0022 -0.5518 -0.1954
 1470TIP3   OH226044   0.204   0.818   1.676  0.0817  0.1490 -0.1139
 1470TIP3    H126045   0.207   0.845   1.768 -0.5849  0.5406 -0.1996
 1470TIP3    H226046   0.294   0.828   1.644  0.0953  1.0594  0.1951
 1471TIP3   OH226047   6.881   5.190   2.859  0.0645  0.3891 -0.5444
 1471TIP3    H126048   6.836   5.226   2.782  1.2718 -0.2040 -1.5731
 1471TIP3    H226049   6.955   5.248   2.872 -0.5257  0.9040  0.6558
 1472TIP3   OH226050   4.545   6.285   3.078  0.1526  0.3713 -0.2627
 1472TIP3    H126051   4.614   6.283   3.145 -0.2146  1.8663  0.2034
 1472TIP3    H226052   4.578   6.345   3.011 -0.1547  0.1122 -0.6493
 1473TIP3   OH226053   1.897   5.017   2.209 -0.1514 -0.2957  0.0130
 1473TIP3    H126054   1.923   4.986   2.296 -2.8042 -1.3650  0.4969
 1473TIP3    H226055   1.958   4.974   2.149  1.4120  0.0798  1.2636
 1474TIP3   OH226056   2.302   0.130   0.758 -0.3523 -0.2375 -0.2302
 1474TIP3    H126057   2.240   0.143   0.830 -0.0554  0.0919 -0.0317
 1474TIP3    H226058   2.388   0.134   0.800 -0.2018 -1.1569 -0.4250
 1475TIP3   OH226059   5.199   0.933   0.449 -0.0008 -0.4444 -0.0782
 1475TIP3    H126060   5.147   0.985   0.389 -1.4726 -1.1277  0.5442
 1475TIP3    H226061   5.176   0.965   0.536 -0.4365 -1.6575  0.2802
 1476TIP3   OH226062   3.974   6.431   1.819 -0.3361 -0.4018  0.2267
 1476TIP3    H126063   4.068   6.418   1.802 -0.6441 -1.8518 -0.5191
 1476TIP3    H226064   3.945   6.489   1.748 -0.0909 -0.3434  0.1739
 1477TIP3   OH226065   1.736   2.612   2.993 -0.2637  0.2220 -0.3611
 1477TIP3    H126066   1.711   2.703   2.978 -0.9357  0.4812  2.0271
 1477TIP3    H226067   1.818   2.602   2.944 -2.0018  0.9483 -3.7931
 1478TIP3   OH226068   0.372   2.897   7.405 -0.2554 -0.3355  0.8363
 1478TIP3    H126069   0.459   2.864   7.380 -0.0265 -0.0730  1.2649
 1478TIP3    H226070   0.378   2.909   7.500 -0.9163 -0.7695  0.9434
 1479TIP3   OH226071   3.497   1.636   2.202 -0.1122 -0.1129 -0.6818
 1479TIP3    H126072   3.488   1.712   2.259 -1.0054 -0.6353 -0.1076
 1479TIP3    H226073   3.417   1.585   2.217  1.7794 -2.7602  1.2577
 1480TIP3   OH226074   1.471   3.481   7.512  0.2587  0.3412  0.0573
 1480TIP3    H126075   1.450   3.569   7.543  1.9073  1.1196 -0.8836
 1480TIP3    H226076   1.524   3.443   7.583 -1.8396 -0.5935  1.2169
 1481TIP3   OH226077   5.585   5.584   2.388  0.0067 -0.5255 -0.3703
 1481TIP3    H126078   5.583   5.489   2.400 -0.8289 -0.5751 -0.7894
 1481TIP3    H226079   5.649   5.615   2.452  1.3486 -1.5040 -1.1633
 1482TIP3   OH226080   4.495   0.300   7.823  0.4335  0.1091 -0.5501
 1482TIP3    H126081   4.517   0.362   7.754 -1.6182  1.3004 -0.2266
 1482TIP3    H226082   4.423   0.342   7.870  0.3991 -1.5961  1.0283
 1483TIP3   OH226083   6.110   3.831   7.829 -0.3336 -0.2600 -0.2090
 1483TIP3    H126084   6.042   3.830   7.897  1.0713  0.1126  1.2558
 1483TIP3    H226085   6.067   3.793   7.752 -1.9045 -0.9401  0.9445
 1484TIP3   OH226086   5.460   3.492   7.554 -0.1348 -0.4710  0.0322
 1484TIP3    H126087   5.371   3.491   7.519 -0.1745 -0.0913  0.1123
 1484TIP3    H226088   5.467   3.577   7.598  0.6641  0.0088 -0.9782
 1485TIP3   OH226089   3.388   3.483   1.037 -0.6026  0.1321 -0.0913
 1485TIP3    H126090   3.374   3.511   1.127 -0.5402  0.5258 -0.2026
 1485TIP3    H226091   3.354   3.555   0.984 -0.8134 -0.1791 -0.3851
 1486TIP3   OH226092   1.536   0.558   0.825  0.4620  0.0097  0.0142
 1486TIP3    H126093   1.531   0.652   0.844 -0.6731  0.2257 -1.2341
 1486TIP3    H226094   1.487   0.547   0.744 -1.7305 -2.0583  1.4925
 1487TIP3   OH226095   5.293   0.500   0.876  0.6852 -0.0010 -0.2889
 1487TIP3    H126096   5.227   0.430   0.879  0.5664  0.1344  1.3095
 1487TIP3    H226097   5.317   0.507   0.784 -1.6014 -0.0051 -0.9407
 1488TIP3   OH226098   4.481   4.865   8.261  0.7164 -0.2674  0.6197
 1488TIP3    H126099   4.575   4.883   8.270  0.4418  0.6927  1.8256
 1488TIP3    H226100   4.477   4.785   8.209  2.2234 -0.5696  0.9149
 1489TIP3   OH226101   2.979   3.521   7.457  0.2871  0.1954 -0.0477
 1489TIP3    H126102   2.913   3.527   7.388 -0.1752 -0.7206  0.2910
 1489TIP3    H226103   3.045   3.462   7.422  0.3123  0.1486  0.0752
 1490TIP3   OH226104   0.864   4.289   8.672  0.2898  0.1541 -0.3554
 1490TIP3    H126105   0.952   4.278   8.637 -0.0442  0.2688 -1.2689
 1490TIP3    H226106   0.831   4.199   8.683  0.7157  0.0972  0.5335
 1491TIP3   OH226107   2.423   5.166   0.868  0.0938  0.0833 -0.6044
 1491TIP3    H126108   2.398   5.091   0.920 -0.7194  0.2449 -0.7541
 1491TIP3    H226109   2.390   5.242   0.917  0.5748  0.3261 -0.6429
 1492TIP3   OH226110   5.619   6.053   7.974 -0.2737 -0.3036 -0.2960
 1492TIP3    H126111   5.561   6.010   8.037 -0.0698 -3.4678 -2.0773
 1492TIP3    H226112   5.560   6.092   7.910 -0.4432  0.3439  0.2429
 1493TIP3   OH226113   2.123   0.080   2.242  0.2533 -0.2557 -0.2777
 1493TIP3    H126114   2.120   0.066   2.147  1.7372 -0.2085 -0.3585
 1493TIP3    H226115   2.033   0.070   2.271 -0.1210 -0.9128 -1.6057
 1494TIP3   OH226116   2.222   3.508   2.454 -0.3248 -0.7652  0.2854
 1494TIP3    H126117   2.132   3.487   2.482 -1.2943 -0.0958 -2.0853
 1494TIP3    H226118   2.219   3.602   2.433  1.0880 -0.6224  0.6253
 1495TIP3   OH226119   1.924   0.581   1.776 -0.7253 -0.0383 -0.5920
 1495TIP3    H126120   1.947   0.674   1.782  0.0944 -0.3292  2.5680
 1495TIP3    H226121   1.842   0.574   1.826  0.0305 -1.1854  0.5506
 1496TIP3   OH226122   4.245   5.364   1.213  0.0806  0.2673  0.1117
 1496TIP3    H126123   4.322   5.412   1.243  1.0399 -0.6554 -0.7729
 1496TIP3    H226124   4.199   5.425   1.156  0.9942  0.3411 -0.5701
 1497TIP3   OH226125   4.394   1.065   2.999 -0.0207  0.2259  0.1622
 1497TIP3    H126126   4.345   1.080   3.081 -2.5890 -1.1046 -1.0094
 1497TIP3    H226127   4.481   1.037   3.028 -0.4832  0.8743  2.4022
 1498TIP3   OH226128   1.141   1.333   1.908  0.0545 -0.4895  0.5087
 1498TIP3    H126129   1.058   1.294   1.880  0.0647 -1.2291  1.4489
 1498TIP3    H226130   1.132   1.426   1.886  0.1918 -1.0191 -2.1484
 1499TIP3   OH226131   0.315   2.454   8.478 -0.0067 -0.1374  0.5396
 1499TIP3    H126132   0.331   2.382   8.540  2.4057 -0.0976  0.0639
 1499TIP3    H226133   0.365   2.527   8.514 -0.9453  0.7727  0.0407
 1500TIP3   OH226134   4.675   6.834   7.415  1.0933 -0.6298 -0.0919
 1500TIP3    H126135   4.740   6.905   7.415  0.9033 -0.4556  0.7914
 1500TIP3    H226136   4.663   6.811   7.507 -2.3031  1.3795  0.1476
 1501TIP3   OH226137   3.567   3.638   1.556  0.0472 -0.7549 -0.4314
 1501TIP3    H126138   3.619   3.584   1.497  1.1590 -1.1202  0.8206
 1501TIP3    H226139   3.576   3.596   1.642 -0.3290  0.5443  0.2780
 1502TIP3   OH226140   3.532   0.498   7.947 -0.2940  0.0246 -0.1221
 1502TIP3    H126141   3.551   0.414   7.987 -1.0861 -1.0330 -1.8559
 1502TIP3    H226142   3.484   0.547   8.014 -2.4627 -2.0494 -0.0394
 1503TIP3   OH226143   6.449   4.174   2.532 -0.2958 -0.4427  0.0813
 1503TIP3    H126144   6.484   4.251   2.486 -0.5563 -0.2914  0.1331
 1503TIP3    H226145   6.500   4.100   2.497  0.4589 -0.1647  0.5618
 1504TIP3   OH226146   1.136   1.483   7.634  0.0440 -0.1514  0.0138
 1504TIP3    H126147   1.208   1.539   7.662 -0.4970  0.8118 -0.4521
 1504TIP3    H226148   1.152   1.466   7.541 -0.3902  0.1888 -0.1304
 1505TIP3   OH226149   6.164   2.317   1.692 -0.1573 -0.3352  0.7297
 1505TIP3    H126150   6.120   2.233   1.702 -0.6431 -0.1632  0.0885
 1505TIP3    H226151   6.177   2.327   1.597 -0.9312  0.7259  0.7147
 1506TIP3   OH226152   5.976   4.096   2.431  0.2847  0.4435 -0.0741
 1506TIP3    H126153   6.054   4.055   2.468 -0.0834  1.1738  1.6197
 1506TIP3    H226154   6.009   4.149   2.358  1.1977 -0.2138 -0.1477
 1507TIP3   OH226155   3.814   0.287   8.264  0.7368 -0.5105 -0.2364
 1507TIP3    H126156   3.761   0.232   8.207  0.6948  0.5613 -1.2613
 1507TIP3    H226157   3.901   0.247   8.261 -0.0483 -2.6593  1.9628
 1508TIP3   OH226158   0.656   3.356   0.992 -0.2312 -0.3879 -0.2391
 1508TIP3    H126159   0.567   3.385   0.972 -0.5541 -0.1163  1.4368
 1508TIP3    H226160   0.645   3.273   1.038  0.4428 -0.7998 -0.8024
 1509TIP3   OH226161   5.881   0.345   1.700  0.0513 -0.1082  0.1323
 1509TIP3    H126162   5.793   0.365   1.668 -0.2807 -0.4785  0.7763
 1509TIP3    H226163   5.931   0.425   1.686 -0.4711  0.2042  0.0278
 1510TIP3   OH226164   0.635   3.299   2.278  0.3371  0.7432  0.3015
 1510TIP3    H126165   0.619   3.370   2.217 -1.0266 -0.1298 -0.4095
 1510TIP3    H226166   0.652   3.222   2.223 -3.1857 -0.5953  0.8017
 1511TIP3   OH226167   2.875   2.795   1.745 -0.1449  0.2078  0.6237
 1511TIP3    H126168   2.933   2.856   1.792 -2.5533  0.7668  3.0788
 1511TIP3    H226169   2.831   2.850   1.680 -0.9226  0.6901  1.5497
 1512TIP3   OH226170   3.563   3.007   8.521 -0.6140 -0.6655 -0.1161
 1512TIP3    H126171   3.590   2.990   8.430  2.6191 -0.1193  0.6201
 1512TIP3    H226172   3.555   2.920   8.560  2.7422 -0.9387  0.2148
 1513TIP3   OH226173   2.305   1.005   8.413 -0.1658  0.3842 -0.4594
 1513TIP3    H126174   2.262   0.925   8.443 -1.1015  0.9236 -0.3172
 1513TIP3    H226175   2.394   0.978   8.392 -0.5434 -0.7534 -0.6822
 1514TIP3   OH226176   4.917   0.253   0.596 -0.2331  0.0814  0.4038
 1514TIP3    H126177   4.866   0.172   0.599 -0.2470 -0.0016 -1.2317
 1514TIP3    H226178   4.854   0.321   0.618 -0.8351 -0.1236 -0.6089
 1515TIP3   OH226179   5.511   5.206   1.622 -0.2086 -0.0624 -0.6204
 1515TIP3    H126180   5.488   5.223   1.531 -0.6166 -0.7167 -0.6417
 1515TIP3    H226181   5.589   5.260   1.638  1.3570 -1.7584 -2.0626
 1516TIP3   OH226182   4.652   4.910   7.978  0.6725 -0.1464 -0.5204
 1516TIP3    H126183   4.650   4.842   8.044 -0.5073 -1.3836 -1.7527
 1516TIP3    H226184   4.564   4.948   7.980  0.4856 -0.4830 -1.6290
 1517TIP3   OH226185   3.636   0.514   8.234  0.0929 -0.2521 -0.4354
 1517TIP3    H126186   3.691   0.439   8.259 -2.0277 -0.7660  3.4988
 1517TIP3    H226187   3.695   0.589   8.235  1.4752 -1.2995 -0.4021
 1518TIP3   OH226188   3.202   6.814   2.162  0.4496  0.6487 -0.6594
 1518TIP3    H126189   3.134   6.846   2.103  0.2512  0.5469 -0.4898
 1518TIP3    H226190   3.242   6.741   2.115 -0.4682 -0.1752 -0.2160
 1519TIP3   OH226191   4.359   4.085   2.718 -0.2843  0.0301  0.0621
 1519TIP3    H126192   4.424   4.026   2.680 -0.9344 -0.4012 -0.4001
 1519TIP3    H226193   4.375   4.081   2.812 -0.4273 -1.0269  0.0546
 1520TIP3   OH226194   3.563   2.504   8.618  0.0810 -0.5012  0.1910
 1520TIP3    H126195   3.565   2.549   8.533  4.2183 -1.0257 -0.2344
 1520TIP3    H226196   3.621   2.557   8.674  1.7206 -2.9174  0.9622
 1521TIP3   OH226197   4.874   5.469   0.266 -0.2553  0.2690 -0.2044
 1521TIP3    H126198   4.793   5.439   0.307 -0.3749 -0.0086 -0.6358
 1521TIP3    H226199   4.941   5.460   0.334 -0.3709 -0.5693 -0.1954
 1522TIP3   OH226200   4.527   6.638   7.908  1.1941 -0.0082 -0.0630
 1522TIP3    H126201   4.571   6.591   7.978  0.2064 -1.4461 -0.3588
 1522TIP3    H226202   4.587   6.632   7.833  0.9820 -1.0496 -0.1668
 1523TIP3   OH226203   2.522   0.730   1.755  0.2042  0.3751 -0.0484
 1523TIP3    H126204   2.606   0.769   1.732  0.4301 -0.6138 -0.9731
 1523TIP3    H226205   2.536   0.693   1.843 -0.0504  2.3933  0.8955
 1524TIP3   OH226206   0.333   1.370   1.544  0.3433  0.3981 -0.3545
 1524TIP3    H126207   0.303   1.367   1.635 -0.4888 -0.3459 -0.6456
 1524TIP3    H226208   0.255   1.393   1.494  0.4433 -0.6935 -1.0357
 1525TIP3   OH226209   6.373   5.666   1.646 -0.3346  0.0503  0.1582
 1525TIP3    H126210   6.448   5.725   1.637 -1.3353  1.2767 -0.6123
 1525TIP3    H226211   6.380   5.631   1.735  1.1015  0.1804  0.1126
 1526TIP3   OH226212   0.400   2.189   7.975  0.8570 -0.1401  0.0168
 1526TIP3    H126213   0.482   2.147   8.002  1.2070  0.7417  0.3667
 1526TIP3    H226214   0.366   2.228   8.055  0.1018 -0.4604 -0.1355
 1527TIP3   OH226215   1.019   0.373   7.444 -0.4616  0.4998 -0.6315
 1527TIP3    H126216   1.068   0.296   7.419  0.6677  1.3313 -1.0543
 1527TIP3    H226217   0.965   0.345   7.518  3.1758  0.3693  2.2054
 1528TIP3   OH226218   6.227   4.586   8.560  0.3981  0.5376 -0.2377
 1528TIP3    H126219   6.305   4.532   8.547 -0.1276 -0.2500 -0.1411
 1528TIP3    H226220   6.221   4.639   8.480 -0.2856 -1.0817 -1.2932
 1529TIP3   OH226221   5.673   1.241   0.524  0.1894  0.6345  0.2929
 1529TIP3    H126222   5.642   1.159   0.562  2.5504 -0.7648 -0.5802
 1529TIP3    H226223   5.613   1.307   0.557 -0.2945 -1.0601  3.1147
 1530TIP3   OH226224   5.325   1.185   1.712 -0.0755  0.6470 -0.2290
 1530TIP3    H126225   5.262   1.151   1.648 -0.8770  0.2669  0.7291
 1530TIP3    H226226   5.411   1.169   1.672 -0.5166 -0.5503 -0.7509
 1531TIP3   OH226227   1.458   1.158   0.662  0.1856 -0.0902 -0.4564
 1531TIP3    H126228   1.513   1.159   0.584 -0.6161 -0.0361 -1.0345
 1531TIP3    H226229   1.407   1.078   0.654  0.2432 -0.1859  0.1161
 1532TIP3   OH226230   0.721   4.952   2.872 -0.5486 -0.0010 -0.3611
 1532TIP3    H126231   0.727   4.892   2.946 -0.7304  0.8552  0.3607
 1532TIP3    H226232   0.634   4.991   2.879 -0.3144  0.5874 -0.6374
 1533TIP3   OH226233   1.184   1.788   1.324  0.3743  0.3257  0.4397
 1533TIP3    H126234   1.219   1.855   1.383 -0.1924  1.5197 -0.5279
 1533TIP3    H226235   1.256   1.769   1.265  1.2763 -1.6039  2.0527
 1534TIP3   OH226236   0.333   0.439   2.838 -0.9299  0.0940 -0.0339
 1534TIP3    H126237   0.312   0.346   2.848 -1.1116  0.0710 -0.6257
 1534TIP3    H226238   0.427   0.444   2.853 -1.1294  0.0285  1.4635
 1535TIP3   OH226239   2.641   4.547   2.984 -0.6364 -0.0871  0.2277
 1535TIP3    H126240   2.589   4.519   2.908  1.2947  0.6040 -1.4542
 1535TIP3    H226241   2.728   4.511   2.968  0.5161  2.2866  0.7176
 1536TIP3   OH226242   4.819   3.239   0.879 -0.3347 -0.2390  0.5968
 1536TIP3    H126243   4.753   3.308   0.867  0.6324  0.4122 -1.3521
 1536TIP3    H226244   4.868   3.266   0.957 -1.3068  0.1340  1.0943
 1537TIP3   OH226245   4.879   3.268   7.651  0.4494  0.0623  0.1223
 1537TIP3    H126246   4.848   3.283   7.562 -0.3813 -0.3676  0.3320
 1537TIP3    H226247   4.905   3.176   7.652  1.8072  0.4096 -0.0554
 1538TIP3   OH226248   6.720   5.610   0.527  0.4141 -0.0434  0.1290
 1538TIP3    H126249   6.733   5.535   0.470 -1.6658 -0.1748 -0.2408
 1538TIP3    H226250   6.625   5.616   0.539  0.7087 -0.4156  4.1014
 1539TIP3   OH226251   0.440   4.448   0.277  0.7651  0.0755  0.5554
 1539TIP3    H126252   0.365   4.503   0.253  1.1122  0.5906  0.6442
 1539TIP3    H226253   0.511   4.509   0.294  1.3806 -0.4281 -0.0840
 1540TIP3   OH226254   5.472   4.073   8.461 -0.3398 -0.0742 -0.1572
 1540TIP3    H126255   5.488   4.032   8.546 -0.1464 -0.9739 -0.6223
 1540TIP3    H226256   5.462   4.166   8.482  1.2609 -0.0470  0.6741
 1541TIP3   OH226257   5.697   2.212   0.624 -0.4169  0.0093 -0.0857
 1541TIP3    H126258   5.766   2.225   0.690 -0.6950  1.7403 -0.0708
 1541TIP3    H226259   5.742   2.226   0.540 -0.5931  0.4760 -0.1080
 1542TIP3   OH226260   4.260   5.764   3.426 -0.4223  0.4696 -0.1958
 1542TIP3    H126261   4.244   5.826   3.354 -2.0820 -0.8080 -0.9794
 1542TIP3    H226262   4.205   5.796   3.498 -1.3855 -0.1388 -0.6458
 1543TIP3   OH226263   2.341   0.638   7.776  0.0779  0.1261  0.4453
 1543TIP3    H126264   2.310   0.667   7.690 -1.3829  0.0011  0.9054
 1543TIP3    H226265   2.417   0.694   7.793  1.1105 -0.6007 -1.3955
 1544TIP3   OH226266   2.143   6.007   2.102  0.1310  0.0134 -0.2010
 1544TIP3    H126267   2.238   6.008   2.115  0.4166 -3.8351 -0.7599
 1544TIP3    H226268   2.108   5.972   2.183 -0.4464 -1.3921 -1.0117
 1545TIP3   OH226269   1.641   3.931   7.370 -0.1835  0.6223 -0.2766
 1545TIP3    H126270   1.706   3.986   7.325  0.6361 -0.0933  0.0020
 1545TIP3    H226271   1.594   3.992   7.427 -0.2813  1.2863 -1.0415
 1546TIP3   OH226272   2.458   1.538   2.314 -0.4141  0.3811  0.2054
 1546TIP3    H126273   2.398   1.551   2.241  0.9263  1.7544 -0.6961
 1546TIP3    H226274   2.407   1.562   2.391 -2.1381 -1.9397 -0.1004
 1547TIP3   OH226275   1.264   4.707   8.259  0.0687 -0.3118 -0.1141
 1547TIP3    H126276   1.293   4.729   8.171 -3.0354 -1.4408 -1.5576
 1547TIP3    H226277   1.301   4.620   8.276  2.6402  0.8553  0.7970
 1548TIP3   OH226278   2.950   5.358   0.766 -0.1210  0.5911 -0.2271
 1548TIP3    H126279   2.970   5.379   0.675  1.6279  1.1574  0.2373
 1548TIP3    H226280   2.877   5.414   0.789 -0.3601  0.6808 -1.1894
 1549TIP3   OH226281   3.783   0.423   2.726 -0.4038 -0.5307 -0.3695
 1549TIP3    H126282   3.710   0.461   2.775 -1.0783 -2.0862 -0.1224
 1549TIP3    H226283   3.857   0.428   2.786 -0.4378  0.4474 -0.3784
 1550TIP3   OH226284   5.448   5.483   1.682  0.0285 -0.4933 -0.4902
 1550TIP3    H126285   5.463   5.522   1.768 -1.8048 -0.1656 -0.2877
 1550TIP3    H226286   5.528   5.503   1.633  0.8457 -0.1371  0.9178
 1551TIP3   OH226287   2.954   4.315   2.204 -0.3078 -0.0981 -0.4638
 1551TIP3    H126288   2.894   4.383   2.172  0.7756  1.7149  1.1482
 1551TIP3    H226289   3.041   4.354   2.195  0.7359 -2.6536 -2.7163
 1552TIP3   OH226290   0.160   6.394   0.026  0.2064 -0.2327 -0.2861
 1552TIP3    H126291   0.153   6.484   0.058 -2.8936 -0.8661  1.1840
 1552TIP3    H226292   0.137   6.339   0.101 -1.4267 -2.0746 -2.0030
 1553TIP3   OH226293   3.395   3.138   3.165 -0.0072 -0.0115 -1.1628
 1553TIP3    H126294   3.317   3.123   3.219  1.2671 -0.5936  0.6322
 1553TIP3    H226295   3.376   3.218   3.117 -0.8745  1.1163  0.9176
 1554TIP3   OH226296   6.191   5.364   1.271 -0.4393  0.7117  0.3538
 1554TIP3    H126297   6.234   5.396   1.351 -0.3344  0.2351  0.4914
 1554TIP3    H226298   6.121   5.307   1.303 -0.5558  0.7177  0.1100
 1555TIP3   OH226299   5.730   5.900   0.198  0.4482  0.1343 -0.2501
 1555TIP3    H126300   5.744   5.819   0.246 -0.0323  0.8276  1.0940
 1555TIP3    H226301   5.705   5.871   0.110  0.2735 -1.1739  0.2071
 1556TIP3   OH226302   5.723   5.494   8.088 -0.6026 -0.2177 -0.1893
 1556TIP3    H126303   5.700   5.545   8.166 -1.4670  1.1105 -1.2716
 1556TIP3    H226304   5.785   5.550   8.040 -0.2644 -0.9155 -0.5833
 1557TIP3   OH226305   2.249   0.866   2.779 -0.5789  0.5276  0.2322
 1557TIP3    H126306   2.258   0.959   2.799 -1.6842  0.3630  1.6454
 1557TIP3    H226307   2.197   0.831   2.851  2.6622 -1.8686  1.6545
 1558TIP3   OH226308   2.663   5.474   2.766 -0.5274  0.1222  0.5766
 1558TIP3    H126309   2.594   5.511   2.821 -0.5249 -1.7987  1.9915
 1558TIP3    H226310   2.744   5.504   2.806 -0.5044 -1.9269  2.2544
 1559TIP3   OH226311   3.677   1.794   2.722 -0.2879 -0.2547  0.5881
 1559TIP3    H126312   3.661   1.887   2.739 -2.3918 -0.2684 -0.9530
 1559TIP3    H226313   3.620   1.748   2.783 -1.8306 -0.4274 -0.9220
 1560TIP3   OH226314   5.820   2.064   2.566 -0.5118 -0.1108 -0.0214
 1560TIP3    H126315   5.751   2.066   2.633 -0.3637  0.6559  0.1143
 1560TIP3    H226316   5.818   2.151   2.526  1.3402  0.4766  0.9923
 1561TIP3   OH226317   1.327   5.518   0.351 -0.1030  0.1297  0.4637
 1561TIP3    H126318   1.309   5.438   0.302 -1.7511  1.3220 -0.9829
 1561TIP3    H226319   1.311   5.494   0.442  0.0263 -1.3354  0.1241
 1562TIP3   OH226320   1.196   6.818   0.968 -0.1139  0.7706  0.7195
 1562TIP3    H126321   1.159   6.785   0.886 -1.6773  3.6614  0.1614
 1562TIP3    H226322   1.231   6.739   1.011 -0.6992 -1.0779 -1.9297
 1563TIP3   OH226323   6.068   3.859   2.662  0.4626  1.0851 -0.4957
 1563TIP3    H126324   5.988   3.909   2.674  1.3438  2.6747 -0.9673
 1563TIP3    H226325   6.095   3.834   2.750 -1.8678 -1.7483 -0.4445
 1564TIP3   OH226326   2.588   2.136   1.297  0.1241 -0.1649 -0.0317
 1564TIP3    H126327   2.550   2.057   1.334  0.4195  0.4870  1.7374
 1564TIP3    H226328   2.542   2.208   1.340  0.9321  0.6311 -0.4560
 1565TIP3   OH226329   6.086   2.052   8.170  0.7918 -0.3522  0.4244
 1565TIP3    H126330   6.117   2.022   8.085 -1.2520  1.4483 -1.0529
 1565TIP3    H226331   6.148   2.121   8.195  0.3130  0.4401 -0.5481
 1566TIP3   OH226332   4.474   2.413   2.031 -0.0190 -0.1906  0.2201
 1566TIP3    H126333   4.469   2.320   2.010 -1.0781 -0.3386  1.0052
 1566TIP3    H226334   4.470   2.416   2.127 -2.3475  0.7418  0.1558
 1567TIP3   OH226335   4.478   5.411   3.116 -0.1835  0.1213  0.4003
 1567TIP3    H126336   4.518   5.486   3.160 -0.4795 -0.5051  1.7561
 1567TIP3    H226337   4.396   5.397   3.162 -0.7938 -0.1891 -0.7455
 1568TIP3   OH226338   4.113   0.766   1.304 -0.3530 -0.2932 -1.0693
 1568TIP3    H126339   4.176   0.698   1.327  1.0489  0.3264 -2.8075
 1568TIP3    H226340   4.029   0.735   1.339  0.8450 -1.2497  1.1382
 1569TIP3   OH226341   0.126   6.356   7.554 -0.3252  0.8216 -0.6881
 1569TIP3    H126342   0.142   6.281   7.498 -1.7702 -0.5213  0.5967
 1569TIP3    H226343   0.031   6.357   7.566 -0.0305  0.2970  2.6637
 1570TIP3   OH226344   2.656   3.206   8.084  1.1410 -0.2062  0.0355
 1570TIP3    H126345   2.710   3.134   8.115  2.0940 -0.7295 -2.5721
 1570TIP3    H226346   2.573   3.196   8.131  2.6087 -0.4911  2.7624
 1571TIP3   OH226347   2.039   4.023   0.680  0.0289 -0.2111  0.1667
 1571TIP3    H126348   2.128   3.994   0.698  0.3347  0.5857 -0.0417
 1571TIP3    H226349   2.032   4.022   0.585  0.5788  1.8929  0.0525
 1572TIP3   OH226350   1.092   1.186   7.720  0.9417 -0.2865  0.2061
 1572TIP3    H126351   1.126   1.270   7.752 -0.1276  0.5222 -0.7124
 1572TIP3    H226352   1.013   1.171   7.771  0.0072  0.3078 -1.0087
 1573TIP3   OH226353   0.343   0.427   0.121 -0.4151  0.5764 -0.5184
 1573TIP3    H126354   0.365   0.469   0.204  0.6785  0.6452 -0.8335
 1573TIP3    H226355   0.352   0.333   0.138  1.1540  0.6380 -0.9142
 1574TIP3   OH226356   6.074   3.284   1.496  0.1639 -0.7702  0.3807
 1574TIP3    H126357   6.100   3.213   1.437 -1.2353  0.1967 -1.4841
 1574TIP3    H226358   6.027   3.346   1.441 -1.5527  0.0275  2.5861
 1575TIP3   OH226359   5.380   5.320   2.897 -0.6945 -0.5583 -0.3252
 1575TIP3    H126360   5.298   5.273   2.903 -1.0206 -0.3774 -2.5280
 1575TIP3    H226361   5.439   5.261   2.851 -0.8804  0.8005 -2.4498
 1576TIP3   OH226362   2.975   4.402   7.454  0.4887 -0.0873  0.5284
 1576TIP3    H126363   3.063   4.397   7.417  0.1134 -2.1764 -0.2349
 1576TIP3    H226364   2.933   4.321   7.425 -1.7105  0.8940  0.8391
 1577TIP3   OH226365   4.503   2.425   0.825  0.2464 -0.3428 -0.4084
 1577TIP3    H126366   4.449   2.490   0.872 -1.0295 -1.0958 -0.7790
 1577TIP3    H226367   4.504   2.349   0.883  0.0091 -0.7104 -0.8895
 1578TIP3   OH226368   0.583   1.817   2.146 -0.7721 -0.6803  0.3878
 1578TIP3    H126369   0.616   1.868   2.072 -0.6408  0.0152  0.9202
 1578TIP3    H226370   0.597   1.873   2.222 -0.5487 -1.5444  0.9944
 1579TIP3   OH226371   2.989   4.177   1.580 -0.4954  0.1834 -0.0306
 1579TIP3    H126372   3.060   4.193   1.642 -2.1822  2.5296  1.4713
 1579TIP3    H226373   2.993   4.252   1.520 -2.6912  1.3603  1.1784
 1580TIP3   OH226374   5.980   0.676   0.270 -0.3230  0.2126 -0.1035
 1580TIP3    H126375   5.969   0.581   0.270  0.3710  0.1274 -0.1866
 1580TIP3    H226376   6.058   0.692   0.217 -0.3436  0.8166  0.0346
 1581TIP3   OH226377   4.961   5.209   2.421  0.2373 -0.1086  0.2893
 1581TIP3    H126378   4.951   5.139   2.485 -1.6429 -1.3269 -1.2148
 1581TIP3    H226379   4.879   5.257   2.425  1.0836  1.3774  0.5271
 1582TIP3   OH226380   0.156   1.899   7.465 -0.0675  0.0714  0.1375
 1582TIP3    H126381   0.095   1.834   7.431  0.2889  0.0448 -0.4614
 1582TIP3    H226382   0.131   1.981   7.421  2.8431 -0.6654 -3.3972
 1583TIP3   OH226383   4.003   0.792   2.876  0.1158  0.5017 -0.1775
 1583TIP3    H126384   3.984   0.745   2.795 -0.0409 -0.7244  0.5491
 1583TIP3    H226385   4.067   0.859   2.850 -1.0709  1.1544 -1.5994
 1584TIP3   OH226386   0.375   4.054   0.884 -0.2285 -0.4877  0.2625
 1584TIP3    H126387   0.372   3.989   0.813 -2.1699  0.4103 -0.5640
 1584TIP3    H226388   0.456   4.102   0.868 -0.4941 -0.4750 -1.2232
 1585TIP3   OH226389   3.230   3.036   8.098 -0.5355  0.5388  0.0006
 1585TIP3    H126390   3.145   3.034   8.142 -1.0260  2.3588 -0.7776
 1585TIP3    H226391   3.267   3.121   8.121  1.4386 -0.5052  0.9156
 1586TIP3   OH226392   2.617   3.536   1.646  0.2493 -0.1029 -0.3198
 1586TIP3    H126393   2.534   3.561   1.607  0.5616 -1.2155 -1.8019
 1586TIP3    H226394   2.615   3.574   1.734 -1.8282 -0.1433 -0.2974
 1587TIP3   OH226395   4.840   5.739   7.955  0.1365  0.7527 -0.2515
 1587TIP3    H126396   4.877   5.655   7.981 -1.9369  0.1317  0.9895
 1587TIP3    H226397   4.746   5.729   7.971 -0.4475  2.6109 -2.0642
 1588TIP3   OH226398   6.703   5.909   0.738  0.2045  0.1438  0.4126
 1588TIP3    H126399   6.724   5.835   0.680  1.7042  0.2635  0.7790
 1588TIP3    H226400   6.760   5.898   0.813  1.2304  2.2384  0.0104
 1589TIP3   OH226401   2.417   4.259   0.578  0.6264  0.4808 -0.1711
 1589TIP3    H126402   2.474   4.277   0.503  0.5382  0.9856 -0.1151
 1589TIP3    H226403   2.422   4.337   0.632  0.5398  0.1890  0.2580
 1590TIP3   OH226404   1.249   2.671   0.749  0.0231  0.4878 -0.3616
 1590TIP3    H126405   1.278   2.584   0.778 -0.6708  0.3599 -0.0164
 1590TIP3    H226406   1.325   2.728   0.762 -0.2627  0.4537  1.8032
 1591TIP3   OH226407   3.114   4.398   1.412 -0.0693  0.2356 -0.0973
 1591TIP3    H126408   3.122   4.333   1.342 -0.7931 -0.2229  0.2278
 1591TIP3    H226409   3.180   4.464   1.391  0.2717 -0.2995 -0.7665
 1592TIP3   OH226410   1.735   5.858   7.636 -0.0806  0.1878  0.2119
 1592TIP3    H126411   1.823   5.821   7.625 -0.6686 -1.5901  1.2068
 1592TIP3    H226412   1.678   5.801   7.585 -1.0940 -0.8095  2.3006
 1593TIP3   OH226413   3.772   0.960   1.452 -0.1976 -0.3003  0.3210
 1593TIP3    H126414   3.790   0.903   1.378  0.4537 -1.6321  1.4493
 1593TIP3    H226415   3.855   1.003   1.470 -0.8199  1.5015 -0.8718
 1594TIP3   OH226416   0.063   6.160   8.244 -0.4699 -0.1710 -0.1139
 1594TIP3    H126417   0.080   6.088   8.183  1.3021  2.6383 -3.3095
 1594TIP3    H226418   0.004   6.218   8.197  0.9090  2.1108  0.7915
 1595TIP3   OH226419   5.903   1.763   2.026  0.6002 -0.3093 -0.1199
 1595TIP3    H126420   5.908   1.800   2.114  0.0856 -1.2816  0.3480
 1595TIP3    H226421   5.884   1.837   1.969 -0.9670  0.0807  0.8441
 1596TIP3   OH226422   3.905   6.825   7.259 -0.0510 -0.4961 -0.3234
 1596TIP3    H126423   3.817   6.797   7.283 -0.7924 -0.3012 -2.5413
 1596TIP3    H226424   3.898   6.920   7.250  0.4979 -0.4306 -0.0557
 1597TIP3   OH226425   5.455   5.167   8.395  0.1181  0.5384 -0.3096
 1597TIP3    H126426   5.403   5.106   8.448 -1.4388  1.1282 -1.1000
 1597TIP3    H226427   5.545   5.143   8.414 -0.4310 -1.5613 -0.0715
 1598TIP3   OH226428   3.182   3.827   2.979 -0.4145 -0.1379  0.0432
 1598TIP3    H126429   3.203   3.915   3.012 -2.1638  0.1017  0.6048
 1598TIP3    H226430   3.203   3.768   3.051  0.8118 -0.2168 -0.3526
 1599TIP3   OH226431   6.836   0.977   1.595  0.3060  0.5106  0.1035
 1599TIP3    H126432   6.884   0.909   1.643 -0.1067 -1.3356 -1.9260
 1599TIP3    H226433   6.748   0.941   1.584  0.3688  0.8475 -1.9306
 1600TIP3   OH226434   1.309   3.069   2.038 -0.2270  0.2168 -0.2337
 1600TIP3    H126435   1.246   3.008   2.075  0.2901 -0.5081 -0.5218
 1600TIP3    H226436   1.335   3.030   1.955 -0.0520  0.9442 -0.5303
 1601TIP3   OH226437   2.177   5.483   7.694 -0.1810 -0.2059  0.2387
 1601TIP3    H126438   2.239   5.449   7.759  0.0808  0.6181  0.4344
 1601TIP3    H226439   2.099   5.428   7.704 -0.1422 -0.0997  1.2527
 1602TIP3   OH226440   1.742   1.682   7.915  0.1844  0.5991  0.0658
 1602TIP3    H126441   1.688   1.754   7.948 -0.2625 -0.4995  1.8914
 1602TIP3    H226442   1.788   1.719   7.839 -1.5306  2.1869 -0.2797
 1603TIP3   OH226443   3.888   3.450   8.204  0.2357 -0.5246 -0.3915
 1603TIP3    H126444   3.971   3.401   8.208  1.5233  1.3775 -1.7504
 1603TIP3    H226445   3.868   3.470   8.295  1.0895 -1.2998 -0.0085
 1604TIP3   OH226446   6.643   3.540   2.034  0.3098 -0.1268 -0.5508
 1604TIP3    H126447   6.716   3.490   1.999 -0.2656  0.2414 -2.3485
 1604TIP3    H226448   6.565   3.490   2.009 -0.0986 -1.3187  2.6142
 1605TIP3   OH226449   3.599   2.525   1.238 -1.1314 -0.2647 -0.1844
 1605TIP3    H126450   3.527   2.477   1.196 -0.1555 -1.3198 -0.7270
 1605TIP3    H226451   3.678   2.482   1.205 -0.2302  1.1415  0.0628
 1606TIP3   OH226452   5.447   4.759   2.546 -0.5081  0.9842  0.2638
 1606TIP3    H126453   5.496   4.817   2.604  2.0700  0.4181 -1.2112
 1606TIP3    H226454   5.438   4.809   2.465  1.5284 -0.4628 -0.9461
 1607TIP3   OH226455   1.967   1.074   0.828 -0.6987  0.0997 -0.3692
 1607TIP3    H126456   1.932   1.149   0.877  0.0055  1.2718 -1.5890
 1607TIP3    H226457   1.970   1.104   0.737  1.9318 -0.5015 -0.5505
 1608TIP3   OH226458   5.019   0.351   2.209 -0.4936  0.1523 -0.5061
 1608TIP3    H126459   5.097   0.311   2.172 -0.8477 -0.2708 -0.8044
 1608TIP3    H226460   5.020   0.326   2.302  1.2974  2.5955  0.2592
 1609TIP3   OH226461   2.283   3.926   0.782  0.1469 -0.0519  0.4055
 1609TIP3    H126462   2.334   3.962   0.855  1.5161  0.9001 -0.9381
 1609TIP3    H226463   2.261   3.837   0.809  0.5350  0.2997  1.9928
 1610TIP3   OH226464   1.270   3.089   7.558 -0.4150 -0.3838 -0.4219
 1610TIP3    H126465   1.188   3.051   7.589 -0.7876 -0.3839 -1.3579
 1610TIP3    H226466   1.279   3.056   7.469 -0.7530  1.6425 -1.2767
 1611TIP3   OH226467   1.836   5.561   7.440 -0.1184 -0.5587  0.5474
 1611TIP3    H126468   1.865   5.637   7.490 -1.3324 -1.2844  2.4445
 1611TIP3    H226469   1.903   5.495   7.456 -0.3527 -0.6937  0.9779
 1612TIP3   OH226470   6.727   2.960   2.003  0.0256 -0.1885  0.4059
 1612TIP3    H126471   6.774   3.006   1.934  1.5042  0.4710  1.8010
 1612TIP3    H226472   6.784   2.965   2.079 -1.1941 -1.5984  1.4795
 1613TIP3   OH226473   2.532   1.807   7.885  0.2551  0.2280  0.0316
 1613TIP3    H126474   2.565   1.825   7.797  1.9457  1.3042  0.8408
 1613TIP3    H226475   2.604   1.762   7.929 -1.0369 -1.4836  0.5169
 1614TIP3   OH226476   0.646   2.652   1.048  0.4109  0.0398 -0.4127
 1614TIP3    H126477   0.593   2.677   0.973 -0.4109 -0.9090 -0.1801
 1614TIP3    H226478   0.607   2.698   1.122  0.0528 -0.4515 -0.2854
 1615TIP3   OH226479   0.894   3.026   2.814  0.6231  0.0268 -0.1661
 1615TIP3    H126480   0.828   2.965   2.782  1.4466 -0.7223 -0.4633
 1615TIP3    H226481   0.847   3.109   2.825 -0.5782 -0.7230  0.5261
 1616TIP3   OH226482   2.462   2.717   1.657  0.5157 -0.0678  0.2497
 1616TIP3    H126483   2.467   2.795   1.711  0.2981  0.4016 -0.4016
 1616TIP3    H226484   2.417   2.652   1.712  0.1614  0.4485  0.5739
 1617TIP3   OH226485   2.614   1.092   0.800  0.2590 -0.0640 -0.1889
 1617TIP3    H126486   2.620   1.072   0.707 -1.2883  0.6656 -0.4791
 1617TIP3    H226487   2.658   1.176   0.810 -0.4939  0.3735 -0.4694
 1618TIP3   OH226488   6.032   5.228   3.203  0.2407 -0.1632  0.6801
 1618TIP3    H126489   5.954   5.285   3.205 -0.6731 -1.3045 -0.7042
 1618TIP3    H226490   6.081   5.257   3.126  0.8503  0.0909  1.1536
 1619TIP3   OH226491   3.038   3.548   8.507  0.4852  0.6691  0.8244
 1619TIP3    H126492   3.046   3.601   8.428 -1.3069 -3.0970 -2.1711
 1619TIP3    H226493   3.104   3.479   8.497 -1.8759 -1.7439  0.8556
 1620TIP3   OH226494   6.654   5.782   7.858 -0.1568  0.0228 -0.8072
 1620TIP3    H126495   6.708   5.743   7.789  0.3780 -1.5547  0.4302
 1620TIP3    H226496   6.577   5.724   7.864 -0.3764  0.3521 -0.3428
 1621TIP3   OH226497   4.697   2.672   0.451 -0.2477 -0.2560 -0.3067
 1621TIP3    H126498   4.622   2.623   0.416 -1.4654  1.2782  0.0387
 1621TIP3    H226499   4.693   2.757   0.407  1.5667 -0.2740 -0.5941
 1622TIP3   OH226500   2.562   0.132   2.307  0.0044 -0.3184  0.4193
 1622TIP3    H126501   2.574   0.188   2.230 -1.6004 -0.3936  0.0695
 1622TIP3    H226502   2.647   0.131   2.350  0.4477  1.2414 -0.3455
 1623TIP3   OH226503   5.701   6.680   8.239  0.0475 -0.4467  0.0994
 1623TIP3    H126504   5.738   6.753   8.189  2.7082  0.6766  3.2536
 1623TIP3    H226505   5.758   6.606   8.220 -0.4752 -0.7254 -0.4013
 1624TIP3   OH226506   2.166   3.639   1.199  0.4455  0.2389  0.0329
 1624TIP3    H126507   2.261   3.634   1.189  0.4105 -1.2677  0.2251
 1624TIP3    H226508   2.132   3.579   1.133 -0.4322  1.4836 -0.6851
 1625TIP3   OH226509   6.240   6.199   0.542  0.1333 -0.3725 -0.2699
 1625TIP3    H126510   6.214   6.283   0.505 -0.9312 -1.0752 -1.1655
 1625TIP3    H226511   6.234   6.212   0.637  0.8727  0.8245 -0.3750
 1626TIP3   OH226512   0.710   3.435   6.962  0.4291 -0.1556 -1.0451
 1626TIP3    H126513   0.784   3.381   6.988  0.2676 -0.1307 -0.5358
 1626TIP3    H226514   0.750   3.519   6.937  0.5872 -0.2070 -0.9669
 1627TIP3   OH226515   6.849   6.124   7.568  0.2972 -0.0272  0.4265
 1627TIP3    H126516   6.855   6.034   7.536  1.0776  0.1536  0.0213
 1627TIP3    H226517   6.767   6.157   7.531  0.0618 -0.5386  0.4872
 1628TIP3   OH226518   6.733   6.338   0.280 -0.5833  0.1343 -0.4295
 1628TIP3    H126519   6.713   6.404   0.214  0.2604 -0.0888 -0.9136
 1628TIP3    H226520   6.828   6.327   0.276 -0.5973 -0.3863  0.3439
 1629TIP3   OH226521   1.654   0.142   7.913 -0.5982  0.5924 -0.6885
 1629TIP3    H126522   1.742   0.172   7.888  0.3256 -1.0585  0.3890
 1629TIP3    H226523   1.616   0.217   7.958  1.3689  0.5241  1.2915
 1630TIP3   OH226524   0.042   2.826   0.087  0.0773  0.1946 -0.2320
 1630TIP3    H126525  -0.017   2.767   0.135  0.9734  0.3041  1.0757
 1630TIP3    H226526  -0.016   2.879   0.032 -0.9908 -0.0775  0.5941
 1631TIP3   OH226527   2.931   3.877   0.562 -0.1112  0.1115 -0.0225
 1631TIP3    H126528   2.862   3.831   0.515  1.0826  0.1600 -1.9169
 1631TIP3    H226529   3.012   3.838   0.530  0.8055  0.7401  1.3981
 1632TIP3   OH226530   3.100   6.654   0.967 -0.3082  0.1910 -0.2961
 1632TIP3    H126531   3.101   6.724   0.901  1.7378 -0.7607 -1.3784
 1632TIP3    H226532   3.145   6.581   0.925  3.4254  0.3212  2.8972
 1633TIP3   OH226533   3.873   6.174   0.641  0.3337 -0.3159 -0.3216
 1633TIP3    H126534   3.946   6.182   0.702  0.7963  0.0711 -0.9104
 1633TIP3    H226535   3.896   6.232   0.568 -1.0992  0.7094 -0.0100
 1634TIP3   OH226536   2.522   5.614   0.188 -0.8357  0.0629  0.8609
 1634TIP3    H126537   2.516   5.575   0.101 -0.2728  0.4257  0.6521
 1634TIP3    H226538   2.456   5.683   0.188  0.8409  1.8039 -0.2309
 1635TIP3   OH226539   6.659   0.490   1.519  0.2528  0.1687  0.5265
 1635TIP3    H126540   6.737   0.498   1.574 -0.5142  0.9441  1.5512
 1635TIP3    H226541   6.588   0.473   1.580 -0.4880  0.1493 -0.3182
 1636TIP3   OH226542   5.373   1.310   0.813 -0.6362  0.5981  0.3358
 1636TIP3    H126543   5.443   1.360   0.771 -1.4950  2.6410  1.2053
 1636TIP3    H226544   5.417   1.263   0.884  0.2662 -0.2751 -0.7680
 1637TIP3   OH226545   4.467   1.259   0.902  0.2602 -0.1504 -0.5128
 1637TIP3    H126546   4.413   1.244   0.824 -0.1819 -0.2030 -0.2005
 1637TIP3    H226547   4.438   1.192   0.963 -0.4090  0.7838  0.2236
 1638TIP3   OH226548   4.903   0.969   1.918  0.4486  0.6488 -0.3976
 1638TIP3    H126549   4.856   0.897   1.960  2.2188 -0.6545 -0.5375
 1638TIP3    H226550   4.907   0.944   1.825 -1.1876  2.2469 -0.9670
 1639TIP3   OH226551   4.892   5.636   0.050  0.3461 -0.6176  0.1797
 1639TIP3    H126552   4.917   5.578  -0.022 -4.1487 -0.7552 -1.6188
 1639TIP3    H226553   4.887   5.578   0.126  0.6967 -1.4962 -0.4466
 1640TIP3   OH226554   6.371   1.032   1.686 -0.4584 -0.0231  0.0015
 1640TIP3    H126555   6.400   1.086   1.612  1.5404 -1.5376 -0.3922
 1640TIP3    H226556   6.382   1.089   1.762  0.5578  0.5129 -0.5209
 1641TIP3   OH226557   0.246   4.093   2.492  0.5792 -0.5681  0.1912
 1641TIP3    H126558   0.208   4.130   2.572 -1.6847  0.0184 -1.0877
 1641TIP3    H226559   0.229   4.159   2.424  0.8747 -1.8107 -1.1340
 1642TIP3   OH226560   5.931   1.876   2.297  0.4848 -0.2103 -0.4810
 1642TIP3    H126561   5.916   1.967   2.323 -0.4304 -0.2951 -0.6712
 1642TIP3    H226562   5.980   1.838   2.369  0.6960  0.3815 -0.3069
 1643TIP3   OH226563   6.195   5.960   0.398  0.0881 -0.4955 -0.0950
 1643TIP3    H126564   6.270   5.950   0.340 -0.0543 -1.0481 -0.1891
 1643TIP3    H226565   6.197   6.052   0.424  1.5175 -0.7595  0.8775
 1644TIP3   OH226566   0.251   5.545   1.680  0.0207  0.2993  0.0180
 1644TIP3    H126567   0.240   5.544   1.776  0.3433 -1.1831  0.0607
 1644TIP3    H226568   0.342   5.518   1.666 -0.6103 -1.5919 -0.7400
 1645TIP3   OH226569   4.007   4.665   0.951  0.2049 -0.1939  0.3192
 1645TIP3    H126570   4.011   4.717   0.870 -0.5578 -2.0629 -0.9861
 1645TIP3    H226571   4.099   4.646   0.970  0.3396 -0.9189 -0.9379
 1646TIP3   OH226572   4.589   3.577   8.639  0.2861 -0.3976 -0.2805
 1646TIP3    H126573   4.670   3.576   8.588  0.0919  0.9591 -0.6392
 1646TIP3    H226574   4.551   3.490   8.626  0.1689 -0.0458 -2.5607
 1647TIP3   OH226575   6.041   0.520   3.134 -0.0294  0.2930 -0.3132
 1647TIP3    H126576   6.012   0.460   3.065  1.7162  1.2792 -1.9899
 1647TIP3    H226577   6.043   0.606   3.093  2.3131  0.7263  0.5290
 1648TIP3   OH226578   3.225   6.508   2.520 -0.2439 -0.1307  0.3661
 1648TIP3    H126579   3.275   6.495   2.439 -0.1743 -0.3363  0.4407
 1648TIP3    H226580   3.197   6.420   2.545 -0.0872 -0.0940  0.6795
 1649TIP3   OH226581   1.009   2.087   1.003  0.7779 -0.1203  0.2348
 1649TIP3    H126582   1.082   2.032   0.978  0.3169 -0.5978 -0.0842
 1649TIP3    H226583   1.048   2.159   1.052  1.5749  0.2113 -0.8592
 1650TIP3   OH226584   1.596   4.570   1.980  0.3341  0.4590  0.3214
 1650TIP3    H126585   1.570   4.616   2.060  0.4165 -0.1702  0.7150
 1650TIP3    H226586   1.638   4.490   2.011 -0.7442 -0.4034 -0.3639
 1651TIP3   OH226587   2.844   2.964   8.606  0.3031  0.3062  0.3664
 1651TIP3    H126588   2.782   2.918   8.550  2.2282 -0.7719 -1.0269
 1651TIP3    H226589   2.790   3.013   8.667 -1.9319  0.9993 -1.9820
 1652TIP3   OH226590   2.906   4.748   8.248  0.2447  0.1632 -0.0945
 1652TIP3    H126591   2.939   4.796   8.173  0.8529 -1.0729 -0.6468
 1652TIP3    H226592   2.829   4.797   8.276 -0.4943  0.2123 -2.0531
 1653TIP3   OH226593   3.055   4.401   1.038  0.1704  0.2070  0.0594
 1653TIP3    H126594   2.973   4.351   1.031  0.4555 -0.1561 -0.7488
 1653TIP3    H226595   3.027   4.488   1.068 -0.4074 -0.1997  0.7358
 1654TIP3   OH226596   4.820   2.224   1.539 -0.1598  0.5230 -0.3006
 1654TIP3    H126597   4.839   2.316   1.517  2.6439 -0.0657 -0.6257
 1654TIP3    H226598   4.894   2.175   1.504  0.3733 -1.4388  3.1696
 1655TIP3   OH226599   2.623   3.903   7.157  0.2311 -0.5039 -0.0168
 1655TIP3    H126600   2.607   3.814   7.125  0.2003 -0.1594 -1.0066
 1655TIP3    H226601   2.709   3.899   7.199 -0.4284 -1.3369  1.3123
 1656TIP3   OH226602   6.638   1.545   8.333 -0.3042 -0.0949  0.1972
 1656TIP3    H126603   6.630   1.452   8.310 -0.2819 -0.2620  0.8397
 1656TIP3    H226604   6.556   1.566   8.377 -0.3829  0.2442 -0.1020
 1657TIP3   OH226605   1.212   6.832   2.206 -0.4044  0.1682 -0.3400
 1657TIP3    H126606   1.151   6.826   2.133 -0.4485  0.0429 -0.2928
 1657TIP3    H226607   1.193   6.916   2.246 -1.9681 -0.7443  0.9273
 1658TIP3   OH226608   0.873   6.578   1.564  0.6348  0.6823  0.1897
 1658TIP3    H126609   0.892   6.568   1.657  1.1505  0.1482  0.0333
 1658TIP3    H226610   0.898   6.494   1.525  0.3014  0.8524 -0.4135
 1659TIP3   OH226611   4.477   3.628   1.777 -0.0163  0.0980 -0.2886
 1659TIP3    H126612   4.423   3.551   1.790 -0.1419  0.0624 -0.9986
 1659TIP3    H226613   4.527   3.610   1.698 -0.0333  0.7370 -0.4536
 1660TIP3   OH226614   0.181   6.396   0.675 -0.4107  0.1224  0.1280
 1660TIP3    H126615   0.196   6.302   0.666  0.6802  0.2086  0.8025
 1660TIP3    H226616   0.235   6.421   0.750 -2.8465  0.8009  1.7748
 1661TIP3   OH226617   4.106   2.929   8.380 -0.0542  0.2110 -0.5403
 1661TIP3    H126618   4.045   2.999   8.403  0.2435  0.6139 -0.9540
 1661TIP3    H226619   4.192   2.973   8.375  0.1567 -0.2102 -0.6633
 1662TIP3   OH226620   5.577   1.933   7.939 -0.4697 -0.0254 -0.1148
 1662TIP3    H126621   5.672   1.932   7.941 -0.4091  0.2875  3.0877
 1662TIP3    H226622   5.554   2.025   7.926 -0.4127 -0.2064 -1.7249
 1663TIP3   OH226623   3.710   4.209   0.049  0.1055 -0.0763  0.6206
 1663TIP3    H126624   3.625   4.163   0.049 -0.0781  0.2638  0.4485
 1663TIP3    H226625   3.733   4.216   0.142  1.1320 -2.3484  0.6187
 1664TIP3   OH226626   4.532   5.405   7.966  0.6097 -0.5674 -0.7303
 1664TIP3    H126627   4.569   5.320   7.943  1.2244 -0.0160 -1.8406
 1664TIP3    H226628   4.488   5.434   7.887  1.0062  0.4541 -0.5865
 1665TIP3   OH226629   0.052   2.846   1.675 -0.4415  0.2622 -0.1471
 1665TIP3    H126630   0.006   2.763   1.683 -0.1286  0.1823  0.9638
 1665TIP3    H226631   0.120   2.830   1.609  1.0475 -1.0385  1.6200
 1666TIP3   OH226632   3.364   3.647   2.779 -0.6969  0.0440 -0.2768
 1666TIP3    H126633   3.430   3.716   2.784  0.6640 -1.2945  1.5414
 1666TIP3    H226634   3.286   3.686   2.819  0.0277  0.5915  0.6638
 1667TIP3   OH226635   3.497   5.144   0.731 -0.5153 -0.3417 -0.6037
 1667TIP3    H126636   3.550   5.158   0.810 -0.0303  0.0429 -0.9884
 1667TIP3    H226637   3.443   5.068   0.751 -0.8604  0.1328  0.3357
 1668TIP3   OH226638   2.883   2.799   2.577  0.1939  0.5624 -0.1563
 1668TIP3    H126639   2.797   2.792   2.535 -0.5651  1.1430  1.2009
 1668TIP3    H226640   2.899   2.894   2.581  0.0472  0.5511  1.1753
 1669TIP3   OH226641   1.595   1.955   0.476  0.1371  0.1481 -0.1731
 1669TIP3    H126642   1.678   1.990   0.509  0.2366 -1.1535  1.0665
 1669TIP3    H226643   1.612   1.934   0.384  0.6104  1.6019 -0.4378
 1670TIP3   OH226644   0.946   4.049   2.719  0.6572  0.1554 -0.9557
 1670TIP3    H126645   1.025   4.060   2.666  1.5977 -0.7450  0.1977
 1670TIP3    H226646   0.973   4.073   2.808 -0.6310  0.7288 -0.6913
 1671TIP3   OH226647   3.599   6.469   0.557 -0.3174  0.3922  0.3236
 1671TIP3    H126648   3.672   6.527   0.580  0.5927 -0.7340  0.3292
 1671TIP3    H226649   3.597   6.404   0.627 -1.0886  0.1880  0.1208
 1672TIP3   OH226650   3.088   6.730   8.489  0.5277  0.0186 -0.1593
 1672TIP3    H126651   3.036   6.760   8.414  0.7606 -2.4042 -1.3568
 1672TIP3    H226652   3.031   6.669   8.535  0.3716  1.4959  1.7616
 1673TIP3   OH226653   6.068   4.704   1.165 -0.7481  0.1765  0.1855
 1673TIP3    H126654   6.027   4.691   1.250 -2.4310  0.9293 -0.4718
 1673TIP3    H226655   6.153   4.661   1.172 -0.1088  1.7044  2.8105
 1674TIP3   OH226656   1.923   2.946   0.491  0.2573  0.1479 -0.1545
 1674TIP3    H126657   1.965   3.003   0.555 -1.2705  1.4223 -0.2435
 1674TIP3    H226658   1.954   2.977   0.406 -0.1546  0.5150 -0.1748
 1675TIP3   OH226659   0.290   1.809   0.293  0.0096 -0.4533  0.3739
 1675TIP3    H126660   0.336   1.796   0.211 -0.5795  1.5746 -0.3298
 1675TIP3    H226661   0.355   1.849   0.352  0.3069 -1.5024  0.7813
 1676TIP3   OH226662   4.049   0.667   2.046  0.0104 -0.3052  0.0774
 1676TIP3    H126663   4.037   0.572   2.054  1.0785 -0.7648 -2.5598
 1676TIP3    H226664   3.964   0.704   2.067 -0.7929 -1.9667 -0.0866
 1677TIP3   OH226665   2.110   4.876   7.954 -0.0471  0.4561  0.0124
 1677TIP3    H126666   2.174   4.946   7.940 -0.9023  1.2654  0.0769
 1677TIP3    H226667   2.036   4.919   7.997 -1.2353 -0.1794 -1.3445
 1678TIP3   OH226668   0.791   2.764   8.011  0.7785 -0.3078  0.5806
 1678TIP3    H126669   0.816   2.747   7.920  1.5178  2.1822  0.2326
 1678TIP3    H226670   0.704   2.803   8.005  1.3408  1.0614  0.7455
 1679TIP3   OH226671   5.756   6.592   0.256 -0.5851 -0.4988  0.7111
 1679TIP3    H126672   5.793   6.680   0.267 -1.0831 -0.4282  1.9356
 1679TIP3    H226673   5.830   6.533   0.272  0.7763 -0.3902 -3.7869
 1680TIP3   OH226674   1.568   5.864   1.875  0.1031 -0.0211  0.5836
 1680TIP3    H126675   1.582   5.867   1.780 -0.3719  0.6422  0.5270
 1680TIP3    H226676   1.521   5.782   1.890 -0.4818  0.2305  0.1480
 1681TIP3   OH226677   0.751   0.860   7.698 -0.2869 -0.7065 -0.3428
 1681TIP3    H126678   0.696   0.934   7.674  0.6678  0.1756  0.1341
 1681TIP3    H226679   0.708   0.821   7.775 -0.1806  0.0575  0.1082
 1682TIP3   OH226680   1.993   2.439   7.116 -0.7992  0.0567  0.4018
 1682TIP3    H126681   1.914   2.459   7.166 -0.0402  1.9233  0.9565
 1682TIP3    H226682   1.967   2.450   7.025 -1.3667 -0.0719  0.5457
 1683TIP3   OH226683   0.379   1.149   7.815 -0.1765 -0.2132 -0.0484
 1683TIP3    H126684   0.309   1.178   7.756 -1.1658 -1.8184  0.2517
 1683TIP3    H226685   0.383   1.216   7.883 -0.9590  0.2508 -0.4455
 1684TIP3   OH226686   1.943   3.747   0.677 -0.2855 -0.1226  0.1564
 1684TIP3    H126687   1.861   3.730   0.724 -0.8746 -1.2239 -1.1947
 1684TIP3    H226688   1.925   3.824   0.624 -0.3995 -0.2910 -0.0481
 1685TIP3   OH226689   6.785   1.524   2.140  0.1929 -0.6733 -0.3218
 1685TIP3    H126690   6.769   1.597   2.201 -0.9964 -0.1654 -1.1913
 1685TIP3    H226691   6.794   1.447   2.196  0.4468 -0.0138  0.5640
 1686TIP3   OH226692   3.654   3.433   2.312  0.0804 -0.6842 -0.0680
 1686TIP3    H126693   3.562   3.439   2.289  0.2320 -1.5810 -0.9713
 1686TIP3    H226694   3.685   3.524   2.314 -0.6090 -0.4315 -0.6254
 1687TIP3   OH226695   5.660   2.488   0.892  0.5533 -0.5053  0.4005
 1687TIP3    H126696   5.688   2.397   0.880  3.0860  0.2241  0.1996
 1687TIP3    H226697   5.667   2.503   0.986 -1.0793 -0.8264  0.6047
 1688TIP3   OH226698   4.983   6.004   8.060 -0.7181  0.3591 -0.1223
 1688TIP3    H126699   4.956   5.912   8.060 -0.7392  0.3643  0.2051
 1688TIP3    H226700   5.043   6.012   7.986 -0.3430 -0.0298  0.1345
 1689TIP3   OH226701   0.730   0.731   7.947 -0.4760  0.5000 -0.9108
 1689TIP3    H126702   0.710   0.644   7.912  0.9257 -0.9108  1.4859
 1689TIP3    H226703   0.806   0.717   8.004 -0.0666  3.3663 -0.6011
 1690TIP3   OH226704   3.730   4.258   1.318 -0.3368 -0.1858 -0.2525
 1690TIP3    H126705   3.674   4.192   1.277 -0.0030  0.0549 -1.1002
 1690TIP3    H226706   3.742   4.325   1.251 -0.0106  0.3517  0.3305
 1691TIP3   OH226707   6.209   1.958   7.899  0.8596  0.0914 -0.2919
 1691TIP3    H126708   6.296   1.976   7.865  0.5305 -0.1215 -1.2822
 1691TIP3    H226709   6.150   2.008   7.841  0.2980 -0.0641  0.1313
 1692TIP3   OH226710   1.323   1.035   6.960 -0.0723  0.6712  0.0433
 1692TIP3    H126711   1.405   0.991   6.940  0.2205  1.2165  0.0138
 1692TIP3    H226712   1.347   1.101   7.026 -0.6200  0.3548  0.5696
 1693TIP3   OH226713   0.457   5.025   2.853  0.0367  0.2162  0.1077
 1693TIP3    H126714   0.385   5.045   2.912  0.1889  0.6596  0.1523
 1693TIP3    H226715   0.433   4.942   2.812 -1.3633  1.2283 -1.2272
 1694TIP3   OH226716   1.876   1.832   0.438 -0.1734 -0.9221 -0.1785
 1694TIP3    H126717   1.883   1.907   0.379  0.5187 -1.6835 -1.1098
 1694TIP3    H226718   1.869   1.870   0.526 -0.6737  0.2282 -0.6955
 1695TIP3   OH226719   0.067   4.718   2.430  0.0522  0.9476 -0.2811
 1695TIP3    H126720   0.142   4.727   2.489 -1.9251 -1.5556  2.9659
 1695TIP3    H226721   0.021   4.802   2.438  1.8435  2.1315 -1.5341
 1696TIP3   OH226722   0.474   3.650   0.794  0.0881  0.1684 -0.3542
 1696TIP3    H126723   0.443   3.573   0.843 -1.0892  0.7001 -0.2155
 1696TIP3    H226724   0.567   3.633   0.779  0.1468 -0.6845  0.7949
 1697TIP3   OH226725   0.215   4.228   8.153 -0.5049  0.0647 -0.1223
 1697TIP3    H126726   0.223   4.301   8.092 -0.8212  1.5070  1.5118
 1697TIP3    H226727   0.249   4.261   8.236 -1.4396 -1.3595  0.8770
 1698TIP3   OH226728   3.269   6.562   8.163 -0.2349  0.5474 -0.3479
 1698TIP3    H126729   3.290   6.637   8.107  0.5589  0.1946 -0.5271
 1698TIP3    H226730   3.177   6.543   8.142  0.2896 -0.1180 -2.1958
 1699TIP3   OH226731   5.569   5.021   2.143 -0.0153  0.2800 -0.2245
 1699TIP3    H126732   5.638   5.086   2.152  2.0478 -2.0140  2.3982
 1699TIP3    H226733   5.605   4.957   2.081 -0.2282 -0.3949  0.3374
 1700TIP3   OH226734   4.064   2.988   7.223 -0.6547  0.1986 -0.0841
 1700TIP3    H126735   4.021   2.905   7.239 -1.1598  0.3694 -0.5258
 1700TIP3    H226736   4.114   3.005   7.303 -0.9149 -0.2997  0.1890
 1701TIP3   OH226737   0.108   5.750   0.588  0.2205  0.1693 -0.0650
 1701TIP3    H126738   0.093   5.780   0.499 -0.1987 -1.5015 -0.5866
 1701TIP3    H226739   0.039   5.685   0.603  0.6249  0.0283  1.2828
 1702TIP3   OH226740   1.524   5.747   7.484  0.1908  0.0888 -0.0334
 1702TIP3    H126741   1.515   5.826   7.430  1.5722  0.2689 -0.0244
 1702TIP3    H226742   1.442   5.743   7.534 -2.0490 -1.1390 -3.4541
 1703TIP3   OH226743   5.522   3.906   0.599 -0.0188  0.0226  0.4352
 1703TIP3    H126744   5.472   3.980   0.565 -0.4629 -0.5361 -0.1430
 1703TIP3    H226745   5.456   3.843   0.627  0.3598 -0.3408  0.5268
 1704TIP3   OH226746   5.336   4.031   1.825  0.0399  0.1245  0.3192
 1704TIP3    H126747   5.367   4.097   1.763  0.7366  0.1734  0.7160
 1704TIP3    H226748   5.366   4.061   1.910  0.0978 -0.5489  0.5406
 1705TIP3   OH226749   2.370   2.736   2.159  0.0318  0.3141 -0.4989
 1705TIP3    H126750   2.371   2.773   2.071 -2.6377  2.1820  0.1142
 1705TIP3    H226751   2.299   2.672   2.157 -1.7197  2.0894  0.7978
 1706TIP3   OH226752   1.162   1.575   0.417  0.4934 -0.0690  0.1738
 1706TIP3    H126753   1.111   1.540   0.490 -0.7040  0.0544 -0.5700
 1706TIP3    H226754   1.186   1.663   0.445  1.1316 -0.4652  0.9189
 1707TIP3   OH226755   5.201   0.413   1.453 -0.4511 -0.2726  0.4335
 1707TIP3    H126756   5.225   0.344   1.515  5.4726  0.3847 -0.5365
 1707TIP3    H226757   5.199   0.368   1.368  2.5356  0.3132 -0.0791
 1708TIP3   OH226758   5.193   2.370   1.158 -0.1615 -0.0449 -0.1191
 1708TIP3    H126759   5.146   2.378   1.074 -0.6473  0.0112  0.1567
 1708TIP3    H226760   5.285   2.360   1.132 -0.5010 -2.0383 -0.7359
 1709TIP3   OH226761   5.898   4.566   8.160  0.1825  0.1110  0.8706
 1709TIP3    H126762   5.982   4.605   8.135 -0.0265  0.6807  1.0640
 1709TIP3    H226763   5.897   4.482   8.114  0.9236  0.0350  0.9780
 1710TIP3   OH226764   6.139   5.854   1.634  0.2174 -0.0006  0.1526
 1710TIP3    H126765   6.196   5.795   1.682 -0.0079  0.1657  0.6241
 1710TIP3    H226766   6.085   5.897   1.701 -2.1100 -1.8220 -0.3901
 1711TIP3   OH226767   3.014   2.558   0.349 -0.2169  0.3776  0.1590
 1711TIP3    H126768   2.977   2.472   0.328 -0.7710  0.7786 -0.5562
 1711TIP3    H226769   3.097   2.538   0.394  1.2210 -0.5952 -2.6587
 1712TIP3   OH226770   5.697   0.035   0.494 -0.0808 -0.8093  0.4639
 1712TIP3    H126771   5.605   0.010   0.503 -0.5730  1.1316  1.5179
 1712TIP3    H226772   5.695   0.119   0.448  1.0741 -0.2205  1.4319
 1713TIP3   OH226773   6.270   4.308   0.294  0.4022 -0.0410  0.1606
 1713TIP3    H126774   6.325   4.275   0.223  1.0454  0.4937  0.3958
 1713TIP3    H226775   6.192   4.343   0.250  0.5917 -0.1212 -0.2414
 1714TIP3   OH226776   6.049   5.730   0.029  0.1875  0.2950  0.6074
 1714TIP3    H126777   6.144   5.716   0.028  0.1861  0.2264  1.1124
 1714TIP3    H226778   6.038   5.818   0.065  0.1382  1.1510 -1.3752
 1715TIP3   OH226779   1.341   2.906   1.075  0.5479  0.5318  0.1381
 1715TIP3    H126780   1.250   2.914   1.104  0.0110  0.2997 -1.3967
 1715TIP3    H226781   1.382   2.850   1.141 -0.2666  1.1074  1.1581
 1716TIP3   OH226782   2.513   5.844   7.548  0.2402  0.4997  0.1771
 1716TIP3    H126783   2.529   5.812   7.637  0.1642  0.2544  0.1053
 1716TIP3    H226784   2.422   5.821   7.530  0.5993 -0.5366 -0.3997
 1717TIP3   OH226785   6.388   6.280   0.113  0.3405  0.1885  0.2756
 1717TIP3    H126786   6.372   6.256   0.022  1.7861 -0.5568  0.1804
 1717TIP3    H226787   6.304   6.269   0.157 -0.0324 -0.9128 -0.6747
 1718TIP3   OH226788   0.190   4.062   7.597  0.0260  1.1653  0.8187
 1718TIP3    H126789   0.137   3.999   7.548  2.3353  0.8370 -1.4839
 1718TIP3    H226790   0.260   4.009   7.635  1.9118  2.2117 -1.0226
 1719TIP3   OH226791   1.825   0.070   2.270 -0.2021 -0.2987 -0.2393
 1719TIP3    H126792   1.855  -0.017   2.298  0.1846  0.2618  1.1972
 1719TIP3    H226793   1.804   0.115   2.352 -2.3469  0.3021 -1.0596
 1720TIP3   OH226794   4.912   6.305   1.117  0.4753  0.0032  0.6520
 1720TIP3    H126795   4.993   6.253   1.113 -0.3643 -1.2721 -1.4594
 1720TIP3    H226796   4.896   6.332   1.027 -2.0211 -0.7342  0.7992
 1721TIP3   OH226797   1.801   5.296   1.401  0.1433 -0.6587  0.5549
 1721TIP3    H126798   1.792   5.275   1.308 -1.5937  1.3763  0.1702
 1721TIP3    H226799   1.870   5.362   1.404 -0.7948  0.3607  0.4629
 1722TIP3   OH226800   4.134   4.339   0.128  0.2691 -0.4798 -0.9051
 1722TIP3    H126801   4.082   4.417   0.108  0.6515 -0.0089 -0.1256
 1722TIP3    H226802   4.119   4.280   0.055 -0.5890  0.0454 -1.1583
 1723TIP3   OH226803   5.258   2.769   8.059  0.3431 -0.2656  0.8633
 1723TIP3    H126804   5.291   2.838   8.001  0.4898 -1.9346 -1.1778
 1723TIP3    H226805   5.224   2.815   8.135  1.1620  1.9790 -0.0486
 1724TIP3   OH226806   5.862   3.118   0.635 -0.3338  0.3452  0.0398
 1724TIP3    H126807   5.956   3.127   0.655 -0.5700  3.6148  0.1669
 1724TIP3    H226808   5.860   3.063   0.557  1.6134 -0.4690  0.4933
 1725TIP3   OH226809   2.173   4.268   8.564  0.1369  0.1630  0.0617
 1725TIP3    H126810   2.137   4.300   8.647  0.2531  2.5604 -0.7526
 1725TIP3    H226811   2.265   4.249   8.583 -0.0083  0.0120  0.6320
 1726TIP3   OH226812   4.527   6.454   1.397 -0.3140 -0.5327  0.3469
 1726TIP3    H126813   4.460   6.513   1.432 -1.7793 -2.3308  0.7340
 1726TIP3    H226814   4.512   6.372   1.443  1.2344 -1.4118 -0.6527
 1727TIP3   OH226815   2.295   3.053   2.072  0.7103  0.0716  0.1189
 1727TIP3    H126816   2.301   3.030   2.165  1.0079 -2.1339 -0.3894
 1727TIP3    H226817   2.239   2.986   2.034 -2.1432  2.7205 -0.8013
 1728TIP3   OH226818   5.383   1.903   0.110 -0.4746 -0.2619  0.2618
 1728TIP3    H126819   5.379   1.915   0.015  2.1249 -2.7391 -0.2970
 1728TIP3    H226820   5.372   1.809   0.122  1.0241 -0.2226  2.2564
 1729TIP3   OH226821   2.523   5.027   2.123  0.1461  0.3559  0.0322
 1729TIP3    H126822   2.458   5.095   2.104 -1.0148 -0.3325  1.3345
 1729TIP3    H226823   2.600   5.053   2.073 -0.5237  2.2027 -0.1333
 1730TIP3   OH226824   0.737   5.422   8.393 -0.4632 -0.4225 -0.1078
 1730TIP3    H126825   0.709   5.393   8.480 -0.7807  0.0789 -0.0380
 1730TIP3    H226826   0.831   5.438   8.402 -0.8395  1.5760  0.7043
 1731TIP3   OH226827   5.912   6.371   0.314 -0.2260  0.3836 -0.5901
 1731TIP3    H126828   5.871   6.288   0.338  0.7949  0.3026  1.0619
 1731TIP3    H226829   5.995   6.346   0.273  0.3201  0.5445  0.3646
 1732TIP3   OH226830   6.717   0.250   1.704 -0.1027 -0.7577 -0.3013
 1732TIP3    H126831   6.626   0.220   1.702 -0.3104 -0.1290 -1.2712
 1732TIP3    H226832   6.756   0.213   1.625 -0.2805  1.1815 -1.3536
 1733TIP3   OH226833   4.975   0.000   7.968 -0.4263  0.1164 -0.0630
 1733TIP3    H126834   4.992   0.074   7.909 -2.0675  0.4201 -0.1921
 1733TIP3    H226835   4.909   0.033   8.029 -0.5162 -0.9665  0.4358
 1734TIP3   OH226836   2.067   1.007   8.087  0.5353 -0.0366 -0.9570
 1734TIP3    H126837   2.032   0.918   8.093 -0.9847  0.5128 -1.1427
 1734TIP3    H226838   2.162   0.996   8.092  0.3215 -1.4876  1.3225
 1735TIP3   OH226839   3.270   6.687   1.409  0.3484  0.2332  0.0390
 1735TIP3    H126840   3.221   6.632   1.348 -2.1958  2.3141  0.0459
 1735TIP3    H226841   3.304   6.758   1.355  1.3380  0.1075  0.4690
 1736TIP3   OH226842   1.777   5.275   0.117 -0.5049  0.7625  0.0974
 1736TIP3    H126843   1.740   5.304   0.201 -1.4281  1.6558 -0.5914
 1736TIP3    H226844   1.778   5.354   0.064  0.9309  0.3969 -0.4419
 1737TIP3   OH226845   2.292   5.849   1.465 -0.0223 -0.4948 -0.1212
 1737TIP3    H126846   2.330   5.763   1.452 -1.2705 -1.1978  0.7005
 1737TIP3    H226847   2.205   5.843   1.427 -1.2962 -0.6003  2.6322
 1738TIP3   OH226848   1.379   6.356   0.273  0.3999  0.4266  0.1282
 1738TIP3    H126849   1.296   6.318   0.305  0.2818 -0.6574 -1.3300
 1738TIP3    H226850   1.388   6.438   0.321 -1.5698  0.6138  0.2730
 1739TIP3   OH226851   1.911   4.535   7.118 -0.0367  0.9125 -0.4529
 1739TIP3    H126852   1.851   4.555   7.046 -2.0199  0.1530  0.9087
 1739TIP3    H226853   1.878   4.453   7.155  3.3868 -0.9912 -1.1915
 1740TIP3   OH226854   2.074   4.045   0.950 -0.4915 -0.1231 -0.3975
 1740TIP3    H126855   2.064   4.013   0.861  1.0458  1.2298 -1.1128
 1740TIP3    H226856   2.098   3.967   1.000 -0.3669 -0.7271 -1.3689
 1741TIP3   OH226857   4.824   5.841   1.452  0.3511 -0.4326 -0.1532
 1741TIP3    H126858   4.788   5.876   1.371 -0.0326  0.8416  0.5246
 1741TIP3    H226859   4.759   5.778   1.483  0.3714 -0.7212 -0.6907
 1742TIP3   OH226860   0.009   4.821   1.644 -0.1317  0.2147 -0.7982
 1742TIP3    H126861  -0.087   4.818   1.643 -0.1181 -1.3074 -0.0429
 1742TIP3    H226862   0.033   4.832   1.552 -1.0205 -0.3077 -1.1063
 1743TIP3   OH226863   3.700   6.605   8.129  0.1210 -0.4830 -0.0829
 1743TIP3    H126864   3.633   6.643   8.185  0.4143  0.3965 -0.3025
 1743TIP3    H226865   3.653   6.543   8.073 -0.9705  1.8284 -1.8693
 1744TIP3   OH226866   3.199   0.761   3.089 -0.3907 -0.5162  0.1878
 1744TIP3    H126867   3.197   0.825   3.160 -0.5677 -0.2245 -0.0806
 1744TIP3    H226868   3.177   0.678   3.132  1.1179 -0.6419  0.7819
 1745TIP3   OH226869   2.663   5.524   2.079  0.1558 -0.0498 -0.5351
 1745TIP3    H126870   2.709   5.519   1.995 -0.2120 -0.2503 -0.7287
 1745TIP3    H226871   2.583   5.572   2.060  0.6959  1.1000 -0.0070
 1746TIP3   OH226872   1.841   1.564   1.352 -0.1370 -0.3985 -0.3724
 1746TIP3    H126873   1.820   1.542   1.261 -1.4406  0.5240 -0.3251
 1746TIP3    H226874   1.778   1.513   1.404 -1.7526  1.6652 -0.1777
 1747TIP3   OH226875   1.591   3.768   2.486  0.8425  0.4447  0.3804
 1747TIP3    H126876   1.685   3.780   2.497  0.8536 -0.0877  0.8718
 1747TIP3    H226877   1.565   3.708   2.556  0.3210 -0.2779 -0.4085
 1748TIP3   OH226878   3.380   2.815   8.187  0.4653 -0.7383  0.0953
 1748TIP3    H126879   3.454   2.828   8.127  0.5652 -0.2368  0.3241
 1748TIP3    H226880   3.319   2.886   8.166  0.0970 -1.0816 -0.0145
 1749TIP3   OH226881   4.477   4.557   1.122 -0.2740 -0.2819 -0.4107
 1749TIP3    H126882   4.485   4.627   1.187  0.8351 -0.5964 -0.1925
 1749TIP3    H226883   4.457   4.479   1.173 -2.4021 -0.0184 -0.7215
 1750TIP3   OH226884   0.627   4.129   0.802  1.1739 -0.6660  0.0340
 1750TIP3    H126885   0.670   4.139   0.887  2.5043 -1.4907 -0.5110
 1750TIP3    H226886   0.695   4.094   0.745 -0.1513 -1.7266 -0.9518
 1751TIP3   OH226887   5.355   5.244   2.226 -0.0151  0.2251  0.1839
 1751TIP3    H126888   5.354   5.331   2.186  1.8612  0.7419  1.2025
 1751TIP3    H226889   5.442   5.209   2.206 -0.1115 -0.6953  1.3133
 1752TIP3   OH226890   1.674   2.013   0.208 -0.5617 -0.3288 -0.2417
 1752TIP3    H126891   1.750   2.058   0.245 -0.9713  0.6681 -0.5834
 1752TIP3    H226892   1.664   2.051   0.121 -1.3779 -0.5458 -0.2469
 1753TIP3   OH226893   5.087   0.612   0.468 -0.1710 -0.0459 -0.4797
 1753TIP3    H126894   5.181   0.613   0.484 -0.2767 -1.0467  0.3968
 1753TIP3    H226895   5.048   0.637   0.552 -0.6982 -1.0974 -0.3920
 1754TIP3   OH226896   6.680   4.533   8.411  0.3750 -0.0622  0.0019
 1754TIP3    H126897   6.728   4.615   8.405  0.5927 -0.1839  0.0548
 1754TIP3    H226898   6.745   4.466   8.391 -0.2547 -0.1171 -2.0883
 1755TIP3   OH226899   5.006   0.301   7.937  0.0909  0.0700  0.6941
 1755TIP3    H126900   5.012   0.282   8.031  2.1586  1.5212  0.9214
 1755TIP3    H226901   5.096   0.323   7.911 -0.8098  2.0125 -1.1101
 1756TIP3   OH226902   3.095   2.712   1.512 -0.0268  0.2554  0.8365
 1756TIP3    H126903   3.019   2.767   1.529 -0.4932  0.2313 -0.9184
 1756TIP3    H226904   3.138   2.753   1.437  0.0255 -1.3191 -0.0518
 1757TIP3   OH226905   1.180   6.680   8.419  0.1057  0.7458  0.8973
 1757TIP3    H126906   1.196   6.764   8.462  1.6893  0.2666  1.3231
 1757TIP3    H226907   1.267   6.641   8.411 -0.5737 -0.7358  0.4510
 1758TIP3   OH226908   2.585   4.305   3.144 -0.5023 -0.4142  0.1097
 1758TIP3    H126909   2.606   4.389   3.104  0.2840  0.0837  1.5101
 1758TIP3    H226910   2.492   4.291   3.123 -0.9314  1.2996  0.7159
 1759TIP3   OH226911   6.703   3.868   0.928 -0.0252 -0.0961  0.4008
 1759TIP3    H126912   6.716   3.939   0.865  3.0742 -0.1723  0.8338
 1759TIP3    H226913   6.784   3.864   0.978 -0.6815 -2.9721  1.4350
 1760TIP3   OH226914   0.691   3.773   0.522  0.3893 -0.3376  0.4027
 1760TIP3    H126915   0.781   3.787   0.495 -0.1347  2.9881 -0.0200
 1760TIP3    H226916   0.695   3.763   0.617  1.1422  0.3153  0.4457
 1761TIP3   OH226917   4.437   1.647   2.274 -0.3818 -0.0644  0.1177
 1761TIP3    H126918   4.395   1.731   2.253 -0.6045 -0.1811  0.0886
 1761TIP3    H226919   4.364   1.589   2.297 -0.0794  0.3630  2.3430
 1762TIP3   OH226920   5.684   4.895   2.693 -0.1291 -0.7527  0.8038
 1762TIP3    H126921   5.640   4.910   2.776  0.3559 -1.6277  1.2316
 1762TIP3    H226922   5.710   4.803   2.696  1.4655 -0.3412  0.4560
 1763TIP3   OH226923   6.259   1.915   6.487 -0.6623 -0.2336  0.5222
 1763TIP3    H126924   6.335   1.866   6.454 -0.6926  0.1637 -0.1697
 1763TIP3    H226925   6.277   2.006   6.462 -1.5905 -0.2059 -0.0969
 1764TIP3   OH226926   4.275   1.253   8.656 -0.0542 -0.4125  0.1199
 1764TIP3    H126927   4.269   1.250   8.752  0.2693  1.5703  0.2381
 1764TIP3    H226928   4.189   1.224   8.626 -1.2966  1.9194  1.1435
 1765TIP3   OH226929   3.379   2.835   0.605  0.1913 -0.2813  0.1268
 1765TIP3    H126930   3.430   2.785   0.669  1.3443 -0.1274 -0.6382
 1765TIP3    H226931   3.291   2.799   0.612  0.3655 -0.5150  1.5340
 1766TIP3   OH226932   1.108   0.163   7.612 -0.1449  0.0910 -0.2070
 1766TIP3    H126933   1.040   0.100   7.589 -0.2058  0.7144 -1.9495
 1766TIP3    H226934   1.189   0.124   7.580 -0.0229  0.3624 -0.2400
 1767TIP3   OH226935   5.808   0.733   8.050  0.3357  0.1813  0.2377
 1767TIP3    H126936   5.867   0.690   8.112 -0.4648  0.8763  1.5336
 1767TIP3    H226937   5.733   0.673   8.043  0.9899 -0.5199 -1.1089
 1768TIP3   OH226938   3.254   5.679   8.676  0.3339  0.4342 -0.1576
 1768TIP3    H126939   3.200   5.624   8.619 -0.2782 -0.0682  0.8758
 1768TIP3    H226940   3.287   5.748   8.618 -0.0999 -0.1698 -1.1563
 1769TIP3   OH226941   3.903   5.832   1.635 -0.4751  0.3986 -0.5152
 1769TIP3    H126942   3.811   5.858   1.640 -0.4350  0.4259  0.0916
 1769TIP3    H226943   3.951   5.914   1.645 -0.3509  0.1354  1.2758
 1770TIP3   OH226944   6.442   6.818   2.718  0.3141 -0.3063  0.5964
 1770TIP3    H126945   6.358   6.817   2.672  0.9458  0.8703 -0.6462
 1770TIP3    H226946   6.476   6.729   2.707 -0.3400 -0.5325  0.3099
 1771TIP3   OH226947   1.387   2.965   0.549 -0.2468 -0.2101 -0.6054
 1771TIP3    H126948   1.416   2.983   0.639  1.2061  2.1428 -1.4572
 1771TIP3    H226949   1.465   2.931   0.506 -1.1663 -2.1566 -0.8167
 1772TIP3   OH226950   2.437   1.663   2.845  0.4102  0.1284 -0.2143
 1772TIP3    H126951   2.437   1.743   2.792  1.6412 -1.5642 -2.9844
 1772TIP3    H226952   2.435   1.694   2.935  1.5673  3.2975 -1.1595
 1773TIP3   OH226953   0.528   6.144   2.342 -1.0346  0.4199  0.1579
 1773TIP3    H126954   0.436   6.156   2.367 -1.7590  1.1837 -2.4840
 1773TIP3    H226955   0.525   6.134   2.247  1.4640 -1.6407  0.1869
 1774TIP3   OH226956   0.284   3.240   2.210 -0.1057 -0.1576 -0.1887
 1774TIP3    H126957   0.254   3.314   2.157  1.4744  0.4455 -0.2968
 1774TIP3    H226958   0.219   3.233   2.280 -1.3350  0.0680 -1.2650
 1775TIP3   OH226959   3.158   0.026   0.005 -0.4911  0.0846  0.4067
 1775TIP3    H126960   3.126  -0.023  -0.071  0.4274  0.2307 -0.0812
 1775TIP3    H226961   3.083   0.079   0.032 -0.6628  0.4838 -0.7725
 1776TIP3   OH226962   5.675   5.353   0.739  0.1319 -0.5687 -0.3299
 1776TIP3    H126963   5.724   5.310   0.809  0.0228  0.7061  0.5613
 1776TIP3    H226964   5.621   5.419   0.783 -1.9251 -1.4751 -1.3346
 1777TIP3   OH226965   1.696   6.522   3.161 -0.0410 -0.1520 -0.1311
 1777TIP3    H126966   1.632   6.452   3.168  0.9466 -1.0386  0.3044
 1777TIP3    H226967   1.680   6.561   3.075 -1.8846  0.4020  0.4169
 1778TIP3   OH226968   0.113   3.470   0.111 -0.6468 -0.0981 -0.4057
 1778TIP3    H126969   0.117   3.379   0.082 -1.1784 -0.0014 -0.7952
 1778TIP3    H226970   0.201   3.488   0.144 -0.4246 -0.6324 -0.6855
 1779TIP3   OH226971   4.734   2.310   1.043 -0.0270  0.1552  0.1843
 1779TIP3    H126972   4.815   2.311   1.094 -0.6218 -0.5380  1.1935
 1779TIP3    H226973   4.745   2.379   0.979  1.5877 -0.2955 -0.0644
 1780TIP3   OH226974   2.643   3.900   7.910 -0.1358 -0.5576  0.1079
 1780TIP3    H126975   2.641   3.996   7.907 -1.3250 -0.5941 -0.9549
 1780TIP3    H226976   2.558   3.875   7.947 -0.3478 -1.2313 -0.8141
 1781TIP3   OH226977   6.736   5.633   2.162 -0.7245 -0.4900 -0.2276
 1781TIP3    H126978   6.656   5.593   2.193 -0.4540 -0.1560  0.9431
 1781TIP3    H226979   6.714   5.725   2.149 -0.6223 -0.4690 -0.2579
 1782TIP3   OH226980   0.405   2.087   2.672  0.2797  0.3047  0.5572
 1782TIP3    H126981   0.378   2.035   2.597 -0.0946 -0.7319  1.3867
 1782TIP3    H226982   0.375   2.037   2.748  0.4435  1.4414  1.3954
 1783TIP3   OH226983   3.919   0.911   7.032 -0.2446  0.4576  0.0045
 1783TIP3    H126984   3.969   0.832   7.051  0.6476  1.1527  0.6909
 1783TIP3    H226985   3.978   0.982   7.057 -1.6945  1.3068  1.1515
 1784TIP3   OH226986   6.797   2.191   1.103 -0.3060  0.1178 -0.0815
 1784TIP3    H126987   6.822   2.114   1.053 -0.2559  0.3934 -0.4883
 1784TIP3    H226988   6.837   2.264   1.056 -0.6096  0.4195  0.1212
 1785TIP3   OH226989   0.116   2.831   8.162  0.3450  0.0472 -0.2962
 1785TIP3    H126990   0.129   2.791   8.248  0.5980  0.3276 -0.2042
 1785TIP3    H226991   0.056   2.771   8.117 -1.0157  0.6915  0.6196
 1786TIP3   OH226992   2.105   2.299   7.901 -0.1748 -0.1391 -0.0633
 1786TIP3    H126993   2.165   2.244   7.851  1.9791  0.9315  1.1844
 1786TIP3    H226994   2.090   2.375   7.845 -1.9140 -1.1845 -1.1311
 1787TIP3   OH226995   4.166   6.278   0.183 -0.0985 -0.5401 -0.2487
 1787TIP3    H126996   4.101   6.348   0.187 -0.3787 -0.7305 -1.1054
 1787TIP3    H226997   4.117   6.202   0.149  0.5585 -0.6850 -0.9085
 1788TIP3   OH226998   6.289   2.097   0.666 -0.4588  0.5113  0.4399
 1788TIP3    H126999   6.245   2.012   0.666 -0.9342  0.7511 -0.0787
 1788TIP3    H227000   6.346   2.095   0.743 -0.8120 -0.0980  0.6900
 1789TIP3   OH227001   1.816   3.914   0.945  0.1984 -0.2119  0.4108
 1789TIP3    H127002   1.899   3.961   0.935  1.1826 -1.9144  0.2508
 1789TIP3    H227003   1.821   3.876   1.033 -1.2149  1.0973  1.1130
 1790TIP3   OH227004   6.012   4.640   0.046 -0.0207  0.1575  0.3751
 1790TIP3    H127005   6.010   4.735   0.055 -0.7841  0.2119 -0.2482
 1790TIP3    H227006   6.079   4.624  -0.020 -0.0572  0.2836  0.3067
 1791TIP3   OH227007   4.909   3.800   8.015  0.3318 -0.0592  0.7264
 1791TIP3    H127008   5.002   3.802   7.993  0.3904  1.8841  0.9762
 1791TIP3    H227009   4.867   3.843   7.941 -0.3734 -0.7729  0.6956
 1792TIP3   OH227010   0.092   0.605   0.315 -0.4801 -0.3122 -0.2139
 1792TIP3    H127011   0.086   0.599   0.410  0.2156 -0.7449 -0.1907
 1792TIP3    H227012   0.016   0.656   0.289 -0.0624  0.7840  0.6730
 1793TIP3   OH227013   0.357   1.935   2.911  0.3254 -0.7415 -0.4196
 1793TIP3    H127014   0.367   1.968   3.000  3.6682 -1.3903 -0.4078
 1793TIP3    H227015   0.362   1.840   2.919  0.9488 -0.7963 -1.3012
 1794TIP3   OH227016   6.471   3.674   8.549 -0.5008  0.2132 -0.6234
 1794TIP3    H127017   6.440   3.735   8.616 -0.0898 -0.4585  0.1971
 1794TIP3    H227018   6.391   3.630   8.519 -0.5903 -0.1929  0.1601
 1795TIP3   OH227019   5.911   1.928   0.111  0.1065 -0.6043  0.2597
 1795TIP3    H127020   5.979   1.973   0.061  2.3300 -0.8946  2.8098
 1795TIP3    H227021   5.931   1.948   0.202 -3.0408 -1.0618  1.1683
 1796TIP3   OH227022   3.950   0.388   1.731 -0.1045  0.5015  0.5855
 1796TIP3    H127023   4.033   0.342   1.746 -0.2635  0.2777  0.7898
 1796TIP3    H227024   3.964   0.475   1.766 -0.1507  0.2819  1.1502
 1797TIP3   OH227025   2.204   1.876   2.286  0.3862  0.2214 -0.2299
 1797TIP3    H127026   2.172   1.868   2.376 -2.7361  0.6406 -1.1722
 1797TIP3    H227027   2.236   1.788   2.265  0.8088  0.0153  1.1289
 1798TIP3   OH227028   1.929   1.068   1.495  0.0958 -0.1600  0.2064
 1798TIP3    H127029   1.963   0.990   1.450  1.3248 -2.7032  4.8536
 1798TIP3    H227030   1.987   1.079   1.571 -1.5139  3.9231  1.0915
 1799TIP3   OH227031   5.610   6.305   8.264  0.5007 -0.3994 -0.0019
 1799TIP3    H127032   5.681   6.360   8.231  0.4921  0.2362  0.9977
 1799TIP3    H227033   5.534   6.329   8.212  1.1567 -1.6788 -1.6712
 1800TIP3   OH227034   4.297   6.571   1.166  0.3755  0.4154 -0.2145
 1800TIP3    H127035   4.348   6.612   1.235 -0.8406  0.7593  0.5094
 1800TIP3    H227036   4.350   6.497   1.137  1.1680  0.6289  0.6550
 1801TIP3   OH227037   4.305   0.557   1.718 -0.0077 -0.1044  0.1943
 1801TIP3    H127038   4.276   0.600   1.799  0.8837 -1.1420  1.1032
 1801TIP3    H227039   4.394   0.529   1.737  0.5523  0.4073 -1.4907
 1802TIP3   OH227040   3.852   1.445   7.895  0.1752  0.1973  0.0071
 1802TIP3    H127041   3.775   1.476   7.847 -1.1161 -0.1380  1.7909
 1802TIP3    H227042   3.831   1.355   7.919  2.1962 -0.7821 -1.5615
 1803TIP3   OH227043   2.412   3.435   1.403  0.0642 -0.3341 -0.1818
 1803TIP3    H127044   2.419   3.347   1.440 -0.7230 -0.2321  0.2162
 1803TIP3    H227045   2.479   3.436   1.334 -0.7981 -1.6939 -1.0983
 1804TIP3   OH227046   2.318   4.209   8.311 -0.0691 -0.3846  0.1024
 1804TIP3    H127047   2.409   4.188   8.331  0.3487  0.4145 -0.8874
 1804TIP3    H227048   2.277   4.223   8.397  0.5090 -1.6146  0.5990
 1805TIP3   OH227049   0.450   5.089   0.055 -0.2678 -0.5226  0.0375
 1805TIP3    H127050   0.439   5.075   0.149  0.0316 -0.2231  0.1180
 1805TIP3    H227051   0.494   5.174   0.048  1.0055 -1.1874 -0.3169
 1806TIP3   OH227052   1.401   0.207   2.837  0.5198  0.3040  0.3666
 1806TIP3    H127053   1.383   0.136   2.899 -0.0913  2.2468  2.5676
 1806TIP3    H227054   1.476   0.252   2.875  0.3213  1.3722 -0.4778
 1807TIP3   OH227055   2.762   1.619   1.895  0.4114  0.0318 -0.5706
 1807TIP3    H127056   2.753   1.579   1.809 -0.4800 -0.7441 -0.1417
 1807TIP3    H227057   2.672   1.639   1.921  0.5826 -0.5740  0.5484
 1808TIP3   OH227058   5.395   3.486   2.445  0.2773  0.3830 -0.7020
 1808TIP3    H127059   5.320   3.440   2.408 -0.0058  0.6006 -0.4037
 1808TIP3    H227060   5.395   3.462   2.537 -0.2576  1.4754 -0.3976
 1809TIP3   OH227061   6.714   3.377   0.555 -0.4141  0.5466 -0.5172
 1809TIP3    H127062   6.620   3.388   0.543 -0.4109 -1.0992 -2.7613
 1809TIP3    H227063   6.753   3.425   0.482  0.3740 -0.1947 -0.6015
 1810TIP3   OH227064   3.407   2.764   2.269 -0.1388  0.4583  0.4592
 1810TIP3    H127065   3.341   2.833   2.262 -0.5023  0.1720  0.9437
 1810TIP3    H227066   3.363   2.695   2.320  0.1865 -0.1637 -0.0933
 1811TIP3   OH227067   5.993   4.419   0.895 -0.5361 -0.0925 -0.1892
 1811TIP3    H127068   6.043   4.500   0.907 -1.7430  0.5800  0.4678
 1811TIP3    H227069   6.012   4.367   0.974  0.0380 -0.3583 -0.4937
 1812TIP3   OH227070   3.096   0.840   8.337  0.4566  0.0738  0.2930
 1812TIP3    H127071   3.002   0.856   8.325  0.7946  1.1401 -1.2020
 1812TIP3    H227072   3.139   0.906   8.282  2.1085  0.0943  1.5371
 1813TIP3   OH227073   4.310   6.041   2.109  0.0430 -0.4287 -0.3220
 1813TIP3    H127074   4.286   5.951   2.130 -1.9956  0.0406 -0.4090
 1813TIP3    H227075   4.244   6.069   2.046  1.8551  0.5004 -1.9128
 1814TIP3   OH227076   0.734   1.029   0.525 -0.2374 -0.3037 -0.5109
 1814TIP3    H127077   0.697   1.061   0.607  1.1759  0.0431  0.0237
 1814TIP3    H227078   0.722   0.934   0.528 -2.2376 -0.1120 -0.9814
 1815TIP3   OH227079   2.360   1.898   2.662 -0.6159 -0.3822  0.4785
 1815TIP3    H127080   2.270   1.923   2.641  0.4056  1.1038 -2.7415
 1815TIP3    H227081   2.400   1.978   2.697 -0.0257 -0.4452 -0.0366
 1816TIP3   OH227082   3.302   4.940   1.239  0.2776 -0.5724  0.6590
 1816TIP3    H127083   3.386   4.978   1.214  0.9074 -0.7909  2.3119
 1816TIP3    H227084   3.300   4.854   1.197  0.6145 -0.3237  0.1332
 1817TIP3   OH227085   4.693   3.704   8.168  1.0438  0.7746  0.4120
 1817TIP3    H127086   4.769   3.724   8.113 -0.5274  1.9479 -1.4481
 1817TIP3    H227087   4.684   3.780   8.226  1.6338  0.3408  1.0957
 1818TIP3   OH227088   6.048   4.285   1.145  0.4973  0.1011 -0.0039
 1818TIP3    H127089   6.015   4.320   1.228  2.6426  0.2767  0.8411
 1818TIP3    H227090   6.104   4.212   1.170  1.7429  0.5904 -1.2402
 1819TIP3   OH227091   5.187   4.876   1.615  0.1715  0.8281 -0.2016
 1819TIP3    H127092   5.105   4.863   1.567  1.0330 -1.0676 -1.2894
 1819TIP3    H227093   5.254   4.883   1.546  1.3343 -1.1448  0.6648
 1820TIP3   OH227094   6.756   4.340   8.629 -0.7778  0.3022  0.0201
 1820TIP3    H127095   6.747   4.349   8.724 -2.6589 -1.3340  0.0605
 1820TIP3    H227096   6.670   4.361   8.594 -0.3534  0.0101 -1.2457
 1821TIP3   OH227097   0.247   4.172   0.356 -0.5250 -0.0693 -0.0464
 1821TIP3    H127098   0.205   4.216   0.430 -1.3428  0.1859 -0.6465
 1821TIP3    H227099   0.226   4.227   0.280 -1.4932 -1.4039 -0.8049
 1822TIP3   OH227100   4.144   1.977   1.805  0.1041  0.2926  0.0654
 1822TIP3    H127101   4.215   1.922   1.836 -0.8755 -1.3270 -0.4461
 1822TIP3    H227102   4.123   1.942   1.718 -1.7443  0.3045  0.4727
 1823TIP3   OH227103   5.432   4.707   3.112  0.8938 -0.0652 -0.0819
 1823TIP3    H127104   5.494   4.736   3.180  1.3039 -1.6330  0.2437
 1823TIP3    H227105   5.483   4.646   3.059  0.1594  0.0856 -0.9683
 1824TIP3   OH227106   3.254   5.503   0.465  0.0683 -0.1950  0.0409
 1824TIP3    H127107   3.257   5.449   0.386  1.0290 -1.3489  0.8230
 1824TIP3    H227108   3.255   5.439   0.537  1.7396  0.8539  1.0080
 1825TIP3   OH227109   4.150   1.997   1.384 -0.0891  0.1559 -0.2651
 1825TIP3    H127110   4.149   1.998   1.288 -0.1523  0.7638 -0.2614
 1825TIP3    H227111   4.068   2.040   1.409 -0.1333 -0.1162  0.0636
 1826TIP3   OH227112   2.337   0.100   1.221  0.2368 -0.2280 -0.1698
 1826TIP3    H127113   2.339   0.049   1.302  1.0673 -0.0450 -0.0672
 1826TIP3    H227114   2.381   0.182   1.243  0.2301 -0.0710 -0.7326
 1827TIP3   OH227115   1.439   0.724   2.649 -0.2586  0.1238 -0.2122
 1827TIP3    H127116   1.438   0.746   2.743  0.0538  0.2655 -0.2401
 1827TIP3    H227117   1.498   0.649   2.643  0.0310  0.3632 -0.3485
 1828TIP3   OH227118   3.074   4.027   0.272  0.1140 -0.0167  0.0760
 1828TIP3    H127119   3.008   4.090   0.242 -0.1317 -0.0530  0.5340
 1828TIP3    H227120   3.145   4.036   0.209 -0.9245 -1.0284 -1.2814
 1829TIP3   OH227121   5.954   4.287   2.229  0.1443 -0.0457  0.1335
 1829TIP3    H127122   5.867   4.298   2.267  0.5157  0.5453  0.8281
 1829TIP3    H227123   5.950   4.335   2.146 -0.6992 -1.4269 -0.6552
 1830TIP3   OH227124   5.800   0.833   7.775  0.2541  0.4209  0.4809
 1830TIP3    H127125   5.776   0.766   7.838  0.5779 -0.3235 -0.1665
 1830TIP3    H227126   5.737   0.904   7.790 -0.3816 -0.2106  0.8722
 1831TIP3   OH227127   0.973   3.550   0.729 -0.3810  0.1330 -0.3701
 1831TIP3    H127128   1.022   3.504   0.661 -2.2419 -0.2303 -1.5450
 1831TIP3    H227129   1.026   3.541   0.808  1.0456 -0.8701 -1.3990
 1832TIP3   OH227130   2.828   1.372   1.127  0.6511 -0.2003 -0.1521
 1832TIP3    H127131   2.900   1.433   1.144  0.7570 -0.0931 -0.9428
 1832TIP3    H227132   2.749   1.422   1.149  0.8131 -0.3677  0.8608
 1833TIP3   OH227133   4.428   3.475   0.716 -0.0170 -0.0902 -0.0754
 1833TIP3    H127134   4.371   3.433   0.652 -0.1435 -0.3465  0.2024
 1833TIP3    H227135   4.496   3.410   0.734  1.3431  0.8202 -1.6477
 1834TIP3   OH227136   6.713   2.175   7.239  0.0173 -0.3415 -0.1028
 1834TIP3    H127137   6.643   2.183   7.304  1.1961  6.0242  1.0612
 1834TIP3    H227138   6.686   2.232   7.167  2.6095 -0.1559 -1.0330
 1835TIP3   OH227139   1.340   6.612   7.312  0.0843 -0.8202  0.9590
 1835TIP3    H127140   1.290   6.552   7.257  1.3526 -1.1404  0.1191
 1835TIP3    H227141   1.314   6.699   7.282 -2.0663 -0.8507  2.4510
 1836TIP3   OH227142   1.875   6.628   2.684  0.3154 -0.1193 -0.0710
 1836TIP3    H127143   1.948   6.666   2.733  1.0182 -1.1525 -0.2924
 1836TIP3    H227144   1.848   6.552   2.735 -0.7354  0.3590  0.0996
 1837TIP3   OH227145   6.531   4.826   8.135 -0.4991  0.2844  0.3413
 1837TIP3    H127146   6.481   4.750   8.165  1.1696 -1.6358 -1.4602
 1837TIP3    H227147   6.620   4.794   8.124  0.2155  2.4404 -0.7648
 1838TIP3   OH227148   2.336   3.879   7.849  0.5612 -0.6454  0.4122
 1838TIP3    H127149   2.353   3.936   7.924 -0.8274  0.1291  0.1866
 1838TIP3    H227150   2.349   3.936   7.772  2.1888 -1.4868  0.0223
 1839TIP3   OH227151   0.567   2.304   7.522 -0.6484  0.3645  0.6026
 1839TIP3    H127152   0.553   2.348   7.606 -0.5524  0.7915  0.3991
 1839TIP3    H227153   0.490   2.326   7.470  0.1673  1.7227 -0.0985
 1840TIP3   OH227154   3.658   5.516   1.198 -0.1267 -0.0584 -0.5242
 1840TIP3    H127155   3.628   5.594   1.244 -2.4952 -0.9358 -0.4419
 1840TIP3    H227156   3.619   5.522   1.111 -0.2002 -1.0546 -0.5739
 1841TIP3   OH227157   6.345   5.550   7.691  0.3324 -0.4067 -0.5414
 1841TIP3    H127158   6.369   5.569   7.782  0.3816 -0.7231 -0.4902
 1841TIP3    H227159   6.367   5.458   7.678  1.5982 -0.0364 -1.2771
 1842TIP3   OH227160   1.837   5.247   6.479 -0.1440  0.2531 -0.1931
 1842TIP3    H127161   1.749   5.216   6.460 -0.6226  1.2380  0.3722
 1842TIP3    H227162   1.846   5.239   6.574  0.2080  0.6018 -0.1937
 1843TIP3   OH227163   6.556   3.138   8.631 -0.2856 -0.1482  0.3469
 1843TIP3    H127164   6.527   3.047   8.639 -1.1215  0.0713 -0.1076
 1843TIP3    H227165   6.568   3.167   8.721 -0.8490 -0.4488  0.5208
 1844TIP3   OH227166   3.168   1.439   0.426 -0.4323  0.3498 -0.1051
 1844TIP3    H127167   3.125   1.523   0.442 -1.2950  0.3916 -2.2644
 1844TIP3    H227168   3.110   1.394   0.365 -0.1355 -1.9688  1.2363
 1845TIP3   OH227169   5.749   4.664   8.681  0.2992 -0.4682 -0.0814
 1845TIP3    H127170   5.837   4.641   8.709 -0.1954 -1.5376  0.6406
 1845TIP3    H227171   5.746   4.760   8.685  1.2346 -0.4598  0.4501
 1846TIP3   OH227172   4.872   6.190   0.578  0.2545 -0.4780 -0.1956
 1846TIP3    H127173   4.935   6.261   0.591  0.5186 -0.6058 -0.7430
 1846TIP3    H227174   4.925   6.117   0.547  0.1208 -1.2023  1.2034
 1847TIP3   OH227175   3.939   3.992   0.222 -0.3805  0.7062 -0.4617
 1847TIP3    H127176   3.985   3.908   0.228  0.4882  1.1859 -0.1342
 1847TIP3    H227177   3.966   4.026   0.136  0.9345  1.5652  0.2595
 1848TIP3   OH227178   1.556   6.114   2.730 -0.4465 -0.2913  0.0649
 1848TIP3    H127179   1.513   6.080   2.652 -1.2022  2.0959 -0.6414
 1848TIP3    H227180   1.497   6.092   2.802 -1.4964  0.4860 -0.5296
 1849TIP3   OH227181   4.670   6.448   1.162 -0.8564 -0.0770 -0.7213
 1849TIP3    H127182   4.640   6.461   1.252  0.7604  1.7475 -0.3766
 1849TIP3    H227183   4.729   6.374   1.168 -1.0842 -0.2381 -0.3664
 1850TIP3   OH227184   3.894   5.880   1.010  0.1767 -0.1784 -0.4549
 1850TIP3    H127185   3.861   5.852   0.924 -1.0041  0.6841 -0.3107
 1850TIP3    H227186   3.817   5.878   1.067  1.0163 -1.0392  0.6789
 1851TIP3   OH227187   1.646   1.909   8.017 -0.7630  0.3167 -0.4210
 1851TIP3    H127188   1.699   1.970   8.067  0.2914  0.0984 -1.2378
 1851TIP3    H227189   1.594   1.964   7.959 -1.1449  0.5087  0.0912
 1852TIP3   OH227190   4.438   6.154   2.306 -0.2777 -0.0605 -0.2142
 1852TIP3    H127191   4.412   6.118   2.221  0.1902 -0.3877 -0.2204
 1852TIP3    H227192   4.399   6.241   2.308 -0.7194 -0.2437 -0.5494
 1853TIP3   OH227193   5.601   3.659   7.990 -0.0662 -0.1739 -0.3893
 1853TIP3    H127194   5.531   3.703   7.943  0.3123  1.1681  0.2750
 1853TIP3    H227195   5.670   3.647   7.924  0.2277  1.1540 -0.3453
 1854TIP3   OH227196   1.141   2.555   2.103 -0.0439  0.1198  0.2882
 1854TIP3    H127197   1.173   2.602   2.026 -1.1021  1.7477  0.7683
 1854TIP3    H227198   1.056   2.521   2.076 -0.1280  0.1342  0.5367
 1855TIP3   OH227199   6.188   3.135   1.686 -0.4033 -0.1330  0.4218
 1855TIP3    H127200   6.164   3.197   1.617  0.4626  1.4385  1.4760
 1855TIP3    H227201   6.284   3.133   1.684 -0.3682 -0.0963  1.5408
 1856TIP3   OH227202   4.122   4.392   2.622 -0.1334 -0.5617 -0.2941
 1856TIP3    H127203   4.121   4.369   2.715 -0.8035  0.3148 -0.0772
 1856TIP3    H227204   4.040   4.440   2.607  0.6205  0.5631 -1.0134
 1857TIP3   OH227205   0.732   1.035   0.136 -0.4608 -0.4652 -0.3107
 1857TIP3    H127206   0.821   1.068   0.144 -0.5518 -0.0359 -0.9646
 1857TIP3    H227207   0.731   0.956   0.189 -0.1521  0.4025  1.0478
 1858TIP3   OH227208   3.126   6.038   0.934  0.5090 -0.2130  0.2271
 1858TIP3    H127209   3.032   6.053   0.940  0.5017 -0.1223 -0.1129
 1858TIP3    H227210   3.158   6.108   0.877  0.5587 -1.1350 -0.9285
 1859TIP3   OH227211   2.929   4.692   1.854  0.7264  0.3497  0.9379
 1859TIP3    H127212   2.927   4.707   1.760 -1.7341 -0.8522  0.7193
 1859TIP3    H227213   2.837   4.685   1.880  1.3570 -0.5314  3.2320
 1860TIP3   OH227214   5.168   0.251   0.867  0.3987 -0.4212  0.6570
 1860TIP3    H127215   5.139   0.161   0.852  1.3734 -0.5132 -1.0111
 1860TIP3    H227216   5.249   0.242   0.918 -0.3779 -0.3686  1.9435
 1861TIP3   OH227217   5.412   3.192   0.473 -0.1435  0.2608 -0.1718
 1861TIP3    H127218   5.490   3.232   0.511  0.4025  0.0125 -1.0083
 1861TIP3    H227219   5.401   3.110   0.520 -0.3781  0.6787  0.5073
 1862TIP3   OH227220   5.867   4.153   1.550 -0.6466 -0.4190  0.5174
 1862TIP3    H127221   5.773   4.138   1.536 -0.3447 -0.4464 -1.8532
 1862TIP3    H227222   5.910   4.083   1.501  0.6349 -0.6749  1.9510
 1863TIP3   OH227223   0.034   0.832   8.313  0.0934  0.9754 -0.1667
 1863TIP3    H127224   0.110   0.873   8.272 -1.3712  2.3049 -1.7168
 1863TIP3    H227225  -0.002   0.776   8.244 -1.2275  1.6310 -0.0437
 1864TIP3   OH227226   1.766   0.260   0.771  0.2741  0.2967 -0.0090
 1864TIP3    H127227   1.834   0.326   0.791  1.6366 -0.8154 -0.8116
 1864TIP3    H227228   1.794   0.182   0.818 -0.0042 -0.4271 -1.0252
 1865TIP3   OH227229   3.981   0.604   7.706 -0.5266 -0.0136  0.1060
 1865TIP3    H127230   3.995   0.509   7.707  0.1148  0.0114 -1.8311
 1865TIP3    H227231   3.899   0.617   7.754  1.0100 -1.1799  3.3125
 1866TIP3   OH227232   4.575   1.318   1.799  0.4405 -0.0515 -0.0666
 1866TIP3    H127233   4.603   1.393   1.851  1.3320 -0.8314  0.6074
 1866TIP3    H227234   4.509   1.274   1.852  0.2819 -0.0323 -0.2439
 1867TIP3   OH227235   4.089   5.289   2.134  0.0170 -0.1108  0.7208
 1867TIP3    H127236   4.127   5.316   2.218  0.0226 -0.1639  0.7358
 1867TIP3    H227237   3.999   5.265   2.155 -0.0010 -0.0609  0.6997
 1868TIP3   OH227238   6.574   3.463   2.865  0.2921  0.0894  0.1465
 1868TIP3    H127239   6.624   3.392   2.906  1.9548  0.1628 -1.6201
 1868TIP3    H227240   6.640   3.526   2.838 -1.0742  1.8239  0.6602
 1869TIP3   OH227241   4.689   6.479   8.028 -0.1850 -0.4664  0.3254
 1869TIP3    H127242   4.710   6.438   8.112  1.8241 -2.2944 -0.9417
 1869TIP3    H227243   4.775   6.502   7.992 -0.9615 -0.2813 -1.4718
 1870TIP3   OH227244   6.116   3.117   1.977  0.1416  0.6504  0.0070
 1870TIP3    H127245   6.196   3.071   2.005  0.4485  1.5392  0.6458
 1870TIP3    H227246   6.120   3.116   1.882  1.2785  1.2781  0.0232
 1871TIP3   OH227247   2.315   4.389   1.519 -0.3953  0.2653 -0.0371
 1871TIP3    H127248   2.375   4.430   1.580 -2.1357  0.3600  1.7209
 1871TIP3    H227249   2.269   4.463   1.477 -1.8983  0.2241  1.4318
 1872TIP3   OH227250   2.514   0.421   8.061 -0.0081 -0.0430 -0.1025
 1872TIP3    H127251   2.471   0.462   8.137  0.4756  0.6324 -0.1881
 1872TIP3    H227252   2.554   0.494   8.014 -1.5858 -0.2632 -1.8623
 1873TIP3   OH227253   0.075   1.025   0.223 -0.3165  0.0467 -0.1161
 1873TIP3    H127254   0.016   1.096   0.199 -1.1052 -0.4214  0.4008
 1873TIP3    H227255   0.087   1.034   0.318  0.4022  0.1042 -0.2076
 1874TIP3   OH227256   4.961   6.132   7.316 -0.6302  0.3182  0.2843
 1874TIP3    H127257   4.873   6.108   7.288 -0.6016  2.5008 -2.0370
 1874TIP3    H227258   5.018   6.066   7.277 -0.9756  0.9994 -1.4768
 1875TIP3   OH227259   6.365   0.627   0.295 -0.4154 -0.8560  0.3957
 1875TIP3    H127260   6.433   0.695   0.295  0.1432 -1.3874  1.3396
 1875TIP3    H227261   6.316   0.642   0.215 -1.3204  1.6542  1.3039
 1876TIP3   OH227262   1.034   6.825   0.117  0.1332 -0.4076  0.1604
 1876TIP3    H127263   1.029   6.919   0.097 -0.7048 -0.3023  0.7992
 1876TIP3    H227264   1.008   6.819   0.209 -0.9266 -1.3738 -0.1760
 1877TIP3   OH227265   6.336   4.861   0.807 -0.1014  0.1761 -0.3798
 1877TIP3    H127266   6.364   4.938   0.857 -0.4363 -0.3503  0.6565
 1877TIP3    H227267   6.373   4.873   0.720  1.1682  0.7463  0.2182
 1878TIP3   OH227268   1.884   1.286   2.092  0.2291  0.4031 -0.4280
 1878TIP3    H127269   1.911   1.305   2.181  3.1948 -3.3019 -0.2989
 1878TIP3    H227270   1.884   1.372   2.048  0.3770  2.1088  2.6455
 1879TIP3   OH227271   6.301   5.410   1.528  0.1089  0.1119  0.3250
 1879TIP3    H127272   6.350   5.333   1.556 -0.5799 -0.8847 -1.0907
 1879TIP3    H227273   6.357   5.484   1.552  2.4226 -0.9620 -1.2975
 1880TIP3   OH227274   2.415   4.870   1.803  0.3955 -0.3780  0.5809
 1880TIP3    H127275   2.426   4.951   1.753  1.0480  0.7082  2.3967
 1880TIP3    H227276   2.347   4.822   1.756  1.0974  0.4847 -1.4329
 1881TIP3   OH227277   2.021   3.322   8.560  0.0802  0.0948 -0.0948
 1881TIP3    H127278   2.058   3.234   8.566  0.3749  0.1694 -0.7664
 1881TIP3    H227279   1.975   3.323   8.476  0.3607  0.6826 -0.2466
 1882TIP3   OH227280   1.754   6.774   7.797  0.1149 -0.5971 -0.1562
 1882TIP3    H127281   1.717   6.861   7.810 -0.6243 -0.9657  0.3023
 1882TIP3    H227282   1.845   6.790   7.773  0.3664  0.2741  1.2608
 1883TIP3   OH227283   1.912   5.013   8.073  0.2275 -0.1676  0.2072
 1883TIP3    H127284   1.824   4.977   8.067 -0.5811  1.7751 -0.2441
 1883TIP3    H227285   1.917   5.051   8.161  0.2617  0.5633 -0.1044
 1884TIP3   OH227286   4.057   0.684   7.156 -0.4934  0.2432  0.0008
 1884TIP3    H127287   4.050   0.706   7.249  1.3276 -0.5416  0.3428
 1884TIP3    H227288   4.047   0.589   7.152 -2.6823  0.4313 -0.8877
 1885TIP3   OH227289   4.180   6.861   2.726  0.2019  0.0673  0.0234
 1885TIP3    H127290   4.234   6.845   2.650 -0.2005 -2.4343  0.1841
 1885TIP3    H227291   4.228   6.822   2.799 -1.4843 -1.7850  0.2398
 1886TIP3   OH227292   4.659   5.290   1.914 -0.4319  0.6244 -0.0150
 1886TIP3    H127293   4.701   5.211   1.881 -1.3972  0.4409 -0.8375
 1886TIP3    H227294   4.731   5.341   1.952  0.3630 -0.1607 -0.4272
 1887TIP3   OH227295   2.177   5.270   2.282 -0.1875  0.1300 -0.8787
 1887TIP3    H127296   2.192   5.271   2.187  0.1435  0.0406 -0.8294
 1887TIP3    H227297   2.233   5.340   2.315  0.1514 -0.2304 -0.6844
 1888TIP3   OH227298   4.367   6.415   8.026  0.5620 -0.2746  0.2079
 1888TIP3    H127299   4.435   6.372   7.973  1.1429  1.6925 -0.7470
 1888TIP3    H227300   4.299   6.348   8.036  1.1933 -1.2672 -1.6041
 1889TIP3   OH227301   2.210   4.751   1.224 -0.4878 -0.7988 -0.7333
 1889TIP3    H127302   2.231   4.769   1.315  0.9037  0.9346 -1.3391
 1889TIP3    H227303   2.293   4.766   1.177 -1.3069 -1.0915 -2.3422
 1890TIP3   OH227304   0.977   5.087   1.872  0.2538 -1.1909  0.0449
 1890TIP3    H127305   1.000   5.139   1.949 -0.1952 -2.4636  1.0786
 1890TIP3    H227306   0.884   5.067   1.884 -0.3557  0.2013 -1.8393
 1891TIP3   OH227307   4.479   0.048   0.601  0.2151 -0.0031 -0.1562
 1891TIP3    H127308   4.529   0.110   0.547  1.0783 -0.2825  0.2983
 1891TIP3    H227309   4.392   0.047   0.562  0.2641  1.2830 -0.3441
 1892TIP3   OH227310   5.092   1.171   3.154  0.2156  0.3645 -0.1154
 1892TIP3    H127311   5.102   1.248   3.209 -0.3845 -0.0057  0.5314
 1892TIP3    H227312   5.010   1.185   3.107  0.3767  0.3640 -0.3996
 1893TIP3   OH227313   3.665   0.804   0.516 -0.2948 -0.2550  0.3454
 1893TIP3    H127314   3.705   0.729   0.561  1.4187 -1.1517 -2.4263
 1893TIP3    H227315   3.726   0.876   0.528  1.0003 -0.9260 -1.7096
 1894TIP3   OH227316   3.520   3.530   1.814 -0.3189 -0.6061 -0.2146
 1894TIP3    H127317   3.577   3.497   1.884 -0.7678 -0.4737  0.2218
 1894TIP3    H227318   3.434   3.539   1.856 -0.6330 -0.6979 -0.8372
 1895TIP3   OH227319   5.682   5.250   3.049  0.0129  0.1465 -0.7774
 1895TIP3    H127320   5.685   5.345   3.037 -0.0236  0.1651 -0.6375
 1895TIP3    H227321   5.589   5.228   3.043  0.1655 -0.2092 -3.3925
 1896TIP3   OH227322   3.031   4.376   7.790  0.2659  0.4005  0.0977
 1896TIP3    H127323   2.949   4.385   7.741 -0.2940 -1.7916  0.5496
 1896TIP3    H227324   3.036   4.456   7.842 -1.4105  0.7403 -0.1960
 1897TIP3   OH227325   1.228   1.770   7.522 -0.3323  0.0271 -0.9290
 1897TIP3    H127326   1.157   1.720   7.481 -0.7331 -0.9481  0.8582
 1897TIP3    H227327   1.276   1.807   7.448 -2.3505  0.2638 -2.2137
 1898TIP3   OH227328   5.620   1.301   2.072 -0.4019 -0.3959 -0.4535
 1898TIP3    H127329   5.607   1.393   2.094  1.0849 -0.1684 -0.4606
 1898TIP3    H227330   5.538   1.259   2.099 -1.8080  1.1530 -2.0229
 1899TIP3   OH227331   5.535   5.862   8.683 -0.1886 -0.2660  0.3007
 1899TIP3    H127332   5.553   5.953   8.707 -1.4686 -0.2670  1.4075
 1899TIP3    H227333   5.518   5.865   8.589 -0.2768  0.6649  0.3363
 1900TIP3   OH227334   6.882   4.475   8.170  0.0428  0.5677  0.3127
 1900TIP3    H127335   6.965   4.477   8.122  0.5531  0.3971  1.1647
 1900TIP3    H227336   6.898   4.414   8.242 -1.1143 -0.1687 -0.0216
 1901TIP3   OH227337   2.945   2.028   1.584 -0.1272 -0.2267 -0.1146
 1901TIP3    H127338   2.932   1.946   1.631 -0.0998 -0.2422 -0.1342
 1901TIP3    H227339   3.008   2.076   1.637 -0.0066 -0.2936 -0.1982
 1902TIP3   OH227340   3.399   2.376   1.627  0.3185  0.2002 -0.6923
 1902TIP3    H127341   3.319   2.416   1.660  0.6066  0.1787  0.0443
 1902TIP3    H227342   3.391   2.283   1.649  1.0254  0.3765  0.3704
 1903TIP3   OH227343   6.774   6.743   2.761 -0.4538 -0.1762  0.9593
 1903TIP3    H127344   6.814   6.705   2.839 -0.3886  0.0072  1.0149
 1903TIP3    H227345   6.687   6.702   2.756 -0.1353 -0.8232  0.6524
 1904TIP3   OH227346   5.633   3.844   2.675 -0.0411  0.1902 -0.0736
 1904TIP3    H127347   5.711   3.894   2.652  0.5988 -0.9572 -0.4802
 1904TIP3    H227348   5.666   3.771   2.728 -0.6739 -0.9823 -1.2379
 1905TIP3   OH227349   2.654   5.295   0.932  0.2253 -0.1611 -0.3860
 1905TIP3    H127350   2.638   5.383   0.898  0.9059  0.5618  1.0661
 1905TIP3    H227351   2.576   5.245   0.907 -1.4720  1.5971  1.1084
 1906TIP3   OH227352   0.246   6.139   8.439 -0.2457  0.1658 -0.3026
 1906TIP3    H127353   0.310   6.072   8.418  0.4875  0.8391 -0.2669
 1906TIP3    H227354   0.203   6.158   8.356  1.0380  1.1684 -0.7783
 1907TIP3   OH227355   4.551   2.573   2.925  0.3734  0.2937 -0.1474
 1907TIP3    H127356   4.531   2.600   3.015 -0.8473 -1.1068  0.0587
 1907TIP3    H227357   4.644   2.593   2.914  0.6621  0.1088  1.5883
 1908TIP3   OH227358   1.193   6.196   0.459 -0.0074  0.5950 -0.3739
 1908TIP3    H127359   1.169   6.123   0.516  0.8462  1.2931  0.9594
 1908TIP3    H227360   1.204   6.270   0.519 -0.6326  1.7714 -1.6549
 1909TIP3   OH227361   6.089   0.033   0.035 -0.5748  1.0612  0.1546
 1909TIP3    H127362   6.004   0.064   0.066 -1.1418  0.3135 -0.6088
 1909TIP3    H227363   6.131  -0.004   0.112 -2.5761 -2.1409 -0.1329
 1910TIP3   OH227364   3.414   2.983   0.380 -0.3944  0.1888  0.4239
 1910TIP3    H127365   3.410   2.945   0.467 -0.4619  2.2466  1.3695
 1910TIP3    H227366   3.339   2.945   0.334 -0.3392 -0.9406  1.2280
 1911TIP3   OH227367   0.893   0.234   0.835  0.3046 -0.4772 -0.6748
 1911TIP3    H127368   0.879   0.318   0.879 -3.7660 -2.0734  1.6409
 1911TIP3    H227369   0.955   0.187   0.890 -0.7567 -0.5028  0.5596
 1912TIP3   OH227370   4.345   1.421   0.634 -0.1726 -0.1164 -0.7177
 1912TIP3    H127371   4.386   1.400   0.550  1.6561  1.4683 -0.2848
 1912TIP3    H227372   4.251   1.422   0.616  0.1589 -0.4164 -2.5865
 1913TIP3   OH227373   2.230   4.993   2.312 -0.0776  0.1000  0.8187
 1913TIP3    H127374   2.214   5.087   2.303 -0.6754 -0.1307 -1.0429
 1913TIP3    H227375   2.304   4.975   2.253  0.6315 -0.4765  1.8385
 1914TIP3   OH227376   2.627   1.517   2.718 -0.5068 -0.5639 -0.4512
 1914TIP3    H127377   2.559   1.557   2.772  0.5779  0.2356  0.3490
 1914TIP3    H227378   2.667   1.452   2.775  0.6144  0.2519 -0.2856
 1915TIP3   OH227379   1.859   5.723   1.645  0.0197  0.1215  0.3308
 1915TIP3    H127380   1.953   5.707   1.655  0.0400  1.2426  2.5515
 1915TIP3    H227381   1.848   5.815   1.668 -1.9132 -0.5831  2.6228
 1916TIP3   OH227382   0.224   3.272   1.394  0.4562  0.1078  0.0439
 1916TIP3    H127383   0.139   3.289   1.354  0.9486  1.5988 -0.4316
 1916TIP3    H227384   0.219   3.181   1.422 -1.2634  0.1433 -0.0331
 1917TIP3   OH227385   6.019   1.049   0.556  0.2791  0.0785 -0.1169
 1917TIP3    H127386   6.007   0.955   0.565 -0.7888  0.3218  1.5591
 1917TIP3    H227387   6.070   1.060   0.475 -1.8221 -1.7823 -1.8328
 1918TIP3   OH227388   2.981   2.239   0.325 -0.3383  0.1862  0.3981
 1918TIP3    H127389   3.059   2.217   0.275 -0.6850  0.7001 -0.3840
 1918TIP3    H227390   2.937   2.154   0.339  0.1887 -0.0625  0.5622
 1919TIP3   OH227391   3.955   3.058   1.932  0.0701 -0.4675  0.0838
 1919TIP3    H127392   3.883   3.115   1.905 -1.1233 -0.9981  1.8931
 1919TIP3    H227393   4.025   3.118   1.956 -0.0162  0.0958 -1.0214
 1920TIP3   OH227394   3.639   2.540   1.537 -0.4101 -0.0782 -0.6458
 1920TIP3    H127395   3.573   2.472   1.551  1.1447 -1.5547 -0.1984
 1920TIP3    H227396   3.655   2.539   1.442 -1.4120  0.6902 -0.8379
 1921TIP3   OH227397   2.313   1.623   2.584  0.7923 -0.0234  0.2643
 1921TIP3    H127398   2.263   1.704   2.567  0.0350 -0.2797  1.1701
 1921TIP3    H227399   2.321   1.620   2.679 -1.5497 -2.3528  0.5129
 1922TIP3   OH227400   3.571   5.032   8.394 -0.4379  0.1949  0.6644
 1922TIP3    H127401   3.536   4.980   8.323  0.5700  0.6817 -0.2295
 1922TIP3    H227402   3.564   5.123   8.363 -0.1938  0.4327  1.2816
 1923TIP3   OH227403   3.689   4.458   7.851  0.2072 -0.5104 -0.1130
 1923TIP3    H127404   3.627   4.395   7.815 -1.4047  0.0585  1.5134
 1923TIP3    H227405   3.677   4.452   7.946  1.1154  1.1268  0.1480
 1924TIP3   OH227406   5.528   6.661   7.517  0.5040 -0.3751  0.0684
 1924TIP3    H127407   5.622   6.645   7.505  0.2428 -2.7242  0.6916
 1924TIP3    H227408   5.503   6.713   7.440  2.1657 -0.2658 -0.4433
 1925TIP3   OH227409   4.792   6.458   7.316  0.0600 -0.8059  0.4422
 1925TIP3    H127410   4.758   6.530   7.263 -1.1209 -1.1547  0.6930
 1925TIP3    H227411   4.828   6.396   7.252 -2.7945 -1.9874 -0.1821
 1926TIP3   OH227412   6.112   4.948   3.169 -0.2189 -0.0008 -0.5736
 1926TIP3    H127413   6.104   5.037   3.205  1.3700 -0.6758  1.6804
 1926TIP3    H227414   6.205   4.939   3.147 -0.4260 -1.0112 -1.1211
 1927TIP3   OH227415   3.788   4.500   1.856 -0.3210  0.1230 -0.1143
 1927TIP3    H127416   3.851   4.443   1.811  2.8823  3.4299 -0.3234
 1927TIP3    H227417   3.768   4.454   1.937  0.2671 -2.2520 -1.2204
 1928TIP3   OH227418   0.282   5.242   2.448 -0.2126 -0.2236 -0.1357
 1928TIP3    H127419   0.299   5.315   2.389  1.4771 -1.0571 -0.7704
 1928TIP3    H227420   0.295   5.164   2.394 -1.5725 -1.0037  0.6183
 1929TIP3   OH227421   1.100   3.986   7.399  0.2047  0.2693  0.7023
 1929TIP3    H127422   1.092   3.911   7.340  1.9830  0.0509  0.6659
 1929TIP3    H227423   1.021   3.985   7.452 -0.0543 -1.2959  0.3151
 1930TIP3   OH227424   0.762   5.424   0.148 -1.1219  0.7343  0.0357
 1930TIP3    H127425   0.844   5.469   0.167 -1.3225  0.8250  0.7059
 1930TIP3    H227426   0.757   5.354   0.212 -0.4018 -0.8256 -1.5254
 1931TIP3   OH227427   1.906   4.832   1.459  0.0772 -0.5080  0.1317
 1931TIP3    H127428   1.961   4.872   1.526 -0.0776  0.9324 -0.5666
 1931TIP3    H227429   1.830   4.889   1.453  0.3230 -0.3213 -1.6154
 1932TIP3   OH227430   6.616   4.760   2.557 -0.2960  0.5469  0.6080
 1932TIP3    H127431   6.621   4.824   2.628  2.2406  0.5265  0.5158
 1932TIP3    H227432   6.633   4.676   2.598  0.3963  0.4388  0.1264
 1933TIP3   OH227433   1.708   1.899   2.202 -0.4038 -0.5791  0.3387
 1933TIP3    H127434   1.789   1.948   2.188 -0.7566 -0.2662 -0.6306
 1933TIP3    H227435   1.678   1.928   2.289  0.1293 -0.1494  0.3895
 1934TIP3   OH227436   3.813   4.396   0.318  0.1655 -0.0726  0.2824
 1934TIP3    H127437   3.754   4.462   0.353 -0.9596 -0.6568 -0.4339
 1934TIP3    H227438   3.761   4.316   0.315  1.4188 -0.9555  0.9082
 1935TIP3   OH227439   5.579   6.760   1.947 -0.0627  0.0719  0.0464
 1935TIP3    H127440   5.514   6.691   1.936 -0.3775  0.2889  0.4847
 1935TIP3    H227441   5.662   6.718   1.927 -0.4438  0.1278 -1.8135
 1936TIP3   OH227442   0.664   0.266   1.789  0.0081 -0.1765  0.2212
 1936TIP3    H127443   0.750   0.262   1.831  0.8355 -1.1649 -1.4620
 1936TIP3    H227444   0.641   0.359   1.789  0.2642 -0.0776  2.2000
 1937TIP3   OH227445   3.141   4.058   0.995 -0.3554  0.4837  0.1175
 1937TIP3    H127446   3.214   4.018   0.948  0.7942  1.3823  1.0747
 1937TIP3    H227447   3.072   4.066   0.930  0.3560 -0.4711 -0.7911
 1938TIP3   OH227448   6.055   6.596   8.194 -0.0038 -0.2230 -0.2015
 1938TIP3    H127449   6.138   6.548   8.185  0.5904  0.3161  1.9251
 1938TIP3    H227450   6.080   6.688   8.187 -0.4786 -0.0690  0.1099
 1939TIP3   OH227451   4.796   0.950   1.669 -0.0479 -0.1078 -0.2233
 1939TIP3    H127452   4.700   0.953   1.670 -0.0226  1.5855 -0.8706
 1939TIP3    H227453   4.823   1.037   1.697  1.3311 -0.7046  0.3925
 1940TIP3   OH227454   4.266   3.905   1.401  0.4013 -0.0907 -0.3209
 1940TIP3    H127455   4.193   3.867   1.450 -1.8706  2.0616 -1.8057
 1940TIP3    H227456   4.312   3.960   1.464  1.0620 -1.7925  0.7347
 1941TIP3   OH227457   3.181   6.123   7.347 -0.1963  0.3846  0.2137
 1941TIP3    H127458   3.124   6.114   7.270  0.8698 -1.9698 -0.3851
 1941TIP3    H227459   3.171   6.215   7.373  0.5975  1.7680 -3.7006
 1942TIP3   OH227460   4.122   2.395   0.482  0.8880  0.0922  0.3156
 1942TIP3    H127461   4.114   2.426   0.573 -3.4828 -2.1635  0.9902
 1942TIP3    H227462   4.169   2.312   0.489 -1.4030 -1.2468  1.0497
 1943TIP3   OH227463   5.870   6.075   1.338 -0.4189  0.3473 -0.2851
 1943TIP3    H127464   5.803   6.085   1.406 -0.0634  0.2615  0.0763
 1943TIP3    H227465   5.936   6.140   1.359 -0.3871  0.4381 -0.6514
 1944TIP3   OH227466   5.407   2.922   1.172  0.2840 -0.1673  0.4510
 1944TIP3    H127467   5.384   3.014   1.185  0.9413 -0.0179  0.5926
 1944TIP3    H227468   5.342   2.874   1.223  1.1620  0.3045  2.0979
 1945TIP3   OH227469   5.782   6.230   2.440 -0.3758  0.7134 -0.3140
 1945TIP3    H127470   5.846   6.262   2.504  0.4514  1.5126 -1.5085
 1945TIP3    H227471   5.783   6.135   2.451 -0.1703  0.8268  0.7805
 1946TIP3   OH227472   0.372   5.821   8.586  0.2127 -0.0423  0.1393
 1946TIP3    H127473   0.450   5.806   8.640  1.0985 -0.9762 -1.3392
 1946TIP3    H227474   0.404   5.870   8.511 -1.0854  1.5950  0.6041
 1947TIP3   OH227475   4.115   1.932   8.664  0.3893  0.2146  1.0205
 1947TIP3    H127476   4.186   1.951   8.604  2.1471 -3.6732  1.6015
 1947TIP3    H227477   4.121   2.000   8.732  2.7660  0.6843  0.3966
 1948TIP3   OH227478   2.237   1.501   0.054 -0.6840  0.2722 -0.1840
 1948TIP3    H127479   2.305   1.567   0.064 -1.2860  1.0102 -0.8683
 1948TIP3    H227480   2.209   1.509  -0.037 -1.2378 -0.4617 -0.0862
 1949TIP3   OH227481   6.009   1.207   7.830  0.0348  0.3245 -0.3432
 1949TIP3    H127482   5.996   1.267   7.903  0.1984 -0.9343  0.7449
 1949TIP3    H227483   5.935   1.147   7.834  1.1184 -1.0353  0.0879
 1950TIP3   OH227484   0.062   3.398   1.671 -0.2665 -0.3386  0.3955
 1950TIP3    H127485   0.157   3.391   1.682 -0.0014  0.9459 -0.8262
 1950TIP3    H227486   0.051   3.460   1.600 -2.0434 -0.4166  0.5710
 1951TIP3   OH227487   5.767   5.672   0.350 -0.4889  0.3387  0.4096
 1951TIP3    H127488   5.791   5.596   0.297  0.7410  0.8186  0.2344
 1951TIP3    H227489   5.695   5.642   0.405  1.2442 -1.5962  1.7732
 1952TIP3   OH227490   5.573   0.503   1.622 -0.0536  0.1325 -0.2857
 1952TIP3    H127491   5.520   0.563   1.570 -0.2878 -0.7403 -1.0845
 1952TIP3    H227492   5.633   0.463   1.559  0.7575  0.2515  0.4063
 1953TIP3   OH227493   6.434   5.254   8.505 -0.4109 -0.1575  0.5613
 1953TIP3    H127494   6.494   5.300   8.446 -0.3718  0.5410  1.1300
 1953TIP3    H227495   6.456   5.162   8.495  0.7998  0.0917  0.8057
 1954TIP3   OH227496   3.451   3.241   7.946 -0.3272  0.0455 -0.1343
 1954TIP3    H127497   3.522   3.223   8.007  0.5629  1.5663 -0.6883
 1954TIP3    H227498   3.428   3.332   7.961  0.9312  0.9553 -3.0455
 1955TIP3   OH227499   5.536   2.787   1.916  0.6069 -0.7310  0.6054
 1955TIP3    H127500   5.622   2.795   1.874  0.2286 -1.2313 -0.2768
 1955TIP3    H227501   5.556   2.786   2.010  1.2855  3.0376  0.6542
 1956TIP3   OH227502   2.369   0.164   3.106 -0.8840 -0.4600 -0.4267
 1956TIP3    H127503   2.291   0.130   3.149 -0.2525 -1.3020  0.0941
 1956TIP3    H227504   2.385   0.249   3.147 -0.3688 -1.1935  0.9447
 1957TIP3   OH227505   3.040   3.760   2.568 -0.0483 -1.2955  0.4393
 1957TIP3    H127506   3.076   3.691   2.512  0.1561 -0.5440 -0.3692
 1957TIP3    H227507   2.979   3.807   2.512 -0.3591 -0.9605  1.0552
 1958TIP3   OH227508   1.451   3.195   1.362  0.1612  0.1115  0.2348
 1958TIP3    H127509   1.379   3.134   1.377 -0.1399  0.5676  0.6655
 1958TIP3    H227510   1.509   3.149   1.302 -0.7382 -0.0623 -0.5231
 1959TIP3   OH227511   0.095   6.011   1.164  0.5527 -0.3464  0.2160
 1959TIP3    H127512   0.136   5.939   1.212 -0.3036 -0.4843  0.7604
 1959TIP3    H227513   0.165   6.044   1.107  0.0696 -4.1387 -3.1046
 1960TIP3   OH227514   4.076   1.014   0.838  0.0003  0.1133 -0.1500
 1960TIP3    H127515   4.058   1.107   0.853 -1.0042  0.1111 -1.2253
 1960TIP3    H227516   3.993   0.970   0.853 -0.1011 -0.3317 -1.8361
 1961TIP3   OH227517   6.487   2.919   7.161  0.0972 -0.1255 -0.0101
 1961TIP3    H127518   6.538   2.960   7.091  1.6833 -1.0089  0.6001
 1961TIP3    H227519   6.497   2.977   7.236  0.5899 -0.5488  0.2484
 1962TIP3   OH227520   6.684   2.150   2.148  0.4965  0.6770  0.0462
 1962TIP3    H127521   6.687   2.079   2.212 -0.6271 -0.5924 -1.2391
 1962TIP3    H227522   6.602   2.196   2.166 -1.1539 -1.2541 -1.9732
 1963TIP3   OH227523   3.955   4.097   1.357 -0.4370 -0.0548  0.1790
 1963TIP3    H127524   3.904   4.166   1.315  0.1972  0.1054 -0.3394
 1963TIP3    H227525   3.970   4.032   1.288 -1.2958 -0.8749  0.7420
 1964TIP3   OH227526   4.750   3.016   0.741  0.0178 -0.1036  0.0153
 1964TIP3    H127527   4.730   2.942   0.798 -1.1292 -0.2927 -0.5954
 1964TIP3    H227528   4.766   3.089   0.801 -0.4705 -0.4640  0.6037
 1965TIP3   OH227529   0.900   0.606   0.630 -1.1665 -0.8636  0.0115
 1965TIP3    H127530   0.887   0.676   0.694 -0.9173 -0.8631  0.0623
 1965TIP3    H227531   0.934   0.651   0.552  1.3579 -1.1908  0.8297
 1966TIP3   OH227532   4.301   1.168   1.596  0.4642  0.1146 -0.1831
 1966TIP3    H127533   4.303   1.186   1.502  0.8749  0.5824 -0.0874
 1966TIP3    H227534   4.269   1.249   1.636  1.5080  0.3595  0.1828
 1967TIP3   OH227535   4.513   5.980   8.468  0.1830  0.0850 -0.0488
 1967TIP3    H127536   4.501   5.901   8.414 -2.3729 -0.5212  1.2168
 1967TIP3    H227537   4.482   5.954   8.555 -0.1415  2.3306  0.5681
 1968TIP3   OH227538   6.544   2.127   1.875  0.0387 -0.2182  0.0150
 1968TIP3    H127539   6.514   2.048   1.830  4.4276 -1.6231 -0.8741
 1968TIP3    H227540   6.580   2.182   1.805 -0.7472  1.5314  0.9269
 1969TIP3   OH227541   4.764   3.077   0.441  0.1482 -0.0969 -0.2817
 1969TIP3    H127542   4.840   3.040   0.396  0.5538 -1.5339  1.4309
 1969TIP3    H227543   4.794   3.089   0.531 -1.5956 -0.5255  0.3977
 1970TIP3   OH227544   6.820   5.595   0.865 -0.0385  0.9224 -0.2370
 1970TIP3    H127545   6.764   5.533   0.819  0.4108  1.7338 -1.9543
 1970TIP3    H227546   6.902   5.548   0.878 -0.7055  0.0964  1.3598
 1971TIP3   OH227547   0.867   5.510   7.998 -0.0827  0.0809  0.4030
 1971TIP3    H127548   0.843   5.500   7.905 -0.8165  0.6151  0.5227
 1971TIP3    H227549   0.828   5.434   8.041  1.5020 -0.9749  0.0825
 1972TIP3   OH227550   3.165   5.096   2.103 -0.4571 -0.6239  0.6479
 1972TIP3    H127551   3.156   5.001   2.097 -3.6850 -0.3602 -1.1298
 1972TIP3    H227552   3.219   5.120   2.027 -0.6156 -0.9702  0.4215
 1973TIP3   OH227553   0.350   0.040   2.611  0.1150  0.1310  0.2524
 1973TIP3    H127554   0.356  -0.055   2.611  0.5142  0.1363  1.3248
 1973TIP3    H227555   0.439   0.070   2.593  0.0491  0.2956  0.2024
 1974TIP3   OH227556   5.967   0.296   1.033 -0.2794 -0.4117  0.2910
 1974TIP3    H127557   5.960   0.221   0.975  2.0509  0.6112 -1.4766
 1974TIP3    H227558   5.918   0.366   0.988  0.3073 -0.0033  0.2790
 1975TIP3   OH227559   6.709   0.564   3.025 -0.1961  0.0579  0.2917
 1975TIP3    H127560   6.624   0.593   3.058  0.2267  2.2861 -0.4422
 1975TIP3    H227561   6.697   0.470   3.007 -2.5720  0.3618 -0.0264
 1976TIP3   OH227562   4.184   1.534   8.647 -0.0877  0.2196 -0.1567
 1976TIP3    H127563   4.227   1.453   8.674 -1.6009 -0.9490 -1.0584
 1976TIP3    H227564   4.192   1.592   8.723  0.1833 -1.1277  0.8850
 1977TIP3   OH227565   0.989   0.629   1.443 -0.1149 -0.0005  0.6378
 1977TIP3    H127566   1.027   0.716   1.447 -0.6487  0.1751  2.4675
 1977TIP3    H227567   0.914   0.632   1.502 -1.2992 -1.1599 -0.7012
 1978TIP3   OH227568   6.620   4.060   1.295 -0.1083  0.8290  0.8396
 1978TIP3    H127569   6.619   3.980   1.243  2.0557 -0.0192  2.0124
 1978TIP3    H227570   6.685   4.116   1.252  1.3986  0.2827  2.3259
 1979TIP3   OH227571   1.712   2.234   1.416  0.1428  0.6300 -0.5401
 1979TIP3    H127572   1.744   2.232   1.326  1.2109  2.4849 -0.2479
 1979TIP3    H227573   1.777   2.185   1.466 -0.2870 -0.1282 -0.7001
 1980TIP3   OH227574   4.643   0.609   7.876  0.8804  0.6005  0.1880
 1980TIP3    H127575   4.617   0.687   7.924  1.9098  0.3838  1.1276
 1980TIP3    H227576   4.651   0.541   7.942 -0.2476 -0.4071 -0.6443
 1981TIP3   OH227577   4.758   4.081   1.469  0.6292  0.0013 -0.2823
 1981TIP3    H127578   4.668   4.092   1.500  0.4928  0.2511 -0.7508
 1981TIP3    H227579   4.811   4.131   1.531  0.4048  0.1774 -0.2305
 1982TIP3   OH227580   6.418   0.533   2.074  0.0962  0.6497 -0.1451
 1982TIP3    H127581   6.470   0.485   2.010 -0.4281  0.0667 -0.1383
 1982TIP3    H227582   6.334   0.548   2.031  0.9274  3.4885 -0.9982
 1983TIP3   OH227583   6.439   5.005   7.545  0.1326  0.2768 -0.3836
 1983TIP3    H127584   6.402   4.917   7.541  0.9544 -0.0399 -1.3551
 1983TIP3    H227585   6.533   4.992   7.532  0.2818  1.2861 -0.3778
 1984TIP3   OH227586   5.177   3.883   7.976  0.3265 -0.3392 -0.0324
 1984TIP3    H127587   5.194   3.873   7.883 -0.0872  0.0165 -0.1484
 1984TIP3    H227588   5.216   3.967   8.000  0.3266 -0.3732  0.0904
 1985TIP3   OH227589   5.191   6.734   1.086  0.3604 -0.6888 -0.2678
 1985TIP3    H127590   5.156   6.661   1.036  2.4457 -2.5951  0.8231
 1985TIP3    H227591   5.241   6.692   1.157  1.6027  1.7953  0.4496
 1986TIP3   OH227592   4.373   5.340   2.821 -0.3711  0.4143 -0.3401
 1986TIP3    H127593   4.328   5.360   2.739 -1.1743 -0.9840 -0.2727
 1986TIP3    H227594   4.313   5.282   2.868  0.4373  0.5217  0.8722
 1987TIP3   OH227595   2.353   4.105   1.538  0.1876 -0.3905 -0.3755
 1987TIP3    H127596   2.447   4.119   1.548  0.2234  0.4038 -1.7126
 1987TIP3    H227597   2.314   4.190   1.557 -0.2961 -0.7568  0.3370
 1988TIP3   OH227598   0.949   1.602   2.898  0.4370 -0.1992  0.1935
 1988TIP3    H127599   1.016   1.671   2.900 -1.5032  1.7671  0.9380
 1988TIP3    H227600   0.934   1.585   2.805  1.0303  0.2612  0.0061
 1989TIP3   OH227601   3.416   6.817   3.219  0.6350 -0.4165 -0.0216
 1989TIP3    H127602   3.506   6.846   3.236  0.0562  1.0376  0.7571
 1989TIP3    H227603   3.395   6.854   3.133  0.5444 -0.0975  0.1330
 1990TIP3   OH227604   2.051   3.179   1.033 -0.3613 -0.1944 -0.4784
 1990TIP3    H127605   2.098   3.146   1.109 -0.8172 -0.3048 -0.2410
 1990TIP3    H227606   2.113   3.169   0.960  0.1566  0.1316 -0.0865
 1991TIP3   OH227607   3.903   3.115   8.496  0.2360  0.3050  0.2480
 1991TIP3    H127608   3.901   3.084   8.587 -1.1578 -0.8554 -0.1490
 1991TIP3    H227609   3.865   3.202   8.500 -1.3704 -0.3710  0.5904
 1992TIP3   OH227610   1.175   0.393   0.889  0.0791  0.0647 -0.2746
 1992TIP3    H127611   1.154   0.379   0.796  0.6488  1.0970 -0.5854
 1992TIP3    H227612   1.263   0.357   0.898  0.1539  0.2599 -0.2214
 1993TIP3   OH227613   0.311   5.190   0.993 -0.0518 -0.2061 -0.4729
 1993TIP3    H127614   0.258   5.124   1.037  1.6273 -1.7626 -0.6818
 1993TIP3    H227615   0.295   5.175   0.899 -0.8295  0.7271 -0.5114
 1994TIP3   OH227616   2.158   5.644   8.013  0.0962 -0.1002 -0.4016
 1994TIP3    H127617   2.242   5.690   8.013 -0.4178  0.9341  1.8051
 1994TIP3    H227618   2.178   5.559   7.974  1.7748  0.7306 -1.4948
 1995TIP3   OH227619   2.244   4.263   0.967 -0.2962  0.0373  0.4612
 1995TIP3    H127620   2.184   4.313   1.022 -1.1371 -1.0575  0.5635
 1995TIP3    H227621   2.189   4.197   0.925  0.7181 -0.5260 -0.0138
 1996TIP3   OH227622   3.578   3.035   2.886 -0.2879 -0.0943  0.2588
 1996TIP3    H127623   3.659   3.004   2.845  0.6652  0.7895  1.3953
 1996TIP3    H227624   3.577   2.993   2.972  0.3972  1.9503  1.3345
 1997TIP3   OH227625   0.904   4.886   7.997  0.1483  0.2201 -0.9832
 1997TIP3    H127626   0.881   4.972   8.032  3.1543  1.1740 -1.0715
 1997TIP3    H227627   0.893   4.895   7.902  1.2821  0.8527 -1.0762
 1998TIP3   OH227628   5.837   4.613   0.320  0.7080  0.3416  0.3568
 1998TIP3    H127629   5.806   4.616   0.410 -0.5516  2.4130 -0.0798
 1998TIP3    H227630   5.777   4.551   0.277  0.2680  0.6035  0.5859
 1999TIP3   OH227631   0.412   1.871   1.254  0.2646 -0.2578 -0.1961
 1999TIP3    H127632   0.476   1.909   1.313  1.1888  0.6608 -1.7287
 1999TIP3    H227633   0.330   1.917   1.274 -0.3489 -2.2933  2.6363
 2000TIP3   OH227634   0.800   0.442   7.645 -0.2192  0.3108  0.1020
 2000TIP3    H127635   0.820   0.521   7.594 -0.1375  0.6022  0.5762
 2000TIP3    H227636   0.740   0.473   7.713 -2.4587 -0.5596 -1.3664
 2001TIP3   OH227637   3.481   6.829   1.953 -0.0516 -0.9736  0.3799
 2001TIP3    H127638   3.432   6.909   1.936 -0.2353 -1.1505  0.0613
 2001TIP3    H227639   3.414   6.764   1.975 -0.0317 -1.3913 -0.7189
 2002TIP3   OH227640   1.667   0.826   3.264  0.0338 -0.5126 -0.2374
 2002TIP3    H127641   1.626   0.912   3.270  0.1947 -0.2790 -2.0408
 2002TIP3    H227642   1.747   0.834   3.316  0.3037  0.5898 -0.7911
 2003TIP3   OH227643   6.060   1.790   0.552  0.1431  0.4630  0.5178
 2003TIP3    H127644   6.007   1.713   0.572  0.7671  0.4756  2.3763
 2003TIP3    H227645   6.128   1.758   0.493 -0.6319 -0.0024 -0.1521
 2004TIP3   OH227646   1.508   6.102   0.243  0.1625  0.4184 -1.1438
 2004TIP3    H127647   1.467   6.189   0.244 -0.4668  0.1299  0.2223
 2004TIP3    H227648   1.473   6.058   0.320  0.1254 -1.2269 -2.0606
 2005TIP3   OH227649   4.478   3.537   8.186  0.0967  0.1254  0.0471
 2005TIP3    H127650   4.511   3.476   8.252  1.0572  1.7551  1.1445
 2005TIP3    H227651   4.553   3.591   8.164 -0.7405  0.9553 -0.8681
 2006TIP3   OH227652   4.657   1.368   7.811 -0.2386  0.4876 -0.1639
 2006TIP3    H127653   4.697   1.368   7.724  1.4572  1.0559  0.5725
 2006TIP3    H227654   4.709   1.431   7.861  1.6597 -2.7843  2.4669
 2007TIP3   OH227655   6.836   3.021   1.061 -0.4272  0.1744 -0.3422
 2007TIP3    H127656   6.796   3.077   1.128  2.5906  1.5975  0.4814
 2007TIP3    H227657   6.888   2.958   1.110 -0.1087 -0.3432 -1.3186
 2008TIP3   OH227658   4.425   6.236   1.172 -0.3642 -0.1289  0.4470
 2008TIP3    H127659   4.434   6.269   1.261  1.9723  0.3608  0.0794
 2008TIP3    H227660   4.423   6.141   1.181  0.6460 -0.1127  0.9983
 2009TIP3   OH227661   4.516   5.780   7.329 -0.0874 -0.0754 -0.4444
 2009TIP3    H127662   4.558   5.800   7.245  1.0509 -0.4665  0.0191
 2009TIP3    H227663   4.459   5.856   7.345 -0.4206 -0.0576 -1.6255
 2010TIP3   OH227664   1.922   1.030   1.960 -0.3287  0.2007 -0.0343
 2010TIP3    H127665   1.934   1.124   1.976  0.3639  0.4038 -1.5025
 2010TIP3    H227666   1.840   1.008   2.004 -1.9419  2.1182 -1.8189
 2011TIP3   OH227667   5.458   0.055   2.150 -0.6051 -0.4431 -0.4788
 2011TIP3    H127668   5.470  -0.011   2.218 -2.3051 -0.5587 -0.2330
 2011TIP3    H227669   5.512   0.025   2.077  1.3527 -0.2402  0.8389
 2012TIP3   OH227670   2.850   2.390   2.058  0.3138 -0.1264 -0.2112
 2012TIP3    H127671   2.901   2.317   2.092  1.5201 -0.3230 -2.2389
 2012TIP3    H227672   2.801   2.353   1.985 -0.4787  0.7056 -0.1183
 2013TIP3   OH227673   6.432   2.661   6.879 -0.2104 -0.2346  0.2638
 2013TIP3    H127674   6.408   2.607   6.804 -0.3481 -0.0598  0.1777
 2013TIP3    H227675   6.527   2.665   6.877 -0.2373  0.3854 -0.3521
 2014TIP3   OH227676   5.558   2.795   8.096 -0.3429 -0.5956  0.1325
 2014TIP3    H127677   5.550   2.868   8.034  0.3261  0.0999  0.8331
 2014TIP3    H227678   5.475   2.747   8.088 -0.7118  0.1235 -0.4944
 2015TIP3   OH227679   3.735   1.946   2.052  0.6939  0.3356 -0.1115
 2015TIP3    H127680   3.729   1.861   2.007 -0.4243  1.0762 -1.4631
 2015TIP3    H227681   3.784   2.001   1.991 -0.3157  1.1877 -0.1914
 2016TIP3   OH227682   2.948   4.634   7.887 -0.1003  0.5038  0.6572
 2016TIP3    H127683   3.009   4.697   7.924  0.7417  0.7074 -0.9977
 2016TIP3    H227684   2.890   4.686   7.831  0.5173 -0.1149 -0.6224
 2017TIP3   OH227685   2.521   0.554   0.282  0.4680  0.3106  0.2597
 2017TIP3    H127686   2.576   0.477   0.274  1.6635  1.0787  0.8152
 2017TIP3    H227687   2.582   0.627   0.290 -0.6287  1.3372 -0.3278
 2018TIP3   OH227688   3.811   0.739   2.654 -0.1008  0.0052 -0.4770
 2018TIP3    H127689   3.832   0.665   2.597  0.4901 -0.2604  0.0769
 2018TIP3    H227690   3.749   0.703   2.717  0.6653 -0.1895  0.1763
 2019TIP3   OH227691   4.907   1.994   1.788 -0.2476  0.6561 -0.6055
 2019TIP3    H127692   4.856   2.031   1.716  0.3565 -0.6315 -1.7471
 2019TIP3    H227693   4.997   2.016   1.766 -0.2156  2.5552  1.1811
 2020TIP3   OH227694   3.957   1.887   1.607  0.1555  0.0208 -0.1494
 2020TIP3    H127695   3.989   1.968   1.567  3.2091 -0.3301  1.2870
 2020TIP3    H227696   3.923   1.835   1.534  0.8618  1.4177 -1.5094
 2021TIP3   OH227697   2.726   3.374   8.434  0.3681 -0.1414  0.5024
 2021TIP3    H127698   2.803   3.361   8.378 -0.2216  0.1959 -0.3953
 2021TIP3    H227699   2.683   3.288   8.436  0.0074  0.0195 -0.1437
 2022TIP3   OH227700   1.503   0.707   3.085  0.0520 -0.2925  0.3682
 2022TIP3    H127701   1.564   0.737   3.153  0.7128 -1.8802  0.5086
 2022TIP3    H227702   1.432   0.665   3.133 -0.4281  0.2286  0.1336
 2023TIP3   OH227703   5.415   6.860   7.822 -0.5071  0.0459  0.5256
 2023TIP3    H127704   5.422   6.949   7.787 -2.2154  0.0825  0.1889
 2023TIP3    H227705   5.357   6.869   7.897 -1.2697 -0.8832  0.0592
 2024TIP3   OH227706   1.636   1.798   1.040 -0.1383 -0.0199 -0.4193
 2024TIP3    H127707   1.691   1.868   1.005  1.1237 -0.9020 -0.2749
 2024TIP3    H227708   1.641   1.729   0.974  1.3498 -1.2612  0.8983
 2025TIP3   OH227709   5.217   5.019   0.751  0.7006 -0.1226  0.1955
 2025TIP3    H127710   5.127   5.009   0.721  0.4969  1.9884 -0.0306
 2025TIP3    H227711   5.251   5.092   0.700  1.5816  1.0625  2.3546
 2026TIP3   OH227712   3.618   5.420   7.276 -0.6360  0.1050  0.3909
 2026TIP3    H127713   3.537   5.465   7.254 -0.7615  0.4138  1.4304
 2026TIP3    H227714   3.597   5.327   7.271  0.1232 -0.0203 -3.7372
 2027TIP3   OH227715   4.616   0.820   7.337  0.1650 -0.0179  0.8222
 2027TIP3    H127716   4.700   0.867   7.338  0.1523  0.0475 -0.2395
 2027TIP3    H227717   4.638   0.733   7.304  0.0378 -0.4757  1.9082
 2028TIP3   OH227718   0.527   3.834   1.346 -0.2350 -0.0455  0.2800
 2028TIP3    H127719   0.521   3.906   1.283 -0.3158  0.8360  1.2512
 2028TIP3    H227720   0.502   3.756   1.297 -1.3783  0.7788 -0.5004
 2029TIP3   OH227721   0.806   1.666   0.230 -0.4890 -0.7916  0.0875
 2029TIP3    H127722   0.742   1.696   0.166 -1.0005 -2.1624 -0.0739
 2029TIP3    H227723   0.793   1.571   0.235  3.1595 -1.6038 -1.8230
 2030TIP3   OH227724   0.729   1.756   1.568 -0.6193  0.7906 -0.0999
 2030TIP3    H127725   0.804   1.791   1.520 -1.5360 -0.7797 -2.9271
 2030TIP3    H227726   0.747   1.662   1.575 -0.7862  0.8949  2.2687
 2031TIP3   OH227727   5.661   0.724   1.813 -0.1238  0.1082  0.2141
 2031TIP3    H127728   5.665   0.691   1.723  2.0320  1.6518 -0.3373
 2031TIP3    H227729   5.740   0.778   1.822 -1.0302  1.1587  2.5825
 2032TIP3   OH227730   5.896   6.845   8.079  0.8579 -0.5024  1.0010
 2032TIP3    H127731   5.911   6.840   8.173  1.1206  0.2788  1.0059
 2032TIP3    H227732   5.983   6.852   8.041  0.7052  0.3182  0.7828
 2033TIP3   OH227733   0.707   6.656   7.927  0.3578  0.0252 -0.9697
 2033TIP3    H127734   0.752   6.736   7.899  1.6806 -0.6932 -0.9288
 2033TIP3    H227735   0.776   6.591   7.937 -0.3208 -0.4118  1.6567
 2034TIP3   OH227736   5.399   1.971   8.531 -0.0565  0.0378  0.3287
 2034TIP3    H127737   5.436   2.059   8.543 -2.1157  0.9055  0.8079
 2034TIP3    H227738   5.309   1.987   8.503 -0.7170 -1.9276  1.1852
 2035TIP3   OH227739   1.520   2.527   8.362 -0.0336 -0.0238  0.3173
 2035TIP3    H127740   1.515   2.604   8.306  1.6227 -0.0666  0.0818
 2035TIP3    H227741   1.435   2.484   8.351 -0.3523  0.8679 -0.8503
 2036TIP3   OH227742   5.861   3.643   2.986  0.1190  0.2347  0.3102
 2036TIP3    H127743   5.844   3.552   2.962  0.2002 -0.0334  1.2527
 2036TIP3    H227744   5.775   3.686   2.979 -0.0486 -0.0661  0.5178
 2037TIP3   OH227745   4.541   5.629   7.787  0.1672 -1.1900  0.0148
 2037TIP3    H127746   4.564   5.664   7.873  0.3135  0.2195 -0.5635
 2037TIP3    H227747   4.460   5.581   7.802 -1.0819  0.9282  0.6084
 2038TIP3   OH227748   1.960   1.273   8.097  0.2971  0.2322  0.3849
 2038TIP3    H127749   2.016   1.196   8.087  2.9370  1.9041  1.0542
 2038TIP3    H227750   1.881   1.240   8.140  1.3364 -2.0913  0.6748
 2039TIP3   OH227751   4.342   3.794   3.115 -0.2953 -0.6320 -0.0983
 2039TIP3    H127752   4.341   3.706   3.154 -2.1118  0.0528  1.6082
 2039TIP3    H227753   4.269   3.840   3.158  2.5210  2.7712  1.5986
 2040TIP3   OH227754   5.470   1.345   1.382  0.6197 -0.0515  0.4453
 2040TIP3    H127755   5.471   1.434   1.418  0.5449  0.0326  0.2424
 2040TIP3    H227756   5.559   1.312   1.398  0.2359 -0.4831  1.8281
 2041TIP3   OH227757   6.636   0.554   8.277  0.5485 -0.2298  0.0880
 2041TIP3    H127758   6.671   0.618   8.338 -0.9432  1.0672 -0.3442
 2041TIP3    H227759   6.541   0.558   8.288  0.3891 -2.4227  0.0643
 2042TIP3   OH227760   5.573   0.008   0.076  0.6593 -0.0398 -0.0791
 2042TIP3    H127761   5.500   0.057   0.038  0.3938 -0.2694  0.1356
 2042TIP3    H227762   5.583  -0.069   0.020 -0.4975 -0.9987  0.9638
 2043TIP3   OH227763   1.932   0.791   8.011  0.0139  0.6310  0.6734
 2043TIP3    H127764   1.919   0.699   7.987  1.5034  0.4216  0.5734
 2043TIP3    H227765   1.870   0.807   8.082 -0.4938 -0.3501  0.4604
 2044TIP3   OH227766   5.486   1.576   1.797  0.3517  0.2727  0.2804
 2044TIP3    H127767   5.484   1.660   1.751  1.6448 -0.1399 -0.5765
 2044TIP3    H227768   5.413   1.526   1.761 -1.3102  1.4752  1.7741
 2045TIP3   OH227769   3.628   3.896   2.530 -0.1790 -0.5645  0.1762
 2045TIP3    H127770   3.583   3.979   2.549  0.1409 -0.1888 -0.6812
 2045TIP3    H227771   3.614   3.844   2.609 -2.4418 -0.6020 -0.1655
 2046TIP3   OH227772   5.317   1.160   2.395  0.4580 -0.3372  0.6558
 2046TIP3    H127773   5.253   1.200   2.454  0.6839 -1.8803  2.0097
 2046TIP3    H227774   5.394   1.146   2.450  1.0261 -0.9450 -0.2741
 2047TIP3   OH227775   5.828   2.290   0.403 -0.0550  0.0035  0.0121
 2047TIP3    H127776   5.792   2.309   0.316 -0.4408 -0.4219  0.0683
 2047TIP3    H227777   5.888   2.361   0.421 -1.8664  1.4943  0.4818
 2048TIP3   OH227778   4.823   2.053   8.368  0.2433  0.2030 -0.3021
 2048TIP3    H127779   4.780   2.000   8.435  0.4455  0.4554  0.0322
 2048TIP3    H227780   4.862   2.126   8.416  1.0530 -0.0230 -0.5934
 2049TIP3   OH227781   4.182   6.049   8.639  0.2000  0.1452 -0.1107
 2049TIP3    H127782   4.257   6.006   8.681 -0.0027 -0.1204 -0.0145
 2049TIP3    H227783   4.133   5.977   8.599  0.5378  0.4205 -1.0433
 2050TIP3   OH227784   4.671   4.135   7.784  0.3189  0.3066  0.1350
 2050TIP3    H127785   4.605   4.118   7.717  0.7493 -1.4328  0.1196
 2050TIP3    H227786   4.755   4.123   7.740  0.6546  1.6505  0.3694
 2051TIP3   OH227787   1.119   5.356   8.230  0.3478  0.2095  0.4923
 2051TIP3    H127788   1.025   5.368   8.248  0.4107  0.0945  0.9082
 2051TIP3    H227789   1.161   5.427   8.279  0.6782 -1.2503  2.4586
 2052TIP3   OH227790   2.431   2.268   1.662  0.2402 -0.5580 -0.2780
 2052TIP3    H127791   2.392   2.266   1.575  0.7986 -0.9513 -0.5204
 2052TIP3    H227792   2.523   2.245   1.649  0.5514  0.3312  0.2995
 2053TIP3   OH227793   5.263   3.674   1.419 -0.1575  0.4828 -0.0540
 2053TIP3    H127794   5.321   3.715   1.355  0.9659  0.3024  0.8153
 2053TIP3    H227795   5.294   3.707   1.504 -0.5425 -0.5655  0.5084
 2054TIP3   OH227796   6.805   5.865   0.042 -0.2863 -0.3947 -0.1341
 2054TIP3    H127797   6.834   5.933   0.102 -2.6292 -0.3556  1.0733
 2054TIP3    H227798   6.799   5.909  -0.043  0.0118  0.4117  0.2496
 2055TIP3   OH227799   6.385   3.376   1.311 -0.2915 -0.2357 -0.1405
 2055TIP3    H127800   6.307   3.329   1.339  0.0031 -0.4172  0.3936
 2055TIP3    H227801   6.389   3.452   1.370  0.7755 -1.0446  0.8751
 2056TIP3   OH227802   1.149   4.416   0.772  0.0156 -0.7188  0.3948
 2056TIP3    H127803   1.150   4.385   0.862 -0.8369  0.6912  0.9242
 2056TIP3    H227804   1.056   4.416   0.747  0.2624 -1.3585 -0.5963
 2057TIP3   OH227805   5.310   6.506   0.096  0.6755 -0.1373 -0.3088
 2057TIP3    H127806   5.311   6.590   0.142 -0.6594 -0.0040 -0.4828
 2057TIP3    H227807   5.396   6.468   0.113  1.1473  1.0782  0.1165
 2058TIP3   OH227808   6.670   1.643   7.115 -0.1706  0.0004 -0.0221
 2058TIP3    H127809   6.586   1.598   7.108 -0.3067  0.1631  0.5045
 2058TIP3    H227810   6.664   1.715   7.052  1.0913 -2.2466 -2.9628
 2059TIP3   OH227811   2.116   3.332   8.030  0.0413 -0.5290  0.3492
 2059TIP3    H127812   2.146   3.323   7.940  1.5209 -2.0261  0.9439
 2059TIP3    H227813   2.125   3.426   8.049 -3.2108  0.4370 -1.9427
 2060TIP3   OH227814   0.469   0.611   2.273 -0.3461  0.3317 -0.3133
 2060TIP3    H127815   0.398   0.578   2.216 -0.4901 -0.4479  0.3002
 2060TIP3    H227816   0.523   0.534   2.290  0.7460  0.9442 -0.8814
 2061TIP3   OH227817   2.162   1.008   2.122 -0.0323  0.0971  0.1730
 2061TIP3    H127818   2.243   0.962   2.097  0.0132  0.5133 -0.4688
 2061TIP3    H227819   2.098   0.981   2.056 -0.3993 -0.1717  0.6370
 2062TIP3   OH227820   0.776   3.992   3.497 -0.7460 -0.3330  0.2354
 2062TIP3    H127821   0.765   4.085   3.476 -1.9753 -0.3652  0.6767
 2062TIP3    H227822   0.729   3.981   3.580 -1.5108 -1.5637 -0.3413
 2063TIP3   OH227823   0.228   4.474   8.005  0.3658  0.0081 -0.3705
 2063TIP3    H127824   0.264   4.543   8.061  0.9334 -0.1143 -0.5745
 2063TIP3    H227825   0.270   4.487   7.920  0.1762 -0.3385 -0.5201
 2064TIP3   OH227826   5.885   1.590   8.248  0.0656  0.7324  0.3156
 2064TIP3    H127827   5.932   1.525   8.299 -0.8208  0.3765  0.7075
 2064TIP3    H227828   5.811   1.542   8.210 -0.3348  1.3980  0.2204
 2065TIP3   OH227829   0.894   4.465   0.239  0.1474 -0.3294  0.1153
 2065TIP3    H127830   0.973   4.447   0.288 -0.1548 -2.1412 -0.0118
 2065TIP3    H227831   0.906   4.420   0.155 -1.4532 -1.6178  0.5270
 2066TIP3   OH227832   0.431   0.164   0.089  0.7376 -0.4007  0.2596
 2066TIP3    H127833   0.504   0.179   0.149  1.3378 -1.2654 -0.2493
 2066TIP3    H227834   0.434   0.071   0.070 -0.4538 -0.4348  0.1596
 2067TIP3   OH227835   5.895   1.315   2.121  0.2687 -0.1558 -0.0081
 2067TIP3    H127836   5.801   1.297   2.117 -0.0845  1.7476 -2.2097
 2067TIP3    H227837   5.929   1.248   2.181 -2.4794 -0.7763  1.0353
 2068TIP3   OH227838   6.768   1.865   8.468 -0.0121 -0.1972  0.1109
 2068TIP3    H127839   6.766   1.953   8.431  0.7242 -0.4808 -0.6125
 2068TIP3    H227840   6.676   1.837   8.466 -0.2747  0.5944  0.4752
 2069TIP3   OH227841   3.833   6.844   8.115  0.5064  0.1565  0.1494
 2069TIP3    H127842   3.916   6.836   8.163  0.5268 -0.8620 -0.0288
 2069TIP3    H227843   3.791   6.759   8.126 -0.5750  0.6958  0.3160
 2070TIP3   OH227844   3.625   0.635   1.575 -0.3408 -0.3899 -0.0753
 2070TIP3    H127845   3.565   0.709   1.565 -0.7443 -0.7147 -0.0529
 2070TIP3    H227846   3.582   0.562   1.530 -1.3658 -1.4241  2.4282
 2071TIP3   OH227847   3.860   4.863   0.308 -0.0228  0.1433  0.6904
 2071TIP3    H127848   3.815   4.823   0.383  0.2660  1.0569  1.3626
 2071TIP3    H227849   3.953   4.849   0.327  0.0875  1.2318  1.0017
 2072TIP3   OH227850   4.779   4.001   2.466  0.1834  0.2483  0.3026
 2072TIP3    H127851   4.827   4.031   2.388 -0.0809  1.5765  0.6191
 2072TIP3    H227852   4.760   4.081   2.514 -2.1136 -0.2644  0.3325
 2073TIP3   OH227853   4.175   0.265   0.948  0.3565 -0.5619 -0.0783
 2073TIP3    H127854   4.254   0.221   0.915  1.1760  0.4285  0.5049
 2073TIP3    H227855   4.163   0.340   0.889 -0.7782 -1.2792 -0.8013
 2074TIP3   OH227856   5.132   5.282   0.739 -0.0101 -0.4605 -0.2138
 2074TIP3    H127857   5.091   5.346   0.798 -0.2117 -0.5037 -0.3047
 2074TIP3    H227858   5.063   5.261   0.677  0.1582 -0.5258 -0.3769
 2075TIP3   OH227859   2.043   6.231   1.495 -0.1917  0.2988 -0.2243
 2075TIP3    H127860   2.093   6.289   1.437 -0.0715 -0.4801 -0.9306
 2075TIP3    H227861   1.974   6.197   1.439 -0.0880 -0.4524  0.1008
 2076TIP3   OH227862   1.190   2.766   2.985  0.1035 -0.0280  0.0617
 2076TIP3    H127863   1.181   2.840   2.925  0.0716 -0.2541 -0.2162
 2076TIP3    H227864   1.239   2.701   2.935  0.9095  0.1418  0.6077
 2077TIP3   OH227865   0.224   3.455   2.034 -0.2672  0.0957  0.3988
 2077TIP3    H127866   0.205   3.448   1.940  0.5907 -0.0429  0.2212
 2077TIP3    H227867   0.141   3.436   2.077 -0.7139  0.3308 -0.3371
 2078TIP3   OH227868   6.550   4.634   0.388 -0.3010  0.1686 -0.1914
 2078TIP3    H127869   6.549   4.538   0.397 -0.3479  0.2603  0.9579
 2078TIP3    H227870   6.465   4.661   0.424 -0.6857  0.5772 -1.3920
 2079TIP3   OH227871   6.213   6.108   2.325 -0.2768  0.2039  0.0958
 2079TIP3    H127872   6.122   6.095   2.301 -0.6593  2.0974  0.3771
 2079TIP3    H227873   6.222   6.067   2.411 -0.5956 -0.8164 -0.3445
 2080TIP3   OH227874   5.231   6.059   8.318 -0.1724  0.1727  0.4679
 2080TIP3    H127875   5.149   6.083   8.275 -0.3671 -1.1376  0.0841
 2080TIP3    H227876   5.207   6.041   8.409 -0.1574  0.6043  0.5611
 2081TIP3   OH227877   4.390   2.293   0.104 -0.1289  0.3867  0.1953
 2081TIP3    H127878   4.477   2.283   0.065 -0.6105  0.7173 -1.0468
 2081TIP3    H227879   4.379   2.216   0.159  0.1332 -0.7945 -1.3131
 2082TIP3   OH227880   5.148   3.295   1.304  0.5047 -0.0525 -0.7110
 2082TIP3    H127881   5.088   3.246   1.360 -1.0917 -0.4371 -2.6329
 2082TIP3    H227882   5.098   3.372   1.277  0.2325 -1.0635 -3.4764
 2083TIP3   OH227883   3.629   4.950   3.069  0.4854 -0.5004 -0.1569
 2083TIP3    H127884   3.620   4.862   3.106 -0.9376 -0.7028 -0.9414
 2083TIP3    H227885   3.569   4.951   2.994  1.5898  0.6544 -1.0705
 2084TIP3   OH227886   2.882   6.468   7.204  0.0953 -0.0779 -0.3793
 2084TIP3    H127887   2.909   6.413   7.278  0.5806  0.3469 -0.2299
 2084TIP3    H227888   2.803   6.512   7.234 -0.6271 -1.1214 -0.7127
 2085TIP3   OH227889   1.962   6.495   2.173 -0.7689  0.1778  0.3348
 2085TIP3    H127890   1.945   6.428   2.239 -0.1001 -0.1435  0.1892
 2085TIP3    H227891   1.906   6.470   2.099 -2.4815  1.2475  1.2124
 2086TIP3   OH227892   2.555   0.813   7.339 -0.3098  0.3670 -0.2102
 2086TIP3    H127893   2.472   0.853   7.314 -1.1913 -1.5962 -0.6930
 2086TIP3    H227894   2.619   0.849   7.278 -0.9173  1.4834 -0.2011
 2087TIP3   OH227895   2.975   5.215   3.190  0.3254  0.5501 -0.2858
 2087TIP3    H127896   3.034   5.290   3.195 -1.5554  2.0393  0.7792
 2087TIP3    H227897   2.971   5.182   3.280  0.1525 -0.0392 -0.5023
 2088TIP3   OH227898   6.534   0.298   0.501  0.4824  0.0308  0.3478
 2088TIP3    H127899   6.629   0.286   0.494  0.4634 -0.7351  1.1775
 2088TIP3    H227900   6.524   0.381   0.547  0.7512  0.3024 -0.0897
 2089TIP3   OH227901   4.538   5.497   2.290 -0.0931  0.1011 -0.0759
 2089TIP3    H127902   4.473   5.525   2.225 -0.7476 -0.9968  0.0791
 2089TIP3    H227903   4.515   5.545   2.370 -1.3321 -0.9934  0.2506
 2090TIP3   OH227904   0.640   5.295   8.619 -0.0456 -0.1605  0.2376
 2090TIP3    H127905   0.553   5.327   8.643  0.3028  0.9934  0.0422
 2090TIP3    H227906   0.700   5.338   8.681  0.3960 -0.8501  0.2970
 2091TIP3   OH227907   1.745   0.578   1.415 -0.1531 -0.5146 -0.0267
 2091TIP3    H127908   1.673   0.610   1.361  0.6159 -0.0726 -0.8116
 2091TIP3    H227909   1.717   0.596   1.505 -1.3654 -1.0884 -0.2794
 2092TIP3   OH227910   4.893   5.156   1.208  0.6280  0.5784 -0.0268
 2092TIP3    H127911   4.951   5.126   1.138  0.6239 -2.6487  1.2020
 2092TIP3    H227912   4.806   5.128   1.180  0.4591  0.3411  0.7399
 2093TIP3   OH227913   1.512   6.013   2.218  0.2119  0.3757  0.0154
 2093TIP3    H127914   1.605   6.033   2.226  1.1708 -3.4254  0.0222
 2093TIP3    H227915   1.494   6.020   2.124  1.3233 -1.6525 -0.3959
 2094TIP3   OH227916   0.222   2.824   1.454 -0.7361  0.1030  0.2383
 2094TIP3    H127917   0.273   2.900   1.482  0.0877 -0.0202 -0.8615
 2094TIP3    H227918   0.276   2.749   1.477 -0.1333 -0.0085 -1.4175
 2095TIP3   OH227919   0.916   6.743   1.188  0.3408  0.3270 -0.1190
 2095TIP3    H127920   0.836   6.762   1.237 -0.0162 -2.1492  0.4186
 2095TIP3    H227921   0.985   6.791   1.234 -0.4345  0.3750  1.0462
 2096TIP3   OH227922   3.453   1.452   0.864  0.1756  0.0184  0.2790
 2096TIP3    H127923   3.479   1.465   0.772 -1.7760  1.3297 -0.1555
 2096TIP3    H227924   3.358   1.446   0.861  0.1507 -1.0894  2.1276
 2097TIP3   OH227925   5.856   2.290   8.677  0.0467 -0.0022 -0.4344
 2097TIP3    H127926   5.793   2.275   8.747  1.7216 -2.1713  0.7365
 2097TIP3    H227927   5.880   2.382   8.686  0.1918 -0.1970  1.8923
 2098TIP3   OH227928   5.777   6.209   1.823  0.1616  0.7066  0.0259
 2098TIP3    H127929   5.768   6.207   1.728  0.5306 -1.6901 -0.0321
 2098TIP3    H227930   5.711   6.147   1.854 -0.2047  1.7364  1.3775
 2099TIP3   OH227931   6.477   4.586   2.175 -0.3107 -0.3997 -0.4320
 2099TIP3    H127932   6.533   4.560   2.102 -0.1379 -0.3580 -0.3135
 2099TIP3    H227933   6.528   4.651   2.223  0.0014 -1.1949  0.3344
 2100TIP3   OH227934   2.344   2.833   7.701 -0.3391 -0.1384 -0.4892
 2100TIP3    H127935   2.308   2.765   7.644 -1.0827  0.1701 -0.4043
 2100TIP3    H227936   2.279   2.904   7.698  0.1649  0.3482 -0.1592
 2101TIP3   OH227937   6.126   3.417   1.845  0.1011  0.1693  0.3533
 2101TIP3    H127938   6.151   3.347   1.905  0.3826  0.0847  0.1399
 2101TIP3    H227939   6.178   3.493   1.873 -0.1835  0.2859  0.5675
 2102TIP3   OH227940   2.983   1.346   0.255 -0.2451 -0.3515  0.2299
 2102TIP3    H127941   2.895   1.337   0.292 -1.5117  0.7827 -2.2605
 2102TIP3    H227942   2.994   1.270   0.198 -0.3753  0.3840 -0.8163
 2103TIP3   OH227943   3.075   0.172   0.860 -0.3423 -0.6129 -0.1754
 2103TIP3    H127944   3.050   0.128   0.942  0.9200 -0.4445  0.3285
 2103TIP3    H227945   2.994   0.177   0.810 -1.2295 -0.3832  1.2166
 2104TIP3   OH227946   1.893   3.011   7.624  0.1435  0.0629  0.5445
 2104TIP3    H127947   1.882   2.916   7.637  0.8108  0.0556  1.1580
 2104TIP3    H227948   1.975   3.019   7.575 -0.1286  0.3062  0.1306
 2105TIP3   OH227949   3.307   2.886   3.498 -0.2878 -0.4409  0.4371
 2105TIP3    H127950   3.293   2.798   3.463  0.2629  0.1184 -1.3093
 2105TIP3    H227951   3.399   2.887   3.525 -0.2208 -0.3389  0.2123
 2106TIP3   OH227952   1.729   5.948   0.347 -0.2470 -0.4949  0.2715
 2106TIP3    H127953   1.726   5.976   0.438  2.1200  1.3178 -0.0828
 2106TIP3    H227954   1.676   6.012   0.300 -0.4549 -0.6880  0.2438
 2107TIP3   OH227955   4.020   3.657   0.769  0.3249 -0.3847 -0.5329
 2107TIP3    H127956   4.089   3.637   0.706  1.7228 -0.5247  0.9551
 2107TIP3    H227957   4.065   3.659   0.854 -1.9977 -3.5310  0.9793
 2108TIP3   OH227958   0.485   0.675   8.502 -0.6297  0.4392  0.5845
 2108TIP3    H127959   0.564   0.663   8.553 -0.5143 -0.3958  0.2302
 2108TIP3    H227960   0.460   0.767   8.516  0.8497  0.9464  0.0461
 2109TIP3   OH227961   6.423   0.055   1.403  0.4608 -0.2831 -0.4078
 2109TIP3    H127962   6.490   0.024   1.465  1.0828  0.7711 -0.5251
 2109TIP3    H227963   6.409  -0.019   1.344 -0.7001 -1.6143  1.4045
 2110TIP3   OH227964   5.721   6.453   2.145  0.5736  0.6806  0.1464
 2110TIP3    H127965   5.802   6.445   2.094 -0.4533  0.3673 -1.5045
 2110TIP3    H227966   5.737   6.402   2.224  2.0307  0.7336 -0.0924
 2111TIP3   OH227967   2.164   4.295   8.072 -0.3877  0.5286  0.1531
 2111TIP3    H127968   2.183   4.302   8.165  0.2399 -0.7922  0.1413
 2111TIP3    H227969   2.171   4.386   8.040 -3.1864  1.4273  1.8050
 2112TIP3   OH227970   6.803   4.164   7.392  0.8018  0.5393  0.8128
 2112TIP3    H127971   6.842   4.100   7.452  0.7018  0.3092  0.6340
 2112TIP3    H227972   6.876   4.192   7.336  0.5023 -0.7047 -0.2399
 2113TIP3   OH227973   4.077   5.900   8.171 -0.6072  0.4705 -0.6275
 2113TIP3    H127974   4.129   5.935   8.244 -0.4056  0.5877 -0.8253
 2113TIP3    H227975   4.036   5.821   8.206  1.0369 -0.5861 -0.9529
 2114TIP3   OH227976   1.845   5.494   6.295 -0.0441  0.0533 -0.6142
 2114TIP3    H127977   1.815   5.574   6.339  2.3624  1.0742 -0.6453
 2114TIP3    H227978   1.849   5.429   6.365  0.4762  0.7164  0.0012
 2115TIP3   OH227979   1.136   1.627   8.600 -1.0212 -0.4236 -0.0815
 2115TIP3    H127980   1.125   1.681   8.679  1.1987 -0.0712  0.0591
 2115TIP3    H227981   1.089   1.546   8.620 -0.0830 -0.5537  1.8642
 2116TIP3   OH227982   1.180   6.345   0.709  0.0524  0.1718  0.2148
 2116TIP3    H127983   1.215   6.383   0.789 -3.9342 -2.1101  3.4669
 2116TIP3    H227984   1.102   6.398   0.689 -1.5744 -1.9063  0.6863
 2117TIP3   OH227985   2.840   3.243   1.946  1.3206 -0.2535  0.0894
 2117TIP3    H127986   2.749   3.213   1.944  0.8178  1.2165 -0.7198
 2117TIP3    H227987   2.859   3.256   2.039  0.3078  0.5263  0.2069
 2118TIP3   OH227988   0.580   1.258   1.427  0.1357  0.2215 -0.2995
 2118TIP3    H127989   0.487   1.278   1.421  0.0166 -0.4611 -0.8585
 2118TIP3    H227990   0.600   1.263   1.521 -0.2281  1.3717 -0.2736
 2119TIP3   OH227991   2.045   4.138   7.039  0.1954 -0.5355 -0.3880
 2119TIP3    H127992   2.062   4.045   7.027  1.2016 -0.4116 -0.0150
 2119TIP3    H227993   2.007   4.167   6.956 -3.3785 -1.9593  0.5646
 2120TIP3   OH227994   5.483   1.741   6.688 -0.1559 -0.6653  0.2101
 2120TIP3    H127995   5.564   1.759   6.641  0.5509  0.7308  1.8708
 2120TIP3    H227996   5.414   1.772   6.629  0.6851  0.8026 -0.0353
 2121TIP3   OH227997   1.238   4.051   8.546 -0.0192 -0.0812 -0.2732
 2121TIP3    H127998   1.304   4.092   8.491  0.5640 -1.6792 -0.8128
 2121TIP3    H227999   1.195   3.987   8.489 -0.6208 -0.5152  0.6342
 2122TIP3   OH228000   4.633   0.592   1.074  0.1920  0.3196 -0.4651
 2122TIP3    H128001   4.684   0.537   1.133 -0.6197  0.9248  0.8347
 2122TIP3    H228002   4.543   0.587   1.107 -0.0338  1.8106 -0.7768
 2123TIP3   OH228003   1.455   0.995   2.941  0.1351  0.1753 -0.1169
 2123TIP3    H128004   1.526   1.031   2.995  1.3967 -1.4959 -0.5844
 2123TIP3    H228005   1.491   0.995   2.852 -0.5712 -0.4111 -0.4057
 2124TIP3   OH228006   2.439   4.085   1.981  0.1508  0.8638 -0.5267
 2124TIP3    H128007   2.376   4.049   2.043 -0.9893  0.7040 -1.7374
 2124TIP3    H228008   2.466   4.010   1.928 -0.0375  1.2683 -1.1993
 2125TIP3   OH228009   6.795   5.280   2.620  0.1159  0.4738 -0.7475
 2125TIP3    H128010   6.866   5.317   2.569  1.6095  1.1142  1.6316
 2125TIP3    H228011   6.728   5.348   2.622 -0.1909  0.2358 -2.2191
 2126TIP3   OH228012   4.901   3.837   2.702  0.2642 -0.0778 -0.6434
 2126TIP3    H128013   4.871   3.917   2.660  0.5443 -0.3800 -1.4355
 2126TIP3    H228014   4.943   3.787   2.632 -0.9932 -1.4826 -0.4518
 2127TIP3   OH228015   5.321   3.510   7.901 -0.6114 -0.5677  0.5060
 2127TIP3    H128016   5.254   3.494   7.967 -1.8154 -1.0863 -0.8132
 2127TIP3    H228017   5.325   3.428   7.851 -0.9995  0.4142 -1.1772
 2128TIP3   OH228018   3.962   5.589   1.557  0.5460 -0.4002  0.0901
 2128TIP3    H128019   4.030   5.536   1.597  1.4830 -0.3401 -1.3327
 2128TIP3    H228020   3.947   5.661   1.618  0.9318 -1.0312  0.9471
 2129TIP3   OH228021   3.376   6.257   0.303 -0.2563 -0.5808  0.2806
 2129TIP3    H128022   3.423   6.181   0.337 -0.5933 -1.0572 -0.2949
 2129TIP3    H228023   3.286   6.247   0.335 -0.3878 -0.6233 -0.0855
 2130TIP3   OH228024   6.687   5.034   2.084 -0.1922  0.1475  0.3000
 2130TIP3    H128025   6.616   4.986   2.041 -0.9915  0.8868  0.7637
 2130TIP3    H228026   6.681   5.123   2.048  0.2937  0.2995  0.5842
 2131TIP3   OH228027   0.805   3.338   6.693 -0.4565  0.0932  0.4104
 2131TIP3    H128028   0.749   3.412   6.670 -1.0014 -0.2238  0.6942
 2131TIP3    H228029   0.788   3.323   6.786 -2.2385 -1.9361 -0.1492
 2132TIP3   OH228030   5.357   2.120   1.326 -0.4753  0.3996  0.1121
 2132TIP3    H128031   5.369   2.214   1.314 -1.5934  0.4282 -0.9941
 2132TIP3    H228032   5.353   2.085   1.237  1.4285 -0.9252  0.5020
 2133TIP3   OH228033   1.522   4.518   0.978 -0.3200  0.0143 -0.4016
 2133TIP3    H128034   1.500   4.457   1.048  0.4366  0.7526  0.5060
 2133TIP3    H228035   1.537   4.463   0.902  1.5065 -1.0558  0.6660
 2134TIP3   OH228036   1.091   3.924   7.726 -0.3284 -0.7070 -0.5867
 2134TIP3    H128037   1.171   3.950   7.681  0.3535 -1.8580 -0.0800
 2134TIP3    H228038   1.020   3.960   7.672  0.4849 -1.0741 -1.9557
 2135TIP3   OH228039   1.112   1.711   7.287 -0.0418  0.2596 -0.4450
 2135TIP3    H128040   1.139   1.703   7.195 -0.5410  1.1446 -0.6792
 2135TIP3    H228041   1.085   1.802   7.296  0.7026  0.3738  0.7862
 2136TIP3   OH228042   6.837   5.687   8.070 -0.2054  0.0998  0.5445
 2136TIP3    H128043   6.747   5.696   8.040 -0.6967 -1.8585  1.2649
 2136TIP3    H228044   6.882   5.642   7.998  0.0638  0.5440  0.4292
 2137TIP3   OH228045   0.409   2.283   1.778 -0.3526  0.4279  0.1549
 2137TIP3    H128046   0.368   2.324   1.702 -1.3266  1.1230  1.0210
 2137TIP3    H228047   0.449   2.203   1.744  0.4549  1.4358 -1.3288
 2138TIP3   OH228048   3.157   0.005   1.556  0.1178  0.2386  0.3104
 2138TIP3    H128049   3.204  -0.074   1.529 -0.1475 -0.0224  0.6060
 2138TIP3    H228050   3.104   0.028   1.480  0.3681  0.2604  0.1431
 2139TIP3   OH228051   1.979   5.468   2.736  0.3349 -0.6312 -0.2979
 2139TIP3    H128052   1.905   5.529   2.729  0.0882 -1.1056 -2.8218
 2139TIP3    H228053   2.023   5.492   2.817 -1.5651  0.8281  0.3715
 2140TIP3   OH228054   5.009   6.174   0.187 -0.1114 -0.0495  0.1006
 2140TIP3    H128055   4.975   6.110   0.249 -0.6224  0.2500  0.1351
 2140TIP3    H228056   5.100   6.147   0.172  0.7561  1.0948  2.6594
 2141TIP3   OH228057   0.107   1.457   1.030  0.3700  0.3978 -0.2952
 2141TIP3    H128058   0.185   1.424   1.075 -0.0531 -1.4734 -0.8661
 2141TIP3    H228059   0.123   1.443   0.937 -0.8962 -0.6352 -0.3875
 2142TIP3   OH228060   1.191   3.971   1.052  0.8734 -0.3212 -0.1075
 2142TIP3    H128061   1.223   3.993   1.139 -0.3018  0.5006  0.1465
 2142TIP3    H228062   1.102   3.940   1.066  0.1561  1.1624 -1.1161
 2143TIP3   OH228063   2.137   5.981   2.387  0.4285 -0.4775 -0.4018
 2143TIP3    H128064   2.143   5.987   2.482 -0.2295  0.2313 -0.3902
 2143TIP3    H228065   2.072   5.913   2.370  1.3368 -1.3732 -0.3738
 2144TIP3   OH228066   2.274   4.081   7.176 -0.0846 -0.1739 -0.0268
 2144TIP3    H128067   2.212   4.123   7.116  0.9401 -0.1668 -1.1216
 2144TIP3    H228068   2.354   4.132   7.168  0.2425 -0.5093  0.9510
 2145TIP3   OH228069   0.737   4.698   2.501 -0.0656 -0.2574  0.3305
 2145TIP3    H128070   0.747   4.793   2.507 -1.1934 -0.1725  1.2044
 2145TIP3    H228071   0.820   4.668   2.465  0.1875  1.0887 -0.2990
 2146TIP3   OH228072   3.115   4.135   7.362  0.0636  0.3165  0.0158
 2146TIP3    H128073   3.076   4.115   7.277  0.5831  1.6053 -0.5483
 2146TIP3    H228074   3.190   4.077   7.369  0.6669  0.9605 -0.9155
 2147TIP3   OH228075   0.152   2.730   7.381  0.2066  0.3964 -0.1017
 2147TIP3    H128076   0.239   2.770   7.386  0.6646 -0.7232  2.1089
 2147TIP3    H228077   0.141   2.707   7.289  2.1603  0.7872 -0.4692
 2148TIP3   OH228078   3.678   0.037   0.973 -0.0395 -0.3544  0.2792
 2148TIP3    H128079   3.656   0.094   1.046 -1.3529  0.1453 -0.4552
 2148TIP3    H228080   3.765   0.065   0.946 -1.1436  2.3449 -0.9262
 2149TIP3   OH228081   0.379   4.209   1.505  0.2733 -0.2487  0.1089
 2149TIP3    H128082   0.419   4.279   1.557  2.2029 -1.0448 -0.2141
 2149TIP3    H228083   0.405   4.129   1.549  0.8367 -0.8828 -1.3269
 2150TIP3   OH228084   6.116   5.367   1.010 -0.1541 -0.0068 -0.3507
 2150TIP3    H128085   6.125   5.363   1.106  0.4345 -1.7772 -0.4406
 2150TIP3    H228086   6.128   5.459   0.989  0.2177  0.3442  1.2442
 2151TIP3   OH228087   3.331   1.493   7.325 -0.2892  0.2197  0.0408
 2151TIP3    H128088   3.276   1.420   7.296  0.4396 -0.2908 -0.0853
 2151TIP3    H228089   3.414   1.480   7.279 -0.0692  0.9908  0.2098
 2152TIP3   OH228090   5.561   6.144   0.041 -0.0766  0.5603  0.2029
 2152TIP3    H128091   5.498   6.168  -0.027  0.9174  1.4175 -0.4561
 2152TIP3    H228092   5.583   6.227   0.083 -0.7508  0.0276  1.6583
 2153TIP3   OH228093   2.072   5.318   0.758  0.5456 -0.4024 -0.4866
 2153TIP3    H128094   2.135   5.318   0.830 -0.2318  1.1403  0.2706
 2153TIP3    H228095   2.045   5.410   0.751 -1.4449 -0.9632 -0.8974
 2154TIP3   OH228096   1.131   5.794   0.977  0.0730  0.6777  0.6511
 2154TIP3    H128097   1.111   5.701   0.967 -2.4216  1.2912 -1.0151
 2154TIP3    H228098   1.177   5.818   0.897  1.0330  0.8361  1.2342
 2155TIP3   OH228099   6.238   1.987   1.023 -0.3305  0.2724  0.2390
 2155TIP3    H128100   6.257   2.067   1.071 -0.9216  0.1411  0.7044
 2155TIP3    H228101   6.147   1.996   0.996 -0.7409 -0.6898  1.2211
 2156TIP3   OH228102   6.230   6.198   0.818 -0.3336 -0.8398 -0.1312
 2156TIP3    H128103   6.192   6.285   0.808 -0.5049 -0.8646  0.2782
 2156TIP3    H228104   6.235   6.185   0.913  1.2006 -0.6041 -0.1451
 2157TIP3   OH228105   1.471   1.683   8.687  0.0719  0.2413 -0.2178
 2157TIP3    H128106   1.533   1.672   8.614 -0.1104  1.1855 -0.5297
 2157TIP3    H228107   1.426   1.765   8.667 -2.0489 -0.9418 -0.5364
 2158TIP3   OH228108   1.579   5.122   7.566  0.0603 -0.0170  0.3853
 2158TIP3    H128109   1.608   5.048   7.619  1.1602  0.4185  0.4120
 2158TIP3    H228110   1.650   5.185   7.572 -0.6962  0.8874  0.0472
 2159TIP3   OH228111   3.551   1.092   0.898 -0.5347  0.4102  0.0562
 2159TIP3    H128112   3.526   1.118   0.809  0.2911 -0.6400 -0.5169
 2159TIP3    H228113   3.542   1.172   0.950  0.1664  1.3765 -1.2407
 2160TIP3   OH228114   4.155   4.371   8.057  0.3671 -0.3427  0.0677
 2160TIP3    H128115   4.127   4.287   8.020 -1.6198 -0.3244  1.3830
 2160TIP3    H228116   4.134   4.364   8.150 -1.6458  2.2694 -0.0832
 2161TIP3   OH228117   0.726   1.576   8.182 -0.1728 -0.3047 -0.2781
 2161TIP3    H128118   0.760   1.560   8.269  0.3124  0.9445 -0.2176
 2161TIP3    H228119   0.799   1.615   8.134 -0.9213  0.5828 -0.7356
 2162TIP3   OH228120   5.914   2.753   7.276 -0.5380 -0.2990  0.1840
 2162TIP3    H128121   5.946   2.756   7.367 -0.2860 -0.7272  0.1107
 2162TIP3    H228122   5.838   2.811   7.276 -1.0819 -0.9892  0.8816
 2163TIP3   OH228123   0.753   4.161   1.052  0.5304  0.7087  0.1772
 2163TIP3    H128124   0.737   4.077   1.094  0.1788  0.9052  0.4389
 2163TIP3    H228125   0.831   4.195   1.096  1.6405 -0.1819 -1.0019
 2164TIP3   OH228126   1.090   3.896   0.697  0.0280 -0.4410 -0.0330
 2164TIP3    H128127   1.148   3.828   0.731 -1.0828 -0.5123  1.8424
 2164TIP3    H228128   1.121   3.977   0.739 -0.1644 -0.1921 -0.3673
 2165TIP3   OH228129   1.205   1.447   3.190 -0.1258 -0.2984 -0.7677
 2165TIP3    H128130   1.189   1.542   3.190  2.3518  0.1858 -1.9220
 2165TIP3    H228131   1.229   1.427   3.099  0.6991 -1.7965 -0.2407
 2166TIP3   OH228132   4.659   1.682   1.045 -0.6417  0.3851  0.0656
 2166TIP3    H128133   4.733   1.665   1.104 -0.9753  0.8850  0.6494
 2166TIP3    H228134   4.688   1.754   0.989 -0.5328  0.2989  0.0121
 2167TIP3   OH228135   3.063   0.526   8.292 -0.4059 -0.2071 -0.5167
 2167TIP3    H128136   3.138   0.524   8.350  0.4284 -1.6153 -1.5936
 2167TIP3    H228137   3.100   0.544   8.205 -1.3842 -0.2755 -0.9681
 2168TIP3   OH228138   4.008   0.656   1.070  0.6082 -0.1624  0.3032
 2168TIP3    H128139   4.082   0.686   1.017  0.0459  0.1340 -0.3471
 2168TIP3    H228140   3.970   0.737   1.105  1.5084 -0.4173  1.9231
 2169TIP3   OH228141   1.507   4.039   6.598  0.5447  0.0502  0.3761
 2169TIP3    H128142   1.414   4.058   6.586  0.7442  0.4587 -0.5853
 2169TIP3    H228143   1.510   3.944   6.611  0.3010 -0.6371 -3.4408
 2170TIP3   OH228144   5.987   6.557   0.805  0.3671 -0.4864 -0.4450
 2170TIP3    H128145   6.040   6.534   0.882  0.8850 -1.6074 -1.1063
 2170TIP3    H228146   6.051   6.589   0.741 -0.1218  0.9572 -0.2454
 2171TIP3   OH228147   5.571   5.777   8.118 -0.2681  0.0778 -0.1931
 2171TIP3    H128148   5.646   5.784   8.177  0.2256  1.1231 -0.9260
 2171TIP3    H228149   5.529   5.863   8.122  0.5448  0.6217 -2.3542
 2172TIP3   OH228150   3.253   4.286   1.998 -0.6270  0.5517 -0.4267
 2172TIP3    H128151   3.230   4.345   2.069  2.0301 -0.2927  1.2619
 2172TIP3    H228152   3.199   4.209   2.012  1.0708 -0.3460  1.8922
 2173TIP3   OH228153   3.997   6.117   1.619 -0.2210 -0.3970 -0.0517
 2173TIP3    H128154   4.055   6.184   1.655 -2.3943  2.0618 -0.8418
 2173TIP3    H228155   4.039   6.091   1.537  0.6483  0.0406  0.2414
 2174TIP3   OH228156   0.535   4.357   1.065 -0.4783 -0.5019 -0.3190
 2174TIP3    H128157   0.588   4.277   1.065  0.0468 -0.1543 -0.2659
 2174TIP3    H228158   0.466   4.339   1.129 -0.0755 -0.7235  0.0574
 2175TIP3   OH228159   1.326   5.896   1.587  0.8284  0.5096  0.2816
 2175TIP3    H128160   1.300   5.821   1.640  2.0304 -1.1802 -1.4137
 2175TIP3    H228161   1.400   5.866   1.536  1.4556  2.9180 -0.3831
 2176TIP3   OH228162   0.060   5.940   8.076  0.1807  0.4820  0.1254
 2176TIP3    H128163   0.024   5.856   8.048 -1.8148  0.9373  1.1550
 2176TIP3    H228164   0.065   5.992   7.996  0.1264 -0.1521 -0.2963
 2177TIP3   OH228165   2.260   2.762   1.898 -0.1808  0.0488  0.2221
 2177TIP3    H128166   2.177   2.752   1.945 -0.1433  0.8339  0.4667
 2177TIP3    H228167   2.282   2.673   1.869 -1.1978 -0.1445  0.0006
 2178TIP3   OH228168   3.926   2.960   2.970  0.1180 -0.0559 -0.2310
 2178TIP3    H128169   3.969   3.039   3.002  3.6564 -1.4791 -1.0518
 2178TIP3    H228170   3.951   2.892   3.033  0.0554 -1.1737 -1.3864
 2179TIP3   OH228171   2.311   6.785   1.435  0.1968 -0.4695 -0.0499
 2179TIP3    H128172   2.324   6.778   1.530 -1.1890  0.4277  0.2394
 2179TIP3    H228173   2.390   6.748   1.397  1.4866  0.6038  1.4827
 2180TIP3   OH228174   4.822   3.041   3.270 -0.2301  0.0861 -0.3795
 2180TIP3    H128175   4.759   3.092   3.219 -1.2362  0.0454  0.7852
 2180TIP3    H228176   4.776   2.960   3.293 -0.3790  0.7192  1.8141
 2181TIP3   OH228177   0.963   3.325   1.267 -0.4525 -0.1053  0.1539
 2181TIP3    H128178   1.052   3.292   1.256 -0.0527  1.0783 -0.4163
 2181TIP3    H228179   0.908   3.262   1.220  0.0146 -1.0779  0.8739
 2182TIP3   OH228180   5.908   5.117   8.598  0.2160  0.0878 -0.5250
 2182TIP3    H128181   5.840   5.059   8.563  0.9584 -0.6069 -0.8545
 2182TIP3    H228182   5.949   5.156   8.520 -0.3761  1.1955 -0.3033
 2183TIP3   OH228183   3.792   6.120   1.775 -0.1701 -0.3778 -0.4420
 2183TIP3    H128184   3.859   6.158   1.718 -1.3538  0.7149 -1.1643
 2183TIP3    H228185   3.781   6.184   1.845 -1.3645  0.1027 -1.0409
 2184TIP3   OH228186   2.036   1.050   1.128 -0.5180 -0.0340 -0.1044
 2184TIP3    H128187   1.954   1.088   1.160 -1.0227 -0.8257 -0.4322
 2184TIP3    H228188   2.082   1.123   1.088 -0.1012  0.8761  1.9425
 2185TIP3   OH228189   0.846   1.940   0.813 -0.1990 -0.0808 -0.3635
 2185TIP3    H128190   0.818   1.890   0.737 -0.3771 -1.1091  0.3576
 2185TIP3    H228191   0.919   1.891   0.850 -0.0984  0.4168  0.1193
 2186TIP3   OH228192   6.770   4.288   1.245 -0.1363 -0.2863 -0.6525
 2186TIP3    H128193   6.719   4.362   1.213 -0.8168  0.0195  1.0248
 2186TIP3    H228194   6.858   4.301   1.210 -0.3380  1.1148 -0.6688
 2187TIP3   OH228195   3.337   5.866   1.008  0.2452  0.2955 -0.5620
 2187TIP3    H128196   3.331   5.778   0.972  0.1424  0.8408 -1.9440
 2187TIP3    H228197   3.250   5.903   0.996  0.1360  0.4105  0.5123
 2188TIP3   OH228198   6.345   6.346   2.292  0.3556 -0.7056  0.0616
 2188TIP3    H128199   6.431   6.317   2.261  2.0297  1.5987  2.1496
 2188TIP3    H228200   6.297   6.264   2.307  1.4394 -2.0134 -2.8665
 2189TIP3   OH228201   6.523   6.599   8.385 -0.2863 -0.1490 -0.3712
 2189TIP3    H128202   6.559   6.550   8.459  1.0757  0.2293 -0.7568
 2189TIP3    H228203   6.489   6.532   8.326 -0.4508 -0.5013  0.1116
 2190TIP3   OH228204   6.622   2.096   0.039 -0.0059  0.4430 -0.0761
 2190TIP3    H128205   6.666   2.042   0.104 -0.0574  0.8597  0.3114
 2190TIP3    H228206   6.622   2.184   0.077 -0.1435  0.6682 -0.5856
 2191TIP3   OH228207   2.650   4.493   0.182 -0.4335  0.2002 -0.5837
 2191TIP3    H128208   2.697   4.576   0.195 -1.3792  0.7830 -0.8197
 2191TIP3    H228209   2.692   4.455   0.105 -0.4118  0.7757 -0.8687
 2192TIP3   OH228210   2.112   3.690   0.864 -0.0393 -0.0056  0.3910
 2192TIP3    H128211   2.049   3.728   0.803 -0.6055  0.9288  1.5169
 2192TIP3    H228212   2.059   3.639   0.925  0.5803 -1.4661 -0.2236
 2193TIP3   OH228213   5.117   3.086   8.684  0.7075  0.1253  0.2806
 2193TIP3    H128214   5.037   3.139   8.683 -0.4282 -1.5201 -0.1731
 2193TIP3    H228215   5.126   3.057   8.775 -0.5834 -1.6032 -0.0958
 2194TIP3   OH228216   3.051   4.566   2.407  0.3738 -0.4479 -0.5932
 2194TIP3    H128217   3.096   4.628   2.465 -0.4594 -0.5883  0.2185
 2194TIP3    H228218   2.976   4.615   2.373 -0.7062 -1.2086  0.6233
 2195TIP3   OH228219   4.160   4.336   1.129  0.6362 -0.5339  0.1528
 2195TIP3    H128220   4.251   4.345   1.158  0.3723  1.2485  0.5512
 2195TIP3    H228221   4.162   4.363   1.037  0.4340  0.0404  0.3129
 2196TIP3   OH228222   1.814   5.699   0.243  0.0319 -0.0385  0.5544
 2196TIP3    H128223   1.743   5.635   0.251 -0.4636  0.2076 -1.2840
 2196TIP3    H228224   1.775   5.781   0.271  0.3179 -0.3074  1.7921
 2197TIP3   OH228225   1.548   6.494   8.611 -0.0468  0.6473 -0.2596
 2197TIP3    H128226   1.459   6.496   8.646  0.2975  1.3017  0.6215
 2197TIP3    H228227   1.570   6.401   8.607 -0.9333  0.4585 -0.9233
 2198TIP3   OH228228   6.843   3.911   8.072  0.3312  0.3027 -0.3608
 2198TIP3    H128229   6.750   3.914   8.095  0.2205  1.8926 -0.9097
 2198TIP3    H228230   6.882   3.858   8.141 -1.1183 -1.2866 -0.6823
 2199TIP3   OH228231   4.969   1.239   1.451 -0.3655 -0.6249 -0.2164
 2199TIP3    H128232   5.055   1.202   1.432 -1.3775 -1.6000 -3.5037
 2199TIP3    H228233   4.948   1.207   1.539  2.5862 -0.2893  0.7238
 2200TIP3   OH228234   3.880   2.313   2.786  0.0716 -0.3021  0.1711
 2200TIP3    H128235   3.806   2.254   2.796 -0.9486  0.8735 -0.1740
 2200TIP3    H228236   3.945   2.281   2.849 -1.0461 -0.8741  1.0701
 2201TIP3   OH228237   5.649   0.290   0.363  0.3968  0.0141 -0.6980
 2201TIP3    H128238   5.594   0.332   0.297 -1.0048  0.0923  0.4775
 2201TIP3    H228239   5.626   0.333   0.445  2.0876 -0.1024 -0.1162
 2202TIP3   OH228240   0.623   0.761   0.528  0.3245  0.2853  0.1628
 2202TIP3    H128241   0.538   0.788   0.494 -0.1630 -1.6828 -0.3202
 2202TIP3    H228242   0.609   0.748   0.622 -0.8175 -2.8627 -0.3102
 2203TIP3   OH228243   1.813   1.797   7.662 -0.0392 -0.3003 -0.2762
 2203TIP3    H128244   1.862   1.794   7.579  2.8004 -0.2151  1.2510
 2203TIP3    H228245   1.813   1.890   7.686  1.2002 -0.5579  0.8571
 2204TIP3   OH228246   1.269   0.315   0.478 -0.4060 -0.3073  0.2050
 2204TIP3    H128247   1.199   0.332   0.540 -0.0225 -1.5543  1.0014
 2204TIP3    H228248   1.346   0.296   0.532  0.0087 -1.1056 -0.6432
 2205TIP3   OH228249   3.070   5.458   1.324  0.1915  0.1649  0.1468
 2205TIP3    H128250   3.162   5.484   1.322  0.6124 -1.1830  0.9971
 2205TIP3    H228251   3.024   5.532   1.282  1.8525 -0.1287 -2.4735
 2206TIP3   OH228252   5.205   0.439   8.233  0.6068  0.0136  0.4003
 2206TIP3    H128253   5.122   0.395   8.248 -0.1827  1.1756 -0.4192
 2206TIP3    H228254   5.271   0.378   8.265 -0.3907 -2.0494 -1.2407
 2207TIP3   OH228255   6.323   1.060   2.457 -0.3354  0.0400 -0.3858
 2207TIP3    H128256   6.307   1.058   2.551 -1.5209  0.3461 -0.5687
 2207TIP3    H228257   6.356   1.149   2.441 -0.6641  0.1728 -0.3365
 2208TIP3   OH228258   1.183   5.778   7.332 -0.1990  0.7084 -0.1850
 2208TIP3    H128259   1.233   5.801   7.253 -0.2847  0.7182 -0.2373
 2208TIP3    H228260   1.118   5.714   7.301  0.5812 -0.2533  0.1201
 2209TIP3   OH228261   3.603   6.874   0.272 -0.4251  0.0489  1.0794
 2209TIP3    H128262   3.535   6.941   0.255 -0.9606 -0.5721  0.7225
 2209TIP3    H228263   3.665   6.885   0.200 -0.9250 -0.3407  0.5733
 2210TIP3   OH228264   5.107   0.664   0.193 -0.1151 -0.4612  0.1286
 2210TIP3    H128265   5.113   0.619   0.277 -0.9642  0.3475  0.6447
 2210TIP3    H228266   5.186   0.717   0.189 -1.6010  2.1680  2.0763
 2211TIP3   OH228267   1.085   3.353   8.368 -0.1909  0.2490 -0.3403
 2211TIP3    H128268   1.063   3.446   8.355  4.2099  1.8699  1.7104
 2211TIP3    H228269   1.131   3.328   8.288 -1.0075 -0.1004 -0.7162
 2212TIP3   OH228270   0.071   1.292   8.339 -0.0643  0.0108  0.2735
 2212TIP3    H128271   0.083   1.315   8.246 -0.7094  0.0116  0.1812
 2212TIP3    H228272   0.063   1.376   8.384 -0.0369  0.0075  0.2841
 2213TIP3   OH228273   4.734   0.010   2.929  0.2734  0.1662  1.0050
 2213TIP3    H128274   4.793   0.029   3.003  0.4684  0.9677  0.6553
 2213TIP3    H228275   4.679  -0.062   2.960  0.3125  0.5306  1.9605
 2214TIP3   OH228276   4.800   1.058   2.707  0.6217  0.1929  0.4291
 2214TIP3    H128277   4.798   1.154   2.713 -0.1378  0.1392  1.2808
 2214TIP3    H228278   4.709   1.032   2.720  0.7994 -0.6395  0.0136
 2215TIP3   OH228279   1.839   2.527   3.260 -0.3425 -1.1686  0.1245
 2215TIP3    H128280   1.760   2.483   3.292 -0.8175 -0.7280 -0.4460
 2215TIP3    H228281   1.904   2.457   3.253  0.4942 -1.0618  4.0757
 2216TIP3   OH228282   0.565   6.102   2.068  0.2171 -0.2332  0.8319
 2216TIP3    H128283   0.620   6.044   2.015 -1.8397 -1.0093 -0.5262
 2216TIP3    H228284   0.580   6.189   2.032 -0.5599 -0.6446 -0.5259
 2217TIP3   OH228285   6.038   6.329   7.187 -0.0624 -0.8902 -0.4427
 2217TIP3    H128286   6.130   6.344   7.166 -0.1222  0.3692  0.1203
 2217TIP3    H228287   6.008   6.411   7.226 -0.6861 -2.1892  2.0084
 2218TIP3   OH228288   0.843   6.312   2.458 -0.3225  0.1821  0.0904
 2218TIP3    H128289   0.771   6.367   2.428  1.2884  1.7149 -1.2353
 2218TIP3    H228290   0.915   6.373   2.473  0.7791 -1.3093  1.1668
 2219TIP3   OH228291   1.818   1.159   2.507  0.2296 -0.4771  0.5921
 2219TIP3    H128292   1.897   1.188   2.463 -0.1024 -1.2708 -0.5788
 2219TIP3    H228293   1.807   1.220   2.580 -0.3621  2.2818 -1.6372
 2220TIP3   OH228294   3.770   2.815   7.636 -0.4856  0.0476 -0.2319
 2220TIP3    H128295   3.853   2.791   7.596 -0.7881 -0.5670 -0.5136
 2220TIP3    H228296   3.754   2.744   7.699  0.2766  1.2873  1.4391
 2221TIP3   OH228297   5.377   6.785   7.061 -0.2078 -0.4738 -0.1431
 2221TIP3    H128298   5.438   6.823   7.125 -1.4613 -1.7819  1.9420
 2221TIP3    H228299   5.305   6.847   7.056 -0.1351 -0.3972 -0.2354
 2222TIP3   OH228300   4.861   2.252   7.966 -0.3450 -0.2213 -0.1875
 2222TIP3    H128301   4.783   2.230   7.915 -0.4096  0.9315 -0.6263
 2222TIP3    H228302   4.926   2.277   7.900  0.1376 -0.4291  0.2116
 2223TIP3   OH228303   2.919   3.151   8.015  0.0697  0.3390  0.1615
 2223TIP3    H128304   2.938   3.065   7.978 -0.6200 -0.0922  0.7757
 2223TIP3    H228305   2.824   3.162   8.004  0.3989  1.8475 -1.6213
 2224TIP3   OH228306   1.262   3.473   7.855  0.2133 -0.3504  0.4540
 2224TIP3    H128307   1.349   3.507   7.831  0.8677 -1.3962  1.2696
 2224TIP3    H228308   1.201   3.525   7.802  1.3813 -0.1475 -0.7572
 2225TIP3   OH228309   3.820   1.293   0.482 -0.5733 -0.3046 -0.1053
 2225TIP3    H128310   3.848   1.208   0.517 -0.9873 -0.5439 -0.3588
 2225TIP3    H228311   3.741   1.274   0.432  0.7874 -0.2288 -2.4397
 2226TIP3   OH228312   0.460   3.129   2.026  0.3901  0.4272  0.0479
 2226TIP3    H128313   0.401   3.166   2.093 -0.6207 -0.7993 -0.1351
 2226TIP3    H228314   0.511   3.064   2.073 -1.6342 -1.8113 -0.6684
 2227TIP3   OH228315   4.981   2.065   0.491  0.3796 -0.5920 -0.2144
 2227TIP3    H128316   4.900   2.070   0.441  0.1502  0.8834  0.2662
 2227TIP3    H228317   5.027   1.989   0.454 -0.6858 -0.7485 -1.2744
 2228TIP3   OH228318   2.703   2.991   1.602  0.0183 -0.2703 -0.1622
 2228TIP3    H128319   2.688   2.978   1.508 -0.5569 -0.4618 -0.0497
 2228TIP3    H228320   2.757   3.070   1.607 -1.9213  1.1922 -0.5709
 2229TIP3   OH228321   4.104   4.350   2.870 -0.0522  0.0350  0.1723
 2229TIP3    H128322   4.196   4.344   2.894 -0.2003 -3.2948  0.3587
 2229TIP3    H228323   4.058   4.359   2.953 -0.0338 -2.1615  0.4825
 2230TIP3   OH228324   6.346   3.906   2.982 -0.0329  0.0413 -0.3273
 2230TIP3    H128325   6.284   3.834   2.973 -0.2831  0.0866  0.8732
 2230TIP3    H228326   6.339   3.933   3.073  1.6636  0.1252 -0.1776
 2231TIP3   OH228327   0.095   1.317   2.444  0.2524  0.3391  0.5381
 2231TIP3    H128328   0.136   1.274   2.369  1.7930 -1.5037  2.3166
 2231TIP3    H228329   0.095   1.251   2.513 -2.8212  1.3524  1.6833
 2232TIP3   OH228330   0.418   2.749   2.451  0.2584  0.1601  0.1300
 2232TIP3    H128331   0.331   2.783   2.469 -0.7189 -2.3666  0.6053
 2232TIP3    H228332   0.457   2.736   2.537  0.6864  0.2784 -0.0437
 2233TIP3   OH228333   2.713   4.409   1.526  0.0504 -0.4567 -0.0666
 2233TIP3    H128334   2.788   4.427   1.583  1.1373  0.4143 -1.6967
 2233TIP3    H228335   2.653   4.481   1.543  0.4182 -0.1382 -0.0919
 2234TIP3   OH228336   3.078   4.878   8.645 -0.4768 -0.2781 -0.1304
 2234TIP3    H128337   3.071   4.799   8.593  0.1831  0.4301 -1.3575
 2234TIP3    H228338   2.990   4.894   8.678 -1.3826  0.2545 -2.5964
 2235TIP3   OH228339   2.338   1.086   7.976 -0.6153  0.3719  1.0469
 2235TIP3    H128340   2.336   1.069   7.881  0.3187  0.7416  0.9448
 2235TIP3    H228341   2.341   0.999   8.015 -1.4169  0.2044  0.7589
 2236TIP3   OH228342   6.065   6.389   2.215 -0.5008  0.5931  0.1304
 2236TIP3    H128343   6.147   6.394   2.265  0.7154  0.5357 -1.7470
 2236TIP3    H228344   6.009   6.456   2.254  0.5431  0.8302  1.2899
 2237TIP3   OH228345   1.221   0.584   2.457  0.1577  0.2380  0.1100
 2237TIP3    H128346   1.219   0.498   2.416  0.1637  0.3921 -0.2141
 2237TIP3    H228347   1.249   0.567   2.547 -0.8439 -0.2219  0.3516
 2238TIP3   OH228348   3.574   5.314   1.843 -0.1668  0.1832 -0.1734
 2238TIP3    H128349   3.650   5.279   1.797  0.9229  1.4823  0.5457
 2238TIP3    H228350   3.611   5.375   1.907 -1.8218  0.8815  0.1783
 2239TIP3   OH228351   0.320   1.298   1.172 -0.0361  0.3359  0.3370
 2239TIP3    H128352   0.279   1.254   1.246  0.4225 -0.1206  0.3283
 2239TIP3    H228353   0.394   1.344   1.210 -0.7651  1.4716  0.4126
 2240TIP3   OH228354   0.406   6.587   2.591 -0.5645  0.0849 -0.7247
 2240TIP3    H128355   0.468   6.599   2.663 -0.7557 -0.2359 -0.5036
 2240TIP3    H228356   0.444   6.637   2.518 -0.6640  0.8916 -0.2317
 2241TIP3   OH228357   3.870   5.839   7.797 -0.0263  0.4993 -0.3688
 2241TIP3    H128358   3.885   5.886   7.715  1.4441 -0.1758 -0.5117
 2241TIP3    H228359   3.823   5.760   7.772 -2.3926  1.7643 -0.1443
 2242TIP3   OH228360   2.217   5.398   1.303 -0.0711  0.1640  0.1331
 2242TIP3    H128361   2.280   5.466   1.330 -1.1307  0.9180  0.7607
 2242TIP3    H228362   2.227   5.393   1.208  0.7043  0.5122  0.1873
 2243TIP3   OH228363   0.706   3.879   1.582 -0.1378 -0.1742 -0.1190
 2243TIP3    H128364   0.796   3.885   1.551  0.1227 -0.6024  0.5399
 2243TIP3    H228365   0.658   3.840   1.510  0.3506 -0.6455 -0.1943
 2244TIP3   OH228366   2.878   4.208   0.364  0.0675  0.5943 -0.6699
 2244TIP3    H128367   2.953   4.252   0.324  0.1711  1.4015  0.3611
 2244TIP3    H228368   2.897   4.209   0.458  0.0648 -1.6771 -0.6091
 2245TIP3   OH228369   2.159   4.741   1.696 -0.3307 -0.3929 -0.3183
 2245TIP3    H128370   2.095   4.704   1.758  0.2991  1.5127  1.5690
 2245TIP3    H228371   2.131   4.831   1.683  0.9542 -0.0521 -0.8960
 2246TIP3   OH228372   0.158   6.700   2.272 -0.1455  0.2406 -0.2674
 2246TIP3    H128373   0.137   6.689   2.365  0.7704 -0.7024 -0.1579
 2246TIP3    H228374   0.089   6.757   2.239  0.4069  1.9201  1.3401
 2247TIP3   OH228375   4.896   0.410   0.933 -0.2538 -0.8956  0.0158
 2247TIP3    H128376   4.896   0.367   1.019 -0.1814 -0.9153  0.0060
 2247TIP3    H228377   4.975   0.378   0.890  1.1304  1.0821  0.9292
 2248TIP3   OH228378   3.333   2.495   2.312 -0.3453 -0.3362  0.0174
 2248TIP3    H128379   3.241   2.474   2.299 -0.1710 -1.0931 -0.0551
 2248TIP3    H228380   3.373   2.479   2.226 -0.0223 -0.7077  0.2361
 2249TIP3   OH228381   4.275   0.086   8.125  0.4734 -0.2035  0.5390
 2249TIP3    H128382   4.258   0.024   8.054  0.6277 -0.5395  0.7910
 2249TIP3    H228383   4.348   0.047   8.173  3.0923  1.9332 -1.3945
 2250TIP3   OH228384   4.212   2.429   0.985 -0.0535  0.1024  0.2040
 2250TIP3    H128385   4.249   2.510   1.021 -2.5776  2.1211 -1.4183
 2250TIP3    H228386   4.120   2.431   1.010 -0.3408 -1.9211 -0.5225
 2251TIP3   OH228387   4.848   4.107   2.105 -0.0834  0.2486  0.2239
 2251TIP3    H128388   4.888   4.172   2.163 -2.0143 -0.8153  2.9470
 2251TIP3    H228389   4.879   4.022   2.138 -0.9771 -0.3860 -0.4888
 2252TIP3   OH228390   3.731   1.908   1.169  0.3775  0.5473  0.4054
 2252TIP3    H128391   3.741   1.815   1.149  1.9498  0.4952  1.2926
 2252TIP3    H228392   3.815   1.947   1.144 -0.3347  1.7830 -0.1630
 2253TIP3   OH228393   6.878   1.628   1.520 -0.4322  0.3112 -0.4328
 2253TIP3    H128394   6.913   1.631   1.609 -2.1413  0.5247  0.2594
 2253TIP3    H228395   6.860   1.719   1.498  0.7197  0.3411 -1.3243
 2254TIP3   OH228396   4.422   4.634   8.075  0.2544 -0.8033 -0.0000
 2254TIP3    H128397   4.402   4.685   7.996  0.6113  2.3507  1.7907
 2254TIP3    H228398   4.465   4.555   8.042  1.5943  0.9837 -2.9567
 2255TIP3   OH228399   2.165   4.342   2.434  0.4722  0.3591  0.3384
 2255TIP3    H128400   2.116   4.262   2.414  2.5435 -0.6513 -1.0836
 2255TIP3    H228401   2.201   4.327   2.521  0.7253 -0.2298  0.1399
 2256TIP3   OH228402   6.521   1.499   6.517  0.1024  0.0983 -0.0164
 2256TIP3    H128403   6.550   1.418   6.474  0.6750  1.1006 -1.6202
 2256TIP3    H228404   6.508   1.474   6.608  0.4246 -1.7608 -0.4293
 2257TIP3   OH228405   5.744   6.454   1.359 -0.2873 -0.5241  0.7933
 2257TIP3    H128406   5.781   6.453   1.271  0.4397 -0.3446  1.0883
 2257TIP3    H228407   5.745   6.546   1.385  1.1514 -0.7398  1.6448
 2258TIP3   OH228408   6.871   1.797   7.913  0.2268  0.6030  0.0346
 2258TIP3    H128409   6.821   1.760   7.986  0.7591 -1.3754 -0.5441
 2258TIP3    H228410   6.927   1.726   7.883  0.6931  1.6351 -1.7311
 2259TIP3   OH228411   1.624   4.708   1.296 -0.5331 -0.4673  0.5310
 2259TIP3    H128412   1.650   4.798   1.273 -1.5177  0.0346  1.3117
 2259TIP3    H228413   1.707   4.660   1.302 -0.0894  0.0046 -1.3992
 2260TIP3   OH228414   3.241   4.065   3.119  0.4882  0.5875 -0.3124
 2260TIP3    H128415   3.261   4.090   3.209  0.0600  2.2437 -0.6428
 2260TIP3    H228416   3.325   4.064   3.074  0.9099 -1.6748  0.3768
 2261TIP3   OH228417   6.831   4.741   0.012  0.3612  0.5063 -0.2767
 2261TIP3    H128418   6.748   4.705   0.044  0.4079  0.1384 -0.5550
 2261TIP3    H228419   6.829   4.725  -0.082  2.2886 -2.8725  0.1017
 2262TIP3   OH228420   3.911   3.690   1.788 -0.1465 -0.0142  0.1381
 2262TIP3    H128421   3.985   3.655   1.838  0.6181  0.5670 -0.5598
 2262TIP3    H228422   3.871   3.612   1.749 -0.1859 -0.3791  0.8851
 2263TIP3   OH228423   6.782   0.656   7.816  0.4145 -0.3425  0.8374
 2263TIP3    H128424   6.728   0.609   7.879  0.4467  0.0786  1.1832
 2263TIP3    H228425   6.763   0.748   7.832  0.4269 -0.2303  0.2330
 2264TIP3   OH228426   0.871   2.865   0.565 -0.5019 -0.0543 -0.1086
 2264TIP3    H128427   0.933   2.810   0.612  0.4568  2.1053  1.2943
 2264TIP3    H228428   0.786   2.825   0.581  0.2634 -1.7804 -0.1819
 2265TIP3   OH228429   3.236   3.665   3.209 -0.1894  0.0598  0.3960
 2265TIP3    H128430   3.283   3.582   3.200 -1.9562 -0.8716 -0.8610
 2265TIP3    H228431   3.150   3.640   3.241  0.0634  1.7111  2.5977
 2266TIP3   OH228432   2.388   4.030   7.630 -0.1263 -0.0312  0.2868
 2266TIP3    H128433   2.439   4.109   7.648 -0.8861  0.1333  1.8603
 2266TIP3    H228434   2.330   4.056   7.558  0.3912  0.4863  0.0421
 2267TIP3   OH228435   6.738   6.161   0.609 -0.1925 -0.1158  0.1427
 2267TIP3    H128436   6.712   6.084   0.659  2.0151 -1.6093 -0.8476
 2267TIP3    H228437   6.805   6.204   0.663  0.2872 -0.2356 -0.3540
 2268TIP3   OH228438   0.917   2.357   2.379 -0.0919 -0.2789  0.4105
 2268TIP3    H128439   0.836   2.306   2.377 -0.2666  0.0092  0.0454
 2268TIP3    H228440   0.910   2.408   2.460  0.3549 -1.2517  1.0905
 2269TIP3   OH228441   5.635   6.034   7.391  0.0285 -0.1278  0.0764
 2269TIP3    H128442   5.725   6.003   7.397 -0.9120 -3.1112  0.6021
 2269TIP3    H228443   5.598   6.019   7.478 -1.0592  0.7356 -0.2074
 2270TIP3   OH228444   2.357   3.039   1.734  0.5422  0.0354 -0.1306
 2270TIP3    H128445   2.313   2.957   1.757 -0.7044  0.0515 -2.1866
 2270TIP3    H228446   2.447   3.027   1.764  0.2145 -1.8020  0.2582
 2271TIP3   OH228447   4.119   2.490   0.734 -0.3521 -0.5358  0.1193
 2271TIP3    H128448   4.181   2.479   0.806  0.5441  0.4202 -0.4696
 2271TIP3    H228449   4.089   2.581   0.742 -0.2516 -0.4182 -0.6906
 2272TIP3   OH228450   6.799   0.776   2.861  0.2957 -0.3791  0.2725
 2272TIP3    H128451   6.880   0.760   2.813  1.4013 -0.0434  1.9615
 2272TIP3    H228452   6.793   0.703   2.923  0.4864  0.7508  1.6628
 2273TIP3   OH228453   6.678   2.364   0.815 -0.2305 -0.8891  0.2079
 2273TIP3    H128454   6.758   2.324   0.781 -0.1045 -0.8773  0.4909
 2273TIP3    H228455   6.666   2.443   0.761 -0.5266 -1.3458 -0.4100
 2274TIP3   OH228456   6.394   1.811   7.239 -0.1682 -0.0017  0.1291
 2274TIP3    H128457   6.429   1.754   7.307  1.7395 -2.4386 -2.6617
 2274TIP3    H228458   6.470   1.857   7.204 -1.0276  0.8557 -0.6834
 2275TIP3   OH228459   2.317   1.863   7.140 -0.4037  0.0447  0.3192
 2275TIP3    H128460   2.260   1.843   7.065 -1.8970  0.7911  1.2136
 2275TIP3    H228461   2.406   1.852   7.105 -1.0530 -1.6881 -0.9749
 2276TIP3   OH228462   3.503   4.980   2.817 -0.7224  0.0902 -0.3143
 2276TIP3    H128463   3.491   5.075   2.818 -1.0049  0.0586  1.1900
 2276TIP3    H228464   3.417   4.945   2.792 -0.7014  0.2148 -0.5644
 2277TIP3   OH228465   4.861   2.873   8.649 -0.1299 -0.0546  0.0169
 2277TIP3    H128466   4.862   2.777   8.653 -1.2217 -0.0462  0.6832
 2277TIP3    H228467   4.878   2.901   8.739 -2.2021  0.3361  0.3334
 2278TIP3   OH228468   0.837   1.034   8.289 -0.1228  0.4270  0.0408
 2278TIP3    H128469   0.840   1.127   8.266  0.0012  0.4151  0.0055
 2278TIP3    H228470   0.897   1.026   8.363  0.1022  0.3197 -0.1527
 2279TIP3   OH228471   0.443   5.799   3.014 -0.5290 -0.3479 -0.1270
 2279TIP3    H128472   0.387   5.858   2.963 -1.0132 -2.0495 -1.6840
 2279TIP3    H228473   0.388   5.722   3.029  0.7266 -1.2366  0.0805
 2280TIP3   OH228474   4.149   5.256   1.663  0.1822 -0.1667 -0.0700
 2280TIP3    H128475   4.139   5.165   1.633  1.0172  0.0366 -1.0030
 2280TIP3    H228476   4.151   5.249   1.759  1.2617 -1.2589 -0.1446
 2281TIP3   OH228477   1.346   1.288   7.603  0.5833 -0.3639  0.1551
 2281TIP3    H128478   1.253   1.291   7.627  0.5303  0.3280 -0.0916
 2281TIP3    H228479   1.366   1.378   7.577  1.2755 -0.5530  0.0207
 2282TIP3   OH228480   5.108   1.823   0.394 -0.0606  0.0280 -0.4826
 2282TIP3    H128481   5.194   1.835   0.436 -1.1466 -1.2771  2.3715
 2282TIP3    H228482   5.121   1.750   0.334  1.2227  1.0405 -1.5097
 2283TIP3   OH228483   2.474   3.580   1.146  0.7968 -0.0205 -0.3370
 2283TIP3    H128484   2.506   3.662   1.184 -0.4005  1.1652 -1.7963
 2283TIP3    H228485   2.485   3.592   1.051 -1.7998 -0.4573 -0.7556
 2284TIP3   OH228486   3.533   1.079   1.557 -0.4041  0.3282 -0.3967
 2284TIP3    H128487   3.622   1.045   1.545 -0.6129 -0.4095  0.0665
 2284TIP3    H228488   3.541   1.145   1.625 -0.5640 -1.3760  1.3554
 2285TIP3   OH228489   5.564   0.956   2.074  0.0014  0.3744 -0.1069
 2285TIP3    H128490   5.518   1.036   2.048 -0.0639  0.3285 -0.1311
 2285TIP3    H228491   5.545   0.893   2.005 -0.0850  0.2855 -0.0031
 2286TIP3   OH228492   6.287   1.004   0.559 -0.4926  0.2696 -0.0139
 2286TIP3    H128493   6.350   1.041   0.497 -1.3174  2.8601  0.5852
 2286TIP3    H228494   6.250   1.080   0.605 -3.3918 -1.1818  0.3090
 2287TIP3   OH228495   0.903   3.524   7.227 -0.5262  0.3253  0.0643
 2287TIP3    H128496   0.933   3.488   7.144 -0.0316 -2.9537  1.4700
 2287TIP3    H228497   0.943   3.466   7.293 -1.5613  2.2555  2.5401
 2288TIP3   OH228498   3.828   3.168   2.606  0.3831  0.4052  0.0429
 2288TIP3    H128499   3.824   3.263   2.611  0.3555  0.4042  0.0410
 2288TIP3    H228500   3.764   3.145   2.539 -0.2808  0.3280  0.6838
 2289TIP3   OH228501   2.824   6.013   2.774 -0.3534 -0.5639 -0.2667
 2289TIP3    H128502   2.842   6.076   2.705 -0.0010 -0.9002 -0.4877
 2289TIP3    H228503   2.892   5.946   2.764 -0.1307 -0.4788  0.5720
 2290TIP3   OH228504   4.174   4.948   8.644  0.3552 -0.0935  0.5225
 2290TIP3    H128505   4.142   4.859   8.657 -0.3798  0.0993  0.0818
 2290TIP3    H228506   4.111   5.003   8.691  0.7321  0.2070  0.6829
 2291TIP3   OH228507   2.833   4.864   7.761  0.2086 -1.2432 -0.5156
 2291TIP3    H128508   2.881   4.940   7.794 -0.7837 -1.2510  1.1015
 2291TIP3    H228509   2.741   4.886   7.778 -0.1889 -2.1816 -1.3944
 2292TIP3   OH228510   1.356   0.944   8.617  0.3751  0.2533 -0.3714
 2292TIP3    H128511   1.280   0.932   8.676  0.4615  2.4903  0.2936
 2292TIP3    H228512   1.394   1.027   8.645  1.3189  0.6456 -2.6668
 2293TIP3   OH228513   2.294   1.969   7.892  0.0397  0.2224  0.2671
 2293TIP3    H128514   2.274   2.033   7.823  0.4865 -0.8471 -0.8779
 2293TIP3    H228515   2.385   1.946   7.878  0.3747  0.5705  1.7273
 2294TIP3   OH228516   4.254   1.618   8.398  0.0663  0.0013 -0.2308
 2294TIP3    H128517   4.241   1.589   8.488  0.2119 -0.1595 -0.2611
 2294TIP3    H228518   4.349   1.614   8.386  0.0743  0.3366 -0.2854
 2295TIP3   OH228519   1.085   2.775   0.981  0.6001  0.0020  0.0961
 2295TIP3    H128520   1.048   2.835   0.917 -1.4144 -0.5999  0.6264
 2295TIP3    H228521   1.154   2.729   0.933 -1.4973 -1.1537 -2.0513
 2296TIP3   OH228522   6.762   4.252   7.669  0.2080 -0.4377 -0.0043
 2296TIP3    H128523   6.760   4.229   7.762  1.6211 -1.1005 -0.1206
 2296TIP3    H228524   6.722   4.178   7.624  1.6824 -1.1868 -0.1054
 2297TIP3   OH228525   3.324   1.692   0.607 -0.1960 -0.1913 -0.0160
 2297TIP3    H128526   3.246   1.731   0.565 -0.2208  2.8179  2.4871
 2297TIP3    H228527   3.385   1.765   0.615  2.2043 -2.0848 -0.2115
 2298TIP3   OH228528   2.943   5.425   7.202  0.2507 -0.2572 -0.4546
 2298TIP3    H128529   2.920   5.332   7.210  0.8599 -0.3343  0.6231
 2298TIP3    H228530   2.897   5.467   7.274  0.0285  0.2821 -0.9010
 2299TIP3   OH228531   1.026   4.053   0.255 -0.4004 -1.0356  0.2418
 2299TIP3    H128532   1.071   4.138   0.251 -0.0564 -1.1098  1.7071
 2299TIP3    H228533   1.097   3.989   0.263 -0.6928 -1.3352  0.4698
 2300TIP3   OH228534   5.383   0.421   7.153 -0.5698 -0.4875 -0.1446
 2300TIP3    H128535   5.385   0.423   7.057  2.7159  1.1200 -0.1842
 2300TIP3    H228536   5.421   0.336   7.176  3.4896  1.0207 -0.4859
 2301TIP3   OH228537   4.605   3.021   7.791 -0.1704 -0.7221 -0.4431
 2301TIP3    H128538   4.669   3.019   7.862  1.9540  1.9717 -2.1033
 2301TIP3    H228539   4.612   2.934   7.750  1.5008 -0.9159  0.1935
 2302TIP3   OH228540   4.960   4.826   7.491 -0.2275 -0.5018 -0.3423
 2302TIP3    H128541   4.993   4.915   7.480 -1.0858 -0.1975 -0.5400
 2302TIP3    H228542   4.884   4.836   7.549 -0.0284 -1.1678  0.0373
 2303TIP3   OH228543   6.666   0.649   2.508 -0.2133 -0.0029  0.4044
 2303TIP3    H128544   6.693   0.739   2.526  0.0751 -0.0589  0.2518
 2303TIP3    H228545   6.736   0.595   2.542 -0.7321 -0.2059  1.1702
 2304TIP3   OH228546   4.508   6.842   8.195 -0.1299  0.0848  0.0571
 2304TIP3    H128547   4.492   6.749   8.179  2.9206 -0.6230  0.4972
 2304TIP3    H228548   4.530   6.878   8.109 -1.2601  0.3993 -0.1054
 2305TIP3   OH228549   1.672   0.075   1.928 -0.4125 -0.0731 -0.0191
 2305TIP3    H128550   1.600   0.081   1.991  0.1781  0.9501  0.5767
 2305TIP3    H228551   1.630   0.047   1.847 -1.2134 -1.2569  0.7689
 2306TIP3   OH228552   3.177   3.704   1.962 -0.1056  0.5584 -0.1706
 2306TIP3    H128553   3.103   3.713   2.023 -0.6263  1.0226 -0.8608
 2306TIP3    H228554   3.156   3.627   1.910  0.7087 -0.2938  0.7176
 2307TIP3   OH228555   3.149   5.682   0.269 -0.4813  0.3026 -0.7707
 2307TIP3    H128556   3.206   5.652   0.340  0.4564  3.1167 -0.1678
 2307TIP3    H228557   3.071   5.628   0.276  0.5978 -1.1660  0.8078
 2308TIP3   OH228558   1.916   5.765   2.877  0.4507 -0.2380  0.0415
 2308TIP3    H128559   1.823   5.750   2.895  0.3195 -0.7039 -0.9331
 2308TIP3    H228560   1.962   5.701   2.931  0.3242  1.1222  1.8447
 2309TIP3   OH228561   2.996   5.566   7.721 -0.3125  0.5076 -1.1741
 2309TIP3    H128562   3.066   5.608   7.672 -0.2351 -0.5233 -1.9949
 2309TIP3    H228563   2.989   5.479   7.682  2.5755 -2.0819  3.1723
 2310TIP3   OH228564   4.869   2.670   7.877  0.4387  0.2339  0.0248
 2310TIP3    H128565   4.789   2.649   7.926  0.9912 -1.4416  0.2758
 2310TIP3    H228566   4.843   2.662   7.785  0.5070 -1.2293  0.1062
 2311TIP3   OH228567   0.905   6.430   0.563 -0.3179 -0.2582  0.3974
 2311TIP3    H128568   0.924   6.425   0.469  1.9971  0.3239  0.7637
 2311TIP3    H228569   0.870   6.344   0.585 -1.9540 -0.0444 -1.1795
 2312TIP3   OH228570   1.085   2.653   0.048 -0.3973 -0.0953 -0.0206
 2312TIP3    H128571   1.158   2.696   0.003  1.1346 -1.0399  1.4239
 2312TIP3    H228572   1.017   2.645  -0.018  0.9537  0.4803 -1.5462
 2313TIP3   OH228573   1.397   0.084   1.819 -0.3369 -0.1119  0.3533
 2313TIP3    H128574   1.369   0.047   1.735  0.6057 -1.2793  0.5331
 2313TIP3    H228575   1.417   0.176   1.799 -0.6134 -0.2468 -0.5784
 2314TIP3   OH228576   6.696   3.545   7.481  0.2997 -1.1795 -0.1977
 2314TIP3    H128577   6.741   3.583   7.557  0.0215  0.8453 -0.9882
 2314TIP3    H228578   6.742   3.581   7.405 -1.3046 -0.7247 -1.0031
 2315TIP3   OH228579   0.251   0.897   8.170  0.4532  0.4125 -0.4950
 2315TIP3    H128580   0.300   0.979   8.179 -0.4558  0.8743  0.4260
 2315TIP3    H228581   0.312   0.838   8.126  1.5180  1.2407 -0.1773
 2316TIP3   OH228582   4.427   5.242   2.253 -0.0634 -0.0285 -0.1533
 2316TIP3    H128583   4.461   5.330   2.271  0.3970 -0.4698  1.2924
 2316TIP3    H228584   4.438   5.231   2.158 -0.4056  1.5696 -0.4062
 2317TIP3   OH228585   2.157   0.636   2.515 -0.0914  0.1433  0.2546
 2317TIP3    H128586   2.201   0.721   2.518  0.5983 -0.2449  2.3539
 2317TIP3    H228587   2.200   0.589   2.443 -0.8796  1.7164 -1.3322
 2318TIP3   OH228588   3.684   5.653   8.547 -0.1786  0.1042 -0.0904
 2318TIP3    H128589   3.661   5.721   8.610  1.2531  1.4458 -0.9305
 2318TIP3    H228590   3.626   5.580   8.568  0.5360  0.2897  3.0680
 2319TIP3   OH228591   6.826   2.100   1.914 -0.3275  0.1137 -0.0051
 2319TIP3    H128592   6.735   2.130   1.903 -0.0833  0.9239  0.1335
 2319TIP3    H228593   6.846   2.118   2.005  0.2569  0.7368 -0.2546
 2320TIP3   OH228594   4.175   4.888   0.269  0.8501 -0.0703  0.4053
 2320TIP3    H128595   4.214   4.807   0.237 -0.7979 -0.5489 -0.5212
 2320TIP3    H228596   4.207   4.956   0.209  0.1709 -0.4826 -0.4473
 2321TIP3   OH228597   5.898   4.916   0.935 -0.0492  0.1143  0.2178
 2321TIP3    H128598   5.815   4.903   0.981  0.5197 -1.0879  0.9223
 2321TIP3    H228599   5.944   4.833   0.942  1.2076  0.7384 -0.2172
 2322TIP3   OH228600   2.271   0.466   7.193  0.2413 -0.2709  0.3770
 2322TIP3    H128601   2.338   0.444   7.128  1.1336  1.6874  0.5836
 2322TIP3    H228602   2.321   0.491   7.271 -0.7706 -0.1107  0.9890
 2323TIP3   OH228603   3.158   4.020   1.960 -0.3117 -0.0230 -0.0805
 2323TIP3    H128604   3.153   3.924   1.965  0.1384  0.0152  1.6119
 2323TIP3    H228605   3.070   4.047   1.934 -0.2368 -0.9110 -1.3985
 2324TIP3   OH228606   4.568   5.793   1.281 -0.0955 -0.5682 -0.6974
 2324TIP3    H128607   4.560   5.787   1.376  1.4869  0.1911 -0.4846
 2324TIP3    H228608   4.627   5.722   1.257  0.7613  0.1865 -0.8930
 2325TIP3   OH228609   2.939   2.970   0.211  0.2916 -0.5256  0.3712
 2325TIP3    H128610   3.004   2.916   0.165  2.1726 -0.2746  2.5505
 2325TIP3    H228611   2.991   3.026   0.269 -1.6005  2.8845 -0.8960
 2326TIP3   OH228612   6.516   6.387   0.712  0.5745 -0.6807  0.0763
 2326TIP3    H128613   6.421   6.376   0.704  0.4162 -0.4229  1.4327
 2326TIP3    H228614   6.536   6.361   0.802  1.2133  2.8327  1.0939
 2327TIP3   OH228615   2.049   4.524   8.596  0.2742  0.2650 -0.5639
 2327TIP3    H128616   2.064   4.593   8.532 -0.5842  1.0929  0.0942
 2327TIP3    H228617   2.040   4.570   8.679  0.8041 -0.7446  0.0657
 2328TIP3   OH228618   5.868   2.827   1.462 -0.6920 -0.4574 -0.1341
 2328TIP3    H128619   5.864   2.895   1.395 -1.5789 -1.0841 -0.7414
 2328TIP3    H228620   5.946   2.776   1.440 -1.4348 -1.1793 -1.2433
 2329TIP3   OH228621   3.433   3.819   1.245  0.0177 -0.0468  0.5565
 2329TIP3    H128622   3.477   3.775   1.173  1.0527 -0.9714  1.7207
 2329TIP3    H228623   3.352   3.852   1.206  0.0029 -1.5053 -0.7659
 2330TIP3   OH228624   5.330   0.640   7.447  0.1722  0.5161  0.3343
 2330TIP3    H128625   5.269   0.711   7.423 -0.1552  0.2935  0.4931
 2330TIP3    H228626   5.324   0.635   7.542 -0.8077 -0.5900  0.2399
 2331TIP3   OH228627   1.337   1.421   8.678 -0.8553  0.0287  0.0461
 2331TIP3    H128628   1.354   1.513   8.659  2.1080 -0.2419  0.9626
 2331TIP3    H228629   1.335   1.378   8.592  0.9046  0.5064 -0.2660
 2332TIP3   OH228630   0.530   2.379   0.534 -0.5128  0.1120 -0.1226
 2332TIP3    H128631   0.618   2.395   0.569  0.1176 -0.0202 -1.5879
 2332TIP3    H228632   0.485   2.331   0.604  0.4405  0.5180  0.8015
 2333TIP3   OH228633   4.956   0.864   0.071  0.4501  0.0320 -0.2372
 2333TIP3    H128634   5.008   0.802   0.122 -0.3584  0.1467  0.7550
 2333TIP3    H228635   4.866   0.833   0.079  0.0324  1.3409  0.3037
 2334TIP3   OH228636   1.276   6.691   0.078 -0.4196  0.0746  0.0315
 2334TIP3    H128637   1.331   6.717   0.153 -0.5189  2.7230 -0.7001
 2334TIP3    H228638   1.193   6.737   0.092 -1.0323 -0.7032 -0.9008
 2335TIP3   OH228639   3.335   2.100   0.467 -0.1022 -0.1108 -0.2520
 2335TIP3    H128640   3.296   2.149   0.395  0.1046  0.0625 -0.2457
 2335TIP3    H228641   3.423   2.136   0.477  0.0725 -0.5156 -0.2793
 2336TIP3   OH228642   1.042   6.584   7.924  0.1132  0.2104 -0.7326
 2336TIP3    H128643   1.024   6.645   7.995 -1.3681 -0.3316 -0.6155
 2336TIP3    H228644   1.044   6.498   7.967 -1.4853 -0.1995 -1.4109
 2337TIP3   OH228645   4.323   0.396   0.757  0.5131 -0.0753 -0.0136
 2337TIP3    H128646   4.364   0.475   0.722 -0.2137  0.5469  0.5349
 2337TIP3    H228647   4.396   0.347   0.795  0.9579  0.3496 -0.2948
 2338TIP3   OH228648   6.056   1.683   2.474  0.1759 -0.4215  0.0203
 2338TIP3    H128649   6.048   1.588   2.487 -0.9085 -0.1396  1.6811
 2338TIP3    H228650   6.113   1.713   2.544  1.2191  0.0743 -1.0033
 2339TIP3   OH228651   0.080   2.162   7.337 -0.2651  0.3494 -0.6064
 2339TIP3    H128652  -0.011   2.172   7.311  0.2343  2.3460 -1.7863
 2339TIP3    H228653   0.087   2.211   7.419 -0.4112 -0.5257 -0.0545
 2340TIP3   OH228654   3.751   3.638   0.837  0.2615  0.3426 -0.0324
 2340TIP3    H128655   3.744   3.544   0.823 -0.3451  0.5087 -0.8970
 2340TIP3    H228656   3.839   3.660   0.807 -0.3321  0.3736 -1.8706
 2341TIP3   OH228657   3.775   4.847   1.537 -0.3327 -0.6292 -0.6173
 2341TIP3    H128658   3.830   4.772   1.516 -0.3547 -0.4302 -1.3880
 2341TIP3    H228659   3.803   4.916   1.477 -0.2904 -0.0023  0.1004
 2342TIP3   OH228660   2.231   3.782   2.404 -0.1039  0.6958 -0.2864
 2342TIP3    H128661   2.139   3.808   2.398  0.4702  2.9204 -0.4970
 2342TIP3    H228662   2.276   3.838   2.340  1.7595  1.7424  1.7873
 2343TIP3   OH228663   4.440   0.309   8.133 -0.3882 -0.3103  0.0042
 2343TIP3    H128664   4.406   0.348   8.214  0.2591 -1.0310  0.6441
 2343TIP3    H228665   4.367   0.259   8.097 -0.6692 -0.0168  0.1657
 2344TIP3   OH228666   6.565   3.679   7.877  0.1671  0.3015 -0.2044
 2344TIP3    H128667   6.511   3.689   7.955  1.2552  1.5839  0.4411
 2344TIP3    H228668   6.547   3.756   7.824  0.7918  0.3689 -0.3342
 2345TIP3   OH228669   2.508   5.156   1.420  0.1201  0.2974  0.2201
 2345TIP3    H128670   2.596   5.125   1.443  0.3477  1.0260  0.3600
 2345TIP3    H228671   2.505   5.245   1.454 -0.2429  0.7094 -0.8540
 2346TIP3   OH228672   5.408   5.994   8.111  0.2388 -0.1863 -0.4063
 2346TIP3    H128673   5.372   6.027   8.193 -0.3055 -0.4417 -0.5392
 2346TIP3    H228674   5.337   6.004   8.047  0.0230 -1.6573 -0.4369
 2347TIP3   OH228675   6.472   2.537   1.619  0.0592 -0.2484 -0.0215
 2347TIP3    H128676   6.493   2.448   1.590 -1.4496 -1.3275  1.9360
 2347TIP3    H228677   6.508   2.543   1.707  1.0525  1.4969 -0.5095
 2348TIP3   OH228678   5.897   5.643   7.935  0.1059  0.5920 -0.2549
 2348TIP3    H128679   5.930   5.726   7.971 -0.5497  0.4655  0.6831
 2348TIP3    H228680   5.973   5.604   7.891  1.4231  0.0806  2.2489
 2349TIP3   OH228681   6.229   2.797   7.616 -0.0304  0.4961 -0.0544
 2349TIP3    H128682   6.215   2.806   7.711 -0.5406  0.0084 -0.0764
 2349TIP3    H228683   6.140   2.794   7.579  0.1687  1.4000 -0.6267
 2350TIP3   OH228684   5.246   0.266   2.091 -0.9413 -0.0680  0.4172
 2350TIP3    H128685   5.194   0.239   2.016  1.6591  1.9821 -2.3597
 2350TIP3    H228686   5.307   0.194   2.106 -1.1203 -0.2586  0.2308
 2351TIP3   OH228687   6.717   4.392   0.873  0.2291 -0.1877  0.5930
 2351TIP3    H128688   6.682   4.432   0.953  0.0619  0.1232  0.3687
 2351TIP3    H228689   6.812   4.396   0.883  0.2052 -0.4126  0.9054
 2352TIP3   OH228690   6.158   5.748   8.088 -0.3441  0.0788  0.3893
 2352TIP3    H128691   6.213   5.805   8.142 -1.9437  0.8375  1.2894
 2352TIP3    H228692   6.120   5.807   8.023  2.3159 -0.9801 -2.3405
 2353TIP3   OH228693   3.009   5.239   1.008 -0.3583  0.1532  0.0498
 2353TIP3    H128694   2.987   5.292   0.931  2.2938  1.3996  0.0192
 2353TIP3    H228695   3.089   5.280   1.043  0.2451 -2.1990  1.6703
 2354TIP3   OH228696   0.829   3.294   2.899 -0.5194  0.7871 -0.0908
 2354TIP3    H128697   0.768   3.332   2.962 -0.5719  1.7891 -0.7167
 2354TIP3    H228698   0.889   3.366   2.877 -0.3932  0.4163 -1.0374
 2355TIP3   OH228699   2.348   6.679   1.078  0.1624  0.1776 -0.8581
 2355TIP3    H128700   2.422   6.663   1.136  0.6576 -1.2053 -1.8232
 2355TIP3    H228701   2.286   6.729   1.131 -0.0600 -2.2591  1.3617
 2356TIP3   OH228702   6.315   3.979   7.693 -0.2921  0.0444  0.3155
 2356TIP3    H128703   6.243   3.981   7.756 -2.4646  1.3706 -2.0726
 2356TIP3    H228704   6.302   3.898   7.644  0.0250  0.1655  0.0297
 2357TIP3   OH228705   1.261   2.756   7.912  0.6653  0.0524 -0.2638
 2357TIP3    H128706   1.197   2.822   7.885  1.4960  0.9990  0.0294
 2357TIP3    H228707   1.239   2.738   8.004  0.0521 -0.5521 -0.5208
 2358TIP3   OH228708   6.150   1.518   2.209 -0.3407  0.2900  0.2334
 2358TIP3    H128709   6.111   1.496   2.294 -0.3658 -0.8999 -0.0601
 2358TIP3    H228710   6.167   1.433   2.168  0.3044  0.8358 -0.6705
 2359TIP3   OH228711   4.632   2.664   1.663 -0.2337 -0.2608  0.3493
 2359TIP3    H128712   4.657   2.752   1.688 -0.8914  0.2405 -0.6978
 2359TIP3    H228713   4.545   2.652   1.701  0.4650 -1.0457  1.7866
 2360TIP3   OH228714   2.991   2.125   0.639  0.3412  0.2392 -0.3529
 2360TIP3    H128715   3.081   2.116   0.608  0.1225 -1.1845 -0.6737
 2360TIP3    H228716   2.971   2.040   0.679 -0.9638  0.4215 -0.5731
 2361TIP3   OH228717   5.852   4.016   2.657 -0.1680 -0.5850  0.3935
 2361TIP3    H128718   5.872   4.088   2.716  0.7523 -1.2665  0.9395
 2361TIP3    H228719   5.851   4.056   2.570  2.6597 -0.2812  0.4185
 2362TIP3   OH228720   1.764   6.390   8.386 -0.6892  0.1460  0.2795
 2362TIP3    H128721   1.817   6.462   8.353  0.1153 -0.8296 -0.6425
 2362TIP3    H228722   1.788   6.383   8.478 -1.6239  1.7498  0.6795
 2363TIP3   OH228723   1.179   4.430   1.434 -0.6026 -0.6414 -0.1874
 2363TIP3    H128724   1.248   4.483   1.396 -0.5508  0.0815  0.8796
 2363TIP3    H228725   1.207   4.339   1.419  0.6590 -0.3621  0.3772
 2364TIP3   OH228726   2.218   0.603   1.850  0.5302  0.0347  0.3148
 2364TIP3    H128727   2.233   0.696   1.838  0.9350  0.0245  0.6951
 2364TIP3    H228728   2.137   0.584   1.802  1.1150  0.3338 -0.8210
 2365TIP3   OH228729   0.578   5.710   1.434 -0.3689 -0.1845  0.1230
 2365TIP3    H128730   0.567   5.703   1.339 -1.3775  1.0177  0.1161
 2365TIP3    H228731   0.630   5.789   1.446 -0.2332 -0.3407  0.5678
 2366TIP3   OH228732   2.406   0.914   0.742  0.2250  0.1151  0.1371
 2366TIP3    H128733   2.459   0.985   0.779  0.4760 -0.3290  0.6387
 2366TIP3    H228734   2.318   0.930   0.775  0.0478  0.8054 -0.6278
 2367TIP3   OH228735   0.429   2.206   8.399  0.2951  0.6537 -0.0257
 2367TIP3    H128736   0.477   2.215   8.481  0.0396  1.7589  0.0140
 2367TIP3    H228737   0.466   2.274   8.342  0.2904  0.0685 -0.7368
 2368TIP3   OH228738   1.011   1.990   0.539 -0.0209 -0.1778 -0.5071
 2368TIP3    H128739   1.048   1.981   0.627  1.2286 -1.1559 -1.1040
 2368TIP3    H228740   0.990   2.083   0.531 -0.8922 -0.1942  1.0923
 2369TIP3   OH228741   2.746   3.512   2.175 -0.5001  0.1314  0.2030
 2369TIP3    H128742   2.785   3.447   2.234  1.6592  0.1684 -1.0473
 2369TIP3    H228743   2.784   3.596   2.203 -0.9621  0.4176 -0.0230
 2370TIP3   OH228744   4.553   3.423   2.767  0.2210 -0.4531 -0.2396
 2370TIP3    H128745   4.582   3.467   2.847  1.2721 -0.1897 -0.7424
 2370TIP3    H228746   4.514   3.492   2.714  0.2924 -0.4613 -0.3030
 2371TIP3   OH228747   3.284   6.838   0.322 -0.0193 -0.3644  0.1030
 2371TIP3    H128748   3.362   6.891   0.309  0.6077 -0.3317  3.3152
 2371TIP3    H228749   3.228   6.859   0.247  2.6246  0.2595 -1.8359
 2372TIP3   OH228750   4.317   5.864   8.050  0.3479  0.0832  0.1780
 2372TIP3    H128751   4.231   5.825   8.068  0.0760  0.6276  0.0731
 2372TIP3    H228752   4.304   5.958   8.063  1.0362  0.1303  0.5589
 2373TIP3   OH228753   2.658   2.247   8.656 -0.4189  0.2906  0.5588
 2373TIP3    H128754   2.747   2.271   8.628 -0.3737  0.1241  0.5607
 2373TIP3    H228755   2.653   2.277   8.747  0.3983 -1.6579  1.2962
 2374TIP3   OH228756   1.138   2.259   8.624  0.0950  0.1613  0.2348
 2374TIP3    H128757   1.083   2.220   8.692 -1.3187  1.1355 -0.2961
 2374TIP3    H228758   1.107   2.221   8.543  0.8907 -0.0169  0.0056
 2375TIP3   OH228759   5.799   4.933   1.926 -0.4756 -0.0865 -0.4314
 2375TIP3    H128760   5.882   4.979   1.915 -0.9573  0.8169 -0.3702
 2375TIP3    H228761   5.784   4.891   1.842 -0.7889  1.1556 -1.0104
 2376TIP3   OH228762   5.973   3.451   7.627 -0.1044 -0.5721  0.4423
 2376TIP3    H128763   5.955   3.453   7.533  0.3440  1.3817  0.3500
 2376TIP3    H228764   6.055   3.403   7.635 -0.0626 -0.6140 -0.1719
 2377TIP3   OH228765   0.490   5.907   1.710  0.0482  0.1942 -0.3004
 2377TIP3    H128766   0.509   5.848   1.638 -0.2223 -0.7040  0.3481
 2377TIP3    H228767   0.521   5.993   1.680 -1.3159  0.1264 -2.0431
 2378TIP3   OH228768   4.970   3.802   1.377  0.0323  0.4420  0.6413
 2378TIP3    H128769   4.879   3.782   1.402 -0.3008 -0.5256 -1.1666
 2378TIP3    H228770   5.017   3.806   1.460 -1.6959  1.1509  1.6379
 2379TIP3   OH228771   3.263   1.768   3.494 -0.3989 -0.1284  0.5531
 2379TIP3    H128772   3.331   1.817   3.538  0.9043 -0.0778 -1.3877
 2379TIP3    H228773   3.208   1.734   3.564  1.1322  0.5348  2.1325
 2380TIP3   OH228774   1.623   1.592   0.791 -0.2165  0.4295 -0.2429
 2380TIP3    H128775   1.573   1.629   0.718 -1.0570 -0.1684  0.0169
 2380TIP3    H228776   1.712   1.584   0.756 -1.0678 -2.1828 -2.1221
 2381TIP3   OH228777   2.870   6.410   0.301 -0.3027 -0.2199 -0.1281
 2381TIP3    H128778   2.841   6.351   0.232  1.0784 -0.1563 -0.7927
 2381TIP3    H228779   2.916   6.480   0.255 -1.9489  1.4372  0.6325
 2382TIP3   OH228780   4.922   3.825   1.829 -0.0751 -0.2979 -0.1401
 2382TIP3    H128781   4.835   3.858   1.851 -0.9035 -1.6490 -1.2626
 2382TIP3    H228782   4.948   3.876   1.752 -0.2202 -0.4640 -0.2980
 2383TIP3   OH228783   0.033   0.414   1.849  0.0254  0.7824 -0.4508
 2383TIP3    H128784   0.090   0.461   1.789  2.4452 -1.4162 -0.0401
 2383TIP3    H228785  -0.008   0.346   1.796 -0.7543  1.1450 -0.3351
 2384TIP3   OH228786   2.442   5.964   2.211  0.4486  0.5774  0.0072
 2384TIP3    H128787   2.432   5.873   2.239  0.5529  0.5221 -0.1373
 2384TIP3    H228788   2.464   6.011   2.291 -2.8004  1.0335  0.7704
 2385TIP3   OH228789   0.044   6.667   0.268 -0.0714 -0.0530 -0.1742
 2385TIP3    H128790   0.082   6.644   0.352  0.4704 -0.5831 -0.5577
 2385TIP3    H228791   0.115   6.655   0.205 -0.2958  0.9224 -0.6333
 2386TIP3   OH228792   6.268   3.741   8.068  0.1061 -0.1137 -0.1027
 2386TIP3    H128793   6.195   3.681   8.055 -0.6761  0.6550  0.5933
 2386TIP3    H228794   6.272   3.792   7.987 -1.3879  1.1359  0.5614
 2387TIP3   OH228795   3.815   3.447   2.556 -0.0138 -0.5286 -0.5795
 2387TIP3    H128796   3.870   3.516   2.593 -0.5035 -0.2198 -0.4058
 2387TIP3    H228797   3.792   3.479   2.469 -1.1536  0.0712 -0.0873
 2388TIP3   OH228798   3.353   3.316   1.513 -0.0424  0.3876  0.0527
 2388TIP3    H128799   3.381   3.378   1.446  2.1508 -1.6789 -1.1036
 2388TIP3    H228800   3.294   3.256   1.467  0.4179 -0.2624  0.2886
 2389TIP3   OH228801   2.066   3.992   0.418  0.6388 -0.4031  0.2027
 2389TIP3    H128802   2.162   3.989   0.422  0.6938  0.2220 -0.3915
 2389TIP3    H228803   2.041   3.910   0.377  0.9748 -0.2307 -0.3561
 2390TIP3   OH228804   3.073   0.537   2.191  0.1937  0.4547 -0.0607
 2390TIP3    H128805   3.054   0.579   2.107 -0.1041 -2.0670 -1.3562
 2390TIP3    H228806   3.003   0.566   2.250  0.4024  2.2590 -0.6507
 2391TIP3   OH228807   6.697   4.310   1.610  0.3836 -0.3755  0.2181
 2391TIP3    H128808   6.644   4.238   1.577  0.4722  1.1122 -3.6296
 2391TIP3    H228809   6.633   4.376   1.638  0.2901 -0.6220  0.5991
 2392TIP3   OH228810   3.486   2.759   0.863  0.5707  0.0137  0.1371
 2392TIP3    H128811   3.423   2.750   0.935  0.9762 -0.5659  0.4210
 2392TIP3    H228812   3.466   2.687   0.804  0.0296  0.6722 -0.5087
 2393TIP3   OH228813   2.869   0.299   1.449 -0.0203  0.1135 -0.0782
 2393TIP3    H128814   2.944   0.254   1.410  0.0757  0.4579 -0.2942
 2393TIP3    H228815   2.847   0.369   1.387 -2.3761 -1.7481 -1.5424
 2394TIP3   OH228816   2.715   5.756   2.261 -0.9603  0.2991  0.4524
 2394TIP3    H128817   2.704   5.672   2.218  1.7338  0.0759  0.0154
 2394TIP3    H228818   2.743   5.815   2.190 -0.9610  1.0698  1.0851
 2395TIP3   OH228819   4.239   0.349   0.341 -0.9371  0.6656 -0.8565
 2395TIP3    H128820   4.209   0.311   0.424  1.7733 -0.5334 -0.3151
 2395TIP3    H228821   4.158   0.372   0.295 -2.5696  2.8278  2.6796
 2396TIP3   OH228822   5.389   4.328   8.491  0.0064 -0.6382  0.3778
 2396TIP3    H128823   5.371   4.376   8.410  1.7368 -2.6431 -1.3345
 2396TIP3    H228824   5.333   4.369   8.557 -0.2352  2.1853 -1.4318
 2397TIP3   OH228825   5.669   6.351   0.455 -0.1090  0.6794  0.6212
 2397TIP3    H128826   5.697   6.260   0.449 -1.8150  0.1555  0.0253
 2397TIP3    H228827   5.737   6.400   0.408 -0.0912 -0.4997 -0.6512
 2398TIP3   OH228828   5.959   0.521   1.449 -0.3913 -0.2286 -0.1954
 2398TIP3    H128829   6.024   0.512   1.519  0.6003  0.9406 -0.9034
 2398TIP3    H228830   6.006   0.496   1.370 -1.4335 -1.3173 -0.4928
 2399TIP3   OH228831   5.553   6.059   1.957  0.5573 -0.5713 -0.4885
 2399TIP3    H128832   5.485   5.991   1.957 -0.4012  0.3567 -0.0389
 2399TIP3    H228833   5.624   6.021   2.009 -1.1210 -0.1773  2.3407
 2400TIP3   OH228834   3.373   0.018   0.869 -0.5740  0.0202 -0.1589
 2400TIP3    H128835   3.365   0.048   0.779  1.3069 -1.8109 -1.0059
 2400TIP3    H228836   3.376  -0.077   0.863 -0.6339 -0.1556  1.8758
 2401TIP3   OH228837   3.315   3.818   2.553  0.4203  1.0263  0.0917
 2401TIP3    H128838   3.355   3.752   2.610 -0.9219  0.5551  0.5349
 2401TIP3    H228839   3.221   3.807   2.567 -0.0340  0.2557 -2.9162
 2402TIP3   OH228840   0.943   3.895   3.043  0.1642 -0.5709  0.6034
 2402TIP3    H128841   0.861   3.930   3.078  0.1588 -0.7884  0.8099
 2402TIP3    H228842   0.992   3.972   3.015  0.5082 -0.3406  1.8130
 2403TIP3   OH228843   1.162   4.165   1.668 -0.0657  0.1452  0.0446
 2403TIP3    H128844   1.195   4.145   1.580  0.7516  0.5689  0.2506
 2403TIP3    H228845   1.138   4.257   1.664  0.4578  0.3035  0.4037
 2404TIP3   OH228846   5.616   0.753   7.413  0.3592  0.0160 -0.2803
 2404TIP3    H128847   5.561   0.820   7.453  0.8773  0.6364 -0.5876
 2404TIP3    H228848   5.704   0.791   7.413  1.1873 -1.6799  1.9180
 2405TIP3   OH228849   4.096   3.212   6.829  0.2647  0.1661 -1.0263
 2405TIP3    H128850   4.155   3.226   6.903  1.8459 -2.2360 -1.7171
 2405TIP3    H228851   4.023   3.162   6.866 -0.3789  1.4029 -0.5729
 2406TIP3   OH228852   2.340   4.012   0.497 -0.4908  0.0236 -0.0810
 2406TIP3    H128853   2.408   3.950   0.525 -0.9035 -0.5876 -0.4025
 2406TIP3    H228854   2.338   4.078   0.566 -0.5552 -0.7281  0.6549
 2407TIP3   OH228855   4.421   0.721   2.695  0.4090  0.1770 -0.1001
 2407TIP3    H128856   4.452   0.645   2.744  1.0727  2.0613  2.6768
 2407TIP3    H228857   4.325   0.718   2.704  0.5344  1.1814  2.7381
 2408TIP3   OH228858   0.148   4.942   0.068 -0.1326 -0.0351  0.3971
 2408TIP3    H128859   0.169   4.985  -0.014  2.2512 -2.1960 -0.2320
 2408TIP3    H228860   0.090   4.869   0.043 -0.3863  0.0201  0.8104
 2409TIP3   OH228861   1.514   4.393   7.480 -0.2269 -0.0368 -0.2768
 2409TIP3    H128862   1.575   4.449   7.432 -0.5080  0.6793  0.1833
 2409TIP3    H228863   1.478   4.450   7.548 -2.5903  0.0331 -1.4761
 2410TIP3   OH228864   6.163   6.763   8.502  0.0985 -0.0323 -0.3971
 2410TIP3    H128865   6.127   6.826   8.564  1.1579 -1.2452  1.5077
 2410TIP3    H228866   6.250   6.795   8.481  0.3954 -0.5226  0.0757
 2411TIP3   OH228867   4.175   6.205   8.138  0.1130 -0.2512  0.1868
 2411TIP3    H128868   4.216   6.144   8.199 -1.2888 -2.1030 -0.6273
 2411TIP3    H228869   4.101   6.242   8.187  0.9247  0.8116  0.6584
 2412TIP3   OH228870   2.387   4.268   6.830  0.5735 -0.0196 -0.1773
 2412TIP3    H128871   2.418   4.332   6.767 -0.9572 -0.3400 -1.3188
 2412TIP3    H228872   2.454   4.199   6.830  0.7966  0.1806 -1.1691
 2413TIP3   OH228873   4.978   5.434   8.562  0.3087  0.0847  0.7415
 2413TIP3    H128874   5.033   5.434   8.483  0.6548  0.1865  0.9810
 2413TIP3    H228875   4.985   5.345   8.596 -0.7739 -0.2945  0.0153
 2414TIP3   OH228876   2.735   5.931   0.932 -0.7242  0.5001  0.1559
 2414TIP3    H128877   2.767   5.851   0.972  0.0020  0.7084  0.0053
 2414TIP3    H228878   2.644   5.911   0.908 -0.7943 -0.0076  0.8274
 2415TIP3   OH228879   3.415   1.773   8.678  0.9001 -0.1431 -0.6610
 2415TIP3    H128880   3.495   1.743   8.634  1.8771 -0.5808  1.2957
 2415TIP3    H228881   3.439   1.856   8.718 -0.0201  0.3220 -1.0369
 2416TIP3   OH228882   3.150   3.519   2.410 -0.6054  0.8301  0.1165
 2416TIP3    H128883   3.142   3.487   2.320  0.0666  0.7522  0.0767
 2416TIP3    H228884   3.065   3.500   2.450 -1.1433  1.4794 -0.6943
 2417TIP3   OH228885   3.951   1.635   0.208 -0.4737  0.0485  0.2314
 2417TIP3    H128886   4.046   1.645   0.212 -0.4509 -0.6057  1.7734
 2417TIP3    H228887   3.932   1.627   0.114  0.9786  0.2109 -0.0951
 2418TIP3   OH228888   2.199   6.052   8.358 -0.5731  0.1974 -0.6487
 2418TIP3    H128889   2.153   6.094   8.430  0.7181  2.0720 -0.8422
 2418TIP3    H228890   2.134   5.995   8.317 -1.9439  0.8128  0.6167
 2419TIP3   OH228891   5.301   4.744   0.574  0.2508 -0.2540 -0.6076
 2419TIP3    H128892   5.349   4.824   0.594  0.4836 -0.5892  0.2295
 2419TIP3    H228893   5.214   4.758   0.613  1.1264 -1.4516  2.0229
 2420TIP3   OH228894   5.419   4.522   2.317  0.7341  0.7982 -0.6330
 2420TIP3    H128895   5.411   4.586   2.388 -0.4971  1.8605 -1.6773
 2420TIP3    H228896   5.329   4.507   2.288  1.1272 -0.4507 -1.2512
 2421TIP3   OH228897   5.532   1.101   0.979 -0.0687  0.2722  0.1696
 2421TIP3    H128898   5.568   1.041   1.045 -0.7590  0.0275  0.3279
 2421TIP3    H228899   5.608   1.125   0.925  0.3947  0.0286  0.7041
 2422TIP3   OH228900   1.175   0.422   1.695 -0.2479 -0.1135  0.7679
 2422TIP3    H128901   1.092   0.464   1.715 -0.6582  0.0986 -1.2305
 2422TIP3    H228902   1.190   0.439   1.602  2.3068  0.3268  1.1599
 2423TIP3   OH228903   0.301   2.834   1.156 -0.1910  0.5627 -0.1530
 2423TIP3    H128904   0.295   2.738   1.162 -0.6958  0.6725  2.5165
 2423TIP3    H228905   0.267   2.864   1.240  0.8190  3.0770 -0.5883
 2424TIP3   OH228906   6.429   1.343   0.718 -0.3070 -0.6481  0.2998
 2424TIP3    H128907   6.338   1.355   0.691  0.5430 -1.3294 -3.2871
 2424TIP3    H228908   6.465   1.432   0.720 -0.6869 -0.4928  0.3659
 2425TIP3   OH228909   6.844   1.050   8.623  0.2162 -0.1097  0.1626
 2425TIP3    H128910   6.753   1.081   8.624  0.7514  1.6545 -1.3015
 2425TIP3    H228911   6.836   0.955   8.630 -1.7607 -0.0216 -0.1637
 2426TIP3   OH228912   5.922   5.674   1.590 -0.5503 -0.1266 -0.6106
 2426TIP3    H128913   5.866   5.726   1.646  1.5911  0.1969  1.3568
 2426TIP3    H228914   5.992   5.733   1.563 -0.3121 -0.8977 -1.8107
 2427TIP3   OH228915   4.154   5.552   1.960 -0.4706  0.6954 -0.4734
 2427TIP3    H128916   4.064   5.583   1.948 -0.6417  0.2304 -0.4105
 2427TIP3    H228917   4.146   5.458   1.973  0.0453  0.6126 -0.7052
 2428TIP3   OH228918   0.627   1.113   1.168  0.9971 -0.0354  0.4715
 2428TIP3    H128919   0.552   1.055   1.182  1.9176 -1.5851 -0.6365
 2428TIP3    H228920   0.625   1.174   1.242 -0.5805 -0.8709  1.1576
 2429TIP3   OH228921   6.608   6.401   8.558  0.7344 -0.1411 -0.1774
 2429TIP3    H128922   6.629   6.445   8.640 -0.4705  0.3050 -0.0837
 2429TIP3    H228923   6.692   6.391   8.514  1.7559 -2.2737  2.0034
 2430TIP3   OH228924   6.648   6.829   8.318 -0.6233 -0.3880  0.5070
 2430TIP3    H128925   6.617   6.885   8.389  0.0529 -0.0573  0.5526
 2430TIP3    H228926   6.595   6.750   8.325 -2.2215  0.5767 -0.1230
 2431TIP3   OH228927   6.586   5.919   0.443  0.6384  0.2363 -0.4177
 2431TIP3    H128928   6.573   5.895   0.535 -1.2666  1.1837 -0.3928
 2431TIP3    H228929   6.604   5.836   0.399 -0.3742 -0.4932  0.5116
 2432TIP3   OH228930   1.991   5.513   1.069  0.5397 -0.3164  0.0678
 2432TIP3    H128931   2.063   5.466   1.027  0.1029  1.2538 -2.6968
 2432TIP3    H228932   1.919   5.509   1.006 -0.2227  2.1054  0.6630
 2433TIP3   OH228933   3.178   3.101   3.355 -0.6217  0.0609  0.2738
 2433TIP3    H128934   3.091   3.064   3.372 -1.1197  0.5568 -1.0359
 2433TIP3    H228935   3.238   3.049   3.409 -1.8129  0.2721  1.8860
 2434TIP3   OH228936   5.722   4.394   1.173  0.5368 -0.2329 -0.1169
 2434TIP3    H128937   5.649   4.339   1.204  1.2659 -1.1787 -0.0193
 2434TIP3    H228938   5.800   4.349   1.204  1.1943  0.3242 -0.9245
 2435TIP3   OH228939   1.931   2.100   7.338  0.3446 -0.5217 -0.0624
 2435TIP3    H128940   1.859   2.163   7.333  0.3554 -0.5375 -0.4191
 2435TIP3    H228941   1.893   2.017   7.309  0.7575 -0.3143 -1.2443
 2436TIP3   OH228942   3.748   0.754   2.301 -0.1330  0.4127 -0.0742
 2436TIP3    H128943   3.780   0.757   2.211  1.7743 -0.9074  0.4950
 2436TIP3    H228944   3.798   0.683   2.342  0.2472  2.0146  2.4472
 2437TIP3   OH228945   6.729   6.414   2.833  0.3523  0.0742 -0.3517
 2437TIP3    H128946   6.787   6.463   2.891  0.2492  0.7413 -0.7951
 2437TIP3    H228947   6.770   6.329   2.823  1.9470  0.9573 -1.6930
 2438TIP3   OH228948   2.252   6.468   8.448 -0.4749  0.0161 -0.4060
 2438TIP3    H128949   2.288   6.467   8.537  1.4636  0.4889 -1.1266
 2438TIP3    H228950   2.225   6.559   8.434  1.4628  0.5470 -1.0750
 2439TIP3   OH228951   2.762   0.020   2.775 -0.4683 -0.4407  0.6545
 2439TIP3    H128952   2.802  -0.063   2.802 -0.3035 -0.9503 -1.0694
 2439TIP3    H228953   2.701  -0.005   2.706  0.0036  0.9316 -0.2844
 2440TIP3   OH228954   3.452   5.790   2.589  0.3807 -0.2774  0.3037
 2440TIP3    H128955   3.529   5.738   2.610  0.2881 -0.2846  0.6290
 2440TIP3    H228956   3.456   5.864   2.650  1.3184  0.9050 -1.1293
 2441TIP3   OH228957   2.763   6.650   0.524  0.3095  0.2228  0.0566
 2441TIP3    H128958   2.742   6.662   0.616 -0.8644 -0.0274 -0.1658
 2441TIP3    H228959   2.837   6.708   0.509 -1.7341  3.1298  0.3138
 2442TIP3   OH228960   5.639   4.617   8.171  0.1144  0.7273  0.1594
 2442TIP3    H128961   5.730   4.601   8.195 -0.5889 -0.7941  2.1956
 2442TIP3    H228962   5.615   4.542   8.116 -0.0551  0.8102  0.1197
 2443TIP3   OH228963   4.083   6.769   1.106  0.4180 -0.3042  0.1295
 2443TIP3    H128964   4.041   6.732   1.183  2.3435  0.0101  1.4076
 2443TIP3    H228965   4.156   6.710   1.088  1.5891  1.0541  0.2199
 2444TIP3   OH228966   1.274   5.073   0.730 -0.3244 -0.0559  0.3126
 2444TIP3    H128967   1.277   5.144   0.667  0.7629 -2.0288 -2.0244
 2444TIP3    H228968   1.208   5.013   0.695 -0.2496 -0.8521  1.4847
 2445TIP3   OH228969   2.411   5.303   7.752  0.1819  0.4976  0.5954
 2445TIP3    H128970   2.431   5.300   7.658  0.7486  3.0245  0.5604
 2445TIP3    H228971   2.492   5.334   7.793  0.0792 -0.9782  2.0076
 2446TIP3   OH228972   4.814   1.226   1.204 -1.2981  0.1569  0.2574
 2446TIP3    H128973   4.763   1.145   1.204  0.1326 -0.7708  0.2835
 2446TIP3    H228974   4.861   1.224   1.288 -0.4437  0.4949 -0.2099
 2447TIP3   OH228975   2.981   0.889   3.302  0.8095  0.3186 -0.1123
 2447TIP3    H128976   2.891   0.855   3.309  1.1502 -0.6281 -0.1372
 2447TIP3    H228977   3.018   0.874   3.389  1.7477 -1.7257 -0.8094
 2448TIP3   OH228978   1.171   0.183   1.973 -0.1955 -0.0622 -0.1094
 2448TIP3    H128979   1.210   0.209   2.057 -0.2295  0.4421 -0.2498
 2448TIP3    H228980   1.246   0.169   1.916 -0.2076  1.2327 -0.4767
 2449TIP3   OH228981   0.738   4.025   2.345  0.4210  0.0399  0.5128
 2449TIP3    H128982   0.651   4.036   2.306  0.5804 -0.8747 -0.1297
 2449TIP3    H228983   0.798   4.021   2.271  0.9890  0.3639  0.9406
 2450TIP3   OH228984   5.685   4.463   1.679  0.0092  0.1061  0.1027
 2450TIP3    H128985   5.719   4.422   1.759  0.7167  0.0300 -0.2273
 2450TIP3    H228986   5.631   4.536   1.710  0.1360 -0.0323  0.6539
 2451TIP3   OH228987   4.674   0.952   2.162  0.0323 -0.6785  0.1101
 2451TIP3    H128988   4.658   1.044   2.137 -0.8780 -0.5303  1.1476
 2451TIP3    H228989   4.726   0.958   2.242 -1.2388 -1.0207  0.9863
 2452TIP3   OH228990   6.624   3.074   0.411  0.1733  0.2481 -0.5594
 2452TIP3    H128991   6.561   3.134   0.372 -0.1360 -1.1915 -2.3842
 2452TIP3    H228992   6.709   3.105   0.380  0.1474  0.5520 -0.3371
 2453TIP3   OH228993   0.606   2.398   2.003  0.6197 -0.2149  0.1654
 2453TIP3    H128994   0.554   2.335   1.953 -0.4813  0.8231 -0.0550
 2453TIP3    H228995   0.598   2.480   1.953  0.9321  0.4194  1.1320
 2454TIP3   OH228996   0.845   4.868   1.202  0.0070  0.1818  0.0881
 2454TIP3    H128997   0.762   4.895   1.164 -0.3027  0.3985  0.8886
 2454TIP3    H228998   0.908   4.877   1.131 -0.5677  0.4547 -0.4005
 2455TIP3   OH228999   5.610   5.408   1.152  0.1811 -0.1211 -0.0956
 2455TIP3    H129000   5.698   5.370   1.158  0.4582  0.5347  0.1199
 2455TIP3    H229001   5.617   5.491   1.200 -1.1365 -1.1040  1.9321
 2456TIP3   OH229002   4.367   4.259   2.529 -0.3135  1.2021  0.3412
 2456TIP3    H129003   4.374   4.202   2.605  1.2673 -0.8252 -1.1845
 2456TIP3    H229004   4.284   4.304   2.540 -1.8886 -1.6842  1.5115
 2457TIP3   OH229005   4.044   3.913   1.185 -0.4632 -0.5246  0.2666
 2457TIP3    H129006   4.021   3.912   1.092 -0.1227 -0.0730  0.1748
 2457TIP3    H229007   4.137   3.937   1.187  0.0485 -2.3703  0.6300
 2458TIP3   OH229008   4.832   5.663   1.891 -1.0028 -0.0173 -0.7989
 2458TIP3    H129009   4.837   5.579   1.938 -1.7681 -0.6612 -1.8209
 2458TIP3    H229010   4.798   5.725   1.956 -0.7741 -0.5800 -0.1325
 2459TIP3   OH229011   3.754   5.570   7.776  0.4264  0.0484  0.1343
 2459TIP3    H129012   3.768   5.477   7.759  0.1306  0.1781 -0.9143
 2459TIP3    H229013   3.659   5.580   7.782  0.4555  0.2804  0.2143
 2460TIP3   OH229014   3.694   6.677   1.115  0.3330 -0.0518  0.0614
 2460TIP3    H129015   3.637   6.605   1.088  1.1979 -0.7376  0.0375
 2460TIP3    H229016   3.684   6.742   1.046  0.3135 -0.5789 -0.4448
 2461TIP3   OH229017   0.851   3.620   2.387  0.0853  0.2469  0.4863
 2461TIP3    H129018   0.933   3.656   2.421  0.5041  2.7610 -2.7248
 2461TIP3    H229019   0.840   3.662   2.301 -3.2587 -1.9799 -0.3558
 2462TIP3   OH229020   0.210   4.284   2.313  0.2086 -0.8316  0.6936
 2462TIP3    H129021   0.186   4.211   2.256 -0.1821 -0.4748  0.4025
 2462TIP3    H229022   0.129   4.332   2.326  0.3165 -0.8589  1.4811
 2463TIP3   OH229023   4.112   3.337   2.339  0.7334  0.1568 -0.3106
 2463TIP3    H129024   4.166   3.412   2.364 -0.7271  0.6820  1.4749
 2463TIP3    H229025   4.112   3.281   2.417  0.8500 -1.1612 -1.2184
 2464TIP3   OH229026   1.458   3.993   1.173  0.4008  0.3643 -0.0063
 2464TIP3    H129027   1.391   4.035   1.227  0.6409 -0.1598  0.7171
 2464TIP3    H229028   1.524   4.061   1.160 -0.7280  1.2227 -1.6118
 2465TIP3   OH229029   4.214   0.946   2.815  0.0636 -0.5228 -0.5621
 2465TIP3    H129030   4.293   0.946   2.869  1.6420 -0.1732 -2.7017
 2465TIP3    H229031   4.198   1.039   2.798 -2.0619 -0.4400  1.4372
 2466TIP3   OH229032   4.823   0.406   1.240  0.1253  0.1928 -0.1406
 2466TIP3    H129033   4.827   0.314   1.214  1.8623  0.3048 -0.3875
 2466TIP3    H229034   4.794   0.403   1.331  2.0069 -0.7646  0.4848
 2467TIP3   OH229035   0.996   1.585   1.850 -0.0090 -0.2090 -0.2427
 2467TIP3    H129036   0.923   1.639   1.880 -1.1161 -2.2377  0.9575
 2467TIP3    H229037   1.063   1.647   1.823 -1.2074  1.7405  1.0455
 2468TIP3   OH229038   6.600   0.775   0.407  0.7644  0.1913 -0.5970
 2468TIP3    H129039   6.642   0.795   0.491 -0.3497 -2.1631  0.6335
 2468TIP3    H229040   6.672   0.751   0.349  1.3945 -0.5556  0.4632
 2469TIP3   OH229041   3.687   2.112   2.711 -0.1539 -0.1447  0.0026
 2469TIP3    H129042   3.728   2.105   2.625 -1.8388  2.6693 -1.1508
 2469TIP3    H229043   3.596   2.085   2.696 -0.7508  1.4416  0.6152
 2470TIP3   OH229044   4.851   4.610   0.066 -0.4898  0.0585 -0.0770
 2470TIP3    H129045   4.879   4.690   0.111 -0.6789  0.0169  0.1145
 2470TIP3    H229046   4.776   4.578   0.117  0.9995 -1.5220  1.2476
 2471TIP3   OH229047   2.880   0.228   8.383 -0.5113  0.3150 -0.1245
 2471TIP3    H129048   2.793   0.239   8.345 -1.1037 -0.7412  0.8451
 2471TIP3    H229049   2.911   0.144   8.349 -0.3975  0.0952  0.5070
 2472TIP3   OH229050   0.468   4.607   8.400 -0.0175 -0.2852 -0.9810
 2472TIP3    H129051   0.562   4.588   8.400 -0.1342 -0.8739 -0.6752
 2472TIP3    H229052   0.439   4.585   8.489 -0.0964  1.6673 -0.4765
 2473TIP3   OH229053   5.151   0.531   7.732  0.0210 -0.6774  0.0123
 2473TIP3    H129054   5.162   0.626   7.739  2.5389 -0.6629 -2.5439
 2473TIP3    H229055   5.205   0.496   7.803 -0.1271 -0.2541  0.3464
 2474TIP3   OH229056   2.307   5.914   7.299  0.2478  0.1496  0.0729
 2474TIP3    H129057   2.279   5.822   7.294 -2.2660  0.7616  1.1077
 2474TIP3    H229058   2.239   5.961   7.251 -0.3293  1.7391  2.2883
 2475TIP3   OH229059   1.552   0.240   2.475 -0.1673 -0.0555 -0.0902
 2475TIP3    H129060   1.548   0.283   2.390 -0.5247  0.4007  0.1464
 2475TIP3    H229061   1.632   0.274   2.516  0.5974 -1.1131 -0.6677
 2476TIP3   OH229062   5.893   3.202   1.731  0.4679  0.0454 -0.3817
 2476TIP3    H129063   5.845   3.284   1.747 -0.0394 -0.2234 -0.5303
 2476TIP3    H229064   5.984   3.224   1.752  0.3836  0.7364 -0.7103
 2477TIP3   OH229065   6.548   3.276   7.994  1.2019  0.2333  0.0919
 2477TIP3    H129066   6.571   3.329   7.918  0.4893  0.4702  0.0306
 2477TIP3    H229067   6.487   3.332   8.044 -1.3292 -1.3033 -1.0703
 2478TIP3   OH229068   1.080   4.509   0.478 -0.5573  0.1159 -0.0229
 2478TIP3    H129069   1.164   4.543   0.508 -0.7872  0.6774 -0.0011
 2478TIP3    H229070   1.104   4.437   0.419 -0.0786 -0.0795  0.4023
 2479TIP3   OH229071   2.755   4.112   7.590 -0.5173 -0.2042  0.0103
 2479TIP3    H129072   2.673   4.126   7.637 -0.6500  0.0621 -0.2984
 2479TIP3    H229073   2.741   4.152   7.505  0.0172  0.0394  0.0348
 2480TIP3   OH229074   3.208   4.883   0.191  0.1767 -0.1481  0.6394
 2480TIP3    H129075   3.234   4.793   0.211 -0.2130 -0.6390 -0.9117
 2480TIP3    H229076   3.177   4.879   0.100 -1.7938  1.1425  1.2060
 2481TIP3   OH229077   5.085   0.165   1.865 -0.2312 -0.0368  0.1261
 2481TIP3    H129078   5.153   0.098   1.873  0.8090  0.9964  0.2624
 2481TIP3    H229079   5.017   0.124   1.812  0.6619 -0.9848 -0.3297
 2482TIP3   OH229080   1.855   3.703   1.770 -0.1131  0.0763 -0.7382
 2482TIP3    H129081   1.937   3.661   1.796  0.4556  1.0200 -0.9250
 2482TIP3    H229082   1.851   3.782   1.824 -0.5664  0.3733 -1.1959
 2483TIP3   OH229083   0.758   1.431   8.462 -0.3966 -0.5143  0.4129
 2483TIP3    H129084   0.822   1.433   8.534  0.7768 -0.1122 -0.5945
 2483TIP3    H229085   0.717   1.345   8.469  2.5809 -2.2227 -0.7674
 2484TIP3   OH229086   1.120   1.034   2.759  0.0774  0.1924 -0.2570
 2484TIP3    H129087   1.105   1.067   2.848  1.0017  0.6715 -0.2737
 2484TIP3    H229088   1.052   0.967   2.748 -0.2237  0.3081  0.7065
 2485TIP3   OH229089   5.267   3.983   1.271 -0.0084  0.4812  0.7165
 2485TIP3    H129090   5.269   3.955   1.180 -0.1148 -0.4953  1.0029
 2485TIP3    H229091   5.184   4.029   1.280 -0.2556  0.0981  0.4448
 2486TIP3   OH229092   2.539   1.341   1.927 -0.5928 -0.9557  0.4274
 2486TIP3    H129093   2.471   1.387   1.876 -0.7091 -0.5622  0.9329
 2486TIP3    H229094   2.499   1.326   2.012 -0.6544 -2.2676  0.1852
 2487TIP3   OH229095   3.151   5.598   1.557 -0.1430 -0.0691  0.0440
 2487TIP3    H129096   3.217   5.561   1.499 -0.2130 -0.6862  0.3463
 2487TIP3    H229097   3.184   5.685   1.580  1.0582 -0.7606  0.9968
 2488TIP3   OH229098   1.312   1.536   2.158 -0.2908  0.0282  0.0821
 2488TIP3    H129099   1.239   1.524   2.218 -0.8398 -1.8258 -0.8838
 2488TIP3    H229100   1.337   1.448   2.131  0.1637  0.7491 -2.1151
 2489TIP3   OH229101   5.815   0.111   8.542 -0.1015 -0.2907  0.1858
 2489TIP3    H129102   5.792   0.109   8.635  0.9349 -2.2887  0.4485
 2489TIP3    H229103   5.787   0.197   8.512  0.2573  0.7183  2.5461
 2490TIP3   OH229104   5.929   0.554   0.863 -0.2813  0.4081 -0.2472
 2490TIP3    H129105   6.021   0.553   0.835 -0.3132  0.7673 -0.3669
 2490TIP3    H229106   5.901   0.644   0.850 -1.3109 -0.1398 -2.4387
 2491TIP3   OH229107   6.438   2.098   0.447 -0.0844  0.2224  0.0892
 2491TIP3    H129108   6.456   2.005   0.456 -0.6195  0.0695 -0.3711
 2491TIP3    H229109   6.368   2.115   0.510 -1.6139 -0.1864 -1.4397
 2492TIP3   OH229110   3.921   4.201   1.844 -0.1756  0.6912 -0.0516
 2492TIP3    H129111   4.017   4.199   1.834 -0.0440  1.3266  1.0228
 2492TIP3    H229112   3.907   4.195   1.938 -1.2841 -1.8537 -0.2862
 2493TIP3   OH229113   0.192   5.605   1.967  0.1993 -0.2457 -0.0991
 2493TIP3    H129114   0.248   5.683   1.960 -0.4872  0.4942  1.8289
 2493TIP3    H229115   0.144   5.618   2.049 -0.6056 -2.2860 -0.1931
 2494TIP3   OH229116   6.505   5.634   0.867 -0.0996  0.3596 -0.7031
 2494TIP3    H129117   6.555   5.634   0.948  0.3556 -0.0159 -0.9794
 2494TIP3    H229118   6.535   5.556   0.820 -2.0946 -0.7663 -0.1780
 2495TIP3   OH229119   1.459   5.135   8.102  0.8768 -0.8633 -0.0789
 2495TIP3    H129120   1.469   5.148   8.196  1.9683  2.4840 -0.5288
 2495TIP3    H229121   1.368   5.157   8.083  1.2184  0.7391 -0.0225
 2496TIP3   OH229122   1.442   4.870   7.227  0.8388 -0.0406 -0.3201
 2496TIP3    H129123   1.432   4.952   7.179  0.6616 -0.6760 -1.3963
 2496TIP3    H229124   1.510   4.822   7.180 -0.7486 -1.5431 -1.2308
 2497TIP3   OH229125   5.433   0.197   1.361 -0.0781  0.0877 -0.0472
 2497TIP3    H129126   5.400   0.218   1.448  1.6880  1.5559  0.3236
 2497TIP3    H229127   5.370   0.239   1.301  0.5283  2.0798  0.6258
 2498TIP3   OH229128   3.572   2.871   8.003 -0.1425  0.1296  0.3919
 2498TIP3    H129129   3.527   2.926   7.939  0.2042 -0.4425 -0.3565
 2498TIP3    H229130   3.637   2.930   8.042 -0.7092  0.6262  0.6163
 2499TIP3   OH229131   4.602   2.855   0.242 -0.5622  0.3157 -0.0594
 2499TIP3    H129132   4.631   2.946   0.233  0.2392  0.0392 -0.3164
 2499TIP3    H229133   4.519   2.851   0.195 -0.4664  0.8462 -0.2777
 2500TIP3   OH229134   6.408   5.887   1.863 -0.1231  0.3933 -0.2477
 2500TIP3    H129135   6.352   5.821   1.903  0.9618 -1.3451 -1.4243
 2500TIP3    H229136   6.350   5.961   1.845 -1.4439 -0.3224  0.8626
 2501TIP3   OH229137   2.207   3.086   1.224  0.3007  0.0726 -0.4983
 2501TIP3    H129138   2.228   2.993   1.211 -0.1165 -0.0124 -0.5740
 2501TIP3    H229139   2.156   3.088   1.304  3.1792  0.6421  1.4704
 2502TIP3   OH229140   3.582   6.643   0.066  0.3895 -1.1548 -0.1171
 2502TIP3    H129141   3.587   6.618   0.158  0.8314  0.5364  0.3583
 2502TIP3    H229142   3.554   6.735   0.067 -1.0594 -1.5363 -1.7416
 2503TIP3   OH229143   4.522   1.153   8.007  0.1796  0.1123 -0.0034
 2503TIP3    H129144   4.481   1.113   7.930  2.4452 -3.3600  0.3687
 2503TIP3    H229145   4.568   1.229   7.973  1.3813 -1.4907 -2.2367
 2504TIP3   OH229146   2.926   0.516   0.053  0.4549  0.4863  0.3346
 2504TIP3    H129147   2.871   0.504  -0.024  1.2567  0.0453 -0.1839
 2504TIP3    H229148   2.917   0.434   0.101 -1.5975  1.4622  1.7762
 2505TIP3   OH229149   0.938   3.586   6.491  0.8875 -0.1465  0.5971
 2505TIP3    H129150   0.873   3.516   6.494  3.2745 -2.5322  2.6678
 2505TIP3    H229151   0.887   3.666   6.482 -2.0422 -2.0480 -1.9384
 2506TIP3   OH229152   4.556   4.733   2.549 -0.2931 -0.6001 -0.7065
 2506TIP3    H129153   4.516   4.650   2.525  0.2049 -0.8635 -0.6297
 2506TIP3    H229154   4.648   4.712   2.566  0.2579  0.2584 -2.4250
 2507TIP3   OH229155   0.493   3.598   0.475  0.9049 -0.5983  0.2226
 2507TIP3    H129156   0.477   3.551   0.557 -0.1028  1.3917  1.2378
 2507TIP3    H229157   0.570   3.652   0.493  0.2335  0.4106  0.1413
 2508TIP3   OH229158   4.340   1.761   0.753 -0.3328  0.3152 -0.0711
 2508TIP3    H129159   4.244   1.763   0.754 -0.3541 -0.3908  0.5493
 2508TIP3    H229160   4.367   1.843   0.792 -0.6724  0.7573 -0.7423
 2509TIP3   OH229161   2.902   0.888   2.872  0.1188  0.5393 -0.3010
 2509TIP3    H129162   2.869   0.806   2.836 -0.2095  0.4499  0.1906
 2509TIP3    H229163   2.883   0.882   2.966 -0.0178  1.2315 -0.2847
 2510TIP3   OH229164   5.524   5.903   1.223  0.0959 -0.5554  0.0389
 2510TIP3    H129165   5.595   5.953   1.184 -0.2489 -1.5948 -2.1272
 2510TIP3    H229166   5.566   5.827   1.263  0.3670 -0.0973  0.6244
 2511TIP3   OH229167   5.365   3.382   1.472 -0.9667 -0.4456 -0.1405
 2511TIP3    H129168   5.447   3.398   1.426 -0.2584 -0.5198  1.0744
 2511TIP3    H229169   5.304   3.354   1.403  0.3444 -1.5374 -0.9008
 2512TIP3   OH229170   4.576   2.105   1.382 -0.2278 -0.0235 -0.1305
 2512TIP3    H129171   4.594   2.109   1.476 -1.8916  0.1616  0.2132
 2512TIP3    H229172   4.514   2.033   1.372 -1.0523  0.7614 -0.9005
 2513TIP3   OH229173   0.102   6.668   0.901 -0.4721 -0.0581  0.4416
 2513TIP3    H129174   0.142   6.641   0.984  0.1369 -1.4967 -0.2877
 2513TIP3    H229175   0.015   6.629   0.903  0.3342 -2.0154 -0.5223
 2514TIP3   OH229176   2.849   2.186   3.184  0.9339  0.2137  0.7339
 2514TIP3    H129177   2.831   2.210   3.275  1.0689  1.1441  0.5217
 2514TIP3    H229178   2.898   2.260   3.149  0.4551  0.0804 -0.2460
 2515TIP3   OH229179   5.172   2.590   0.775  0.0713 -0.7492  0.3440
 2515TIP3    H129180   5.229   2.590   0.852 -0.4941  0.8851  0.8184
 2515TIP3    H229181   5.227   2.626   0.705  0.6622 -2.4631 -0.1282
 2516TIP3   OH229182   5.017   4.617   1.705  0.2302  0.2027 -0.1828
 2516TIP3    H129183   5.016   4.646   1.614  1.5490 -2.7736 -1.2681
 2516TIP3    H229184   4.974   4.532   1.704  0.7863 -0.1677  1.8727
 2517TIP3   OH229185   1.395   1.897   3.174 -0.0092 -0.0032  0.1049
 2517TIP3    H129186   1.453   1.961   3.216  0.6469  0.2688 -1.1649
 2517TIP3    H229187   1.386   1.928   3.084  0.4058 -1.7440 -0.5789
 2518TIP3   OH229188   3.417   4.034   7.993 -0.0810  0.2478  0.1368
 2518TIP3    H129189   3.392   3.942   7.983 -0.8886  0.3994  0.6344
 2518TIP3    H229190   3.377   4.078   7.918 -0.2417  0.2827  0.2399
 2519TIP3   OH229191   6.546   3.425   7.744 -0.0503 -0.1259  0.1428
 2519TIP3    H129192   6.547   3.508   7.791  2.5590  1.5626 -2.4983
 2519TIP3    H229193   6.472   3.432   7.684 -1.4085 -0.9120  1.6509
 2520TIP3   OH229194   2.234   3.745   0.039 -0.6611 -0.2634 -0.2068
 2520TIP3    H129195   2.224   3.726   0.133  1.7635  0.0326  0.1875
 2520TIP3    H229196   2.145   3.750   0.006 -1.7488  2.4940  2.6675
 2521TIP3   OH229197   5.406   3.657   0.675 -0.6392  0.1432  0.0676
 2521TIP3    H129198   5.381   3.594   0.742  1.1358  0.2298  0.8668
 2521TIP3    H229199   5.405   3.606   0.593  1.6839 -1.2587  0.8212
 2522TIP3   OH229200   5.286   2.347   1.514  0.3054 -0.1985  0.0688
 2522TIP3    H129201   5.278   2.435   1.477 -0.2945 -0.5139 -0.5804
 2522TIP3    H229202   5.279   2.288   1.438 -2.0403 -0.9050  0.7276
 2523TIP3   OH229203   3.277   0.245   7.833  0.4987 -0.1135 -0.3253
 2523TIP3    H129204   3.231   0.315   7.787  1.0034  0.6193  0.2422
 2523TIP3    H229205   3.211   0.179   7.850  0.1151  0.0013 -1.3052
 2524TIP3   OH229206   0.214   0.647   8.664  0.6286 -0.6039 -0.1976
 2524TIP3    H129207   0.267   0.662   8.585  1.8857 -1.3375  0.4875
 2524TIP3    H229208   0.242   0.716   8.724 -1.9197  1.3713 -1.1034
 2525TIP3   OH229209   0.647   1.994   2.747  0.1810  0.4336  0.1389
 2525TIP3    H129210   0.667   2.056   2.817  0.6316  0.8926 -0.3911
 2525TIP3    H229211   0.578   2.036   2.696  0.0165  0.2016  0.1682
 2526TIP3   OH229212   6.214   2.044   1.589 -0.0903  0.5358 -0.2366
 2526TIP3    H129213   6.268   1.983   1.539 -0.5701  0.7406 -1.0148
 2526TIP3    H229214   6.271   2.073   1.661  1.2801  1.6784 -1.7027
 2527TIP3   OH229215   3.129   6.796   0.726  0.0887  0.1330 -0.1343
 2527TIP3    H129216   3.040   6.820   0.701 -0.1221 -0.9604 -0.5276
 2527TIP3    H229217   3.175   6.879   0.734 -1.2907  0.8137  1.4289
 2528TIP3   OH229218   1.212   3.357   7.530  0.1228 -0.0856  0.2015
 2528TIP3    H129219   1.227   3.270   7.569 -0.5181 -0.0170  0.6144
 2528TIP3    H229220   1.300   3.387   7.505  0.2166 -1.4774 -1.2982
 2529TIP3   OH229221   2.309   1.728   1.380 -0.1016  0.2369  0.5499
 2529TIP3    H129222   2.358   1.646   1.382 -1.3861 -0.5488  1.0595
 2529TIP3    H229223   2.318   1.759   1.290  1.1626  0.0281  0.5854
 2530TIP3   OH229224   6.501   3.647   3.122 -0.5837  0.1707  0.0929
 2530TIP3    H129225   6.417   3.619   3.086  0.3822 -1.2926 -1.1098
 2530TIP3    H229226   6.567   3.602   3.069  1.0123  2.1280  0.2747
 2531TIP3   OH229227   4.613   1.589   1.925  0.0971  0.0091  0.1860
 2531TIP3    H129228   4.682   1.560   1.985  1.1761 -0.2645 -1.1215
 2531TIP3    H229229   4.658   1.650   1.866 -0.4973 -0.9575 -1.3336
 2532TIP3   OH229230   2.994   6.419   8.229  0.1073  0.1932  0.0562
 2532TIP3    H129231   2.921   6.358   8.232 -0.3434  0.7411  0.6053
 2532TIP3    H229232   2.965   6.487   8.168 -0.1995  0.8333  0.8877
 2533TIP3   OH229233   3.132   2.555   1.247 -0.6433 -0.7420 -0.5278
 2533TIP3    H129234   3.072   2.560   1.322 -0.2606 -0.1061 -0.2527
 2533TIP3    H229235   3.143   2.462   1.231 -0.6870 -0.8886  0.2528
 2534TIP3   OH229236   4.581   0.923   2.809  0.6691  0.2225 -0.4279
 2534TIP3    H129237   4.634   0.860   2.859  2.0360  0.4338 -1.5306
 2534TIP3    H229238   4.540   0.870   2.741  0.1382  0.1989 -0.0921
 2535TIP3   OH229239   0.399   4.455   8.644  0.5485 -0.1149 -0.0949
 2535TIP3    H129240   0.493   4.457   8.663  0.3938 -2.8218  1.5184
 2535TIP3    H229241   0.357   4.471   8.729 -0.4217 -0.5196 -0.4849
 2536TIP3   OH229242   4.108   3.341   0.717  0.2284 -0.0700 -0.0726
 2536TIP3    H129243   4.144   3.343   0.805  3.4962  0.2996 -1.2882
 2536TIP3    H229244   4.103   3.248   0.695 -0.5032 -0.1576  0.4290
 2537TIP3   OH229245   2.313   2.840   8.676 -0.7034  0.0527  0.0685
 2537TIP3    H129246   2.358   2.779   8.618  0.1235  0.9787 -0.2870
 2537TIP3    H229247   2.308   2.794   8.760 -2.4021 -1.5290 -0.8306
 2538TIP3   OH229248   3.837   4.614   0.734  0.5670  0.3696  0.2728
 2538TIP3    H129249   3.895   4.621   0.810  0.9055 -0.7864  0.1412
 2538TIP3    H229250   3.888   4.566   0.669  0.1827  1.1200 -0.6013
 2539TIP3   OH229251   4.793   3.349   0.301 -0.1202 -0.0403 -0.3327
 2539TIP3    H129252   4.819   3.278   0.360  0.5017  0.0676 -0.4786
 2539TIP3    H229253   4.702   3.368   0.326  0.4442  0.7027  1.3018
 2540TIP3   OH229254   5.416   2.328   1.016  0.1902 -0.1659  0.0516
 2540TIP3    H129255   5.476   2.257   1.037  1.1486  0.7582  0.5616
 2540TIP3    H229256   5.440   2.355   0.928 -0.6787 -0.9496 -0.4404
 2541TIP3   OH229257   2.068   0.657   0.436  0.8399 -0.1673  0.3277
 2541TIP3    H129258   2.162   0.674   0.443  0.9593 -1.2272  1.5692
 2541TIP3    H229259   2.037   0.650   0.526 -0.4195  0.0398 -0.0607
 2542TIP3   OH229260   4.327   4.377   0.310 -0.2522  0.1092  0.1425
 2542TIP3    H129261   4.375   4.445   0.262  1.2186 -1.8931 -1.4182
 2542TIP3    H229262   4.249   4.362   0.257  0.3782 -0.7139 -0.5751
 2543TIP3   OH229263   4.180   3.016   0.912 -0.6000  0.3683  0.0289
 2543TIP3    H129264   4.234   3.094   0.899 -1.5444  0.9076 -0.7823
 2543TIP3    H229265   4.192   2.994   1.004 -0.0196  1.2481  0.1762
 2544TIP3   OH229266   1.181   6.060   7.851 -0.3275  0.1373  0.0764
 2544TIP3    H129267   1.149   6.064   7.941  0.9994  0.4768  0.5518
 2544TIP3    H229268   1.268   6.098   7.855  0.9574 -2.5075 -0.7870
 2545TIP3   OH229269   5.713   4.307   0.751 -0.2637 -0.4434  0.2248
 2545TIP3    H129270   5.752   4.384   0.792 -2.1764  0.5539  0.3277
 2545TIP3    H229271   5.653   4.343   0.685 -0.3806 -1.8953 -0.5034
 2546TIP3   OH229272   0.605   4.924   2.341 -0.2786 -0.4675 -0.0505
 2546TIP3    H129273   0.593   4.829   2.351  0.5083 -0.5533  0.2066
 2546TIP3    H229274   0.627   4.955   2.429 -1.4494  0.1122  0.0509
 2547TIP3   OH229275   4.451   2.942   0.005  0.3385 -0.3442  0.3019
 2547TIP3    H129276   4.456   3.037  -0.006 -0.5802 -0.3044  0.1213
 2547TIP3    H229277   4.495   2.906  -0.072  1.4693 -0.0855  0.7970
 2548TIP3   OH229278   4.684   1.304   0.635  0.4043 -0.2087  0.3891
 2548TIP3    H129279   4.740   1.244   0.684  0.4113 -1.8870 -1.5100
 2548TIP3    H229280   4.599   1.260   0.632  0.2235  0.1769 -0.4831
 2549TIP3   OH229281   5.467   0.235   7.699  0.6549  0.2975  0.3652
 2549TIP3    H129282   5.485   0.328   7.685  1.6613 -0.1120 -1.3224
 2549TIP3    H229283   5.498   0.192   7.620  0.3541 -1.5174  1.1750
 2550TIP3   OH229284   6.602   1.939   7.134  0.4615 -0.5787 -0.0102
 2550TIP3    H129285   6.646   2.016   7.170 -0.9747  0.3522 -0.1745
 2550TIP3    H229286   6.652   1.918   7.056  0.6143  0.4892 -0.2212
 2551TIP3   OH229287   2.485   0.703   3.240 -0.7319  0.0201 -0.4788
 2551TIP3    H129288   2.398   0.743   3.244 -1.0485 -0.6206 -0.8001
 2551TIP3    H229289   2.516   0.721   3.152 -0.1456  1.0281 -0.0848
 2552TIP3   OH229290   2.106   5.816   0.153  0.1250  0.3674 -0.0254
 2552TIP3    H129291   2.039   5.763   0.196  1.4556 -1.3995 -0.0130
 2552TIP3    H229292   2.066   5.843   0.070 -0.9894  0.3203  0.4810
 2553TIP3   OH229293   2.553   2.966   7.583  0.9466  0.2820 -0.0284
 2553TIP3    H129294   2.497   2.908   7.635 -0.7285  2.3436  0.5993
 2553TIP3    H229295   2.612   3.006   7.647  0.1923  1.3541  0.0201
 2554TIP3   OH229296   0.076   6.101   0.803 -0.0389 -0.0156 -0.0422
 2554TIP3    H129297   0.066   6.012   0.836 -1.2779  0.3434  0.6052
 2554TIP3    H229298   0.163   6.103   0.763 -0.2966 -1.7267 -0.7504
 2555TIP3   OH229299   2.564   6.757   1.633 -0.2647  0.0686  0.3554
 2555TIP3    H129300   2.646   6.805   1.622 -0.7707  1.3666  1.8717
 2555TIP3    H229301   2.550   6.714   1.548  0.4686  2.2438 -0.9511
 2556TIP3   OH229302   5.343   2.998   8.302  0.1273 -0.0272 -0.0991
 2556TIP3    H129303   5.410   3.048   8.255  1.1176 -0.6646  0.5956
 2556TIP3    H229304   5.270   3.059   8.312  0.6459  0.7226 -0.7698
 2557TIP3   OH229305   4.328   3.092   8.328 -0.1068 -0.4151 -0.3837
 2557TIP3    H129306   4.311   3.137   8.411 -1.0220 -0.4463 -0.5498
 2557TIP3    H229307   4.340   3.163   8.265 -0.0073 -0.3958 -0.3440
 2558TIP3   OH229308   0.698   6.542   2.404  0.3232 -0.0754 -0.2339
 2558TIP3    H129309   0.623   6.600   2.393  0.8390  0.4932 -0.7689
 2558TIP3    H229310   0.765   6.596   2.445  1.0111 -0.1207 -1.2743
 2559TIP3   OH229311   4.182   4.618   2.458  0.0453 -0.3129 -0.1641
 2559TIP3    H129312   4.177   4.532   2.500 -1.0741 -0.2725 -0.1971
 2559TIP3    H229313   4.121   4.612   2.384 -2.4396  1.4500  1.5800
 2560TIP3   OH229314   0.864   5.354   2.654 -0.8995 -0.8207  0.3322
 2560TIP3    H129315   0.795   5.382   2.595  1.0678  1.8396 -0.9291
 2560TIP3    H229316   0.856   5.413   2.730 -0.7819 -1.3410  0.7539
 2561TIP3   OH229317   2.758   4.068   0.633 -0.0582  0.5219 -0.0527
 2561TIP3    H129318   2.848   4.037   0.625 -0.2017 -0.1276  0.6892
 2561TIP3    H229319   2.706   4.001   0.589 -0.3148  0.0128  0.9938
 2562TIP3   OH229320   2.430   1.487   1.417  0.0455 -0.0957  0.3502
 2562TIP3    H129321   2.341   1.493   1.451  0.8349  0.9736  2.4181
 2562TIP3    H229322   2.479   1.443   1.487  1.6688  1.8588  0.5353
 2563TIP3   OH229323   4.113   1.196   8.172  0.0795  0.0404  0.0109
 2563TIP3    H129324   4.176   1.264   8.150  0.7856 -0.9319 -1.0877
 2563TIP3    H229325   4.150   1.154   8.250  0.0942  0.3256  0.1602
 2564TIP3   OH229326   6.504   5.220   1.534  0.2398 -0.2870  0.2410
 2564TIP3    H129327   6.492   5.185   1.446 -0.0504  2.3675 -0.8708
 2564TIP3    H229328   6.594   5.253   1.535  0.1534 -0.0467  0.8257
 2565TIP3   OH229329   0.111   0.570   2.799 -0.3651  0.0448 -0.3685
 2565TIP3    H129330   0.192   0.542   2.842 -0.8779 -0.9113 -0.0097
 2565TIP3    H229331   0.048   0.500   2.816 -1.0607  0.4137 -1.2928
 2566TIP3   OH229332   4.521   6.810   6.992 -0.3635 -0.3436 -0.3854
 2566TIP3    H129333   4.591   6.868   6.962 -1.3902  1.9390  1.3132
 2566TIP3    H229334   4.441   6.850   6.958 -1.2884  0.5598  2.5625
 2567TIP3   OH229335   2.816   0.728   0.761 -0.0786 -0.7334 -0.0279
 2567TIP3    H129336   2.884   0.775   0.810 -0.5605  1.0846 -1.0074
 2567TIP3    H229337   2.816   0.770   0.675 -3.9992  1.0032  0.6240
 2568TIP3   OH229338   5.410   6.729   0.710 -0.5001 -0.0310  0.2950
 2568TIP3    H129339   5.445   6.773   0.787 -0.2065 -2.1515  1.4421
 2568TIP3    H229340   5.322   6.701   0.736 -0.4572 -0.6442 -0.1892
 2569TIP3   OH229341   5.101   6.357   0.603  0.0740 -0.1652  0.2505
 2569TIP3    H129342   5.088   6.400   0.518  0.4428 -0.3707  0.0857
 2569TIP3    H229343   5.180   6.304   0.591 -0.3378 -0.8401  0.4618
 2570TIP3   OH229344   5.501   4.262   1.217 -0.0497 -0.3874  0.2110
 2570TIP3    H129345   5.426   4.310   1.250  0.3449  1.4768 -1.4339
 2570TIP3    H229346   5.466   4.207   1.147 -0.1359 -0.8315  0.5965
 2571TIP3   OH229347   2.078   2.534   0.155  0.4539 -0.0501  0.0612
 2571TIP3    H129348   2.136   2.481   0.100 -1.1525  0.0598 -1.8511
 2571TIP3    H229349   1.990   2.517   0.120 -0.3804  1.8503  1.1111
 2572TIP3   OH229350   2.840   1.045   3.128  0.3328 -0.0808  0.0898
 2572TIP3    H129351   2.818   1.132   3.159  1.8486 -0.1622  1.5497
 2572TIP3    H229352   2.894   1.007   3.198 -3.4581 -3.7359  1.4282
 2573TIP3   OH229353   3.440   2.149   2.235 -0.3000  0.1570  0.0958
 2573TIP3    H129354   3.487   2.164   2.153  0.5045 -1.1150  0.3026
 2573TIP3    H229355   3.351   2.180   2.217  1.0556  5.0347  0.4808
 2574TIP3   OH229356   1.860   6.488   0.925  0.0760  0.1433 -0.3554
 2574TIP3    H129357   1.856   6.400   0.886 -0.0648  0.1299 -0.3110
 2574TIP3    H229358   1.799   6.540   0.873 -3.0610 -0.7470  2.0946
 2575TIP3   OH229359   5.376   2.741   1.662  0.4835  0.0512 -0.1825
 2575TIP3    H129360   5.451   2.722   1.605 -0.4187  1.0001 -1.7730
 2575TIP3    H229361   5.411   2.738   1.751  2.6176  1.3323 -0.9191
 2576TIP3   OH229362   1.792   4.025   8.159  0.5276  0.1274  0.3145
 2576TIP3    H129363   1.775   4.023   8.065 -0.0084  2.9718  0.2623
 2576TIP3    H229364   1.888   4.026   8.166  0.6554 -2.4538 -0.0049
 2577TIP3   OH229365   2.698   2.811   0.210 -0.0793  0.0288  0.0600
 2577TIP3    H129366   2.773   2.871   0.209  1.2630 -1.4135  2.7240
 2577TIP3    H229367   2.718   2.747   0.142 -0.6275  1.4757 -1.5426
 2578TIP3   OH229368   6.193   3.439   7.892 -0.4878 -0.0618 -0.8472
 2578TIP3    H129369   6.271   3.441   7.947 -0.2657  0.2878 -1.1691
 2578TIP3    H229370   6.121   3.423   7.953 -0.3600  1.2861 -0.2971
 2579TIP3   OH229371   0.024   6.691   2.527  0.0616  0.3937  0.8839
 2579TIP3    H129372   0.018   6.687   2.622  1.0656 -1.6158  0.9220
 2579TIP3    H229373  -0.058   6.655   2.495  1.1419 -2.4922  1.0938
 2580TIP3   OH229374   3.845   2.018   8.580  0.2672  0.3519 -0.0729
 2580TIP3    H129375   3.915   1.953   8.589 -0.4697 -0.4333  0.1353
 2580TIP3    H229376   3.886   2.101   8.605  0.9135 -0.2189  0.8385
 2581TIP3   OH229377   4.730   6.036   2.295 -0.2486  0.4048 -0.6869
 2581TIP3    H129378   4.705   5.986   2.217 -0.4051 -0.5628 -0.0316
 2581TIP3    H229379   4.675   6.115   2.291 -1.5592 -0.4683 -0.6319
 2582TIP3   OH229380   6.264   4.775   7.837 -0.4601 -0.4650  0.9616
 2582TIP3    H129381   6.357   4.796   7.845 -0.5530  0.1086  0.5879
 2582TIP3    H229382   6.235   4.821   7.759 -1.3824  0.5021  1.8383
 2583TIP3   OH229383   3.768   6.322   2.703 -0.4733 -1.0856  0.2463
 2583TIP3    H129384   3.736   6.291   2.788  0.3496 -1.6442  0.3584
 2583TIP3    H229385   3.862   6.303   2.704 -0.1312  0.4439 -0.1097
 2584TIP3   OH229386   4.683   4.400   7.881  0.2778  0.1445 -0.4159
 2584TIP3    H129387   4.696   4.311   7.847  1.5037 -0.0729  0.5572
 2584TIP3    H229388   4.613   4.390   7.946  1.2659 -0.3844  0.6075
 2585TIP3   OH229389   6.415   3.687   2.759 -1.0630 -0.4632 -0.1549
 2585TIP3    H129390   6.451   3.611   2.804 -0.0934 -0.7082 -1.2815
 2585TIP3    H229391   6.391   3.748   2.829  1.2416 -0.4367  0.6748
 2586TIP3   OH229392   6.071   6.118   1.588 -0.1517 -0.3815 -0.1692
 2586TIP3    H129393   6.026   6.061   1.650  1.5616  0.8138  2.3579
 2586TIP3    H229394   6.008   6.186   1.567 -0.8350 -0.9250  0.0913
 2587TIP3   OH229395   6.085   2.728   0.636 -0.2499  0.1440  1.0928
 2587TIP3    H129396   6.071   2.669   0.710  1.5088  0.5966  1.8493
 2587TIP3    H229397   6.176   2.713   0.610 -0.8961 -0.2213 -1.2227
 2588TIP3   OH229398   0.469   4.966   7.811  0.0562  0.2229 -0.2237
 2588TIP3    H129399   0.533   4.997   7.876  2.9571 -0.9819 -2.2883
 2588TIP3    H229400   0.393   4.940   7.863  1.8391  0.1871  2.5859
 2589TIP3   OH229401   2.338   4.855   1.453  0.0537 -0.5299 -0.3608
 2589TIP3    H129402   2.384   4.771   1.452 -0.0296 -0.6004 -2.5673
 2589TIP3    H229403   2.395   4.915   1.406 -1.2912 -0.2011 -1.6763
 2590TIP3   OH229404   6.163   3.947   0.287 -0.5023 -0.6746  0.0981
 2590TIP3    H129405   6.196   3.965   0.199 -2.5602 -0.6257 -0.7238
 2590TIP3    H229406   6.228   3.985   0.346  1.3907 -1.5131 -1.3583
 2591TIP3   OH229407   0.698   3.128   8.164  0.4348  0.2505 -0.0831
 2591TIP3    H129408   0.736   3.108   8.250  0.5608  0.4095 -0.1024
 2591TIP3    H229409   0.716   3.049   8.112 -0.1451 -0.0779  0.2034
 2592TIP3   OH229410   2.245   6.318   6.820  0.0337  0.1552 -0.3198
 2592TIP3    H129411   2.327   6.268   6.814  0.5719  0.9955 -0.1063
 2592TIP3    H229412   2.181   6.264   6.774  0.1996 -1.5258  1.3081
 2593TIP3   OH229413   3.672   0.901   7.799  0.7869  0.1528  0.4429
 2593TIP3    H129414   3.669   0.923   7.706 -0.7970 -4.9117 -1.0685
 2593TIP3    H229415   3.584   0.917   7.831  0.6404 -0.4303  0.3437
 2594TIP3   OH229416   1.097   3.627   6.274 -0.2906 -0.6159  0.1606
 2594TIP3    H129417   1.012   3.593   6.303  0.3752 -1.4988  1.1354
 2594TIP3    H229418   1.161   3.580   6.327  0.8067  0.2184 -0.3897
 2595TIP3   OH229419   5.961   1.181   2.720  0.0790 -0.0827  0.4621
 2595TIP3    H129420   5.884   1.168   2.666  0.8091  0.8951 -0.8685
 2595TIP3    H229421   5.927   1.215   2.803 -0.9997 -0.8635  0.3524
 2596TIP3   OH229422   0.237   0.187   2.835  0.3376 -0.3011  0.3473
 2596TIP3    H129423   0.144   0.180   2.817 -0.0067 -0.0239  1.9281
 2596TIP3    H229424   0.278   0.124   2.776 -0.7799 -0.0468 -0.7445
 2597TIP3   OH229425   1.671   4.215   2.319  0.2712 -0.1785  0.0167
 2597TIP3    H129426   1.616   4.145   2.355 -0.5974  1.1246  1.3264
 2597TIP3    H229427   1.642   4.294   2.364 -0.4874  1.5139 -3.1922
 2598TIP3   OH229428   3.191   1.509   0.772  0.6813  0.6913 -0.1024
 2598TIP3    H129429   3.243   1.574   0.724 -0.8527  2.1692  0.1348
 2598TIP3    H229430   3.139   1.466   0.704  0.4939  0.8721 -0.0735
 2599TIP3   OH229431   6.858   0.214   1.484  0.3270 -0.3911  0.4577
 2599TIP3    H129432   6.845   0.307   1.466 -1.6839 -0.0011  3.2214
 2599TIP3    H229433   6.946   0.208   1.519  1.3163  0.0272 -1.7990
 2600TIP3   OH229434   1.278   4.213   7.490  0.1552  0.0091 -0.2013
 2600TIP3    H129435   1.343   4.277   7.459  1.8198 -0.6965  1.6501
 2600TIP3    H229436   1.277   4.223   7.585  1.0927 -3.1947  0.2720
 2601TIP3   OH229437   0.166   2.269   0.478  0.0840 -0.0535  0.3663
 2601TIP3    H129438   0.135   2.218   0.553 -0.5055 -0.1469  0.0700
 2601TIP3    H229439   0.136   2.219   0.402  1.5765 -0.5105  0.0493
 2602TIP3   OH229440   5.781   3.211   1.447 -0.2757 -0.6700  0.2416
 2602TIP3    H129441   5.853   3.213   1.510 -0.8839  0.4922  0.9404
 2602TIP3    H229442   5.755   3.119   1.443  1.0183 -1.0558  0.2183
 2603TIP3   OH229443   5.527   3.459   1.677  0.0960  0.5077  0.0343
 2603TIP3    H129444   5.444   3.425   1.643  0.8908 -2.5691  0.8563
 2603TIP3    H229445   5.558   3.519   1.609 -0.8350 -1.4570 -2.2740
 2604TIP3   OH229446   4.872   3.609   8.552  0.2553 -0.0505  0.4107
 2604TIP3    H129447   4.950   3.568   8.516  0.9707  1.0145  0.6822
 2604TIP3    H229448   4.905   3.671   8.617 -0.7722  0.9474  0.0202
 2605TIP3   OH229449   5.870   6.838   1.172  0.3800  0.2116  0.5922
 2605TIP3    H129450   5.803   6.895   1.210 -1.2335 -0.5629 -0.9196
 2605TIP3    H229451   5.933   6.824   1.242 -1.3432  0.5250  2.2812
 2606TIP3   OH229452   4.356   5.364   0.429 -0.6310 -0.2383  0.2931
 2606TIP3    H129453   4.303   5.415   0.368  1.4950  0.7524 -0.8277
 2606TIP3    H229454   4.302   5.357   0.508 -2.3634  0.7721 -0.7407
 2607TIP3   OH229455   5.818   2.864   0.068 -0.3161 -0.7340 -0.2532
 2607TIP3    H129456   5.845   2.861  -0.024 -0.5273 -2.8190 -0.3067
 2607TIP3    H229457   5.794   2.955   0.083  2.1801  0.2401 -1.5111
 2608TIP3   OH229458   4.980   2.575   1.184  0.1567 -0.3037 -0.2545
 2608TIP3    H129459   5.032   2.507   1.142 -0.3074 -1.8668  1.5926
 2608TIP3    H229460   4.899   2.532   1.210 -0.6096  1.2209  0.0264
 2609TIP3   OH229461   4.939   5.879   0.037 -0.5853 -0.0648  0.2134
 2609TIP3    H129462   4.997   5.854   0.109 -0.8204  0.8759  0.7432
 2609TIP3    H229463   4.889   5.799   0.017  0.9815 -0.9419 -0.3681
 2610TIP3   OH229464   1.325   0.946   2.588  0.0838  0.1477  0.1825
 2610TIP3    H129465   1.349   0.858   2.617 -1.1604 -0.6672 -1.1443
 2610TIP3    H229466   1.284   0.986   2.664  1.2171 -0.1779  0.9880
 2611TIP3   OH229467   6.881   4.601   1.076 -0.3709  1.0051  0.6086
 2611TIP3    H129468   6.939   4.658   1.025 -1.6529  0.3534 -1.7318
 2611TIP3    H229469   6.846   4.657   1.144  1.7406  1.8241  1.0857
 2612TIP3   OH229470   1.036   1.576   1.428 -0.0132 -0.1208  0.1261
 2612TIP3    H129471   1.092   1.642   1.387 -1.0717  1.5157  1.1992
 2612TIP3    H229472   1.035   1.600   1.520  0.0032 -2.0013  0.6551
 2613TIP3   OH229473   0.607   5.194   1.049 -0.1228 -0.2487 -0.0585
 2613TIP3    H129474   0.559   5.269   1.084 -1.8700 -1.5728  0.5484
 2613TIP3    H229475   0.542   5.124   1.044  1.4023 -1.6984 -0.7385
 2614TIP3   OH229476   2.398   3.207   8.262  0.0660  0.0490  0.2029
 2614TIP3    H129477   2.406   3.302   8.259 -2.6434  0.3846  0.5124
 2614TIP3    H229478   2.444   3.181   8.342 -0.6589  1.3545  1.0917
 2615TIP3   OH229479   3.890   3.640   0.453  0.6269  0.2817  0.2855
 2615TIP3    H129480   3.880   3.589   0.372  3.2515  0.3018 -0.1657
 2615TIP3    H229481   3.882   3.576   0.523 -2.6657  0.4128  0.1670
 2616TIP3   OH229482   5.705   1.127   7.177 -0.3784  0.4237 -0.0364
 2616TIP3    H129483   5.702   1.190   7.105  0.2108  0.3537 -0.1224
 2616TIP3    H229484   5.782   1.074   7.159  0.5061  1.2058  1.3154
 2617TIP3   OH229485   2.046   5.876   8.163 -0.2963 -0.1103 -0.0423
 2617TIP3    H129486   2.066   5.831   8.081 -0.2240  1.2012 -0.7790
 2617TIP3    H229487   1.979   5.822   8.205 -1.7267  0.1366 -1.8720
 2618TIP3   OH229488   5.422   4.997   1.188 -0.1429  1.2500  0.6928
 2618TIP3    H129489   5.341   4.961   1.223 -0.0332  0.0162 -0.2656
 2618TIP3    H229490   5.397   5.037   1.105  0.3930 -0.0825 -0.1270
 2619TIP3   OH229491   4.973   2.999   1.914 -0.6178 -0.3558  0.1900
 2619TIP3    H129492   5.063   2.976   1.894 -0.0306  1.7815  0.2032
 2619TIP3    H229493   4.975   3.092   1.936 -2.9310 -0.0493 -0.5495
 2620TIP3   OH229494   6.218   0.707   2.907 -0.0097  0.0744  1.3054
 2620TIP3    H129495   6.128   0.675   2.906  0.4655 -1.5799  3.5915
 2620TIP3    H229496   6.213   0.794   2.867 -2.4374 -0.3227  0.5746
 2621TIP3   OH229497   2.634   2.831   8.466 -0.0110 -0.7259 -0.4064
 2621TIP3    H129498   2.638   2.739   8.492 -0.4436 -0.5557  0.2765
 2621TIP3    H229499   2.567   2.833   8.397 -1.9128 -0.5392  1.3537
 2622TIP3   OH229500   3.028   5.732   1.305 -0.0329 -0.1037 -0.3880
 2622TIP3    H129501   2.986   5.752   1.389  1.0364 -1.7882  0.6031
 2622TIP3    H229502   3.122   5.736   1.324  0.2291 -2.2483 -1.0257
 2623TIP3   OH229503   2.217   5.797   0.822 -0.7436  0.1802  0.6638
 2623TIP3    H129504   2.221   5.751   0.905  1.2435  1.0713  1.1050
 2623TIP3    H229505   2.184   5.884   0.844 -2.3916 -0.2691  0.1438
 2624TIP3   OH229506   6.306   0.147   0.548 -0.7849  0.1781 -0.3214
 2624TIP3    H129507   6.312   0.131   0.642  2.4957 -2.5570 -0.8327
 2624TIP3    H229508   6.385   0.197   0.526 -2.1304  1.9310 -1.5370
 2625TIP3   OH229509   3.846   5.205   1.781 -0.0311  0.0564 -0.5462
 2625TIP3    H129510   3.901   5.139   1.738 -0.6705 -1.3999  0.7971
 2625TIP3    H229511   3.883   5.212   1.869 -0.9077  0.3630 -0.1970
 2626TIP3   OH229512   0.991   1.902   3.151 -0.1716  0.1812 -0.3070
 2626TIP3    H129513   0.900   1.928   3.141 -0.6082 -1.0635  0.2417
 2626TIP3    H229514   1.034   1.931   3.070 -1.0993  0.5596 -0.6717
 2627TIP3   OH229515   0.854   4.034   0.659  0.0991 -0.2000 -0.0217
 2627TIP3    H129516   0.930   3.977   0.664  0.7273  0.3738 -1.8658
 2627TIP3    H229517   0.854   4.065   0.568 -2.3494 -0.1794 -0.0794
 2628TIP3   OH229518   1.856   4.231   6.550  0.1468 -0.2516 -0.2507
 2628TIP3    H129519   1.900   4.315   6.542  3.0104 -1.6782 -0.8181
 2628TIP3    H229520   1.808   4.221   6.467  1.0799  0.1574 -0.8534
 2629TIP3   OH229521   4.481   2.066   0.652  0.1201  0.1613 -0.2077
 2629TIP3    H129522   4.481   2.022   0.738 -1.0497 -0.9638 -0.7406
 2629TIP3    H229523   4.388   2.077   0.631  0.3811  2.3822 -0.3964
 2630TIP3   OH229524   6.171   1.416   8.174  0.3591  0.3533  0.2877
 2630TIP3    H129525   6.107   1.351   8.145  0.1872  1.2734 -1.5576
 2630TIP3    H229526   6.128   1.461   8.246 -0.8170  0.4935 -0.4728
 2631TIP3   OH229527   2.112   5.419   1.750  0.6808 -1.1182 -0.0404
 2631TIP3    H129528   2.048   5.348   1.741  0.0884 -0.5420 -0.4063
 2631TIP3    H229529   2.059   5.497   1.764  1.1106 -0.0737 -3.4286
 2632TIP3   OH229530   0.234   5.368   2.179  0.1429 -0.4616 -0.1752
 2632TIP3    H129531   0.176   5.302   2.141  1.0095 -0.8979 -0.7611
 2632TIP3    H229532   0.175   5.439   2.205 -0.6393 -0.8265 -0.8943
 2633TIP3   OH229533   6.275   2.455   1.948  0.0710 -0.2501  0.0720
 2633TIP3    H129534   6.210   2.431   2.013  1.1314  0.3184  1.3833
 2633TIP3    H229535   6.241   2.419   1.866 -1.7276 -0.2039  0.7580
 2634TIP3   OH229536   5.258   3.918   3.176 -0.4658  0.6035  0.1128
 2634TIP3    H129537   5.320   3.935   3.247 -2.1823  1.2328  1.5550
 2634TIP3    H229538   5.302   3.949   3.097  1.5203 -0.1388  0.8734
 2635TIP3   OH229539   3.684   0.774   8.557 -0.3108 -0.1013 -0.0709
 2635TIP3    H129540   3.626   0.837   8.599 -1.9881  0.1900 -2.5672
 2635TIP3    H229541   3.768   0.820   8.550 -0.4081  0.3648  1.5550
 2636TIP3   OH229542   1.550   3.753   1.078 -0.1825  0.6900  0.0540
 2636TIP3    H129543   1.626   3.744   1.136 -0.9704  0.9597  1.1577
 2636TIP3    H229544   1.507   3.834   1.107 -0.3443  1.0856 -1.2199
 2637TIP3   OH229545   0.392   5.494   8.689 -0.6548  0.5071 -0.2908
 2637TIP3    H129546   0.380   5.522   8.599 -1.5097 -2.8145 -1.3545
 2637TIP3    H229547   0.306   5.503   8.729 -0.1009  2.7558  0.5366
 2638TIP3   OH229548   6.458   0.473   8.681  0.2316  0.2175 -0.2979
 2638TIP3    H129549   6.421   0.439   8.762 -1.8494  2.9394  0.0246
 2638TIP3    H229550   6.392   0.455   8.615 -0.1409  1.9955 -0.4489
 2639TIP3   OH229551   1.658   0.967   2.685 -0.5420 -0.1729 -0.1841
 2639TIP3    H129552   1.715   1.042   2.706 -1.2220  0.4284 -0.4595
 2639TIP3    H229553   1.713   0.910   2.631  0.8280 -1.1100  2.0385
 2640TIP3   OH229554   2.996   4.553   0.777 -0.0855  0.6150 -0.3844
 2640TIP3    H129555   3.016   4.531   0.869  0.7098  1.1867 -0.4063
 2640TIP3    H229556   2.928   4.620   0.783 -0.8262 -0.1291 -0.2539
 2641TIP3   OH229557   5.673   0.573   0.243 -0.1793  0.1835  0.0497
 2641TIP3    H129558   5.738   0.505   0.258 -0.4018  0.0479  0.4042
 2641TIP3    H229559   5.668   0.620   0.326  0.3762  0.9848 -0.3508
 2642TIP3   OH229560   1.413   6.395   0.578  0.4989 -0.7627  0.1768
 2642TIP3    H129561   1.459   6.405   0.661  0.3129  1.7306  0.0798
 2642TIP3    H229562   1.320   6.405   0.601  0.5413  4.5371 -0.5766
 2643TIP3   OH229563   0.039   6.127   7.850  0.3386 -0.0090 -0.1115
 2643TIP3    H129564   0.003   6.204   7.894  0.6314 -0.1017  0.3025
 2643TIP3    H229565   0.016   6.137   7.758 -1.2155 -0.3217  0.2171
 2644TIP3   OH229566   0.706   1.188   0.765  0.1024 -0.1579  0.5613
 2644TIP3    H129567   0.689   1.250   0.836  0.9725  0.4865  0.2187
 2644TIP3    H229568   0.752   1.238   0.699 -0.2739 -0.8786 -0.2655
 2645TIP3   OH229569   2.253   0.455   0.281  0.4015 -0.5761  0.3726
 2645TIP3    H129570   2.232   0.474   0.189 -0.0728 -3.3594 -0.1721
 2645TIP3    H229571   2.345   0.482   0.290  0.0657  1.0152 -0.4694
 2646TIP3   OH229572   6.350   0.568   8.250 -1.2583  0.3128 -0.2267
 2646TIP3    H129573   6.327   0.659   8.269  0.8977  0.8627  0.0323
 2646TIP3    H229574   6.310   0.518   8.321 -0.8295  1.3179  0.7604
 2647TIP3   OH229575   4.165   3.320   1.628  0.2141  0.3325  0.4411
 2647TIP3    H129576   4.190   3.314   1.720  1.3090  1.0016  0.2122
 2647TIP3    H229577   4.070   3.332   1.629  0.3632  1.6821  1.5475
 2648TIP3   OH229578   4.241   4.025   0.346  0.2753 -0.0701 -0.8764
 2648TIP3    H129579   4.195   4.109   0.345  0.0877 -0.1655 -0.5163
 2648TIP3    H229580   4.186   3.969   0.400  0.1691 -0.5597 -1.4872
 2649TIP3   OH229581   3.678   5.867   1.181  0.6333 -0.2151  0.0938
 2649TIP3    H129582   3.642   5.797   1.234  0.1319 -1.1032 -1.3613
 2649TIP3    H229583   3.641   5.947   1.218 -2.4180 -1.0225 -0.8938
 2650TIP3   OH229584   5.389   3.223   1.127  0.1144 -0.2132 -0.0842
 2650TIP3    H129585   5.307   3.270   1.142 -0.0615 -0.8296  1.0261
 2650TIP3    H229586   5.448   3.256   1.195  1.0188  0.7222 -1.2935
 2651TIP3   OH229587   3.603   4.681   3.103 -0.0883  0.0410 -0.0148
 2651TIP3    H129588   3.572   4.598   3.068  0.4248  0.2150 -0.9097
 2651TIP3    H229589   3.673   4.657   3.164  0.8217 -0.1508 -1.0950
 2652TIP3   OH229590   1.300   4.042   0.111 -0.3572 -0.2119 -0.1714
 2652TIP3    H129591   1.264   4.052   0.023  1.5909 -0.8843 -1.0888
 2652TIP3    H229592   1.394   4.056   0.101 -0.0627 -0.4143  1.7978
 2653TIP3   OH229593   4.288   5.294   8.083  0.0299  0.2973 -0.4455
 2653TIP3    H129594   4.335   5.377   8.071 -0.0757  1.1979  3.8712
 2653TIP3    H229595   4.352   5.226   8.064  2.0217  1.4874  1.5596
 2654TIP3   OH229596   6.422   3.828   0.108  0.2872  0.6679 -0.2228
 2654TIP3    H129597   6.489   3.896   0.111  0.6412  0.3384 -0.5053
 2654TIP3    H229598   6.343   3.874   0.079  0.6170  0.8924 -0.7844
 2655TIP3   OH229599   5.842   1.785   7.859  0.2028  0.2879  0.1507
 2655TIP3    H129600   5.919   1.781   7.802  0.0966  0.6244 -0.0201
 2655TIP3    H229601   5.856   1.863   7.912  0.2911 -0.0137  0.5724
 2656TIP3   OH229602   1.872   0.186   7.564  0.0684 -0.6111  0.0617
 2656TIP3    H129603   1.918   0.107   7.535 -1.3009 -1.1371 -0.7922
 2656TIP3    H229604   1.805   0.200   7.498 -1.4728 -0.3033  1.5990
 2657TIP3   OH229605   1.181   3.108   1.434  0.3476 -0.2258  0.3349
 2657TIP3    H129606   1.134   3.040   1.385 -0.7478  1.0023 -0.3961
 2657TIP3    H229607   1.175   3.079   1.526  0.5399 -1.4630 -0.0196
 2658TIP3   OH229608   2.107   5.588   0.654 -0.2301  0.0751  0.4590
 2658TIP3    H129609   2.147   5.673   0.673  0.1063  0.0782 -0.2438
 2658TIP3    H229610   2.023   5.611   0.612  0.0281  0.0610 -0.0682
 2659TIP3   OH229611   6.466   0.191   2.097  0.7645  0.3897 -0.0437
 2659TIP3    H129612   6.545   0.243   2.110  2.2639 -1.9143  0.6267
 2659TIP3    H229613   6.490   0.103   2.125 -1.9880 -0.4599 -0.0478
 2660TIP3   OH229614   1.912   6.765   0.713  0.3435 -0.4021 -0.0019
 2660TIP3    H129615   1.986   6.710   0.741 -0.9028 -0.9964  2.4106
 2660TIP3    H229616   1.914   6.839   0.773  0.4276  0.9154 -1.5529
 2661TIP3   OH229617   5.569   3.740   1.789 -0.2435 -0.2219 -0.4270
 2661TIP3    H129618   5.558   3.645   1.788  2.6444 -0.6613  0.1568
 2661TIP3    H229619   5.656   3.754   1.751 -0.6467  2.2066 -0.6066
 2662TIP3   OH229620   1.660   4.606   7.365  0.6099 -0.5030  0.2069
 2662TIP3    H129621   1.678   4.700   7.368 -0.3928 -0.2660 -0.6711
 2662TIP3    H229622   1.652   4.587   7.272  1.2485 -1.5589  0.3554
 2663TIP3   OH229623   4.936   1.922   0.731 -0.0595  0.3937  0.7466
 2663TIP3    H129624   4.979   1.971   0.660 -1.2230  0.2804 -0.0600
 2663TIP3    H229625   4.880   1.986   0.773 -0.1782  0.1984  0.8853
 2664TIP3   OH229626   5.261   2.031   2.636  0.0405  0.2791  0.2820
 2664TIP3    H129627   5.221   2.112   2.668 -0.3177 -0.8291  2.8954
 2664TIP3    H229628   5.188   1.970   2.626  0.3082  0.1996 -1.6361
 2665TIP3   OH229629   4.258   2.389   1.844  0.1694 -0.5729 -0.2947
 2665TIP3    H129630   4.322   2.343   1.898 -0.0805 -1.5253 -0.7847
 2665TIP3    H229631   4.311   2.446   1.788  0.3702  1.7148  2.0136
 2666TIP3   OH229632   1.896   6.404   8.646  0.1718  0.2755  0.2847
 2666TIP3    H129633   1.946   6.484   8.663  1.3006  0.0028 -1.4669
 2666TIP3    H229634   1.888   6.362   8.731 -2.0920  3.1118  1.6677
 2667TIP3   OH229635   5.006   4.140   2.316  0.1438  0.0986  0.0056
 2667TIP3    H129636   5.066   4.071   2.344  0.3861 -0.6977 -2.2678
 2667TIP3    H229637   5.054   4.221   2.330  0.9643 -0.3904  0.1017
 2668TIP3   OH229638   6.165   1.747   8.259  0.4179 -0.1405  0.1216
 2668TIP3    H129639   6.162   1.683   8.329 -0.2652  1.1203  1.3132
 2668TIP3    H229640   6.074   1.755   8.230  0.6389 -0.3792 -0.6520
 2669TIP3   OH229641   0.584   6.753   1.172  0.1444  0.1346 -0.1859
 2669TIP3    H129642   0.643   6.823   1.200  0.8512 -0.1932 -0.8232
 2669TIP3    H229643   0.590   6.688   1.242  1.6021 -0.5056 -0.8676
 2670TIP3   OH229644   6.502   2.049   7.823 -0.1490  0.1897 -0.0886
 2670TIP3    H129645   6.549   1.966   7.834 -1.3650 -0.1909  3.8004
 2670TIP3    H229646   6.564   2.116   7.853 -0.2324  0.3135 -0.1896
 2671TIP3   OH229647   6.217   3.283   1.008  0.6163  0.2736 -0.0356
 2671TIP3    H129648   6.289   3.345   1.022 -0.0774  0.8125  1.2566
 2671TIP3    H229649   6.217   3.227   1.085 -0.7389  0.6895  0.2995
 2672TIP3   OH229650   1.315   1.409   0.666 -0.1976 -0.6003 -0.3873
 2672TIP3    H129651   1.372   1.422   0.590 -0.2148  1.6431 -0.0775
 2672TIP3    H229652   1.347   1.328   0.706  1.9949 -0.0497 -0.8987
 2673TIP3   OH229653   5.303   5.316   7.628  0.1594  0.2430  0.2103
 2673TIP3    H129654   5.283   5.388   7.568  0.7485  0.0635 -0.2099
 2673TIP3    H229655   5.228   5.258   7.620 -0.1533  0.6281  0.2800
 2674TIP3   OH229656   1.189   4.966   1.749  1.1092  0.3772  0.3403
 2674TIP3    H129657   1.170   4.991   1.658  0.8558 -0.2144  0.2183
 2674TIP3    H229658   1.112   4.994   1.798  0.3003 -1.1188  0.0134
 2675TIP3   OH229659   4.854   6.287   0.854 -0.5916  0.4122 -0.0130
 2675TIP3    H129660   4.769   6.243   0.858 -1.3146  1.5389 -1.8509
 2675TIP3    H229661   4.833   6.380   0.858  0.8655  0.7710  3.2124
 2676TIP3   OH229662   0.933   4.780   2.801 -0.2975  0.5527 -0.1383
 2676TIP3    H129663   0.873   4.855   2.804  1.3876  1.9629 -0.1594
 2676TIP3    H229664   1.015   4.814   2.837 -0.0666 -1.8881  1.8078
 2677TIP3   OH229665   5.780   2.774   8.235 -0.9824  0.2997 -0.1077
 2677TIP3    H129666   5.702   2.766   8.179 -0.1528  1.0225 -1.4025
 2677TIP3    H229667   5.852   2.792   8.174  0.5344 -2.0016  0.8613
 2678TIP3   OH229668   5.160   0.672   1.113 -0.0939  0.2205  0.4304
 2678TIP3    H129669   5.248   0.642   1.134 -0.7813 -1.8353  0.5926
 2678TIP3    H229670   5.119   0.598   1.068 -1.0689  1.8758 -1.6503
 2679TIP3   OH229671   6.541   1.070   2.157 -0.7135  0.1246 -0.3195
 2679TIP3    H129672   6.545   1.079   2.253 -0.2455  1.4795 -0.4536
 2679TIP3    H229673   6.552   0.976   2.143 -2.2155 -0.2968  1.0164
 2680TIP3   OH229674   4.807   5.605   8.395 -0.7269 -0.1001 -0.5913
 2680TIP3    H129675   4.890   5.644   8.368 -0.6351  0.2111  0.1268
 2680TIP3    H229676   4.831   5.534   8.454 -0.9899  0.9765  0.8804
 2681TIP3   OH229677   5.067   5.937   7.090 -0.1281  0.2669 -0.1955
 2681TIP3    H129678   5.161   5.937   7.105 -0.0027 -0.3352 -0.9121
 2681TIP3    H229679   5.046   6.029   7.068  0.3673  0.3201 -0.4560
 2682TIP3   OH229680   4.496   5.429   1.318 -0.0850  0.2471  0.0231
 2682TIP3    H129681   4.570   5.465   1.366  0.5934 -0.5451 -0.4147
 2682TIP3    H229682   4.529   5.415   1.230 -0.6886 -0.3221 -0.1195
 2683TIP3   OH229683   1.828   2.317   0.356  0.1565  0.2095  0.2044
 2683TIP3    H129684   1.883   2.241   0.336  0.1083  0.2998 -0.2746
 2683TIP3    H229685   1.812   2.358   0.271  0.4242  0.9292  0.4981
 2684TIP3   OH229686   3.470   4.102   2.595  0.6632  0.0241 -0.1440
 2684TIP3    H129687   3.404   4.170   2.587 -0.1739 -0.5553  1.2835
 2684TIP3    H229688   3.430   4.024   2.556  2.2072  0.6377 -3.1803
 2685TIP3   OH229689   2.432   3.486   8.250 -0.2879  0.1182 -0.4257
 2685TIP3    H129690   2.471   3.559   8.298 -0.1641 -1.4577  2.0336
 2685TIP3    H229691   2.478   3.485   8.167  2.3149  0.6280  0.9147
 2686TIP3   OH229692   2.511   0.059   0.449  0.1055 -0.4392  0.2772
 2686TIP3    H129693   2.565   0.130   0.415  0.4664 -1.0479 -0.4342
 2686TIP3    H229694   2.422   0.081   0.421  0.5610 -1.6837 -2.4610
 2687TIP3   OH229695   6.001   0.753   2.012 -0.1602  0.5391 -0.4610
 2687TIP3    H129696   5.975   0.777   1.923 -1.1869 -0.9624 -0.6068
 2687TIP3    H229697   5.923   0.772   2.065  0.1508  0.6303 -0.0353
 2688TIP3   OH229698   0.340   4.766   7.389 -0.0620  0.0591  0.3925
 2688TIP3    H129699   0.412   4.707   7.367 -0.1295 -1.1889  3.1614
 2688TIP3    H229700   0.323   4.814   7.308  0.9410 -2.7225 -1.6267
 2689TIP3   OH229701   1.208   6.567   1.122  0.6016 -0.1584 -0.1128
 2689TIP3    H129702   1.230   6.520   1.042  1.1879 -1.2788  0.6871
 2689TIP3    H229703   1.113   6.559   1.131  0.2797  1.4173 -1.5526
 2690TIP3   OH229704   3.694   3.008   8.279 -0.1428 -0.1668 -0.2291
 2690TIP3    H129705   3.681   3.081   8.218 -0.3103  0.6547  0.7583
 2690TIP3    H229706   3.772   3.033   8.330  1.1790 -1.7461 -1.3609
 2691TIP3   OH229707   0.051   6.496   8.120  0.0071 -0.1955  0.1709
 2691TIP3    H129708   0.113   6.426   8.141  1.1363 -0.3566 -3.0700
 2691TIP3    H229709  -0.019   6.451   8.073  0.1585  0.6674 -0.9117
 2692TIP3   OH229710   4.545   6.090   1.922  0.0643  0.2834  0.0303
 2692TIP3    H129711   4.458   6.086   1.961 -1.1918 -0.7322 -2.6446
 2692TIP3    H229712   4.548   6.175   1.878 -0.1460 -0.2322 -1.0162
 2693TIP3   OH229713   0.844   3.177   2.147 -0.3162 -0.4038 -0.0340
 2693TIP3    H129714   0.927   3.157   2.190  1.7545  1.5614 -2.7230
 2693TIP3    H229715   0.849   3.130   2.064 -2.5037 -1.1890  0.2270
 2694TIP3   OH229716   4.096   4.107   2.689 -0.7997  1.1104  0.4006
 2694TIP3    H129717   4.061   4.186   2.649 -0.9965  0.5411 -0.5784
 2694TIP3    H229718   4.188   4.127   2.705 -0.2960  0.8534 -1.7877
 2695TIP3   OH229719   6.316   3.175   7.633  0.3667  0.0267 -0.1012
 2695TIP3    H129720   6.350   3.243   7.576  1.1873 -0.4617 -0.1991
 2695TIP3    H229721   6.245   3.134   7.583  1.1455 -0.4650 -0.8253
 2696TIP3   OH229722   0.773   2.395   0.649 -0.0488  0.0970  0.1635
 2696TIP3    H129723   0.830   2.472   0.646  0.7617 -0.5046 -0.6781
 2696TIP3    H229724   0.832   2.322   0.672 -0.5207 -0.4874 -0.4212
 2697TIP3   OH229725   4.436   2.663   1.346  0.3221 -0.3774 -0.0578
 2697TIP3    H129726   4.500   2.638   1.279 -2.6121 -2.0655 -2.4706
 2697TIP3    H229727   4.453   2.756   1.362  4.1278 -1.0149  0.4704
 2698TIP3   OH229728   4.157   4.456   2.138  0.2646  0.1985 -0.2912
 2698TIP3    H129729   4.085   4.496   2.187  0.3410  0.9227 -0.7465
 2698TIP3    H229730   4.163   4.366   2.172  0.5867  0.7859  1.3083
 2699TIP3   OH229731   2.578   5.775   1.953  0.2574 -0.1832  0.3577
 2699TIP3    H129732   2.519   5.775   1.878  0.8049 -2.2301 -0.1286
 2699TIP3    H229733   2.551   5.851   2.005 -2.2166 -0.5427 -0.2956
 2700TIP3   OH229734   1.312   5.831   0.352  0.2598  0.2490  0.7848
 2700TIP3    H129735   1.300   5.736   0.352 -0.2712  0.3083  1.1407
 2700TIP3    H229736   1.262   5.862   0.277 -0.1448  0.3019  1.0666
 2701TIP3   OH229737   5.211   1.572   1.996 -0.7431 -0.4903  0.7305
 2701TIP3    H129738   5.194   1.583   1.902  2.6681  0.3876  0.1003
 2701TIP3    H229739   5.294   1.616   2.011 -0.9331 -1.0327  4.1300
 2702TIP3   OH229740   4.271   3.141   2.129 -0.4319  0.1870 -0.7669
 2702TIP3    H129741   4.324   3.201   2.181  0.0406 -1.9251  1.3427
 2702TIP3    H229742   4.189   3.133   2.178 -0.6634 -0.5506 -1.2669
 2703TIP3   OH229743   5.498   0.801   7.804 -0.0609 -0.0517  0.2364
 2703TIP3    H129744   5.501   0.751   7.885 -2.8708  1.3210  1.3157
 2703TIP3    H229745   5.410   0.787   7.769  0.3329  1.1408 -1.4037
 2704TIP3   OH229746   2.996   4.426   7.128  0.2830  0.1007 -0.6861
 2704TIP3    H129747   2.949   4.504   7.159 -0.4351 -0.9812  1.1653
 2704TIP3    H229748   3.079   4.428   7.175  0.7002  0.2640 -1.4165
 2705TIP3   OH229749   3.219   5.069   8.494 -0.0317  0.2226  0.1600
 2705TIP3    H129750   3.125   5.054   8.507 -0.1360  1.7502  1.4085
 2705TIP3    H229751   3.261   5.029   8.569  0.4959 -1.6749 -1.0695
 2706TIP3   OH229752   3.237   3.282   2.587 -0.1964  0.2160  0.4458
 2706TIP3    H129753   3.271   3.201   2.549  0.3454  0.7877 -0.3310
 2706TIP3    H229754   3.210   3.334   2.511  2.0747  1.8988  0.6940
 2707TIP3   OH229755   4.329   4.015   7.600  0.3525  0.2998  0.0724
 2707TIP3    H129756   4.351   3.922   7.593  0.4080  0.3504 -0.4141
 2707TIP3    H229757   4.392   4.060   7.544  0.3721  0.6434  0.3611
 2708TIP3   OH229758   4.228   1.752   0.124 -0.6023  0.2037  0.1346
 2708TIP3    H129759   4.315   1.781   0.100 -0.9986 -0.3238 -2.1706
 2708TIP3    H229760   4.170   1.821   0.093 -1.0801  0.1528  0.8820
 2709TIP3   OH229761   5.633   1.428   8.505 -1.1137 -0.1170 -0.3300
 2709TIP3    H129762   5.542   1.422   8.534 -1.0537 -0.5300 -0.2135
 2709TIP3    H229763   5.666   1.508   8.546 -1.2678 -0.2608  0.0792
 2710TIP3   OH229764   0.445   1.095   0.707  0.0953  0.1581 -0.5606
 2710TIP3    H129765   0.530   1.117   0.747  0.0163 -0.6000  0.0539
 2710TIP3    H229766   0.413   1.022   0.759 -0.5234 -0.1529 -1.3610
 2711TIP3   OH229767   0.390   6.624   8.279 -0.5713  0.2402  0.0270
 2711TIP3    H129768   0.320   6.560   8.293  0.2507 -0.7103 -0.1644
 2711TIP3    H229769   0.464   6.573   8.246  0.2536  1.2215  0.3121
 2712TIP3   OH229770   0.218   6.433   8.421  0.2231 -0.4827  0.0911
 2712TIP3    H129771   0.243   6.468   8.507  5.6956 -0.2887 -1.2060
 2712TIP3    H229772   0.232   6.339   8.429 -1.0458 -0.7189 -0.1960
 2713TIP3   OH229773   3.220   0.218   2.469  0.0717  0.5004  0.1001
 2713TIP3    H129774   3.218   0.253   2.380 -0.3951  1.0842  0.3354
 2713TIP3    H229775   3.183   0.130   2.461  0.6183  0.3051 -0.3818
 2714TIP3   OH229776   6.541   4.113   8.471  0.2320  0.4164 -0.1824
 2714TIP3    H129777   6.522   4.181   8.406 -1.2654  1.4412  1.2610
 2714TIP3    H229778   6.517   4.031   8.428 -0.7064  1.0675 -0.9473
 2715TIP3   OH229779   3.113   1.338   7.268  1.1529  0.9234 -0.4187
 2715TIP3    H129780   3.079   1.290   7.193  2.0807  1.1694 -1.0024
 2715TIP3    H229781   3.054   1.414   7.276  0.1174  0.0940  0.0755
 2716TIP3   OH229782   1.809   0.049   0.282 -0.1411  0.2126  0.2081
 2716TIP3    H129783   1.869   0.123   0.282 -0.4054  0.4278  0.3046
 2716TIP3    H229784   1.818   0.010   0.194  2.4199 -1.6309  1.1754
 2717TIP3   OH229785   6.204   4.610   1.762  0.0856  0.3924 -0.6606
 2717TIP3    H129786   6.217   4.571   1.849 -1.5676  1.1247 -0.0454
 2717TIP3    H229787   6.267   4.681   1.758  1.1876 -0.5584 -0.6685
 2718TIP3   OH229788   2.947   5.624   3.394  0.0723  0.0008 -0.4258
 2718TIP3    H129789   2.982   5.573   3.321  0.4567 -1.2441  0.6021
 2718TIP3    H229790   2.907   5.559   3.452 -1.1186  1.0700 -0.0064
 2719TIP3   OH229791   3.723   2.714   2.339  0.3884  0.6076  0.5056
 2719TIP3    H129792   3.802   2.715   2.284 -0.8572  1.5673 -1.3669
 2719TIP3    H229793   3.705   2.806   2.358  0.0024  0.3639  1.3814
 2720TIP3   OH229794   6.518   5.453   2.121 -0.1167 -0.1119  0.1358
 2720TIP3    H129795   6.544   5.367   2.087  0.3222 -0.3297  0.9920
 2720TIP3    H229796   6.527   5.445   2.216 -3.0458 -0.0960  0.5115
 2721TIP3   OH229797   5.929   2.509   1.903 -0.4200  0.6788 -0.7834
 2721TIP3    H129798   5.970   2.448   1.965 -3.8956  0.0107  1.1431
 2721TIP3    H229799   5.951   2.596   1.936  0.8244  0.4130 -0.8608
 2722TIP3   OH229800   2.529   3.210   0.576  0.0139  0.2025  0.1420
 2722TIP3    H129801   2.574   3.170   0.651  1.1653 -0.1822 -0.7160
 2722TIP3    H229802   2.542   3.304   0.586  1.1197  0.0920 -0.1287
 2723TIP3   OH229803   2.207   2.133   7.701  0.0898  0.4435  0.1027
 2723TIP3    H129804   2.206   2.195   7.629 -0.2946 -0.1792 -0.4341
 2723TIP3    H229805   2.222   2.048   7.660 -1.7931 -0.1491  0.5649
 2724TIP3   OH229806   3.600   2.864   0.142  0.2717 -0.1431 -0.1210
 2724TIP3    H129807   3.552   2.883   0.223  1.5782 -0.8759  0.8595
 2724TIP3    H229808   3.543   2.803   0.095  0.8140 -2.2114  1.7213
 2725TIP3   OH229809   6.201   3.129   1.305  0.1097  0.8507  0.1671
 2725TIP3    H129810   6.270   3.084   1.353 -0.2982  1.8928  1.8038
 2725TIP3    H229811   6.169   3.064   1.243  0.4235 -0.6729  1.5340
 2726TIP3   OH229812   5.705   6.729   8.582  0.2761  0.1999  0.3246
 2726TIP3    H129813   5.700   6.644   8.538 -1.3138  1.2629 -1.7127
 2726TIP3    H229814   5.758   6.783   8.524 -1.2056  1.4218  0.0529
 2727TIP3   OH229815   2.921   5.769   1.558  0.0094  0.4997  0.2630
 2727TIP3    H129816   2.889   5.797   1.644  2.4855  1.1327  1.0694
 2727TIP3    H229817   2.989   5.704   1.578  0.0501  0.0249 -1.2689
 2728TIP3   OH229818   1.517   0.816   1.449 -0.2989 -0.7307 -0.3036
 2728TIP3    H129819   1.426   0.803   1.423 -0.2920 -0.7810 -0.3025
 2728TIP3    H229820   1.512   0.865   1.531 -0.3235 -0.6705 -0.3417
 2729TIP3   OH229821   1.967   3.464   2.529 -0.0587 -0.3358 -0.4130
 2729TIP3    H129822   1.922   3.386   2.563  0.5920  0.3290  2.1430
 2729TIP3    H229823   1.932   3.537   2.580  0.8804  0.7795 -1.2933
 2730TIP3   OH229824   2.665   2.103   0.558  0.1340 -0.6902 -0.3786
 2730TIP3    H129825   2.702   2.189   0.578 -0.4559 -0.6951  0.8317
 2730TIP3    H229826   2.592   2.093   0.620  0.6912 -2.3919  0.0544
 2731TIP3   OH229827   5.212   1.469   1.303  0.0784 -0.2409 -0.0209
 2731TIP3    H129828   5.235   1.424   1.222  1.0551  1.1154 -0.5298
 2731TIP3    H229829   5.296   1.480   1.349 -0.0550  1.4500 -0.1336
 2732TIP3   OH229830   1.419   5.704   0.049 -0.6137 -0.1168 -0.2901
 2732TIP3    H129831   1.338   5.654   0.043 -1.2189  0.9196 -1.0033
 2732TIP3    H229832   1.406   5.778  -0.010  0.2307  0.9416  0.8045
 2733TIP3   OH229833   5.152   1.884   1.981 -0.9570 -0.0469  0.2033
 2733TIP3    H129834   5.146   1.862   1.888  3.1830 -0.0657 -0.2367
 2733TIP3    H229835   5.072   1.935   1.998 -0.5758  2.5272 -4.1570
 2734TIP3   OH229836   3.454   0.003   2.515  0.1768 -0.5265 -0.3154
 2734TIP3    H129837   3.425   0.039   2.431  2.6520  2.4914 -0.0594
 2734TIP3    H229838   3.543  -0.029   2.499  1.2269  1.3192  1.3328
 2735TIP3   OH229839   6.093   5.027   1.992  0.0441  0.3459 -0.2977
 2735TIP3    H129840   6.077   5.010   1.899 -0.0089 -4.5415  0.3379
 2735TIP3    H229841   6.129   4.945   2.025 -1.3580  1.3282  4.3109
 2736TIP3   OH229842   0.975   5.637   7.216 -0.4866 -0.2185 -0.0356
 2736TIP3    H129843   0.907   5.679   7.164 -1.7604 -0.6556  1.2242
 2736TIP3    H229844   0.966   5.543   7.197  0.6876 -0.1791 -0.9052
 2737TIP3   OH229845   5.171   4.807   8.024  0.1770 -0.5182 -0.2124
 2737TIP3    H129846   5.123   4.759   8.092  1.4007 -0.4030  0.7705
 2737TIP3    H229847   5.252   4.757   8.012  1.0146  0.7183  0.1019
 2738TIP3   OH229848   4.621   4.251   2.051 -0.1738  0.3440  0.0463
 2738TIP3    H129849   4.691   4.197   2.090 -0.3730  0.3412  0.4060
 2738TIP3    H229850   4.541   4.219   2.092 -0.3514  0.5605 -0.1327
 2739TIP3   OH229851   5.707   2.114   8.536  0.0285 -0.5115 -0.1028
 2739TIP3    H129852   5.694   2.022   8.513 -1.9734 -0.2768 -0.0493
 2739TIP3    H229853   5.785   2.114   8.592 -1.2090 -2.4791  1.7607
 2740TIP3   OH229854   2.749   5.248   1.196 -0.1933 -0.3292  0.6878
 2740TIP3    H129855   2.677   5.309   1.184 -0.5501 -0.4067  2.1879
 2740TIP3    H229856   2.791   5.243   1.111 -1.2146  0.6610  0.0986
 2741TIP3   OH229857   6.426   2.759   8.232  0.0031  0.3115  0.1513
 2741TIP3    H129858   6.357   2.825   8.224  2.1513  2.7322  0.4802
 2741TIP3    H229859   6.429   2.718   8.145 -1.2366  0.7550 -0.1315
 2742TIP3   OH229860   4.371   1.026   0.094 -0.6276 -0.0125  0.1899
 2742TIP3    H129861   4.356   1.067   0.009 -0.6847 -0.2925  0.0641
 2742TIP3    H229862   4.460   1.052   0.118 -0.5172 -0.1411 -0.0752
 2743TIP3   OH229863   4.733   4.183   7.312  0.5196  0.1084 -0.3418
 2743TIP3    H129864   4.719   4.145   7.225  0.0306 -1.8299  0.5415
 2743TIP3    H229865   4.818   4.226   7.306  0.2139  0.5665 -1.9483
 2744TIP3   OH229866   3.285   1.088   2.286 -0.4603 -0.1168  0.7919
 2744TIP3    H129867   3.274   1.063   2.194  3.4920 -0.8244  0.3039
 2744TIP3    H229868   3.199   1.076   2.325 -2.0561 -0.7950 -2.5649
 2745TIP3   OH229869   4.199   3.577   1.867 -0.5749 -0.1036 -0.0629
 2745TIP3    H129870   4.207   3.605   1.959 -2.0733 -3.0517  1.1077
 2745TIP3    H229871   4.236   3.489   1.866 -2.1525 -0.8182 -1.8589
 2746TIP3   OH229872   6.168   0.788   8.020  0.9979  0.1986 -0.8476
 2746TIP3    H129873   6.211   0.793   8.105  0.3864  0.0736 -0.5292
 2746TIP3    H229874   6.177   0.697   7.994  0.4513  0.0479 -0.5268
 2747TIP3   OH229875   5.223   5.612   8.684 -0.4721 -0.1829  0.4427
 2747TIP3    H129876   5.175   5.545   8.635  1.0996 -0.3953 -0.9120
 2747TIP3    H229877   5.191   5.695   8.649  0.3125 -0.3273 -0.6948
 2748TIP3   OH229878   3.240   1.240   1.671 -0.0437  0.4562 -0.4073
 2748TIP3    H129879   3.255   1.173   1.604  1.0863  0.0128  0.2563
 2748TIP3    H229880   3.235   1.322   1.622  0.8520  0.1492 -1.0403
 2749TIP3   OH229881   0.578   0.845   2.104  0.4837 -0.3251 -0.3097
 2749TIP3    H129882   0.625   0.913   2.154  1.4374  0.0308 -1.6406
 2749TIP3    H229883   0.578   0.769   2.162  1.4498  0.1176  0.2988
 2750TIP3   OH229884   3.547   2.578   2.538  0.3462  0.0224 -0.5292
 2750TIP3    H129885   3.609   2.645   2.511  3.6658 -2.3022  0.7437
 2750TIP3    H229886   3.555   2.510   2.470  1.7999 -1.7454  1.2990
 2751TIP3   OH229887   6.412   0.483   2.341 -0.6377 -0.6364  0.1129
 2751TIP3    H129888   6.318   0.499   2.344 -0.3642  1.4106 -0.5680
 2751TIP3    H229889   6.439   0.512   2.254  0.7556 -0.4318  0.5788
 2752TIP3   OH229890   1.130   3.523   2.074  0.4502 -0.0027  0.2686
 2752TIP3    H129891   1.134   3.555   2.164 -0.8902 -0.3075  0.4668
 2752TIP3    H229892   1.212   3.474   2.062  1.2244  1.1006  0.8863
 2753TIP3   OH229893   2.662   1.806   7.637  0.2951  0.2976 -0.3294
 2753TIP3    H129894   2.641   1.734   7.578 -2.2480  0.2684  0.4756
 2753TIP3    H229895   2.752   1.790   7.665 -0.3973 -2.9684  0.3633
 2754TIP3   OH229896   4.684   0.002   7.692 -0.0152 -0.0657 -0.3631
 2754TIP3    H129897   4.754  -0.057   7.720 -0.1115  0.4804  1.1278
 2754TIP3    H229898   4.719   0.090   7.705 -1.3314  0.2512  1.5584
 2755TIP3   OH229899   2.848   1.122   2.709  0.3860  0.3647  0.1556
 2755TIP3    H129900   2.753   1.107   2.711  0.5147 -0.4826  1.0253
 2755TIP3    H229901   2.884   1.048   2.759  1.5114  0.6138 -0.2743
 2756TIP3   OH229902   1.077   1.715   0.164  0.0267  0.0772 -0.1467
 2756TIP3    H129903   1.126   1.696   0.244  0.4200  0.8809 -0.1856
 2756TIP3    H229904   0.989   1.681   0.181  0.7609 -2.1218 -0.3735
 2757TIP3   OH229905   4.396   4.152   0.590 -0.3086 -0.4479  0.4621
 2757TIP3    H129906   4.474   4.198   0.621  0.1019 -1.7887  1.5252
 2757TIP3    H229907   4.429   4.087   0.529 -0.4583 -1.5630  1.5236
 2758TIP3   OH229908   6.658   1.855   0.613 -0.1643  0.3106 -0.0344
 2758TIP3    H129909   6.697   1.786   0.560 -1.1875  0.9221 -1.6345
 2758TIP3    H229910   6.568   1.863   0.582 -0.4913  1.4110  1.0765
 2759TIP3   OH229911   0.149   0.527   1.100 -0.0972 -0.3848  0.4314
 2759TIP3    H129912   0.144   0.503   1.007 -0.7430 -0.2953  0.4403
 2759TIP3    H229913   0.063   0.564   1.120 -0.1546 -0.9203  1.2089
 2760TIP3   OH229914   4.162   6.351   1.625 -0.8922  0.4910  0.1075
 2760TIP3    H129915   4.231   6.416   1.639 -0.1236 -0.3908  0.4473
 2760TIP3    H229916   4.156   6.344   1.530 -0.3549  0.4086  0.0749
 2761TIP3   OH229917   6.006   4.944   7.360 -0.2793  0.0671  0.3027
 2761TIP3    H129918   6.081   4.960   7.304 -0.5501  2.0096  0.4209
 2761TIP3    H229919   5.979   5.031   7.390 -0.4299 -0.8138  3.0719
 2762TIP3   OH229920   2.606   4.496   7.779  0.5855 -0.0023  0.3714
 2762TIP3    H129921   2.643   4.488   7.691 -2.8058  0.2320 -1.2392
 2762TIP3    H229922   2.602   4.591   7.795 -0.7093  0.0581 -0.1861
 2763TIP3   OH229923   5.823   6.234   8.581  0.0653  0.2178  0.1718
 2763TIP3    H129924   5.835   6.194   8.494 -0.6459  1.4138 -0.4948
 2763TIP3    H229925   5.785   6.164   8.634 -1.3065  0.0309 -1.0151
 2764TIP3   OH229926   3.100   4.830   2.029  0.1751 -0.0396 -0.3575
 2764TIP3    H129927   3.160   4.783   2.087  0.1533  0.3350 -0.0302
 2764TIP3    H229928   3.064   4.762   1.972 -0.3585 -0.5327  0.5435
 2765TIP3   OH229929   1.624   2.532   2.535 -0.5441  0.2461  0.2349
 2765TIP3    H129930   1.645   2.610   2.485 -2.0650 -0.1214 -1.0324
 2765TIP3    H229931   1.608   2.464   2.470 -1.2146 -0.6125  1.2463
 2766TIP3   OH229932   2.352   4.051   2.392 -0.0934  0.3278 -0.9145
 2766TIP3    H129933   2.301   4.064   2.312  0.8571 -0.3848 -1.6607
 2766TIP3    H229934   2.415   4.123   2.393  0.3599 -0.0618 -1.1865
 2767TIP3   OH229935   5.189   4.747   8.641  0.0235  0.2005 -0.1684
 2767TIP3    H129936   5.132   4.678   8.608 -0.2079 -0.0981  0.8224
 2767TIP3    H229937   5.275   4.706   8.651  0.0056  0.1889 -0.0569
 2768TIP3   OH229938   1.639   4.186   8.321  0.3839 -0.0686  0.1096
 2768TIP3    H129939   1.651   4.277   8.291  0.0850  0.9086  2.7017
 2768TIP3    H229940   1.690   4.134   8.259  1.6793  1.9975 -0.6847
 2769TIP3   OH229941   6.023   1.995   8.441  0.6871 -0.1224  0.4870
 2769TIP3    H129942   5.978   1.911   8.438 -1.8598  1.1804 -0.2919
 2769TIP3    H229943   6.003   2.037   8.357 -0.0744  2.1942  1.7223
 2770TIP3   OH229944   0.635   0.190   2.069  0.3791  0.7506  0.1519
 2770TIP3    H129945   0.648   0.280   2.098  1.8486  0.8082 -0.6065
 2770TIP3    H229946   0.633   0.195   1.974  1.2464 -0.0916  0.0745
 2771TIP3   OH229947   4.299   6.795   2.042  0.7118 -0.4266  0.0324
 2771TIP3    H129948   4.360   6.751   2.100  1.1604  0.1925  0.0493
 2771TIP3    H229949   4.213   6.757   2.062  1.1553 -1.6273 -0.3118
 2772TIP3   OH229950   0.551   6.151   8.503 -0.2732  0.1686 -0.2753
 2772TIP3    H129951   0.516   6.182   8.419  1.0226  1.4041 -0.3899
 2772TIP3    H229952   0.571   6.058   8.487  1.1045  0.6747 -1.7693
 2773TIP3   OH229953   4.882   0.672   0.972  0.0574  0.4915 -0.2532
 2773TIP3    H129954   4.907   0.580   0.962  0.5454  0.7789 -2.0915
 2773TIP3    H229955   4.787   0.671   0.971  0.0250 -0.0970  1.1434
 2774TIP3   OH229956   5.569   2.848   0.270  0.5072  0.0657  0.0546
 2774TIP3    H129957   5.482   2.844   0.310  0.9907 -0.8162  1.0846
 2774TIP3    H229958   5.554   2.834   0.177 -0.4190 -0.5243  0.2842
 2775TIP3   OH229959   1.932   4.297   6.828 -0.3855  0.1278 -0.4782
 2775TIP3    H129960   1.953   4.258   6.743 -0.2064 -0.3785 -0.2074
 2775TIP3    H229961   1.980   4.380   6.830 -1.8952  1.0787 -1.6547
 2776TIP3   OH229962   4.695   1.533   1.456  0.0850 -0.1494 -0.2979
 2776TIP3    H129963   4.748   1.604   1.420  1.2132 -1.5701 -1.5653
 2776TIP3    H229964   4.633   1.577   1.515  3.2769  1.5401  2.1010
 2777TIP3   OH229965   2.949   5.606   8.108 -0.6664 -0.9068 -0.0424
 2777TIP3    H129966   3.008   5.544   8.067  0.6127 -0.2748  0.7865
 2777TIP3    H229967   3.000   5.645   8.179 -2.0608 -0.3078  0.6798
 2778TIP3   OH229968   1.192   5.608   6.967 -0.7240 -0.2483  0.1301
 2778TIP3    H129969   1.174   5.694   7.004 -1.4705 -0.1713 -0.3943
 2778TIP3    H229970   1.134   5.548   7.014 -0.7736 -0.3381 -0.0410
 2779TIP3   OH229971   5.649   2.954   0.867  0.0180  0.0677  0.4904
 2779TIP3    H129972   5.738   2.937   0.836  0.5618  1.2103  1.3378
 2779TIP3    H229973   5.644   3.050   0.873 -1.9165  0.1843 -1.3898
 2780TIP3   OH229974   3.873   2.555   2.908  0.2644  0.2008 -0.2652
 2780TIP3    H129975   3.886   2.472   2.863  0.8846  0.9877 -1.6004
 2780TIP3    H229976   3.779   2.562   2.919  0.2871 -1.3922  1.3103
 2781TIP3   OH229977   1.320   1.582   2.902  0.0477 -0.0323 -0.3354
 2781TIP3    H129978   1.282   1.496   2.922  0.6843 -0.0932  0.6647
 2781TIP3    H229979   1.244   1.638   2.886 -0.4399 -0.3683  0.7283
 2782TIP3   OH229980   2.665   1.433   0.057 -0.8685  0.3452 -0.2268
 2782TIP3    H129981   2.580   1.390   0.043 -2.2565  1.7278  2.8803
 2782TIP3    H229982   2.663   1.509  -0.002 -0.9810 -0.5615 -1.4309
 2783TIP3   OH229983   3.222   1.798   1.378 -0.1508 -0.3353 -0.1313
 2783TIP3    H129984   3.317   1.794   1.370 -0.2193  0.7087 -2.1262
 2783TIP3    H229985   3.190   1.726   1.324 -0.4958  0.1843 -0.6344
 2784TIP3   OH229986   4.492   5.518   7.404  0.4107 -0.6671 -0.4949
 2784TIP3    H129987   4.400   5.491   7.401  0.5227 -0.9836 -1.0898
 2784TIP3    H229988   4.493   5.603   7.362 -0.3211  1.4655  3.3151
 2785TIP3   OH229989   0.143   3.192   0.022 -0.9463  0.2280 -0.0488
 2785TIP3    H129990   0.071   3.142  -0.016 -0.1006 -1.5633  0.5496
 2785TIP3    H229991   0.209   3.196  -0.047 -1.2805  1.1954 -0.3352
 2786TIP3   OH229992   4.453   3.641   0.172  0.6236 -0.6947  0.5083
 2786TIP3    H129993   4.365   3.616   0.145  1.4068 -1.5547 -1.4691
 2786TIP3    H229994   4.507   3.626   0.094  2.2850  1.1333  1.2341
 2787TIP3   OH229995   3.847   0.523   2.449 -0.0669 -0.3481  0.1058
 2787TIP3    H129996   3.913   0.455   2.436 -0.1537 -0.6186  1.0046
 2787TIP3    H229997   3.795   0.492   2.524 -0.6021  0.3285  0.0277
 2788TIP3   OH229998   0.736   4.951   2.594 -0.5444  0.1781  0.0556
 2788TIP3    H129999   0.824   4.988   2.590  0.6242 -2.3473  0.3106
 2788TIP3    H230000   0.715   4.950   2.688  0.0908 -1.1049  0.2139
 2789TIP3   OH230001   4.809   0.260   7.741 -0.4708 -0.3710  0.0762
 2789TIP3    H130002   4.744   0.284   7.807 -0.9373 -0.8220 -0.2159
 2789TIP3    H230003   4.890   0.299   7.773 -1.1575  1.5079 -0.3076
 2790TIP3   OH230004   1.294   5.032   6.458  0.3061  0.0646  0.4963
 2790TIP3    H130005   1.348   5.101   6.420  0.0593  0.1098  0.2205
 2790TIP3    H230006   1.235   5.078   6.518 -2.1746  0.6260 -2.1167
 2791TIP3   OH230007   0.017   0.355   8.121  0.2474  0.2434  0.1451
 2791TIP3    H130008  -0.036   0.275   8.123 -2.3690  1.8565  1.0232
 2791TIP3    H230009   0.047   0.361   8.030  0.2826 -1.5514 -0.0084
 2792TIP3   OH230010   0.926   0.917   1.222  0.5746 -0.0465 -0.1559
 2792TIP3    H130011   1.005   0.961   1.252 -0.9317  2.8689 -0.1186
 2792TIP3    H230012   0.905   0.959   1.139 -0.7342 -1.0274 -0.3619
 2793TIP3   OH230013   5.418   4.682   1.388  0.2675  0.4868  0.7336
 2793TIP3    H130014   5.388   4.620   1.455  0.0505 -0.7146 -0.4250
 2793TIP3    H230015   5.435   4.763   1.436 -0.2201 -0.2276  2.1767
 2794TIP3   OH230016   5.787   3.754   7.738 -0.5897 -0.2254  0.6995
 2794TIP3    H130017   5.791   3.670   7.783 -0.3217 -0.2319  0.6642
 2794TIP3    H230018   5.873   3.763   7.696 -0.3616  0.4010  1.2963
 2795TIP3   OH230019   1.840   6.271   1.706 -0.2037  0.2657 -0.0556
 2795TIP3    H130020   1.756   6.236   1.733  0.5368 -1.1033  0.5582
 2795TIP3    H230021   1.887   6.195   1.671  1.5236  0.5613  1.4808
 2796TIP3   OH230022   6.830   0.628   7.512 -0.4090  0.0160 -0.5146
 2796TIP3    H130023   6.829   0.629   7.608  0.3389  0.6182 -0.5093
 2796TIP3    H230024   6.789   0.710   7.486  1.1398  0.7679 -0.6809
 2797TIP3   OH230025   2.490   4.114   0.166  0.5634  0.1181 -0.7963
 2797TIP3    H130026   2.564   4.101   0.225 -0.7638  2.9205  1.8196
 2797TIP3    H230027   2.440   4.033   0.172  0.1905  0.4403  2.6044
 2798TIP3   OH230028   6.706   3.662   2.333  0.5461 -0.0721 -0.1323
 2798TIP3    H130029   6.764   3.739   2.342  2.3663 -1.3614 -0.2258
 2798TIP3    H230030   6.738   3.601   2.400  0.8752 -1.7543 -1.7499
 2799TIP3   OH230031   6.517   6.792   2.161  0.3638  0.2165  0.2440
 2799TIP3    H130032   6.561   6.858   2.215 -0.0665 -0.8093  1.9079
 2799TIP3    H230033   6.469   6.738   2.223  0.8443 -1.7902 -1.0370
 2800TIP3   OH230034   2.734   0.404   8.555 -0.2891 -0.3234  0.1081
 2800TIP3    H130035   2.656   0.349   8.564  0.5654 -1.2743  2.9029
 2800TIP3    H230036   2.793   0.354   8.500 -1.8099  0.7517 -2.7100
 2801TIP3   OH230037   3.077   5.016   1.439 -0.2757  0.2541  0.2001
 2801TIP3    H130038   3.085   4.979   1.351  2.2946  0.2718  0.3448
 2801TIP3    H230039   3.036   5.101   1.426  2.8526  1.6909 -1.5036
 2802TIP3   OH230040   1.241   0.415   1.400  0.4516  0.2211  0.1316
 2802TIP3    H130041   1.276   0.496   1.363  0.3125  0.6967  1.0179
 2802TIP3    H230042   1.246   0.352   1.328  3.3121  0.1777  0.2623
 2803TIP3   OH230043   0.807   4.486   1.741  0.0628  0.1623 -0.2404
 2803TIP3    H130044   0.831   4.464   1.651  1.2783  1.0942 -0.1745
 2803TIP3    H230045   0.779   4.577   1.737 -1.8046 -0.3734  0.0173
 2804TIP3   OH230046   2.418   4.526   0.051  0.1405  0.4466  0.3482
 2804TIP3    H130047   2.435   4.448  -0.002 -1.0466 -0.4197  1.1906
 2804TIP3    H230048   2.497   4.537   0.103  0.3320 -0.1992  0.2072
 2805TIP3   OH230049   3.326   1.847   2.977 -0.0461  0.6459  0.2256
 2805TIP3    H130050   3.416   1.821   2.956 -0.3476 -0.7708  0.6064
 2805TIP3    H230051   3.319   1.833   3.072 -1.0160 -0.3881  0.0168
 2806TIP3   OH230052   4.181   2.629   2.407  0.0669 -0.3818  0.0111
 2806TIP3    H130053   4.210   2.582   2.486 -0.7007  0.2791  0.7082
 2806TIP3    H230054   4.235   2.708   2.406  1.2257 -1.1575 -1.0552
 2807TIP3   OH230055   2.042   6.059   6.986 -0.0912 -0.5857  0.0742
 2807TIP3    H130056   2.003   5.991   6.930  1.4245 -1.8417  0.4659
 2807TIP3    H230057   2.131   6.027   7.003  0.4574  1.2249  0.7814
 2808TIP3   OH230058   0.165   4.616   1.545  0.7120 -0.1130 -0.3859
 2808TIP3    H130059   0.138   4.679   1.612 -0.6780  0.1433 -1.1583
 2808TIP3    H230060   0.250   4.583   1.577  1.4608  2.0725  0.0707
 2809TIP3   OH230061   1.999   4.231   1.779 -0.1151 -0.0529 -0.7395
 2809TIP3    H130062   1.977   4.146   1.743 -1.0116 -0.2429  0.1832
 2809TIP3    H230063   2.094   4.229   1.791 -0.1387 -0.9686 -0.6270
 2810TIP3   OH230064   4.961   1.959   2.301  0.4779 -0.1012  0.0974
 2810TIP3    H130065   4.953   1.987   2.210  1.3238  0.2694  0.1230
 2810TIP3    H230066   4.995   2.036   2.347 -0.0097 -0.2620  0.7386
 2811TIP3   OH230067   4.528   0.089   2.262 -0.0242  0.1214  1.0900
 2811TIP3    H130068   4.433   0.077   2.256  0.2207 -2.0471  0.4713
 2811TIP3    H230069   4.559   0.011   2.308  1.4852  0.7574  1.2206
 2812TIP3   OH230070   3.196   0.344   1.382  0.2215 -0.3502 -0.6724
 2812TIP3    H130071   3.274   0.309   1.425  0.5430 -0.4871 -1.3615
 2812TIP3    H230072   3.229   0.412   1.323 -0.3282  0.6544  0.1433
 2813TIP3   OH230073   4.423   3.665   2.665  0.0229  0.2547 -0.5285
 2813TIP3    H130074   4.344   3.687   2.714  1.3110  0.3789  1.6210
 2813TIP3    H230075   4.480   3.741   2.677  1.1424 -0.5705 -0.4820
 2814TIP3   OH230076   5.710   5.121   8.033  0.5638  0.1143  0.0766
 2814TIP3    H130077   5.789   5.069   8.048  1.0620  0.9225  0.3119
 2814TIP3    H230078   5.638   5.057   8.037  1.2439 -0.7218 -0.7670
 2815TIP3   OH230079   2.245   0.124   0.500  0.5602  0.2989 -0.4047
 2815TIP3    H130080   2.169   0.065   0.497  0.3893  0.5314 -0.9293
 2815TIP3    H230081   2.268   0.129   0.592  0.8665 -0.9452 -0.4024
 2816TIP3   OH230082   5.892   2.525   7.716 -0.0907 -0.6323  0.6163
 2816TIP3    H130083   5.980   2.491   7.706  0.1847  0.0160  0.7482
 2816TIP3    H230084   5.864   2.494   7.802 -0.5030 -1.9293  0.0369
 2817TIP3   OH230085   1.194   6.321   7.371  0.5909 -0.0265  0.4682
 2817TIP3    H130086   1.178   6.388   7.304 -0.4261 -1.3265 -0.6733
 2817TIP3    H230087   1.260   6.264   7.332  1.3822  0.2487  1.3893
 2818TIP3   OH230088   0.877   2.776   1.965  0.0050  0.0081 -0.4924
 2818TIP3    H130089   0.933   2.715   1.917  0.0653 -0.8769  0.6396
 2818TIP3    H230090   0.857   2.730   2.047 -0.5059  1.2461  0.1044
 2819TIP3   OH230091   4.418   5.958   1.562 -0.1308  0.2211  0.7601
 2819TIP3    H130092   4.393   5.896   1.493 -3.5639  0.1065  1.9309
 2819TIP3    H230093   4.471   5.907   1.623  1.2481 -0.1857 -0.7035
 2820TIP3   OH230094   5.153   2.328   2.246  0.3223  0.6323 -0.2682
 2820TIP3    H130095   5.185   2.418   2.249 -2.6865  1.8604 -0.7837
 2820TIP3    H230096   5.175   2.298   2.158  2.7790  0.1856  0.4306
 2821TIP3   OH230097   3.280   2.255   0.209 -0.2334 -0.2626 -0.5818
 2821TIP3    H130098   3.252   2.334   0.255  1.3863 -0.4950  0.9331
 2821TIP3    H230099   3.301   2.283   0.121  2.4231  1.5224  0.5050
 2822TIP3   OH230100   3.895   1.631   8.633  0.7031 -0.0340 -0.4959
 2822TIP3    H130101   3.837   1.555   8.644  1.0636 -0.6390 -2.4039
 2822TIP3    H230102   3.979   1.593   8.610  1.6820  0.8722  1.3862
 2823TIP3   OH230103   0.212   1.545   0.017  0.0930  0.1116 -0.0042
 2823TIP3    H130104   0.140   1.483   0.021 -0.6511  0.9352 -0.2343
 2823TIP3    H230105   0.182   1.613  -0.044  1.6847 -0.2984 -1.3316
 2824TIP3   OH230106   1.099   5.238   7.479  1.0484  0.4598  0.1898
 2824TIP3    H130107   1.056   5.210   7.398 -0.1713  1.2843  0.5137
 2824TIP3    H230108   1.182   5.191   7.481  1.3135  0.7941 -1.7711
 2825TIP3   OH230109   6.870   0.972   1.236 -0.2934  0.1419  0.0693
 2825TIP3    H130110   6.871   0.965   1.141 -0.8575 -1.6748  0.1585
 2825TIP3    H230111   6.778   0.965   1.260 -0.1250  0.2323  0.7634
 2826TIP3   OH230112   5.629   3.603   2.766  0.2908 -0.2028 -0.1826
 2826TIP3    H130113   5.568   3.530   2.756 -0.0486 -0.0551  0.6995
 2826TIP3    H230114   5.606   3.641   2.851 -0.7233  2.0060 -1.3509
 2827TIP3   OH230115   3.934   4.517   0.094  0.1187 -0.4914 -0.0758
 2827TIP3    H130116   3.897   4.484   0.175  1.2246 -0.6776  0.3771
 2827TIP3    H230117   3.878   4.482   0.025 -1.3686  0.4151  0.6440
 2828TIP3   OH230118   3.059   3.223   0.910 -0.6147  0.3576  0.2610
 2828TIP3    H130119   2.990   3.195   0.849 -1.9869  1.3879  1.2698
 2828TIP3    H230120   3.094   3.142   0.946 -0.8919 -0.2014 -0.6863
 2829TIP3   OH230121   1.786   2.384   0.085 -0.1423 -0.2307 -0.1907
 2829TIP3    H130122   1.700   2.424   0.076 -0.1632 -0.5179 -1.4680
 2829TIP3    H230123   1.793   2.325   0.010  1.0455 -0.4397  0.0615
 2830TIP3   OH230124   2.703   1.779   2.681 -0.1009  0.4350 -0.6237
 2830TIP3    H130125   2.718   1.684   2.678 -1.4942  0.0575  1.5957
 2830TIP3    H230126   2.657   1.798   2.599  0.0659 -0.8480 -1.0398
 2831TIP3   OH230127   4.620   0.550   7.606 -0.4019  0.0063  0.4896
 2831TIP3    H130128   4.628   0.580   7.697 -4.1214  0.1379  0.9207
 2831TIP3    H230129   4.680   0.607   7.557 -0.3525  1.8385  2.5089
 2832TIP3   OH230130   1.939   5.994   1.706 -0.3727  0.2633 -0.1328
 2832TIP3    H130131   2.029   6.026   1.704 -0.5882  0.8209 -1.6216
 2832TIP3    H230132   1.925   5.971   1.798  1.0312  0.8808  0.2717
 2833TIP3   OH230133   6.058   5.380   1.962  0.6975  0.0072  0.8438
 2833TIP3    H130134   6.075   5.464   2.005  0.7123  0.6146 -0.2984
 2833TIP3    H230135   6.113   5.383   1.884  0.3752 -0.8917  0.5811
 2834TIP3   OH230136   6.534   1.586   2.274  0.0214  0.0156  0.4677
 2834TIP3    H130137   6.585   1.660   2.305 -0.0278 -0.2093  1.0966
 2834TIP3    H230138   6.561   1.513   2.329  1.0531 -0.7624 -0.9921
 2835TIP3   OH230139   4.855   5.906   8.433  0.5229  0.0859 -0.2588
 2835TIP3    H130140   4.825   5.909   8.342  0.9116  0.2313 -0.3834
 2835TIP3    H230141   4.774   5.900   8.485  0.3187 -0.6891 -0.6409
 2836TIP3   OH230142   2.940   4.825   0.736  0.5367 -0.0613  0.2644
 2836TIP3    H130143   2.914   4.900   0.791 -2.8363 -1.7976  1.3305
 2836TIP3    H230144   2.880   4.828   0.661  1.9940 -0.3679 -0.9544
 2837TIP3   OH230145   3.238   2.405   8.384 -0.1730 -0.2138 -0.3340
 2837TIP3    H130146   3.246   2.337   8.317  0.5545 -2.1409  1.6025
 2837TIP3    H230147   3.319   2.455   8.377  1.1069 -1.9946  0.6531
 2838TIP3   OH230148   4.420   6.041   0.076  0.6038  0.1618  0.1856
 2838TIP3    H130149   4.507   6.066   0.105  1.5812 -2.1223 -0.5718
 2838TIP3    H230150   4.376   6.124   0.056  2.4500  1.3715  0.9170
 2839TIP3   OH230151   2.041   2.051   2.093 -0.1150  0.2991  0.7543
 2839TIP3    H130152   2.104   2.038   2.164  0.3059  0.6339  0.4445
 2839TIP3    H230153   1.962   2.083   2.137 -1.0717 -2.7689  1.5198
 2840TIP3   OH230154   4.791   5.092   0.415 -0.1428  0.1492 -0.3427
 2840TIP3    H130155   4.722   5.049   0.466  0.9998 -0.3115  0.8488
 2840TIP3    H230156   4.743   5.139   0.346 -2.0612  2.9758  2.6085
 2841TIP3   OH230157   0.253   0.532   1.693 -0.0690  0.2343 -0.0746
 2841TIP3    H130158   0.308   0.497   1.623  0.0628 -0.1996  0.2390
 2841TIP3    H230159   0.239   0.623   1.670 -0.8336 -0.1421 -1.1857
 2842TIP3   OH230160   1.396   3.881   0.431  0.0766  0.4641 -0.0701
 2842TIP3    H130161   1.459   3.899   0.500  2.7843 -0.9532 -1.9898
 2842TIP3    H230162   1.365   3.792   0.448  0.5671  0.2014 -0.5274
 2843TIP3   OH230163   4.986   3.020   7.633 -0.0375 -0.1040  0.2065
 2843TIP3    H130164   4.998   2.958   7.706  0.8657 -2.3980 -1.7468
 2843TIP3    H230165   5.073   3.057   7.618  0.5197 -1.9069 -1.4948
 2844TIP3   OH230166   1.444   6.717   2.723 -0.2253  0.0595 -0.0792
 2844TIP3    H130167   1.401   6.784   2.776  1.3247  1.8991 -1.0413
 2844TIP3    H230168   1.372   6.673   2.678 -1.3327  0.6283  1.0588
 2845TIP3   OH230169   0.119   1.794   8.581 -0.1058  0.5837 -0.2397
 2845TIP3    H130170   0.179   1.869   8.578 -1.6753  1.8767 -0.5624
 2845TIP3    H230171   0.033   1.831   8.563 -1.0185 -1.2367  0.1259
 2846TIP3   OH230172   2.702   4.755   2.032  0.4874  0.1313 -0.0314
 2846TIP3    H130173   2.659   4.813   2.095 -1.7256 -0.9106 -0.4589
 2846TIP3    H230174   2.663   4.779   1.948  1.2786 -0.4021 -0.5612
 2847TIP3   OH230175   3.256   2.107   1.494 -0.2652 -0.2473 -0.1147
 2847TIP3    H130176   3.215   2.113   1.581 -2.1627 -1.2018 -0.8788
 2847TIP3    H230177   3.254   2.013   1.473 -0.9831  0.0781 -1.6679
 2848TIP3   OH230178   2.893   1.960   0.285  0.0683 -0.0933  0.6454
 2848TIP3    H130179   2.975   1.922   0.253 -0.6582 -2.6529  1.6041
 2848TIP3    H230180   2.836   1.962   0.208 -0.2624 -2.1915  0.7769
 2849TIP3   OH230181   3.120   6.019   1.751  0.1680  0.3124  0.0997
 2849TIP3    H130182   3.037   6.041   1.710 -0.5878 -0.9942  0.8695
 2849TIP3    H230183   3.178   6.092   1.729 -0.7417  0.5440 -1.6938
 2850TIP3   OH230184   4.931   5.042   8.093  0.5108 -0.1624  0.0054
 2850TIP3    H130185   4.946   5.130   8.129  0.0027  0.0820 -0.3579
 2850TIP3    H230186   4.904   5.058   8.003  1.3722 -0.7487 -0.3654
 2851TIP3   OH230187   0.162   2.861   2.525  0.2955 -0.2809 -0.4438
 2851TIP3    H130188   0.203   2.946   2.537 -0.0760 -0.1591  0.0008
 2851TIP3    H230189   0.068   2.879   2.521  0.2562 -0.5881 -1.1359
 2852TIP3   OH230190   1.941   4.159   2.451 -0.5199  0.1824  0.2595
 2852TIP3    H130191   1.911   4.217   2.521  2.3276  2.3729 -0.1809
 2852TIP3    H230192   1.891   4.187   2.374 -1.0703  0.1941  0.6128
 2853TIP3   OH230193   5.177   1.644   8.564 -0.0728  0.9264 -0.3716
 2853TIP3    H130194   5.202   1.693   8.485 -1.1733 -1.1768 -2.1267
 2853TIP3    H230195   5.088   1.615   8.546 -0.2154  0.0861  1.5351
 2854TIP3   OH230196   0.524   1.385   8.282 -0.3027 -0.2118 -0.1726
 2854TIP3    H130197   0.508   1.433   8.363  1.0188  0.2397 -0.1595
 2854TIP3    H230198   0.589   1.437   8.236  1.2655 -2.0193 -0.1169
 2855TIP3   OH230199   4.034   6.013   0.256  0.1466  0.2927  0.0935
 2855TIP3    H130200   3.978   5.940   0.282  0.4726  0.7244  2.1699
 2855TIP3    H230201   3.996   6.089   0.300 -0.2706  1.4760 -2.1236
 2856TIP3   OH230202   5.440   1.301   0.332 -0.5283 -0.0931 -0.4771
 2856TIP3    H130203   5.520   1.282   0.379 -0.5759  1.0811  0.1302
 2856TIP3    H230204   5.379   1.331   0.399 -0.6711  1.4040 -1.2197
 2857TIP3   OH230205   2.051   6.018   7.511  0.2156 -0.0434 -0.4112
 2857TIP3    H130206   2.081   6.108   7.522 -0.6660  0.1451  0.6983
 2857TIP3    H230207   2.122   5.965   7.546  0.1764  0.2987  0.2132
 2858TIP3   OH230208   0.963   1.683   8.399  0.0093 -0.6180  0.5480
 2858TIP3    H130209   1.005   1.672   8.485 -0.0597 -0.6114  0.5824
 2858TIP3    H230210   0.933   1.774   8.398 -0.3632 -0.7373  0.6851
 2859TIP3   OH230211   1.979   3.981   1.651 -0.3066  0.0482 -0.1765
 2859TIP3    H130212   1.969   3.892   1.684 -4.2388  0.8972  1.4588
 2859TIP3    H230213   2.023   3.971   1.567 -0.4708 -3.3957  0.0147
 2860TIP3   OH230214   5.264   5.822   0.316 -0.1003 -0.8034 -0.0901
 2860TIP3    H130215   5.322   5.897   0.327 -1.6456  0.6463 -1.2556
 2860TIP3    H230216   5.316   5.758   0.268  1.0921 -0.2762  0.4639
 2861TIP3   OH230217   3.062   3.732   7.198  0.7164 -0.2021 -0.0707
 2861TIP3    H130218   3.131   3.731   7.131  1.6172 -0.9016  0.8379
 2861TIP3    H230219   3.004   3.660   7.174  0.3232  0.3401 -0.7948
 2862TIP3   OH230220   1.083   6.080   6.961 -0.0387 -0.7956  0.0184
 2862TIP3    H130221   1.092   6.175   6.961  0.2814 -0.8100 -1.0006
 2862TIP3    H230222   0.997   6.064   7.000 -0.5504 -0.0267 -0.7520
 2863TIP3   OH230223   4.143   0.459   7.441 -0.2569 -0.1743 -0.5487
 2863TIP3    H130224   4.125   0.551   7.463 -1.1670 -0.2566 -0.8989
 2863TIP3    H230225   4.103   0.447   7.355 -0.0399 -0.8697 -0.5591
 2864TIP3   OH230226   0.487   2.364   1.428  0.0417 -0.0378 -0.1133
 2864TIP3    H130227   0.555   2.406   1.481  0.0687  0.0447 -0.2111
 2864TIP3    H230228   0.486   2.273   1.457 -0.2390  0.1050  0.3290
 2865TIP3   OH230229   2.056   4.809   2.399 -0.0527  0.6379 -0.6677
 2865TIP3    H130230   2.121   4.876   2.380  1.0339  0.1192  0.9613
 2865TIP3    H230231   2.105   4.727   2.399 -0.8706  0.1333 -0.2871
 2866TIP3   OH230232   5.825   1.437   7.167  0.4318 -0.2139 -0.3740
 2866TIP3    H130233   5.760   1.375   7.135  1.1716 -1.3593  0.2629
 2866TIP3    H230234   5.793   1.523   7.139 -1.8715 -0.6312  0.8396
 2867TIP3   OH230235   1.167   3.549   2.361 -0.0131  0.3866 -0.2441
 2867TIP3    H130236   1.138   3.618   2.420  0.1188  1.1531 -1.0509
 2867TIP3    H230237   1.225   3.495   2.414  0.1194  1.0694  0.3288
 2868TIP3   OH230238   6.448   0.326   0.814  0.5276  0.3449  0.0425
 2868TIP3    H130239   6.391   0.383   0.865  1.2547  1.3130 -0.2135
 2868TIP3    H230240   6.417   0.237   0.834 -0.1584  0.7855  0.9932
 2869TIP3   OH230241   2.977   1.223   2.966  0.0027  0.2237  0.4762
 2869TIP3    H130242   2.957   1.170   3.043  0.5816  0.3667  0.7252
 2869TIP3    H230243   2.972   1.161   2.893  1.6797 -0.4218  0.8720
 2870TIP3   OH230244   2.768   3.515   2.481 -0.5752 -0.2314 -0.6079
 2870TIP3    H130245   2.772   3.426   2.446  1.6746 -0.2822 -0.3605
 2870TIP3    H230246   2.771   3.504   2.576  1.2351  0.1071 -0.5926
 2871TIP3   OH230247   0.017   3.588   1.470  0.5358 -0.1197  0.6407
 2871TIP3    H130248  -0.020   3.516   1.418 -1.7295  0.6454  1.0618
 2871TIP3    H230249   0.044   3.653   1.405  2.6116 -1.3044  0.2583
 2872TIP3   OH230250   4.982   4.530   3.839  0.3548 -0.9132  0.2325
 2872TIP3    H130251   4.968   4.514   3.746  1.4598 -3.0052  0.3668
 2872TIP3    H230252   5.077   4.528   3.849  0.3183  0.6819  1.2228
 2873TIP3   OH230253   0.869   3.450   2.060 -0.1517  0.8464  0.3019
 2873TIP3    H130254   0.847   3.361   2.035 -1.1378  1.3078 -0.5672
 2873TIP3    H230255   0.964   3.452   2.061 -0.1188 -0.4817  1.3544
 2874TIP3   OH230256   0.341   6.106   0.739 -0.6791 -0.3695 -0.4630
 2874TIP3    H130257   0.433   6.129   0.755 -0.7530 -0.2546 -0.1908
 2874TIP3    H230258   0.345   6.040   0.670 -0.1182 -2.7563  1.6597
 2875TIP3   OH230259   2.793   1.103   0.468  0.3978 -0.1763  0.6605
 2875TIP3    H130260   2.855   1.157   0.419  0.2141 -0.0966  0.5166
 2875TIP3    H230261   2.707   1.134   0.441  0.2855 -0.9093  0.1560
 2876TIP3   OH230262   5.728   6.527   0.874 -0.5093  0.1577 -0.7196
 2876TIP3    H130263   5.707   6.489   0.788  2.5786 -0.3515 -1.3617
 2876TIP3    H230264   5.819   6.553   0.867  0.0239 -0.3858  2.6075
 2877TIP3   OH230265   5.916   2.574   0.151 -0.6342  0.0578  0.1179
 2877TIP3    H130266   5.910   2.668   0.137  0.7273  0.6827  3.0293
 2877TIP3    H230267   5.998   2.549   0.108  0.1515  0.6624  1.2233
 2878TIP3   OH230268   5.222   2.940   2.044 -0.2130 -0.5955 -0.2795
 2878TIP3    H130269   5.296   2.900   2.090  0.5829  0.2731 -0.7710
 2878TIP3    H230270   5.244   3.033   2.040 -0.5481 -0.5540 -1.8512
 2879TIP3   OH230271   4.484   2.403   2.694 -0.2649 -0.6743 -0.2545
 2879TIP3    H130272   4.442   2.409   2.780 -0.3869  2.2142 -0.4127
 2879TIP3    H230273   4.576   2.425   2.711 -0.4612  0.7952 -0.9186
 2880TIP3   OH230274   0.945   0.822   0.824 -0.1962  0.0659  0.4631
 2880TIP3    H130275   1.041   0.818   0.829 -0.2407 -1.1045  0.6446
 2880TIP3    H230276   0.919   0.874   0.900  0.2463 -0.4803  0.9993
 2881TIP3   OH230277   4.908   3.217   0.624 -0.0555  0.6282 -0.0034
 2881TIP3    H130278   4.970   3.148   0.646  0.2995  0.1727 -2.1985
 2881TIP3    H230279   4.863   3.237   0.707 -1.5151 -3.5198  0.4028
 2882TIP3   OH230280   0.627   2.676   1.900 -0.6081  0.5399  0.6207
 2882TIP3    H130281   0.576   2.738   1.848 -1.7725 -0.8086  0.0978
 2882TIP3    H230282   0.696   2.730   1.940 -0.0434  1.7170 -1.7835
 2883TIP3   OH230283   3.168   4.369   0.274 -0.2766 -0.0907  0.4023
 2883TIP3    H130284   3.239   4.367   0.339  0.9450  0.6237 -0.8692
 2883TIP3    H230285   3.204   4.325   0.197 -0.8556  1.1483 -0.6082
 2884TIP3   OH230286   2.192   2.108   7.217  0.3368 -0.1343 -0.1159
 2884TIP3    H130287   2.120   2.084   7.275  0.6738 -0.8256  0.0358
 2884TIP3    H230288   2.231   2.024   7.191  0.7232  0.2020 -0.6598
 2885TIP3   OH230289   0.404   0.536   0.361  0.2611 -0.0904  0.3272
 2885TIP3    H130290   0.370   0.496   0.441 -3.9264  0.4912 -0.8912
 2885TIP3    H230291   0.399   0.630   0.377 -0.0354  0.0218 -0.3570
 2886TIP3   OH230292   5.177   2.604   2.316 -1.0309 -0.0054  0.4860
 2886TIP3    H130293   5.247   2.650   2.269 -1.2606  0.1597  0.3000
 2886TIP3    H230294   5.096   2.645   2.284 -1.2644 -0.8335 -0.0088
 2887TIP3   OH230295   0.223   4.724   8.593 -0.3224 -1.0903 -0.1039
 2887TIP3    H130296   0.156   4.703   8.528 -0.4652 -0.2413 -0.2458
 2887TIP3    H230297   0.291   4.769   8.544  0.7491 -2.6407 -0.1063
 2888TIP3   OH230298   4.735   3.640   0.521  0.5341  0.0528  0.2095
 2888TIP3    H130299   4.647   3.639   0.483  1.2794 -0.3214 -1.6385
 2888TIP3    H230300   4.792   3.661   0.447  1.9307  1.2045  1.5558
 2889TIP3   OH230301   4.634   5.703   8.600  0.2407  0.3011  0.0204
 2889TIP3    H130302   4.699   5.662   8.543 -0.8484  0.7263 -1.5865
 2889TIP3    H230303   4.636   5.650   8.680  0.8244 -1.2000 -0.9381
 2890TIP3   OH230304   2.888   4.787   2.269 -0.0473 -0.2656 -0.5975
 2890TIP3    H130305   2.822   4.853   2.288  1.0400  0.8736 -0.6506
 2890TIP3    H230306   2.949   4.830   2.209  2.2874 -0.2927  1.5986
 2891TIP3   OH230307   1.192   2.634   2.577  0.1587  0.0011 -0.6710
 2891TIP3    H130308   1.207   2.720   2.539 -1.0235  0.0913 -0.9709
 2891TIP3    H230309   1.226   2.641   2.666 -0.1449  0.8525 -0.6146
 2892TIP3   OH230310   1.781   2.498   7.616  0.5377  0.3287 -0.0688
 2892TIP3    H130311   1.702   2.467   7.571  1.1340 -1.8154  0.2167
 2892TIP3    H230312   1.753   2.516   7.705  0.5277 -1.5238  0.3445
 2893TIP3   OH230313   4.529   1.044   1.763 -0.4364 -0.5584  0.2785
 2893TIP3    H130314   4.580   1.113   1.804  4.2537 -2.0574 -2.2680
 2893TIP3    H230315   4.478   1.088   1.695  0.9124  0.6938  0.0224
 2894TIP3   OH230316   0.539   2.829   1.261 -0.0168 -0.0385 -0.1116
 2894TIP3    H130317   0.472   2.863   1.201 -0.2985 -0.6534 -0.1508
 2894TIP3    H230318   0.489   2.782   1.328  0.3395  0.0652  0.2345
 2895TIP3   OH230319   6.247   4.516   2.003 -0.9189  0.1296 -0.2600
 2895TIP3    H130320   6.269   4.425   1.980 -1.6502  0.2902 -1.7285
 2895TIP3    H230321   6.323   4.547   2.053 -0.7640 -1.3548  0.4874
 2896TIP3   OH230322   0.989   2.602   0.704 -0.1942  0.4633 -0.1929
 2896TIP3    H130323   0.956   2.625   0.791  2.1047 -0.1437  0.9226
 2896TIP3    H230324   1.082   2.624   0.707  0.2305 -0.8179 -2.0463
 2897TIP3   OH230325   5.684   4.818   1.706  0.5012 -0.0951 -0.3021
 2897TIP3    H130326   5.633   4.861   1.637  1.1294  0.5017 -0.4085
 2897TIP3    H230327   5.619   4.792   1.771  0.2161  2.9745  0.8132
 2898TIP3   OH230328   0.712   2.626   2.455 -0.0454  0.2247 -0.6063
 2898TIP3    H130329   0.641   2.654   2.513  1.2703  2.8744 -0.1248
 2898TIP3    H230330   0.786   2.610   2.514  0.2958 -0.7284 -1.2629
 2899TIP3   OH230331   3.611   2.192   1.112 -0.7264 -0.0845 -0.2103
 2899TIP3    H130332   3.565   2.239   1.182  0.4631 -0.2243  0.7170
 2899TIP3    H230333   3.666   2.129   1.159  2.6197  2.0097 -0.9925
 2900TIP3   OH230334   3.706   5.859   8.137  0.1871 -0.0370 -0.0033
 2900TIP3    H130335   3.710   5.856   8.232  1.3830  1.1771  0.0124
 2900TIP3    H230336   3.770   5.926   8.112  0.3684 -0.7785 -1.6917
 2901TIP3   OH230337   0.980   1.676   8.124  0.0520  0.4398 -0.1761
 2901TIP3    H130338   1.068   1.712   8.114  0.3062  0.2556  1.1902
 2901TIP3    H230339   0.956   1.697   8.214 -0.6228 -1.0017 -0.0004
 2902TIP3   OH230340   2.610   1.769   2.399  0.3001 -0.2192 -0.3005
 2902TIP3    H130341   2.609   1.787   2.305 -0.1478 -0.9523 -0.4449
 2902TIP3    H230342   2.528   1.722   2.415 -1.4356  2.9627  1.0783
 2903TIP3   OH230343   2.572   1.649   8.521 -0.1733 -0.4722 -0.0672
 2903TIP3    H130344   2.503   1.671   8.458 -0.4751 -0.0823  0.3868
 2903TIP3    H230345   2.653   1.662   8.473 -0.3853  0.2296 -0.2563
 2904TIP3   OH230346   4.648   3.799   2.834  0.6660 -0.4151 -0.0500
 2904TIP3    H130347   4.647   3.713   2.875 -0.4815 -1.8961 -2.8950
 2904TIP3    H230348   4.741   3.820   2.825  0.9584 -0.5013  2.1733
 2905TIP3   OH230349   1.733   5.609   1.190  0.5010  0.6030 -0.5915
 2905TIP3    H130350   1.800   5.645   1.132 -0.4635  3.0467 -0.3051
 2905TIP3    H230351   1.778   5.599   1.274  0.8843  0.8739 -0.7569
 2906TIP3   OH230352   2.648   2.433   0.175  0.8413  0.6519 -0.3640
 2906TIP3    H130353   2.679   2.423   0.265 -1.7450  0.7913  0.6317
 2906TIP3    H230354   2.702   2.503   0.138  2.6291 -0.0955  0.7017
 2907TIP3   OH230355   2.575   1.480   7.824 -0.6327 -0.1894 -0.4309
 2907TIP3    H130356   2.572   1.443   7.736 -1.5705 -0.8513 -0.1330
 2907TIP3    H230357   2.488   1.464   7.860  0.3145 -1.7436  1.3643
 2908TIP3   OH230358   2.297   0.804   8.035 -0.3070 -0.1354  0.0020
 2908TIP3    H130359   2.351   0.784   7.959 -0.8678 -2.7343  0.1803
 2908TIP3    H230360   2.249   0.722   8.052 -0.1472  0.3095  3.1893
 2909TIP3   OH230361   4.723   2.223   0.090  0.1728 -0.3455  0.2607
 2909TIP3    H130362   4.725   2.178   0.005  3.7017 -0.5764  0.3243
 2909TIP3    H230363   4.712   2.315   0.067  0.1391 -0.5039 -0.3927
 2910TIP3   OH230364   3.563   2.211   8.529  0.2965 -0.2656 -0.1872
 2910TIP3    H130365   3.597   2.298   8.550  1.0555 -0.3642 -0.9657
 2910TIP3    H230366   3.630   2.151   8.561 -0.2661 -0.5828  0.4279
 2911TIP3   OH230367   3.876   3.375   0.591  0.1539  0.3708 -0.1239
 2911TIP3    H130368   3.804   3.384   0.654  0.1945 -0.3981  0.0344
 2911TIP3    H230369   3.951   3.349   0.644  0.7330  1.8291 -0.1907
 2912TIP3   OH230370   1.418   6.190   7.582  0.2703  0.1235 -0.0753
 2912TIP3    H130371   1.346   6.142   7.543 -0.3060  1.6260 -0.9729
 2912TIP3    H230372   1.420   6.273   7.533  2.7447  0.0342 -0.2412
 2913TIP3   OH230373   1.742   0.867   1.252  0.1288 -0.4630  0.3344
 2913TIP3    H130374   1.684   0.879   1.326  0.3060  0.6587  0.3044
 2913TIP3    H230375   1.827   0.848   1.291  0.4937  1.2966  0.4859
 2914TIP3   OH230376   0.405   2.315   2.214  0.5136 -0.0931  0.0714
 2914TIP3    H130377   0.372   2.345   2.299 -0.1778  2.2751 -0.9429
 2914TIP3    H230378   0.389   2.389   2.155 -1.6743 -2.6577 -2.8241
 2915TIP3   OH230379   3.624   2.279   8.072 -0.3801  0.7242 -0.6024
 2915TIP3    H130380   3.631   2.203   8.014 -2.0661  0.0478 -0.0052
 2915TIP3    H230381   3.704   2.328   8.058  1.0606 -1.4689 -0.5916
 2916TIP3   OH230382   6.158   0.961   2.790 -0.6968  0.1333  0.6682
 2916TIP3    H130383   6.085   1.019   2.769 -0.0164  0.7139 -0.1715
 2916TIP3    H230384   6.234   1.002   2.749  0.1203 -0.4249  1.5688
 2917TIP3   OH230385   2.117   6.566   0.746  0.0349  0.2869 -0.4248
 2917TIP3    H130386   2.205   6.548   0.779 -1.0069  0.2496  2.6934
 2917TIP3    H230387   2.088   6.483   0.707  1.0944  0.0909 -0.8109
 2918TIP3   OH230388   4.661   5.654   0.426 -0.9030 -0.0157 -0.1395
 2918TIP3    H130389   4.581   5.707   0.421 -0.3715  1.0174  1.2960
 2918TIP3    H230390   4.726   5.704   0.377 -0.8960 -0.3813 -0.5078
 2919TIP3   OH230391   2.790   0.471   1.239  0.0822 -0.4174  0.2588
 2919TIP3    H130392   2.766   0.535   1.306  0.9381 -0.4603  0.6161
 2919TIP3    H230393   2.764   0.512   1.156  1.3526  0.7722  0.4090
 2920TIP3   OH230394   6.743   2.697   8.555  0.5926  0.5699 -0.2651
 2920TIP3    H130395   6.822   2.750   8.543  0.9616  0.2943  0.8631
 2920TIP3    H230396   6.753   2.625   8.493  2.0059 -0.3126  0.9094
 2921TIP3   OH230397   3.951   2.495   1.021 -0.0376 -0.3366 -0.5746
 2921TIP3    H130398   3.869   2.488   0.972 -1.1512  0.5160  1.0765
 2921TIP3    H230399   3.976   2.405   1.040 -0.7883 -0.5939 -0.7740
 2922TIP3   OH230400   1.715   1.410   1.113  0.4835 -0.0708 -0.1473
 2922TIP3    H130401   1.646   1.376   1.055 -0.5135 -1.5591  1.7760
 2922TIP3    H230402   1.747   1.333   1.159  0.2895  1.1647  2.2130
 2923TIP3   OH230403   2.509   4.648   1.448 -0.2961  0.1968  0.1257
 2923TIP3    H130404   2.498   4.573   1.390 -0.6145  0.3980 -0.0777
 2923TIP3    H230405   2.564   4.709   1.400 -0.0149  0.0857  0.3018
 2924TIP3   OH230406   3.286   1.642   1.020  0.3078 -0.6523 -0.5748
 2924TIP3    H130407   3.230   1.615   1.092  0.2235  1.4910  0.2165
 2924TIP3    H230408   3.238   1.617   0.941 -1.2242  0.0957  0.0914
 2925TIP3   OH230409   4.266   2.168   0.458  0.3563  0.1180 -0.1583
 2925TIP3    H130410   4.324   2.192   0.386  0.1510  1.3114  0.0462
 2925TIP3    H230411   4.206   2.104   0.420  0.1854  0.8008 -1.0827
 2926TIP3   OH230412   3.214   5.955   0.216 -0.0519 -0.2977 -0.4017
 2926TIP3    H130413   3.178   5.873   0.184  0.1436 -0.0917 -1.1763
 2926TIP3    H230414   3.139   6.014   0.221  0.0518 -0.0466 -1.4388
 2927TIP3   OH230415   4.799   0.856   8.147  0.2898  0.4170  0.1720
 2927TIP3    H130416   4.714   0.889   8.175 -0.1641 -0.0979 -0.5744
 2927TIP3    H230417   4.847   0.842   8.228  0.1887  2.0771  0.5495
 2928TIP3   OH230418   5.023   5.948   0.635  0.1818 -0.1838 -0.3304
 2928TIP3    H130419   5.061   5.860   0.625 -0.9671 -0.7244 -0.0364
 2928TIP3    H230420   5.073   5.988   0.706  1.8101  0.0345 -1.5193
 2929TIP3   OH230421   0.671   6.295   6.968  0.1433  0.8469 -0.3313
 2929TIP3    H130422   0.615   6.240   6.913  2.3211  0.1819 -2.0282
 2929TIP3    H230423   0.755   6.297   6.922  0.7048  4.1701  0.5829
 2930TIP3   OH230424   5.395   2.510   8.033  0.6581  0.3573  0.5193
 2930TIP3    H130425   5.392   2.498   7.938  0.0066 -2.3654  0.7991
 2930TIP3    H230426   5.323   2.569   8.052  0.7899  0.9291 -0.6655
 2931TIP3   OH230427   2.156   3.367   1.282 -0.5658  0.0329  0.2080
 2931TIP3    H130428   2.238   3.407   1.310  0.1192  0.1547 -1.8382
 2931TIP3    H230429   2.182   3.304   1.214 -2.3431  1.8977 -2.3669
 2932TIP3   OH230430   0.681   4.886   0.345  0.3761 -0.1382  0.4520
 2932TIP3    H130431   0.762   4.834   0.350  0.1379 -0.9595 -2.4452
 2932TIP3    H230432   0.712   4.975   0.328  0.9217 -1.0308 -4.9950
 2933TIP3   OH230433   5.121   3.979   0.508  0.4124 -0.2922  0.2081
 2933TIP3    H130434   5.134   3.924   0.586 -0.8147  1.1118  1.4660
 2933TIP3    H230435   5.074   3.922   0.447  1.2543 -1.3722  0.5313
 2934TIP3   OH230436   2.317   4.368   7.091  0.4480 -0.3003  0.4141
 2934TIP3    H130437   2.401   4.335   7.123 -0.6604 -1.3523  2.5075
 2934TIP3    H230438   2.321   4.359   6.996  1.8749 -2.4407  0.6195
 2935TIP3   OH230439   6.269   6.830   2.493  0.1397 -0.0362 -0.8276
 2935TIP3    H130440   6.178   6.853   2.513 -0.2285 -0.6209 -1.7783
 2935TIP3    H230441   6.311   6.914   2.475  0.1970  0.4027  1.1276
 2936TIP3   OH230442   1.167   4.805   0.314 -0.2995 -0.1338 -0.1707
 2936TIP3    H130443   1.202   4.763   0.235 -0.5753  0.7717 -0.8042
 2936TIP3    H230444   1.183   4.899   0.299 -0.9171  0.0966  0.5741
 2937TIP3   OH230445   4.274   5.738   0.022 -0.0748  0.1723 -0.0415
 2937TIP3    H130446   4.271   5.807  -0.044 -0.2826  0.6283  0.4315
 2937TIP3    H230447   4.259   5.657  -0.026 -0.4615  0.5215 -0.5193
 2938TIP3   OH230448   4.827   0.200   7.471 -0.0726  0.2746 -0.1588
 2938TIP3    H130449   4.823   0.263   7.399  1.7765  0.2989 -0.2702
 2938TIP3    H230450   4.763   0.234   7.534 -0.7867  0.9649 -1.2095
 2939TIP3   OH230451   4.193   1.437   1.688  0.0671 -0.2148  0.0063
 2939TIP3    H130452   4.137   1.415   1.762 -0.1763  1.0748  0.2198
 2939TIP3    H230453   4.267   1.483   1.726  0.3606 -0.2793 -0.4744
 2940TIP3   OH230454   1.779   3.059   8.123  0.4171 -0.4501  0.4702
 2940TIP3    H130455   1.693   3.049   8.164 -0.5367 -1.6350 -1.6694
 2940TIP3    H230456   1.823   2.976   8.139  0.7983 -0.1966  0.7416
 2941TIP3   OH230457   3.714   2.572   7.728 -0.5566  0.4123  0.3547
 2941TIP3    H130458   3.702   2.547   7.820  2.0335 -0.1441  0.6239
 2941TIP3    H230459   3.785   2.517   7.697 -2.5950 -0.8026 -2.6447
 2942TIP3   OH230460   6.478   0.302   8.354  0.0813 -0.0183 -0.6439
 2942TIP3    H130461   6.405   0.359   8.381  1.2848  1.3949 -0.2308
 2942TIP3    H230462   6.482   0.235   8.421  0.4285  1.0850  0.4735
 2943TIP3   OH230463   1.467   2.663   7.724  0.2456  0.4056  0.2054
 2943TIP3    H130464   1.386   2.678   7.773 -0.0901 -0.0512 -0.2012
 2943TIP3    H230465   1.533   2.647   7.791 -0.2759 -0.5651  0.5033
 2944TIP3   OH230466   3.429   5.199   0.071 -0.2777 -0.0704 -1.0844
 2944TIP3    H130467   3.513   5.217   0.114 -0.6409  0.0320 -0.4060
 2944TIP3    H230468   3.443   5.117   0.024 -0.2393 -0.8804  0.2850
 2945TIP3   OH230469   3.513   2.257   1.371 -0.8073  0.0708  0.4047
 2945TIP3    H130470   3.448   2.186   1.376 -0.3961 -0.2988  0.5860
 2945TIP3    H230471   3.540   2.272   1.461  2.3942 -2.6561  0.0889
 2946TIP3   OH230472   0.640   5.866   8.387 -0.3623  0.3556  1.1430
 2946TIP3    H130473   0.635   5.781   8.342 -0.3287  1.3130 -0.7657
 2946TIP3    H230474   0.717   5.858   8.444  0.8409 -0.2432 -0.4888
 2947TIP3   OH230475   4.313   1.304   7.256  0.2843 -0.7451  0.3734
 2947TIP3    H130476   4.336   1.331   7.344  0.9935  0.9145 -0.2795
 2947TIP3    H230477   4.357   1.366   7.199 -0.1244 -1.7927 -1.1700
 2948TIP3   OH230478   1.526   5.671   0.569  0.1566  0.5937  0.2523
 2948TIP3    H130479   1.572   5.588   0.579 -2.5406 -1.0330  0.1784
 2948TIP3    H230480   1.538   5.695   0.478 -0.8547 -0.9592 -0.3308
 2949TIP3   OH230481   4.737   1.783   1.791 -0.0394  0.3741  0.2525
 2949TIP3    H130482   4.706   1.769   1.701 -0.8746 -3.1274  0.8995
 2949TIP3    H230483   4.774   1.871   1.791 -1.4186  1.1099 -3.0904
 2950TIP3   OH230484   2.899   4.063   2.449 -0.2944  0.4475 -0.2793
 2950TIP3    H130485   2.877   4.073   2.356 -1.8657  0.8574  0.1077
 2950TIP3    H230486   2.916   4.152   2.480  0.1601  0.3192 -0.1372
 2951TIP3   OH230487   2.249   1.302   7.662 -0.1076 -0.0772 -0.2027
 2951TIP3    H130488   2.338   1.333   7.647  0.3519 -0.6762  1.1087
 2951TIP3    H230489   2.229   1.248   7.585  0.5137  0.3617 -0.6814
 2952TIP3   OH230490   2.654   1.936   1.723  0.1874 -0.3430 -0.2338
 2952TIP3    H130491   2.593   1.886   1.777 -0.2006  0.9453  0.5978
 2952TIP3    H230492   2.739   1.893   1.735 -0.1995 -1.0132  0.1399
 2953TIP3   OH230493   5.831   4.080   1.063 -0.5215 -0.0347  0.8119
 2953TIP3    H130494   5.905   4.019   1.064 -0.8621 -0.4957 -0.3491
 2953TIP3    H230495   5.872   4.167   1.058  0.0477 -0.3366 -2.7835
 2954TIP3   OH230496   5.379   0.007   0.482  0.5358  0.7600 -0.3281
 2954TIP3    H130497   5.321   0.081   0.501 -0.1413  0.6275 -1.7511
 2954TIP3    H230498   5.377  -0.046   0.562 -0.2733  1.4352  0.1211
 2955TIP3   OH230499   6.313   1.951   8.402  0.2478 -0.0027  0.2404
 2955TIP3    H130500   6.224   1.985   8.408 -0.2529 -0.1236 -3.9129
 2955TIP3    H230501   6.312   1.893   8.326  3.6610 -0.8430  0.6508
 2956TIP3   OH230502   4.295   3.058   1.854  1.1368  0.1070  0.0426
 2956TIP3    H130503   4.246   3.136   1.831  0.8161  0.1139  0.7253
 2956TIP3    H230504   4.300   3.060   1.949  2.6587  0.2188 -0.0183
 2957TIP3   OH230505   4.274   4.150   8.388  0.5041 -0.4268 -0.4196
 2957TIP3    H130506   4.341   4.083   8.375  2.7985  1.2088  2.0191
 2957TIP3    H230507   4.305   4.225   8.337  0.4047  0.2635  0.5231
 2958TIP3   OH230508   2.595   6.613   2.615 -0.1634 -1.2469 -1.1447
 2958TIP3    H130509   2.678   6.630   2.569  0.5358 -0.9220  0.1847
 2958TIP3    H230510   2.538   6.686   2.590  1.1693  0.5272  0.6827
 2959TIP3   OH230511   1.495   5.418   6.659  0.5287  0.2299  0.5222
 2959TIP3    H130512   1.583   5.447   6.636  0.2766 -0.6634 -1.7410
 2959TIP3    H230513   1.491   5.327   6.632 -1.6673  0.7719 -1.2856
 2960TIP3   OH230514   0.920   4.600   8.643  0.3012 -0.0474  0.6205
 2960TIP3    H130515   0.947   4.508   8.642  0.2815 -0.0873  1.9896
 2960TIP3    H230516   0.970   4.640   8.571 -0.8199 -1.4034 -0.9844
 2961TIP3   OH230517   3.752   1.366   1.924  0.3860  0.6686  0.1327
 2961TIP3    H130518   3.718   1.307   1.856  0.4404  0.8474 -0.0526
 2961TIP3    H230519   3.675   1.413   1.955  0.6148  1.9926 -1.1836
 2962TIP3   OH230520   6.825   1.213   2.196  0.3888  0.2102  0.5153
 2962TIP3    H130521   6.786   1.182   2.114  0.9472 -0.9933  0.6972
 2962TIP3    H230522   6.760   1.191   2.263  0.5854 -0.1527  0.5865
 2963TIP3   OH230523   5.264   2.366   0.545 -0.4820  0.4043 -0.2056
 2963TIP3    H130524   5.297   2.410   0.624  1.0261  2.0948 -1.6624
 2963TIP3    H230525   5.172   2.350   0.563 -0.5115  2.0102  1.3831
 2964TIP3   OH230526   6.805   0.103   8.133  0.0541 -0.2777  0.1322
 2964TIP3    H130527   6.846   0.044   8.069 -0.2683  1.6027 -1.9383
 2964TIP3    H230528   6.764   0.045   8.197  0.9106 -2.2603 -1.0361
 2965TIP3   OH230529   0.337   3.467   1.728 -0.1818  0.4799 -0.2880
 2965TIP3    H130530   0.388   3.524   1.786  0.4553  0.2753 -0.6348
 2965TIP3    H230531   0.364   3.492   1.639 -0.7890  0.4600 -0.4858
 2966TIP3   OH230532   3.985   3.060   7.979 -0.0207  0.3667  0.5602
 2966TIP3    H130533   4.061   3.064   8.038  0.3667  0.3393  0.0731
 2966TIP3    H230534   4.021   3.083   7.893 -0.6895  0.9878  0.4371
 2967TIP3   OH230535   0.758   6.864   2.401  0.1923  0.0841 -0.0271
 2967TIP3    H130536   0.826   6.900   2.343  0.6255  0.7646  0.8613
 2967TIP3    H230537   0.805   6.802   2.457  0.1307  0.6970  0.7179
 2968TIP3   OH230538   2.714   4.511   7.528 -0.1587 -0.3408 -0.2169
 2968TIP3    H130539   2.798   4.484   7.491 -0.2248  0.1860 -0.7702
 2968TIP3    H230540   2.661   4.534   7.452 -0.2720  0.8137  0.1934
 2969TIP3   OH230541   3.093   0.282   1.683 -0.7536 -0.1449 -0.4990
 2969TIP3    H130542   3.159   0.351   1.676 -1.8080  0.8044 -1.5683
 2969TIP3    H230543   3.130   0.210   1.632 -0.3049  0.1709 -0.6356
 2970TIP3   OH230544   4.527   1.606   8.347  0.2672 -0.0209  0.3632
 2970TIP3    H130545   4.607   1.557   8.325  0.0352  0.0108 -0.5951
 2970TIP3    H230546   4.547   1.696   8.324 -0.2388 -0.1039 -0.4588
 2971TIP3   OH230547   0.452   5.044   0.482  0.6401 -0.2923  0.1576
 2971TIP3    H130548   0.547   5.044   0.472  0.7045 -0.0553  0.7313
 2971TIP3    H230549   0.421   4.985   0.414  1.2201 -0.6158  0.1674
 2972TIP3   OH230550   3.055   2.986   7.701 -0.0275  0.1707 -0.0504
 2972TIP3    H130551   3.127   2.922   7.702 -0.7116 -0.6278 -0.3451
 2972TIP3    H230552   2.998   2.960   7.773  1.2771  2.3944  1.9132
 2973TIP3   OH230553   1.587   5.531   7.617 -0.1400  0.3805 -0.4687
 2973TIP3    H130554   1.653   5.467   7.589 -0.3858  0.4963 -1.3200
 2973TIP3    H230555   1.570   5.583   7.540 -0.9801  0.5822 -0.1527
 2974TIP3   OH230556   1.147   3.813   2.778 -0.3435  0.3368 -0.1241
 2974TIP3    H130557   1.061   3.814   2.821 -1.1557 -0.5098 -1.6051
 2974TIP3    H230558   1.174   3.721   2.780  0.1575  0.4744 -0.3417
 2975TIP3   OH230559   3.101   3.228   1.301 -0.3237  0.2161 -0.2411
 2975TIP3    H130560   3.182   3.214   1.250 -0.9987 -0.6398 -1.1107
 2975TIP3    H230561   3.061   3.304   1.260 -0.0307  0.5700  0.1167
 2976TIP3   OH230562   0.888   6.573   6.784  0.5227 -0.3101 -0.1961
 2976TIP3    H130563   0.874   6.478   6.782 -0.4274 -0.2953  2.5552
 2976TIP3    H230564   0.949   6.587   6.857 -0.7666  1.3158  0.6259
 2977TIP3   OH230565   2.960   0.338   2.463  0.3591  0.1662 -0.2115
 2977TIP3    H130566   2.967   0.343   2.368 -1.2794 -0.5844 -0.3994
 2977TIP3    H230567   3.041   0.295   2.490  0.3050 -0.7297 -1.3913
 2978TIP3   OH230568   4.988   0.168   1.534 -0.2296  0.2070 -0.5699
 2978TIP3    H130569   4.920   0.224   1.496  0.4326 -0.4217 -2.8651
 2978TIP3    H230570   5.010   0.107   1.464  1.1032 -1.0655  0.8971
 2979TIP3   OH230571   6.366   5.017   2.719 -0.6339 -0.3378 -0.1046
 2979TIP3    H130572   6.456   4.987   2.707 -0.1690  0.5456  0.9370
 2979TIP3    H230573   6.353   5.085   2.653 -0.6862 -0.7466 -0.5211
 2980TIP3   OH230574   5.473   0.464   1.220 -0.0487  0.1398  0.1753
 2980TIP3    H130575   5.456   0.377   1.182 -0.0186  0.8609 -1.5805
 2980TIP3    H230576   5.567   0.478   1.207 -0.0853  0.5097  0.3047
 2981TIP3   OH230577   5.914   2.031   0.363  0.0975 -0.3881  0.1432
 2981TIP3    H130578   5.869   2.114   0.377 -0.1610 -0.4987 -0.0176
 2981TIP3    H230579   5.918   1.991   0.450  1.3479  0.3544  0.4369
 2982TIP3   OH230580   4.823   4.125   0.138  0.7913  0.1594 -0.6334
 2982TIP3    H130581   4.906   4.130   0.186 -0.2395 -1.0067  1.4055
 2982TIP3    H230582   4.770   4.063   0.188 -0.5483 -0.8361 -3.1048
 2983TIP3   OH230583   0.354   1.452   0.732 -0.4033  0.3204  0.0653
 2983TIP3    H130584   0.269   1.447   0.776 -0.9775 -0.5354 -1.0761
 2983TIP3    H230585   0.372   1.362   0.705  0.6642  0.5681 -0.0923
 2984TIP3   OH230586   2.787   2.078   2.965  0.2806  0.3746  0.1858
 2984TIP3    H130587   2.850   2.145   2.938  3.7759 -1.9165  1.8644
 2984TIP3    H230588   2.774   2.094   3.058 -1.6184  0.7086 -0.1010
 2985TIP3   OH230589   4.892   3.782   0.708  0.7121 -0.7295  0.0423
 2985TIP3    H130590   4.830   3.851   0.728  0.9315 -0.4827 -0.1209
 2985TIP3    H230591   4.848   3.727   0.644  0.3760 -0.9809  0.4856
 2986TIP3   OH230592   5.811   5.732   2.489 -0.4721 -0.3894 -0.2950
 2986TIP3    H130593   5.783   5.820   2.517  1.0166  0.5166 -1.4682
 2986TIP3    H230594   5.887   5.713   2.545 -1.6922 -1.6301  0.9994
 2987TIP3   OH230595   2.752   1.390   2.942  0.2821  0.4251  0.1275
 2987TIP3    H130596   2.740   1.350   3.028 -2.5811  0.4881 -0.1627
 2987TIP3    H230597   2.810   1.330   2.895 -0.1298 -0.9199  1.2754
 2988TIP3   OH230598   3.080   5.547   2.733  0.1556 -0.4798 -0.0662
 2988TIP3    H130599   2.999   5.524   2.689 -0.5340 -0.1814  0.9996
 2988TIP3    H230600   3.079   5.497   2.814  0.1539  0.8516  0.7960
 2989TIP3   OH230601   4.919   6.525   2.431 -0.1203 -0.4693 -0.0335
 2989TIP3    H130602   4.881   6.599   2.477 -1.7007 -0.9532 -0.4877
 2989TIP3    H230603   5.010   6.552   2.413 -1.0182  1.9698 -1.4419
 2990TIP3   OH230604   6.031   3.640   1.506 -0.1603  0.0144  0.0567
 2990TIP3    H130605   5.967   3.631   1.578 -1.0038 -0.6221 -0.7466
 2990TIP3    H230606   6.022   3.559   1.457  1.7594 -0.3773  0.2823
 2991TIP3   OH230607   6.411   1.018   1.097  0.1264  0.1718  0.4432
 2991TIP3    H130608   6.333   1.028   1.041  0.3238 -0.2798  0.0784
 2991TIP3    H230609   6.444   1.107   1.108 -0.4604  0.3696  0.6244
 2992TIP3   OH230610   1.529   6.835   1.176 -0.3658  0.3489 -0.1576
 2992TIP3    H130611   1.608   6.783   1.164 -1.0903 -1.0912  0.9125
 2992TIP3    H230612   1.552   6.898   1.245 -0.3392 -0.5758  0.7141
 2993TIP3   OH230613   3.727   6.161   8.209  0.1172  0.0696 -0.6999
 2993TIP3    H130614   3.793   6.214   8.254 -0.0425 -0.8314  0.6691
 2993TIP3    H230615   3.764   6.144   8.123  2.1201 -1.1744  0.3251
 2994TIP3   OH230616   6.811   4.890   7.894 -0.1480 -0.0698 -0.1946
 2994TIP3    H130617   6.780   4.852   7.812 -1.7822  1.3986 -0.3391
 2994TIP3    H230618   6.767   4.839   7.963  0.7361 -0.9007 -0.2255
 2995TIP3   OH230619   2.975   6.608   7.658  0.1238 -0.2354  0.9388
 2995TIP3    H130620   3.026   6.611   7.578 -0.1827 -2.6645  0.5790
 2995TIP3    H230621   2.901   6.667   7.642  2.1562  2.5534  1.0922
 2996TIP3   OH230622   5.255   2.865   1.422 -0.2077 -0.5988  0.3192
 2996TIP3    H130623   5.274   2.782   1.464 -0.3218 -0.1533  1.2801
 2996TIP3    H230624   5.266   2.931   1.491  1.9308  0.4317 -0.9087
 2997TIP3   OH230625   6.455   0.640   0.873 -0.1736  0.0685  0.3128
 2997TIP3    H130626   6.539   0.683   0.856 -0.0847 -0.2964 -0.2218
 2997TIP3    H230627   6.473   0.578   0.943  0.3338 -0.9370 -0.6751
 2998TIP3   OH230628   6.636   5.407   8.379 -0.3068  0.8030 -0.5155
 2998TIP3    H130629   6.655   5.458   8.458 -0.7189  0.2875 -0.0652
 2998TIP3    H230630   6.719   5.365   8.356 -0.4946 -0.1726  0.4913
 2999TIP3   OH230631   4.338   4.725   7.853 -0.3078 -0.2588  0.0267
 2999TIP3    H130632   4.319   4.778   7.775  0.1383  0.0902  0.1452
 2999TIP3    H230633   4.295   4.641   7.837 -2.5889  0.7197  0.6113
 3000TIP3   OH230634   1.739   0.916   2.380 -0.3832  0.2630 -0.2800
 3000TIP3    H130635   1.741   1.009   2.401 -0.5996  0.3845 -0.8005
 3000TIP3    H230636   1.831   0.890   2.380 -0.3462  0.3770  0.2935
 3001TIP3   OH230637   4.283   1.890   8.158 -0.4714 -0.3998 -0.3344
 3001TIP3    H130638   4.207   1.849   8.198 -1.3993  1.8243  0.3226
 3001TIP3    H230639   4.247   1.958   8.102  1.0210  0.8193  0.1208
 3002TIP3   OH230640   6.436   1.561   8.518  0.1195 -0.2475  0.4461
 3002TIP3    H130641   6.420   1.635   8.577 -0.6127  0.1526 -0.2293
 3002TIP3    H230642   6.350   1.541   8.481  0.8847  1.2557 -2.4580
 3003TIP3   OH230643   5.401   5.409   8.322  0.1151 -0.1351 -0.0925
 3003TIP3    H130644   5.427   5.390   8.232  0.9546 -2.1846  0.5228
 3003TIP3    H230645   5.409   5.325   8.367 -0.6879  0.7565  1.8111
 3004TIP3   OH230646   6.279   1.914   7.476 -0.3953 -0.3017  0.2406
 3004TIP3    H130647   6.302   1.859   7.550  0.4273 -0.0987  0.1441
 3004TIP3    H230648   6.316   1.869   7.400  0.5882  0.5443  0.2014
 3005TIP3   OH230649   5.826   6.201   7.713  0.3054  0.2258 -0.5328
 3005TIP3    H130650   5.846   6.109   7.727  0.5456  0.1059 -1.5915
 3005TIP3    H230651   5.845   6.217   7.620  0.7395  1.4634 -0.2572
 3006TIP3   OH230652   1.476   4.761   1.700  0.1300  0.1361  0.9590
 3006TIP3    H130653   1.571   4.767   1.712  0.2871  0.6764 -0.3368
 3006TIP3    H230654   1.464   4.676   1.657  0.1054  0.3393  0.5563
 3007TIP3   OH230655   2.882   3.343   0.333 -0.1156 -0.4500 -0.2936
 3007TIP3    H130656   2.896   3.319   0.242 -2.7098  2.9969 -1.8423
 3007TIP3    H230657   2.787   3.338   0.345 -0.1657  2.1328  1.1415
 3008TIP3   OH230658   3.379   0.099   3.003  0.8267  0.4051  0.1142
 3008TIP3    H130659   3.316   0.136   3.065  0.0250 -1.9745  0.8152
 3008TIP3    H230660   3.337   0.106   2.918  0.2090  0.0882  0.3916
 3009TIP3   OH230661   2.720   1.338   0.862  0.0224 -0.2845 -0.0205
 3009TIP3    H130662   2.625   1.346   0.871  0.0999  2.1058 -0.7725
 3009TIP3    H230663   2.754   1.353   0.950 -0.2512 -0.1134  0.0572
 3010TIP3   OH230664   2.973   3.851   1.339  0.4255  0.5669 -0.2301
 3010TIP3    H130665   2.914   3.785   1.376  0.3081  0.2085 -1.0309
 3010TIP3    H230666   2.915   3.917   1.303  0.5223  0.4539 -0.5922
 3011TIP3   OH230667   2.235   6.195   0.039  0.4176  0.0811  0.3807
 3011TIP3    H130668   2.147   6.164   0.018  0.4346 -0.3782  0.9550
 3011TIP3    H230669   2.246   6.274  -0.014 -0.4286  0.2687  0.4628
 3012TIP3   OH230670   5.210   1.467   8.218 -0.1544  0.1633  0.1266
 3012TIP3    H130671   5.201   1.553   8.259 -1.2841 -0.5813  1.5225
 3012TIP3    H230672   5.268   1.483   8.143  1.1125  1.7936  1.3532
 3013TIP3   OH230673   3.547   5.389   7.965 -0.1925  0.1189  0.3006
 3013TIP3    H130674   3.545   5.295   7.946 -0.2569 -0.0957  1.3027
 3013TIP3    H230675   3.583   5.395   8.054 -0.0541  1.0540  0.1956
 3014TIP3   OH230676   6.076   4.382   0.122 -0.2657  0.1502  0.0385
 3014TIP3    H130677   6.034   4.455   0.078 -1.5255 -0.2824  0.4697
 3014TIP3    H230678   6.053   4.305   0.069  1.1919  0.0622 -0.5120
 3015TIP3   OH230679   5.167   4.711   7.648 -0.5098 -0.8227  0.7734
 3015TIP3    H130680   5.089   4.727   7.594  1.5678  1.9604 -1.7205
 3015TIP3    H230681   5.219   4.648   7.598 -0.1273 -0.9607  1.3272
 3016TIP3   OH230682   3.195   0.690   7.731  0.0004 -0.2235  0.2170
 3016TIP3    H130683   3.288   0.695   7.755  0.2880 -1.9192 -0.4094
 3016TIP3    H230684   3.177   0.775   7.692  1.1312  0.3470  0.8471
 3017TIP3   OH230685   5.932   1.455   7.698  0.0321 -0.2879  0.6336
 3017TIP3    H130686   6.014   1.419   7.731 -0.2704 -1.4054  0.2205
 3017TIP3    H230687   5.882   1.478   7.777  0.6848  0.3075  0.8847
 3018TIP3   OH230688   0.555   6.464   2.139 -0.8393 -0.0024  0.5001
 3018TIP3    H130689   0.550   6.387   2.195 -3.1513  0.7060  1.3823
 3018TIP3    H230690   0.534   6.537   2.197 -0.4210  1.1009 -0.6983
 3019TIP3   OH230691   0.396   0.383   1.878 -0.0960 -0.5120  0.1354
 3019TIP3    H130692   0.419   0.301   1.834  0.8014 -0.8932  1.2541
 3019TIP3    H230693   0.358   0.437   1.809 -0.7890 -1.8894 -0.6069
 3020TIP3   OH230694   1.323   0.918   0.596  0.4058  0.2435 -0.6431
 3020TIP3    H130695   1.331   0.823   0.586 -1.9898 -0.3591  1.9156
 3020TIP3    H230696   1.246   0.942   0.544  0.2394  0.5599 -0.2558
 3021TIP3   OH230697   4.084   3.740   2.495  0.4678  0.1918  0.7252
 3021TIP3    H130698   4.100   3.826   2.535 -0.7873 -0.0076  1.7054
 3021TIP3    H230699   4.058   3.684   2.568 -2.0299 -0.1569 -0.3294
 3022TIP3   OH230700   0.907   5.662   1.465  0.7241  0.2207 -0.6131
 3022TIP3    H130701   0.892   5.660   1.370 -3.3003  0.1056 -0.1566
 3022TIP3    H230702   0.869   5.746   1.493 -0.7631 -0.9696  1.1414
 3023TIP3   OH230703   4.325   1.052   1.046 -0.2840  0.0972  0.0587
 3023TIP3    H130704   4.317   1.007   1.130 -1.6014 -1.0704 -0.6489
 3023TIP3    H230705   4.264   1.126   1.052  0.7870  0.9690  0.6726
 3024TIP3   OH230706   0.204   1.964   1.387  0.0945  0.1856  0.1622
 3024TIP3    H130707   0.221   1.925   1.473  1.1223 -0.4909 -0.3253
 3024TIP3    H230708   0.118   1.931   1.362 -0.5599  0.9975  1.2453
 3025TIP3   OH230709   0.728   0.438   7.078 -0.3038  0.6155 -0.4713
 3025TIP3    H130710   0.809   0.408   7.119  0.9381  2.7233 -1.1974
 3025TIP3    H230711   0.736   0.411   6.987 -2.0545 -2.1374  0.0887
 3026TIP3   OH230712   4.520   3.435   0.372  0.9491  0.0554 -0.0500
 3026TIP3    H130713   4.477   3.501   0.317  1.5870  0.2820 -0.2827
 3026TIP3    H230714   4.448   3.396   0.422  0.3046 -0.3209 -1.2037
 3027TIP3   OH230715   0.238   3.466   0.645 -0.0335  0.3427  0.0647
 3027TIP3    H130716   0.197   3.535   0.593  0.2867  0.5511  0.0848
 3027TIP3    H230717   0.247   3.392   0.586 -2.5359 -0.5263  0.6479
 3028TIP3   OH230718   5.324   1.450   7.894 -0.1245  0.8640 -1.0729
 3028TIP3    H130719   5.374   1.426   7.972 -1.1736  0.8955 -0.3719
 3028TIP3    H230720   5.364   1.532   7.865 -0.3771  1.3937  0.0325
 3029TIP3   OH230721   1.176   6.585   1.971 -0.3393 -0.2386  0.1467
 3029TIP3    H130722   1.096   6.637   1.970 -0.8594 -1.0165  0.2633
 3029TIP3    H230723   1.244   6.646   1.999 -0.3117  1.2092 -2.7677
 3030TIP3   OH230724   0.610   2.515   1.613 -0.6168  0.0947 -0.2739
 3030TIP3    H130725   0.578   2.527   1.703 -0.6132  2.7786 -0.5490
 3030TIP3    H230726   0.698   2.480   1.624 -0.1414  1.5526  0.8409
 3031TIP3   OH230727   5.486   6.280   2.465  0.1012 -0.4384  0.3852
 3031TIP3    H130728   5.556   6.257   2.403  0.7197 -1.7423  1.5191
 3031TIP3    H230729   5.498   6.220   2.538 -2.7448 -1.3481  0.2469
 3032TIP3   OH230730   6.793   5.104   1.534 -0.2849  0.5639  0.4589
 3032TIP3    H130731   6.732   5.073   1.601  0.0835 -0.4279  0.3535
 3032TIP3    H230732   6.856   5.157   1.583  0.1596 -0.3971  0.9723
 3033TIP3   OH230733   1.994   2.425   2.920  0.2715  0.2677 -0.2162
 3033TIP3    H130734   1.913   2.374   2.920 -0.3372  1.0633  2.3674
 3033TIP3    H230735   1.968   2.511   2.886 -0.1575  0.7031  1.1449
 3034TIP3   OH230736   3.584   4.859   0.248 -0.6417  0.4404 -0.0302
 3034TIP3    H130737   3.514   4.918   0.277 -0.3032  0.8712 -0.0658
 3034TIP3    H230738   3.664   4.909   0.264 -0.2997 -0.3036  0.6253
 3035TIP3   OH230739   5.818   5.500   3.041 -0.9418  0.2642  0.7740
 3035TIP3    H130740   5.827   5.536   2.953 -1.4189  1.6277  1.2553
 3035TIP3    H230741   5.841   5.572   3.099  1.9311 -1.2900  1.8109
 3036TIP3   OH230742   3.091   5.467   1.941 -0.4204  0.0032 -0.2209
 3036TIP3    H130743   3.046   5.410   1.880 -0.6180 -0.4980  0.3842
 3036TIP3    H230744   3.049   5.552   1.930  0.8485  0.4483 -2.1981
 3037TIP3   OH230745   4.346   3.281   1.182  0.0535  0.0042  0.1969
 3037TIP3    H130746   4.263   3.254   1.222 -0.9455  2.0011 -0.3966
 3037TIP3    H230747   4.407   3.284   1.256 -0.3364 -1.5489  0.6407
 3038TIP3   OH230748   0.404   1.195   7.016  0.5216  0.1753  0.4219
 3038TIP3    H130749   0.467   1.135   7.057  0.5253 -0.4835 -0.5205
 3038TIP3    H230750   0.428   1.281   7.049  0.3461 -0.3519  2.0267
 3039TIP3   OH230751   4.143   4.869   1.979 -0.3326 -0.4065  0.5500
 3039TIP3    H130752   4.171   4.779   1.959  0.0419  0.0059 -0.9419
 3039TIP3    H230753   4.211   4.903   2.037  0.5901 -0.4732 -0.4536
 3040TIP3   OH230754   0.096   0.511   0.830  0.0391 -0.4914 -0.6847
 3040TIP3    H130755   0.018   0.538   0.781 -0.1124 -1.0517 -0.7578
 3040TIP3    H230756   0.116   0.424   0.797  1.0446 -0.1237 -1.0777
 3041TIP3   OH230757   0.643   5.620   8.234  0.6399  0.0956 -0.4683
 3041TIP3    H130758   0.726   5.647   8.194  1.6848  0.1645  1.5533
 3041TIP3    H230759   0.669   5.551   8.296 -0.5659  1.1136  1.2438
 3042TIP3   OH230760   2.493   0.250   1.528 -0.0360 -0.8193 -0.1033
 3042TIP3    H130761   2.407   0.236   1.568  0.4225 -2.8121  0.3011
 3042TIP3    H230762   2.475   0.310   1.455 -1.5199 -0.1425  0.7576
 3043TIP3   OH230763   6.728   1.958   7.485  0.1086  0.1773 -0.1332
 3043TIP3    H130764   6.659   2.021   7.465  1.3207  1.0985 -1.6310
 3043TIP3    H230765   6.804   2.012   7.507  0.4062 -0.8208  1.4577
 3044TIP3   OH230766   0.551   2.476   7.794 -0.7847  0.6002  0.0573
 3044TIP3    H130767   0.647   2.476   7.797 -0.7072  0.6127 -1.5370
 3044TIP3    H230768   0.526   2.553   7.845  0.0877  0.9855 -0.0705
 3045TIP3   OH230769   5.889   5.165   2.138 -0.3032  0.1104 -0.0386
 3045TIP3    H130770   5.922   5.246   2.177  0.7012 -0.2160 -0.1771
 3045TIP3    H230771   5.958   5.138   2.077  0.4804 -2.0677  1.6733
 3046TIP3   OH230772   1.698   3.698   0.792  0.4343 -0.3786  0.1495
 3046TIP3    H130773   1.660   3.611   0.801 -0.5397  0.1072  0.9196
 3046TIP3    H230774   1.671   3.745   0.871  1.9924  0.2461  0.3430
 3047TIP3   OH230775   1.408   1.267   7.093 -0.3705  0.3447  0.3031
 3047TIP3    H130776   1.333   1.326   7.097 -0.1067  0.6748  0.5698
 3047TIP3    H230777   1.483   1.324   7.111 -0.1461 -0.1437  0.9403
 3048TIP3   OH230778   0.250   1.555   7.564  0.6516 -0.0687  0.1790
 3048TIP3    H130779   0.252   1.467   7.525 -0.6475 -0.4101  0.8057
 3048TIP3    H230780   0.263   1.614   7.490  1.5564 -0.7780 -0.2531
 3049TIP3   OH230781   1.360   3.950   7.537 -0.3732 -0.3279 -0.3764
 3049TIP3    H130782   1.433   4.006   7.563  0.1797 -1.4946  0.7401
 3049TIP3    H230783   1.301   4.007   7.488  0.2767  1.1586  0.5063
 3050TIP3   OH230784   1.406   3.404   1.206 -0.3134 -0.5182  0.1258
 3050TIP3    H130785   1.420   3.351   1.284  1.0805 -1.3815 -0.6560
 3050TIP3    H230786   1.421   3.344   1.133 -2.2328  0.0929 -0.8532
 3051TIP3   OH230787   1.002   0.675   0.396 -0.4155 -0.2788 -0.1164
 3051TIP3    H130788   1.076   0.731   0.421 -1.1482 -0.1700  2.0008
 3051TIP3    H230789   0.955   0.727   0.331  0.9086 -0.0259 -0.9209
 3052TIP3   OH230790   5.893   2.836   0.831  0.0003  0.0333  0.1935
 3052TIP3    H130791   5.963   2.901   0.825  0.9345 -0.8842  0.7905
 3052TIP3    H230792   5.931   2.756   0.794 -1.2677 -0.0890 -0.9277
 3053TIP3   OH230793   0.464   3.882   7.974  0.2519 -0.3055  0.1159
 3053TIP3    H130794   0.394   3.887   8.039  1.3180 -0.2560  1.2754
 3053TIP3    H230795   0.423   3.915   7.893 -1.8104 -2.6099  0.0921
 3054TIP3   OH230796   3.594   5.051   0.463 -0.1978  0.8177 -0.0449
 3054TIP3    H130797   3.645   5.119   0.419  0.2564  0.5461  0.0622
 3054TIP3    H230798   3.562   5.094   0.542  0.7530  0.6818  0.4271
 3055TIP3   OH230799   6.496   0.494   7.532 -0.5160  0.2234 -0.6865
 3055TIP3    H130800   6.482   0.587   7.513  1.4737  0.7285  0.0557
 3055TIP3    H230801   6.480   0.487   7.626 -0.4181 -0.1330 -0.6985
 3056TIP3   OH230802   5.743   1.024   0.178  0.0730 -0.7354 -0.0930
 3056TIP3    H130803   5.660   1.000   0.138  0.2195 -2.7119  0.6662
 3056TIP3    H230804   5.809   0.996   0.115  0.1913  0.7357 -0.6484
 3057TIP3   OH230805   4.042   3.666   8.381  0.3476  0.4428  0.1190
 3057TIP3    H130806   4.068   3.579   8.352 -1.6457  0.1495 -1.0154
 3057TIP3    H230807   4.067   3.724   8.309  1.8351  0.8893  0.9455
 3058TIP3   OH230808   3.704   2.977   2.388 -0.4578 -0.0553  0.0252
 3058TIP3    H130809   3.623   3.026   2.374 -0.3446  0.3344  0.7340
 3058TIP3    H230810   3.772   3.030   2.346 -0.4879 -0.1210 -0.1077
 3059TIP3   OH230811   4.325   3.514   3.097 -0.2746 -0.5363  0.0940
 3059TIP3    H130812   4.413   3.483   3.075 -0.5883 -0.9618 -0.6091
 3059TIP3    H230813   4.278   3.435   3.122 -1.1835 -0.7357 -2.0458
 3060TIP3   OH230814   6.398   2.804   7.946  0.2713  0.3071 -0.2708
 3060TIP3    H130815   6.413   2.888   7.902 -0.6644 -1.1384 -3.7283
 3060TIP3    H230816   6.312   2.775   7.915 -0.0345 -1.3535  1.8701
 3061TIP3   OH230817   4.522   5.040   0.533  0.3300 -0.0704  0.0989
 3061TIP3    H130818   4.447   5.062   0.589 -0.0505 -0.9497 -0.0516
 3061TIP3    H230819   4.537   4.947   0.549  0.9731 -0.0542 -0.3804
 3062TIP3   OH230820   2.535   4.285   2.450  0.0737 -0.6690 -0.0097
 3062TIP3    H130821   2.589   4.341   2.506  1.3288 -1.9478  0.1018
 3062TIP3    H230822   2.593   4.259   2.379 -0.6729 -1.3433 -0.3865
 3063TIP3   OH230823   3.722   5.700   2.579  0.1429 -0.0667 -0.2474
 3063TIP3    H130824   3.728   5.605   2.564  1.3200 -0.1197  0.4762
 3063TIP3    H230825   3.796   5.720   2.636 -0.1060  1.2975 -0.3815
 3064TIP3   OH230826   2.294   2.025   8.414  0.2244 -0.1928  0.1071
 3064TIP3    H130827   2.246   1.999   8.493  1.3842 -2.5786  0.1381
 3064TIP3    H230828   2.226   2.044   8.350 -0.7715 -1.3571  0.7747
 3065TIP3   OH230829   6.831   2.074   0.552 -0.3763 -0.6617 -0.1403
 3065TIP3    H130830   6.838   2.052   0.459 -2.0749 -0.6630 -0.3002
 3065TIP3    H230831   6.806   1.992   0.594 -2.5773 -0.0644 -0.1456
 3066TIP3   OH230832   6.409   1.685   7.541 -0.2393 -0.5898 -0.0997
 3066TIP3    H130833   6.415   1.708   7.634 -0.0727 -1.3953  0.0945
 3066TIP3    H230834   6.425   1.591   7.539 -0.5258 -0.6222 -0.9204
 3067TIP3   OH230835   2.103   1.763   1.987 -0.1434  0.0290 -0.0410
 3067TIP3    H130836   2.102   1.848   2.031  1.8668 -0.4691  1.0438
 3067TIP3    H230837   2.193   1.751   1.959 -0.6324 -1.2740 -1.1816
 3068TIP3   OH230838   1.429   0.946   2.090  0.2914  0.3129 -0.1626
 3068TIP3    H130839   1.376   0.930   2.012 -0.0582  0.0002  0.1351
 3068TIP3    H230840   1.392   0.888   2.157  1.4878 -0.4873 -0.1657
 3069TIP3   OH230841   0.144   0.429   1.379  0.5506 -0.2339  0.5500
 3069TIP3    H130842   0.125   0.432   1.286  0.8824  0.3244  0.4944
 3069TIP3    H230843   0.096   0.502   1.417  1.9491  0.7500  0.5120
 3070TIP3   OH230844   2.839   1.977   1.104 -0.3699 -0.3402 -0.3587
 3070TIP3    H130845   2.808   1.956   1.192 -1.1801 -0.0646 -0.5707
 3070TIP3    H230846   2.911   2.039   1.118 -1.3168  0.6973  0.0835
 3071TIP3   OH230847   5.854   6.181   7.999  0.5346  0.4623  0.2379
 3071TIP3    H130848   5.769   6.141   7.979 -0.8119  2.9302  0.5652
 3071TIP3    H230849   5.891   6.203   7.914  1.7305 -2.1303 -0.0020
 3072TIP3   OH230850   2.864   5.971   8.643  0.6312 -0.2157 -0.2629
 3072TIP3    H130851   2.836   5.982   8.552 -0.0839  0.4986  0.0257
 3072TIP3    H230852   2.887   5.878   8.650  1.4659 -0.1203 -1.3705
 3073TIP3   OH230853   3.878   5.260   7.372  0.7378  0.3828  0.0888
 3073TIP3    H130854   3.886   5.338   7.318  0.7839  0.2340 -0.1224
 3073TIP3    H230855   3.785   5.257   7.396  0.5161 -0.0620 -0.7716
 3074TIP3   OH230856   2.487   3.793   1.349  0.0249 -0.1388 -0.5146
 3074TIP3    H130857   2.424   3.765   1.415  1.5319  1.4350  1.7228
 3074TIP3    H230858   2.449   3.874   1.313  0.0803  0.0472 -0.1652
 3075TIP3   OH230859   2.357   0.714   0.428 -0.0388  0.5838 -0.2256
 3075TIP3    H130860   2.320   0.760   0.353 -0.8302 -1.1144 -0.9309
 3075TIP3    H230861   2.419   0.652   0.390 -1.0575 -0.8818  0.4015
 3076TIP3   OH230862   5.600   1.589   2.061 -0.1290  0.4543  0.1056
 3076TIP3    H130863   5.545   1.667   2.066 -1.9424 -0.6974 -0.7883
 3076TIP3    H230864   5.593   1.561   1.970 -1.1075 -1.7942  0.7965
 3077TIP3   OH230865   6.304   4.449   0.713  0.0168  0.2060 -0.1751
 3077TIP3    H130866   6.313   4.391   0.788  0.6968  0.5375  0.0144
 3077TIP3    H230867   6.239   4.407   0.657  1.9068 -1.7712 -1.0133
 3078TIP3   OH230868   0.754   6.779   1.404  0.4460  0.7831 -0.1553
 3078TIP3    H130869   0.667   6.784   1.444  0.3139  0.5957 -0.4212
 3078TIP3    H230870   0.805   6.724   1.464  0.1403  0.1915 -0.4355
 3079TIP3   OH230871   5.535   2.326   1.276  0.0133  0.3193  0.5690
 3079TIP3    H130872   5.574   2.309   1.361  1.5920  1.2518  0.0744
 3079TIP3    H230873   5.540   2.421   1.265  0.3985  0.1703 -0.7995
 3080TIP3   OH230874   3.452   2.555   1.876  0.4565  0.0932  0.1223
 3080TIP3    H130875   3.404   2.626   1.833  0.4588 -0.9355 -1.6798
 3080TIP3    H230876   3.482   2.500   1.804  1.3709 -1.1639  1.4214
 3081TIP3   OH230877   5.451   1.710   1.169 -0.4624  0.1762  0.2375
 3081TIP3    H130878   5.535   1.745   1.140  0.1149 -0.6308  0.9113
 3081TIP3    H230879   5.421   1.656   1.095  0.8168 -1.5601  0.9159
 3082TIP3   OH230880   2.524   2.056   0.322  0.7902 -0.3449 -0.0345
 3082TIP3    H130881   2.492   1.988   0.381  1.2558 -0.5011  0.0347
 3082TIP3    H230882   2.602   2.091   0.364 -0.6395  1.7655  1.0299
 3083TIP3   OH230883   0.365   5.276   0.331  0.1636  0.5427 -0.2240
 3083TIP3    H130884   0.430   5.345   0.324  1.5290 -0.4002  2.0093
 3083TIP3    H230885   0.405   5.211   0.388 -2.1265 -0.8411 -0.0637
 3084TIP3   OH230886   4.334   3.339   1.895  0.0039 -0.0751  0.0819
 3084TIP3    H130887   4.407   3.357   1.836  1.0330  2.3029  1.8826
 3084TIP3    H230888   4.371   3.282   1.963 -1.0987 -2.5806 -1.2982
 3085TIP3   OH230889   6.205   4.462   7.598 -0.5616  0.8549 -0.6340
 3085TIP3    H130890   6.234   4.527   7.535 -1.4878  0.4137 -1.5482
 3085TIP3    H230891   6.122   4.430   7.563 -1.5184  1.1684  1.2295
 3086TIP3   OH230892   4.443   4.247   1.795 -0.0786 -0.2425 -0.4768
 3086TIP3    H130893   4.425   4.328   1.748 -1.9902  0.2951  1.0309
 3086TIP3    H230894   4.517   4.268   1.852  0.0863  0.1224 -0.8197
 3087TIP3   OH230895   3.850   0.386   1.497  0.1652  0.2142  0.2816
 3087TIP3    H130896   3.886   0.408   1.584  1.0018 -1.2310  0.3197
 3087TIP3    H230897   3.927   0.378   1.441 -0.2888 -0.2350 -0.2793
 3088TIP3   OH230898   6.490   3.721   1.349 -0.1510  0.2889  0.0707
 3088TIP3    H130899   6.447   3.663   1.412  1.6430  0.4544  1.5230
 3088TIP3    H230900   6.420   3.780   1.320 -1.0870  0.1355  1.8292
 3089TIP3   OH230901   5.283   6.446   2.319 -0.3828  0.2476 -0.9907
 3089TIP3    H130902   5.263   6.447   2.413 -1.7001 -0.0774 -1.2492
 3089TIP3    H230903   5.267   6.356   2.292  2.9756 -0.4691 -0.9666
 3090TIP3   OH230904   4.725   6.855   1.591  0.0139 -0.0161 -0.3582
 3090TIP3    H130905   4.765   6.926   1.641  1.1492  0.2344 -1.5635
 3090TIP3    H230906   4.638   6.887   1.567  0.3551  0.8006 -0.5208
 3091TIP3   OH230907   0.036   4.484   7.659  0.3626 -0.3110 -0.0571
 3091TIP3    H130908   0.026   4.491   7.753 -1.0937  1.4838 -0.2973
 3091TIP3    H230909  -0.017   4.408   7.634  3.1480 -2.7223  0.8133
 3092TIP3   OH230910   6.561   3.881   1.652  0.6988  0.0076 -0.6419
 3092TIP3    H130911   6.591   3.806   1.601  2.9422 -0.6292  1.4047
 3092TIP3    H230912   6.509   3.842   1.723  1.1384  0.4587 -0.0639
 3093TIP3   OH230913   2.623   2.579   1.199  0.0525  0.1068 -0.0716
 3093TIP3    H130914   2.617   2.585   1.294  2.4397  0.6151  0.1141
 3093TIP3    H230915   2.697   2.520   1.183  1.1895  1.8199 -1.5443
 3094TIP3   OH230916   2.025   2.089   1.372 -0.4922  0.4334 -0.4489
 3094TIP3    H130917   2.111   2.084   1.330  0.2467 -1.7919  1.1312
 3094TIP3    H230918   1.967   2.126   1.305  1.3962  0.6513 -2.0389
 3095TIP3   OH230919   1.420   2.134   2.397  0.0610 -0.1771  1.1821
 3095TIP3    H130920   1.455   2.221   2.381 -0.1465 -0.2027  0.5614
 3095TIP3    H230921   1.325   2.144   2.384  0.0535 -0.5265  0.9590
 3096TIP3   OH230922   4.190   4.091   1.832  0.4158  0.2111 -0.5468
 3096TIP3    H130923   4.270   4.143   1.833  1.3684 -1.1662  0.7468
 3096TIP3    H230924   4.217   4.006   1.796  0.1350 -1.0362  1.9433
 3097TIP3   OH230925   2.014   4.946   1.198 -0.1234 -0.2264  0.0474
 3097TIP3    H130926   2.064   4.866   1.181  0.1221 -0.6683  2.4359
 3097TIP3    H230927   2.023   4.960   1.292 -0.0196  2.7487 -0.3242
 3098TIP3   OH230928   5.470   6.390   0.705  0.6196  0.2267  0.2576
 3098TIP3    H130929   5.492   6.480   0.681  1.4974  0.0465  0.3362
 3098TIP3    H230930   5.410   6.398   0.779 -1.1737  0.7651 -1.1934
 3099TIP3   OH230931   4.862   3.375   2.156 -0.9688 -0.1788 -0.1287
 3099TIP3    H130932   4.934   3.405   2.210 -1.8537 -0.2511  1.1346
 3099TIP3    H230933   4.881   3.410   2.069  0.3654  0.1368  0.2655
 3100TIP3   OH230934   6.740   1.022   7.866  0.4731 -0.2567 -0.0029
 3100TIP3    H130935   6.693   1.052   7.789 -0.1407  1.2016  0.9054
 3100TIP3    H230936   6.676   0.972   7.916  0.7681 -0.8866 -0.2409
 3101TIP3   OH230937   6.722   2.460   1.396 -0.3293  0.1240 -0.5106
 3101TIP3    H130938   6.787   2.458   1.325 -0.8895 -1.2889 -1.0130
 3101TIP3    H230939   6.774   2.465   1.476  0.3596  0.2948 -0.9538
 3102TIP3   OH230940   1.484   3.637   1.735 -0.1037 -0.3957  0.3931
 3102TIP3    H130941   1.405   3.666   1.780  0.2585  0.4557  0.4983
 3102TIP3    H230942   1.496   3.700   1.663 -0.0899 -1.1227 -0.2544
 3103TIP3   OH230943   3.728   4.183   2.685  0.2342  0.2201 -0.4405
 3103TIP3    H130944   3.639   4.172   2.652 -0.1713  1.4413  0.1953
 3103TIP3    H230945   3.753   4.096   2.716 -1.0475  0.0227  0.1023
 3104TIP3   OH230946   2.152   3.078   8.636 -0.1603 -0.4378  0.2084
 3104TIP3    H130947   2.211   3.018   8.681  0.0720  0.1399  0.6782
 3104TIP3    H230948   2.107   3.023   8.572 -0.7601 -1.3412  1.3810
 3105TIP3   OH230949   3.513   6.065   8.642 -0.2225 -0.0918 -0.8087
 3105TIP3    H130950   3.517   6.069   8.547  2.2553  2.3589 -0.7138
 3105TIP3    H230951   3.446   6.129   8.665 -0.0576  0.1078 -0.8804
 3106TIP3   OH230952   1.557   5.068   0.471  0.5542 -1.1620 -0.2935
 3106TIP3    H130953   1.587   5.022   0.392 -0.7798 -0.3148 -1.3514
 3106TIP3    H230954   1.541   4.998   0.535 -1.0416 -2.1909 -1.7215
 3107TIP3   OH230955   2.932   6.650   2.258 -0.2844 -0.7096 -0.5565
 3107TIP3    H130956   2.879   6.694   2.192 -1.4068 -1.3934 -0.1506
 3107TIP3    H230957   2.970   6.721   2.310 -0.4564 -0.1939 -1.1289
 3108TIP3   OH230958   6.353   6.230   2.771  0.5850  0.3265  0.1499
 3108TIP3    H130959   6.331   6.287   2.845  0.8627 -0.6220  0.9833
 3108TIP3    H230960   6.440   6.196   2.792  0.6269 -0.0316 -0.5716
 3109TIP3   OH230961   4.296   6.109   8.341  0.2763  0.5104  0.6115
 3109TIP3    H130962   4.376   6.066   8.369 -0.5861 -1.0485  0.7700
 3109TIP3    H230963   4.234   6.093   8.413 -1.1434 -1.1736 -0.8945
 3110TIP3   OH230964   1.309   1.641   0.849  0.2259  0.3759 -0.3709
 3110TIP3    H130965   1.295   1.557   0.804 -0.8001  0.7484 -0.7759
 3110TIP3    H230966   1.371   1.688   0.793 -1.0739  0.8525 -1.4542
 3111TIP3   OH230967   2.119   1.741   0.366  0.1413  0.1219  0.2333
 3111TIP3    H130968   2.038   1.787   0.385 -0.1296  0.2059 -1.0567
 3111TIP3    H230969   2.156   1.787   0.291  0.3032 -1.2054 -0.5342
 3112TIP3   OH230970   6.151   1.630   1.554 -0.5387  0.1438  0.3903
 3112TIP3    H130971   6.221   1.667   1.608 -0.4863  0.1817  0.2954
 3112TIP3    H230972   6.112   1.563   1.609  0.4662 -0.8348 -0.0678
 3113TIP3   OH230973   4.490   5.724   8.356 -0.2347  0.0242 -0.0240
 3113TIP3    H130974   4.528   5.697   8.440  0.6246 -0.0670 -0.4313
 3113TIP3    H230975   4.519   5.657   8.294 -2.0992 -0.7494 -0.1314
 3114TIP3   OH230976   6.383   4.608   8.301 -0.6627  0.3512 -0.4716
 3114TIP3    H130977   6.321   4.624   8.230 -0.7786 -0.1399 -0.4860
 3114TIP3    H230978   6.405   4.515   8.294  0.7507  0.7045 -1.0046
 3115TIP3   OH230979   0.389   5.922   2.161 -0.2698  0.2612  0.7821
 3115TIP3    H130980   0.447   5.996   2.142  1.0690 -0.6402  1.2060
 3115TIP3    H230981   0.371   5.883   2.076  0.5633 -0.0299  0.7303
 3116TIP3   OH230982   4.290   6.581   1.750  0.3843 -0.3700 -0.2678
 3116TIP3    H130983   4.265   6.655   1.695  0.5677 -1.5196 -1.9524
 3116TIP3    H230984   4.347   6.620   1.816 -1.2586  1.3490  0.2640
 3117TIP3   OH230985   6.135   5.480   0.155  0.1061  0.0960  0.4567
 3117TIP3    H130986   6.152   5.427   0.078 -1.0738  0.8425 -0.3482
 3117TIP3    H230987   6.077   5.549   0.125  0.9407  1.3868  1.6491
 3118TIP3   OH230988   2.407   6.665   2.896 -0.3279  0.6195  0.1458
 3118TIP3    H130989   2.341   6.708   2.842 -0.7519  1.5376  1.3388
 3118TIP3    H230990   2.457   6.737   2.934 -1.0325  0.0979  2.1758
 3119TIP3   OH230991   2.769   5.470   7.425 -0.2624 -0.6422 -0.3952
 3119TIP3    H130992   2.839   5.467   7.490 -0.6013  1.4584  0.1307
 3119TIP3    H230993   2.732   5.382   7.426  0.6222 -1.0421  1.2690
 3120TIP3   OH230994   2.837   1.005   7.605 -0.0345 -0.6140 -0.3000
 3120TIP3    H130995   2.816   1.014   7.513  1.0024  0.1932 -0.4754
 3120TIP3    H230996   2.787   0.928   7.634  0.4551 -1.5177 -1.7725
 3121TIP3   OH230997   5.839   2.009   8.029  0.1628 -0.4560 -0.0128
 3121TIP3    H130998   5.781   2.081   8.053 -0.1261 -0.6977  0.0221
 3121TIP3    H230999   5.915   2.019   8.087 -0.8097 -1.4117  1.5183
 3122TIP3   OH231000   0.628   3.872   0.128  0.2556  0.1320  0.1999
 3122TIP3    H131001   0.597   3.792   0.084  1.1713 -1.2625  1.9688
 3122TIP3    H231002   0.548   3.920   0.151 -0.2882  0.1558 -1.5537
 3123TIP3   OH231003   2.862   3.916   7.294  0.2009 -0.1915  0.4945
 3123TIP3    H131004   2.851   3.901   7.388 -1.6411 -1.7026  0.0965
 3123TIP3    H231005   2.940   3.866   7.271 -0.1731 -1.0310  0.9840
 3124TIP3   OH231006   6.140   4.164   2.865  0.1015 -0.0432  0.0486
 3124TIP3    H131007   6.063   4.198   2.820  0.4140  0.7228  0.0674
 3124TIP3    H231008   6.106   4.122   2.943 -0.2850  0.5114  0.1861
 3125TIP3   OH231009   4.065   5.874   1.924 -0.3238  0.3113  0.2623
 3125TIP3    H131010   4.023   5.812   1.865  0.1572 -0.8194  1.0822
 3125TIP3    H231011   4.143   5.904   1.877 -0.3321 -0.0304  0.0350
 3126TIP3   OH231012   2.002   2.809   2.434  0.0888 -0.0399 -0.6076
 3126TIP3    H131013   2.023   2.773   2.520  1.3209 -2.2688 -1.7447
 3126TIP3    H231014   1.952   2.739   2.391 -1.5105  1.4762 -1.3521
 3127TIP3   OH231015   0.241   5.672   8.226  0.2402  0.3015  0.3304
 3127TIP3    H131016   0.270   5.645   8.139  1.8176 -0.2274  0.9878
 3127TIP3    H231017   0.153   5.707   8.212  0.0187 -0.7920 -1.3067
 3128TIP3   OH231018   2.313   2.834   1.154  0.3372 -0.5045  0.4587
 3128TIP3    H131019   2.313   2.787   1.071 -2.8186  0.1319 -0.0269
 3128TIP3    H231020   2.323   2.766   1.220  2.6994 -1.0374 -0.3468
 3129TIP3   OH231021   2.631   4.584   0.645  0.6415 -0.4991 -0.0782
 3129TIP3    H131022   2.638   4.510   0.585  0.2792  0.8873 -1.9115
 3129TIP3    H231023   2.685   4.652   0.606 -0.5523  0.8428  0.5113
 3130TIP3   OH231024   3.896   2.695   1.200  0.3276 -0.2125 -0.2855
 3130TIP3    H131025   3.915   2.651   1.283 -0.5202 -1.1728 -0.5697
 3130TIP3    H231026   3.905   2.627   1.134  0.0543  0.3056 -0.8712
 3131TIP3   OH231027   2.468   2.063   0.777 -0.3458  0.2935  0.0868
 3131TIP3    H131028   2.531   2.108   0.834  1.2035  0.0658 -1.3716
 3131TIP3    H231029   2.405   2.132   0.753  0.7782  1.1940 -0.4030
 3132TIP3   OH231030   2.967   0.490   0.734 -0.3538  0.4245 -0.1302
 3132TIP3    H131031   2.929   0.574   0.759 -1.3914  0.2193 -0.9664
 3132TIP3    H231032   3.052   0.488   0.779 -0.0120  2.1912 -0.6056
 3133TIP3   OH231033   5.836   0.874   7.502 -0.8092  0.5523  0.3814
 3133TIP3    H131034   5.825   0.872   7.597  1.1016  0.0617  0.6353
 3133TIP3    H231035   5.930   0.869   7.489 -1.0550  0.2825 -1.5712
 3134TIP3   OH231036   0.373   5.358   0.680  0.3487  0.1905 -0.1713
 3134TIP3    H131037   0.346   5.267   0.666 -1.9483  0.7049  0.4524
 3134TIP3    H231038   0.347   5.403   0.599  2.5081  0.1344 -0.9421
 3135TIP3   OH231039   0.905   2.442   0.119  0.2639  0.2566  0.5405
 3135TIP3    H131040   0.815   2.469   0.133  0.4182  1.0729  0.0034
 3135TIP3    H231041   0.956   2.522   0.127  0.8397 -0.0361 -0.0546
 3136TIP3   OH231042   6.318   5.622   0.382 -0.3410 -0.5096  0.0834
 3136TIP3    H131043   6.223   5.632   0.389 -0.2578  2.2324 -1.2156
 3136TIP3    H231044   6.352   5.671   0.457  0.1032 -1.9088  0.8361
 3137TIP3   OH231045   5.192   2.140   8.004 -0.2679 -0.2555 -0.1285
 3137TIP3    H131046   5.158   2.203   7.940  0.5644  2.0370  1.5392
 3137TIP3    H231047   5.188   2.187   8.087  1.0785 -2.1846  1.0873
 3138TIP3   OH231048   3.760   6.545   2.533  0.3143 -0.3534  0.3169
 3138TIP3    H131049   3.697   6.512   2.469  1.3106 -0.8842 -0.4168
 3138TIP3    H231050   3.753   6.483   2.606 -0.1615 -0.2877  0.3301
 3139TIP3   OH231051   5.774   4.558   0.953 -0.7381  0.0772 -0.0761
 3139TIP3    H131052   5.868   4.560   0.939 -0.5981  2.0190  0.8788
 3139TIP3    H231053   5.762   4.493   1.022 -0.0616  0.0415  0.0152
 3140TIP3   OH231054   6.694   5.906   2.136  0.0277  0.6044  0.1745
 3140TIP3    H131055   6.609   5.931   2.172 -0.9324 -3.2441  1.0465
 3140TIP3    H231056   6.683   5.916   2.041 -1.6156 -0.2515  0.2299
 3141TIP3   OH231057   6.319   3.898   2.053 -0.1411  0.6534  0.1025
 3141TIP3    H131058   6.292   3.839   2.122 -1.1919  0.1836 -0.6834
 3141TIP3    H231059   6.245   3.902   1.993 -0.0223  2.6058  0.0030
 3142TIP3   OH231060   4.260   2.938   8.021 -0.5909 -0.3505 -0.2662
 3142TIP3    H131061   4.302   2.909   7.941 -1.0949  0.1793 -0.7308
 3142TIP3    H231062   4.205   2.865   8.049  1.5419 -1.5594  1.0419
 3143TIP3   OH231063   0.382   0.138   1.213 -0.3137 -0.8529  0.2543
 3143TIP3    H131064   0.347   0.127   1.301  0.4186 -2.8875  0.3443
 3143TIP3    H231065   0.471   0.101   1.217 -0.0715 -0.5086 -1.2020
 3144TIP3   OH231066   2.030   2.751   0.687 -0.5624 -0.1086 -0.2113
 3144TIP3    H131067   2.029   2.806   0.766 -0.3035 -0.0711 -0.2352
 3144TIP3    H231068   1.945   2.768   0.646 -0.6620 -0.0589  0.0104
 3145TIP3   OH231069   5.318   3.455   0.503 -0.2290  0.1633  0.2994
 3145TIP3    H131070   5.340   3.363   0.519 -1.4289  0.2606  2.9978
 3145TIP3    H231071   5.240   3.471   0.556 -0.6688  2.5044 -0.9089
 3146TIP3   OH231072   0.410   0.411   8.510  0.4350  0.1834 -0.5501
 3146TIP3    H131073   0.417   0.502   8.482 -0.2741  0.3346 -0.2730
 3146TIP3    H231074   0.357   0.415   8.589 -1.8591 -0.6989 -1.9411
 3147TIP3   OH231075   2.824   4.115   1.351 -0.5004  0.2259 -0.6979
 3147TIP3    H131076   2.860   4.114   1.439  0.3662  1.0542 -1.0289
 3147TIP3    H231077   2.744   4.168   1.358 -3.1235 -3.4807  0.5299
 3148TIP3   OH231078   4.532   1.864   8.250  0.1193  0.4644 -0.0288
 3148TIP3    H131079   4.584   1.927   8.200  0.4378  0.1784 -0.0561
 3148TIP3    H231080   4.443   1.874   8.215  0.0998  1.1386  0.1988
 3149TIP3   OH231081   0.221   5.633   7.653  0.0739  0.1400 -0.0971
 3149TIP3    H131082   0.226   5.708   7.713  0.2468  0.3317 -0.3499
 3149TIP3    H231083   0.172   5.567   7.702  1.8745 -0.4468  1.0188
 3150TIP3   OH231084   1.787   5.865   1.365 -0.2225 -0.5856  0.3192
 3150TIP3    H131085   1.788   5.959   1.348 -1.3174 -0.4525  0.9643
 3150TIP3    H231086   1.788   5.825   1.278 -2.8433  0.0702 -0.0906
 3151TIP3   OH231087   0.603   6.458   1.042 -0.3862  0.4002  0.1906
 3151TIP3    H131088   0.680   6.441   1.097  0.0076  1.0201 -0.1476
 3151TIP3    H231089   0.641   6.484   0.957 -0.9531 -2.1635 -0.9293
 3152TIP3   OH231090   6.131   2.712   1.489  0.3844 -0.0303  0.3036
 3152TIP3    H131091   6.195   2.760   1.541  0.1769  0.7347 -0.1434
 3152TIP3    H231092   6.183   2.649   1.439  0.8933  1.1658 -0.7074
 3153TIP3   OH231093   5.809   3.916   0.648 -0.2098 -0.6288  0.1993
 3153TIP3    H131094   5.837   3.947   0.562 -0.2500 -1.7870 -0.2547
 3153TIP3    H231095   5.713   3.917   0.644 -0.2269  0.2669  0.6010
 3154TIP3   OH231096   6.718   3.680   1.227 -0.5723  0.3555  0.1672
 3154TIP3    H131097   6.633   3.686   1.270 -1.3768 -0.4770 -1.2366
 3154TIP3    H231098   6.765   3.759   1.255 -2.4488  1.7250 -0.3637
 3155TIP3   OH231099   3.015   6.090   7.122 -0.3812 -0.0562  0.0216
 3155TIP3    H131100   2.934   6.042   7.110  0.1150 -0.6416 -1.1839
 3155TIP3    H231101   3.014   6.157   7.053  0.8599 -1.0910 -1.0612
 3156TIP3   OH231102   1.396   5.619   8.423  0.6286  0.4392 -0.8433
 3156TIP3    H131103   1.378   5.525   8.431 -2.0793  1.0016  1.5512
 3156TIP3    H231104   1.380   5.654   8.511 -1.9307  3.5951 -2.3473
 3157TIP3   OH231105   4.119   1.749   0.461  0.4299  0.1078  0.3508
 3157TIP3    H131106   4.177   1.702   0.400  0.7596 -1.3979  1.7619
 3157TIP3    H231107   4.078   1.817   0.407  1.4651 -0.5205 -1.3095
 3158TIP3   OH231108   3.360   0.947   1.731 -0.0389  0.5050 -0.2934
 3158TIP3    H131109   3.420   0.978   1.662  0.1547  1.5047  0.3048
 3158TIP3    H231110   3.273   0.959   1.694  0.0931 -0.0130 -0.7860
 3159TIP3   OH231111   5.855   2.886   2.257  0.2908  0.0820  0.2061
 3159TIP3    H131112   5.868   2.906   2.349  1.1325 -1.6821  0.5233
 3159TIP3    H231113   5.760   2.872   2.248  0.2705 -0.2738  0.9344
 3160TIP3   OH231114   3.665   5.437   2.654  0.1002  0.3802 -0.2836
 3160TIP3    H131115   3.698   5.479   2.734  0.9012  3.6834 -2.1550
 3160TIP3    H231116   3.569   5.441   2.664  0.1809  1.3509  0.2480
 3161TIP3   OH231117   6.614   0.831   1.596  0.0622  0.2797 -0.5209
 3161TIP3    H131118   6.535   0.822   1.543  1.7717 -1.9067 -2.9487
 3161TIP3    H231119   6.592   0.790   1.679 -1.3098 -0.4897 -1.2223
 3162TIP3   OH231120   3.814   5.311   7.697  0.0606  0.6296  0.0936
 3162TIP3    H131121   3.879   5.256   7.652  1.8640  1.8406  1.0789
 3162TIP3    H231122   3.826   5.289   7.790 -1.5457  0.3018  0.2520
 3163TIP3   OH231123   2.970   1.244   2.481 -0.5796  1.0259  0.0337
 3163TIP3    H131124   2.950   1.196   2.562 -0.3569  0.8922  0.0092
 3163TIP3    H231125   2.950   1.181   2.412  2.9368 -0.3214  0.0360
 3164TIP3   OH231126   3.923   3.581   2.086 -0.2076 -0.2064  0.1406
 3164TIP3    H131127   3.994   3.620   2.136  0.3379 -0.3583 -0.5001
 3164TIP3    H231128   3.860   3.652   2.073  0.1341  0.0972  0.1485
 3165TIP3   OH231129   5.776   0.836   0.399  0.4639 -0.2678 -0.2735
 3165TIP3    H131130   5.831   0.775   0.350 -0.5935 -0.7736 -0.8656
 3165TIP3    H231131   5.769   0.913   0.342 -1.2776 -1.0992 -1.2597
 3166TIP3   OH231132   0.070   6.030   1.813 -0.1966  0.0249 -0.2242
 3166TIP3    H131133   0.026   6.054   1.732  0.5986  0.0816 -0.6472
 3166TIP3    H231134   0.074   6.112   1.863 -1.1610 -0.1190  0.1181
 3167TIP3   OH231135   0.148   5.702   0.019  0.7026 -0.1407  0.2452
 3167TIP3    H131136   0.067   5.752   0.007  0.2871 -1.0141 -0.7406
 3167TIP3    H231137   0.216   5.758  -0.017  0.6099  0.7672  1.4263
 3168TIP3   OH231138   2.108   3.170   2.418  0.6071 -0.7160  0.5682
 3168TIP3    H131139   2.096   3.081   2.386  0.1747 -0.5831  0.3620
 3168TIP3    H231140   2.020   3.202   2.435  0.7874 -0.5233  1.1885
 3169TIP3   OH231141   4.364   0.803   8.154 -0.4332  0.0399 -0.8250
 3169TIP3    H131142   4.272   0.829   8.154 -0.5529 -0.3675 -0.3381
 3169TIP3    H231143   4.380   0.771   8.066 -0.4007  1.3359 -1.3139
 3170TIP3   OH231144   5.567   1.918   2.670  0.2172 -0.7678  0.4375
 3170TIP3    H131145   5.561   1.836   2.718  0.0948 -0.6602  0.6057
 3170TIP3    H231146   5.476   1.948   2.662  0.3628  0.0270  1.5443
 3171TIP3   OH231147   4.712   5.665   0.946  0.4589  0.2833  0.8664
 3171TIP3    H131148   4.719   5.759   0.961 -0.3613  0.6384 -0.7950
 3171TIP3    H231149   4.723   5.654   0.852 -0.2493 -1.2043  0.9262
 3172TIP3   OH231150   2.532   1.111   2.421  0.1077 -0.3440  0.2098
 3172TIP3    H131151   2.593   1.041   2.446  2.0140  0.8895 -0.6916
 3172TIP3    H231152   2.539   1.175   2.492  1.8460  0.9391 -1.0268
 3173TIP3   OH231153   6.104   0.844   7.476 -0.1443  0.1046 -0.2541
 3173TIP3    H131154   6.183   0.878   7.434 -0.7191  0.8839 -0.7320
 3173TIP3    H231155   6.129   0.835   7.568  0.4525  0.5145 -0.3665
 3174TIP3   OH231156   5.994   3.443   7.347  0.0198 -0.4261 -0.1298
 3174TIP3    H131157   6.056   3.378   7.315 -1.2718 -1.0097 -1.5645
 3174TIP3    H231158   6.008   3.520   7.291  1.6743  0.6888  1.6777
 3175TIP3   OH231159   0.486   6.752   1.462 -0.0349  0.2860  0.2190
 3175TIP3    H131160   0.441   6.676   1.499  0.5644 -0.5831 -0.7705
 3175TIP3    H231161   0.416   6.812   1.438 -0.5934 -0.4659 -0.0634
 3176TIP3   OH231162   4.342   0.880   1.242  0.4748 -0.4410  0.1234
 3176TIP3    H131163   4.381   0.859   1.327  1.4408 -0.9357 -0.4195
 3176TIP3    H231164   4.256   0.839   1.244  0.0556  0.4369  1.2536
 3177TIP3   OH231165   6.772   2.423   7.927 -0.2338 -0.5736  0.6460
 3177TIP3    H131166   6.832   2.465   7.989  1.7586 -0.5884 -1.1536
 3177TIP3    H231167   6.821   2.420   7.845 -2.1401 -2.0768 -0.5151
 3178TIP3   OH231168   0.765   5.896   1.464 -0.0542 -0.4768  0.3679
 3178TIP3    H131169   0.838   5.948   1.429 -0.8889  0.0416 -0.6707
 3178TIP3    H231170   0.721   5.954   1.525  0.0256 -0.5642  0.5085
 3179TIP3   OH231171   2.473   4.523   1.208 -0.0409  0.3230  0.2318
 3179TIP3    H131172   2.471   4.530   1.113 -0.1222 -0.6495  0.1521
 3179TIP3    H231173   2.440   4.434   1.227 -2.8436  1.4671  1.3125
 3180TIP3   OH231174   4.662   3.924   7.950  0.5411 -0.1708 -0.2901
 3180TIP3    H131175   4.578   3.920   7.995  0.6896 -1.1831 -0.0936
 3180TIP3    H231176   4.667   4.014   7.917  0.0786  0.3713  1.0370
 3181TIP3   OH231177   6.612   0.306   2.946  0.2375  0.1549  0.0061
 3181TIP3    H131178   6.531   0.262   2.920 -0.4378  1.6418 -0.5259
 3181TIP3    H231179   6.681   0.258   2.900 -0.2417 -1.4860  0.9117
 3182TIP3   OH231180   1.360   3.908   1.482 -0.1564 -0.0572 -0.3159
 3182TIP3    H131181   1.340   3.938   1.571  2.2666  0.6689  0.0800
 3182TIP3    H231182   1.328   3.978   1.425  0.9341  0.9361  0.2463
 3183TIP3   OH231183   1.914   1.507   0.156 -0.3459 -0.6327  0.2679
 3183TIP3    H131184   1.921   1.444   0.085  0.0570 -1.0017  0.6260
 3183TIP3    H231185   1.821   1.525   0.164 -0.8757 -3.5637  2.1881
 3184TIP3   OH231186   2.622   4.294   1.220 -0.0350  0.1300 -0.6444
 3184TIP3    H131187   2.679   4.369   1.235  1.2779 -1.1654  1.2965
 3184TIP3    H231188   2.662   4.249   1.145 -0.4191  0.9533 -1.3591
 3185TIP3   OH231189   0.676   4.916   8.300 -0.1240  0.2147 -0.1507
 3185TIP3    H131190   0.727   4.837   8.283 -0.8069 -0.1238 -0.6885
 3185TIP3    H231191   0.728   4.966   8.363  0.0939 -0.8808  0.5509
 3186TIP3   OH231192   2.260   1.544   2.148 -0.3532 -0.0066  0.4644
 3186TIP3    H131193   2.291   1.568   2.060 -0.2271 -0.8545  0.2649
 3186TIP3    H231194   2.217   1.459   2.135  1.8960 -1.4135  1.6408
 3187TIP3   OH231195   1.445   1.253   8.150  0.1360  0.3770  0.0931
 3187TIP3    H131196   1.534   1.259   8.113 -0.2637 -0.6905 -1.1190
 3187TIP3    H231197   1.391   1.300   8.087  0.0249  2.4607  1.6635
 3188TIP3   OH231198   2.241   4.622   2.467  0.0141 -0.3050 -0.2352
 3188TIP3    H131199   2.315   4.647   2.412 -1.1594 -1.2723 -2.3909
 3188TIP3    H231200   2.247   4.527   2.474 -1.2522 -0.4739 -0.9130
 3189TIP3   OH231201   1.721   5.300   1.135 -0.1020 -0.0117 -0.2436
 3189TIP3    H131202   1.721   5.396   1.127 -1.0059 -0.0914 -1.4863
 3189TIP3    H231203   1.721   5.269   1.044 -3.2515 -1.1580  0.0211
 3190TIP3   OH231204   0.141   6.476   7.829 -0.1103 -0.4984 -0.4898
 3190TIP3    H131205   0.129   6.406   7.766  2.5465  0.4046 -2.1677
 3190TIP3    H231206   0.108   6.555   7.785 -0.1010 -0.1679  0.0775
 3191TIP3   OH231207   5.833   5.412   0.257 -0.4379  0.3112 -0.0740
 3191TIP3    H131208   5.747   5.392   0.221  0.0543  1.5589 -2.1693
 3191TIP3    H231209   5.894   5.359   0.204  0.1916  0.7354  0.2094
 3192TIP3   OH231210   3.645   6.394   8.627 -0.3206  0.2390  0.0954
 3192TIP3    H131211   3.575   6.330   8.638  0.6940 -0.7845  0.8745
 3192TIP3    H231212   3.615   6.472   8.672 -0.9118 -0.2223  0.5065
 3193TIP3   OH231213   2.115   5.076   0.965 -0.3809 -0.6531 -0.5785
 3193TIP3    H131214   2.150   5.144   1.023  0.8969  0.3769 -2.4368
 3193TIP3    H231215   2.030   5.053   1.002  0.5629 -0.3816  1.9086
 3194TIP3   OH231216   6.304   2.164   7.592 -0.6615 -0.0798  0.5198
 3194TIP3    H131217   6.359   2.137   7.665 -1.1273 -2.1181  0.1831
 3194TIP3    H231218   6.272   2.081   7.554 -1.4252  0.9534 -1.2120
 3195TIP3   OH231219   3.696   2.412   0.949 -0.8130 -0.1170  0.2227
 3195TIP3    H131220   3.608   2.444   0.928 -0.4363  0.3410 -0.6997
 3195TIP3    H231221   3.684   2.319   0.965 -1.4049 -0.1448 -0.3320
 3196TIP3   OH231222   3.180   0.659   0.013  0.6894 -0.0025 -0.0757
 3196TIP3    H131223   3.103   0.603   0.020 -0.9200  2.2018  1.1032
 3196TIP3    H231224   3.220   0.634  -0.070 -1.2855 -1.2061 -0.7454
 3197TIP3   OH231225   0.375   1.130   2.530 -0.7315  0.3769 -0.4866
 3197TIP3    H131226   0.401   1.040   2.550 -1.1041  0.3606 -0.0688
 3197TIP3    H231227   0.282   1.134   2.553 -0.4217  1.2277  0.7251
 3198TIP3   OH231228   6.630   1.164   0.698  0.1798  0.2414  0.1830
 3198TIP3    H131229   6.546   1.207   0.710 -0.7501 -1.0498 -1.3855
 3198TIP3    H231230   6.629   1.092   0.761 -0.6074 -0.7319 -0.8990
 3199TIP3   OH231231   3.849   5.379   2.461 -0.1658  0.2943  0.1490
 3199TIP3    H131232   3.813   5.418   2.382 -0.7114  0.1154  0.3041
 3199TIP3    H231233   3.794   5.411   2.532  0.8436  1.1427  0.5764
 3200TIP3   OH231234   1.623   0.252   1.266  0.2341  0.3897  0.6220
 3200TIP3    H131235   1.703   0.201   1.275 -0.2244 -0.1970  1.5150
 3200TIP3    H231236   1.627   0.288   1.177  0.7922 -0.8187  0.1375
 3201TIP3   OH231237   4.882   5.302   1.657 -0.1741 -0.1605 -0.3494
 3201TIP3    H131238   4.969   5.307   1.698 -0.4261  0.6915  0.0954
 3201TIP3    H231239   4.852   5.213   1.677 -0.1905  0.1573  1.1215
 3202TIP3   OH231240   0.666   2.963   0.834  0.3095  0.3616 -0.1239
 3202TIP3    H131241   0.719   3.019   0.777  0.8712 -0.3604 -0.3268
 3202TIP3    H231242   0.638   3.020   0.905  0.2745  1.0756 -0.6998
 3203TIP3   OH231243   4.956   2.121   2.066 -0.2233  0.6831  0.3766
 3203TIP3    H131244   4.886   2.173   2.106  0.2018  2.3543 -0.9704
 3203TIP3    H231245   4.983   2.170   1.989  2.0829 -0.1772  0.5391
 3204TIP3   OH231246   3.913   5.483   8.584 -0.4890  0.4462  0.0272
 3204TIP3    H131247   3.843   5.418   8.575 -0.1556 -0.3138  2.2925
 3204TIP3    H231248   3.876   5.563   8.548 -1.2296 -0.7550 -2.0557
 3205TIP3   OH231249   1.232   4.075   6.595 -0.3776  0.1435  0.6250
 3205TIP3    H131250   1.154   4.130   6.603 -0.6614 -0.1083 -0.2390
 3205TIP3    H231251   1.201   3.997   6.549 -0.0626 -0.9231  2.1369
 3206TIP3   OH231252   1.795   4.077   6.287 -0.0180  0.0747  0.0981
 3206TIP3    H131253   1.854   4.013   6.327 -0.1917  0.2315  0.6113
 3206TIP3    H231254   1.720   4.025   6.258  0.0067 -0.0071  0.1801
 3207TIP3   OH231255   1.243   6.019   7.471  0.2143  0.6534  0.0853
 3207TIP3    H131256   1.151   6.012   7.446 -0.0570  2.6788  0.3832
 3207TIP3    H231257   1.285   6.057   7.394  0.7364  0.1320  0.1086
 3208TIP3   OH231258   3.206   2.854   0.245  0.2804  0.3029  0.3617
 3208TIP3    H131259   3.235   2.764   0.257 -0.7622 -0.1540 -0.3740
 3208TIP3    H231260   3.188   2.860   0.151  0.3661  1.2938  0.3993
 3209TIP3   OH231261   2.106   3.221   8.288 -0.2885  0.2030 -0.4076
 3209TIP3    H131262   2.199   3.201   8.289 -0.1168  0.8271  2.3244
 3209TIP3    H231263   2.091   3.260   8.201  2.1634  0.8681 -0.5891
 3210TIP3   OH231264   5.861   3.358   8.325  0.1655 -0.4173 -0.2709
 3210TIP3    H131265   5.817   3.277   8.353 -0.3186 -0.0174  0.1503
 3210TIP3    H231266   5.899   3.393   8.405 -2.2261  1.3476  0.1879
 3211TIP3   OH231267   0.924   3.559   3.047  0.1014 -0.2414  0.1237
 3211TIP3    H131268   0.945   3.529   2.958  0.1488 -0.4048  0.1890
 3211TIP3    H231269   0.830   3.546   3.056 -0.2485  1.5550 -0.5696
 3212TIP3   OH231270   6.512   5.999   8.615  0.0405  0.1133 -0.1362
 3212TIP3    H131271   6.476   6.078   8.576 -0.0832  0.4905  0.7359
 3212TIP3    H231272   6.569   6.030   8.685 -0.8075 -0.5838  0.8867
 3213TIP3   OH231273   0.072   1.404   1.407  0.1079  0.0587 -0.3207
 3213TIP3    H131274   0.017   1.371   1.336 -1.3722 -0.7169  1.0949
 3213TIP3    H231275   0.046   1.496   1.417  0.8691  0.3820 -1.2573
 3214TIP3   OH231276   5.067   4.717   0.770  0.2636  0.2218  0.4991
 3214TIP3    H131277   5.123   4.679   0.837  0.7722  0.5683  0.2808
 3214TIP3    H231278   5.011   4.645   0.742  0.5828 -0.1242  0.7426
 3215TIP3   OH231279   0.738   2.205   6.956 -0.3728  0.3175  0.0642
 3215TIP3    H131280   0.700   2.214   7.043  3.0386  1.0900  1.6397
 3215TIP3    H231281   0.752   2.111   6.946 -2.3437  0.0394 -0.4713
 3216TIP3   OH231282   0.759   4.852   0.904 -0.6371 -0.5703  0.5153
 3216TIP3    H131283   0.756   4.768   0.859  1.8484 -0.5990  0.2694
 3216TIP3    H231284   0.770   4.917   0.835 -3.2682  0.1101  0.6387
 3217TIP3   OH231285   1.173   5.646   8.259 -0.6500 -0.2895  0.1314
 3217TIP3    H131286   1.203   5.692   8.180  0.2133  0.4458  0.8760
 3217TIP3    H231287   1.253   5.622   8.305 -1.1500  0.1811  1.2969
 3218TIP3   OH231288   0.028   2.666   0.420 -0.5462 -0.0707  0.6677
 3218TIP3    H131289  -0.008   2.755   0.424  0.5767  0.7257 -2.8964
 3218TIP3    H231290  -0.049   2.611   0.404 -0.9435  0.7589 -0.4783
 3219TIP3   OH231291   0.927   4.261   7.473 -0.7890  0.2292  0.5243
 3219TIP3    H131292   0.887   4.344   7.447  0.6736  1.3633  1.7302
 3219TIP3    H231293   0.869   4.227   7.541 -1.2672  0.3679  0.1931
 3220TIP3   OH231294   3.475   1.651   8.021 -0.1789 -0.2379 -0.1853
 3220TIP3    H131295   3.564   1.686   8.028 -0.9144  1.4381  1.6840
 3220TIP3    H231296   3.434   1.702   7.951 -0.0164 -0.2374 -0.2797
 3221TIP3   OH231297   6.884   1.847   1.979  0.5306  0.0828  0.1693
 3221TIP3    H131298   6.884   1.864   2.073 -1.8447  1.3540  0.0273
 3221TIP3    H231299   6.861   1.931   1.940 -0.8416 -0.9469 -1.3799
 3222TIP3   OH231300   1.540   2.130   1.205 -0.5610  0.0084  0.0981
 3222TIP3    H131301   1.534   2.176   1.289  1.9693  1.0495 -0.1997
 3222TIP3    H231302   1.577   2.044   1.228  0.3782  0.3906  0.0381
 3223TIP3   OH231303   1.730   4.916   1.064  0.2351 -0.2789 -0.1251
 3223TIP3    H131304   1.799   4.926   1.129 -0.8669 -0.3317  1.0836
 3223TIP3    H231305   1.771   4.940   0.981  1.2759  1.2658  0.7934
 3224TIP3   OH231306   6.458   3.213   0.211 -0.0664 -0.1125 -0.5208
 3224TIP3    H131307   6.485   3.302   0.188 -0.5854  0.6643  1.6799
 3224TIP3    H231308   6.380   3.224   0.265 -0.5366 -1.9600 -0.7490
 3225TIP3   OH231309   6.518   0.375   2.691 -0.4997 -0.1700 -0.0250
 3225TIP3    H131310   6.591   0.317   2.670  1.3896  2.2579 -0.4910
 3225TIP3    H231311   6.549   0.428   2.763 -1.5873  1.3182 -0.6064
 3226TIP3   OH231312   3.308   1.029   0.629  0.1345  0.7177  0.4878
 3226TIP3    H131313   3.229   1.075   0.658  1.1339  2.3918  0.7157
 3226TIP3    H231314   3.311   1.045   0.534 -0.1802  0.0128  0.3537
 3227TIP3   OH231315   5.044   0.033   1.302 -0.2846 -0.1408  0.1141
 3227TIP3    H131316   4.976  -0.023   1.263 -1.0570  0.7846  0.0894
 3227TIP3    H231317   5.127  -0.006   1.273 -0.8140  0.2745 -2.1602
 3228TIP3   OH231318   1.025   4.948   1.003  0.9274 -0.1116 -0.5081
 3228TIP3    H131319   0.947   4.948   0.947  1.6511  1.5455 -1.5969
 3228TIP3    H231320   1.071   4.868   0.981  0.5955 -0.0552 -1.4384
 3229TIP3   OH231321   1.326   2.052   1.013 -0.3953  1.0612  1.0943
 3229TIP3    H131322   1.320   1.957   1.024 -1.2055  0.9826  0.1941
 3229TIP3    H231323   1.410   2.076   1.052  1.1939 -0.4198 -1.1453
 3230TIP3   OH231324   6.124   0.509   1.690  0.2044 -0.2666  0.2548
 3230TIP3    H131325   6.199   0.563   1.665  1.3014 -1.5554  0.6363
 3230TIP3    H231326   6.131   0.501   1.785 -0.6034 -0.1493  0.3298
 3231TIP3   OH231327   0.428   0.838   2.477  0.1654  0.2677 -0.5479
 3231TIP3    H131328   0.384   0.760   2.442  0.4076 -0.6572  1.0868
 3231TIP3    H231329   0.504   0.850   2.420  1.5458 -2.2628  0.5883
 3232TIP3   OH231330   6.076   1.730   7.692 -0.1623  0.9595  0.2464
 3232TIP3    H131331   6.040   1.642   7.675 -1.3468  1.6064 -0.7888
 3232TIP3    H231332   6.170   1.719   7.684 -0.2441 -0.3379  0.7173
 3233TIP3   OH231333   2.619   1.920   2.127 -0.4790 -0.6529  0.4690
 3233TIP3    H131334   2.705   1.891   2.096 -0.0644 -0.5780  1.5045
 3233TIP3    H231335   2.559   1.897   2.057  0.5172  0.1076 -0.6637
 3234TIP3   OH231336   5.496   5.029   7.606 -0.1838  0.7942  0.6696
 3234TIP3    H131337   5.573   5.060   7.559 -1.2088  1.0606 -0.9102
 3234TIP3    H231338   5.424   5.081   7.571 -1.3155 -0.4798  1.0006
 3235TIP3   OH231339   0.103   3.929   0.386  0.4217  0.2677 -0.1135
 3235TIP3    H131340   0.153   4.010   0.375 -1.2826  1.3406 -0.3596
 3235TIP3    H231341   0.051   3.944   0.466 -0.9267  0.0092 -0.9068
 3236TIP3   OH231342   2.574   0.945   8.309 -0.8089 -0.3896  0.0959
 3236TIP3    H131343   2.552   1.002   8.236 -0.0920  0.0222  0.1912
 3236TIP3    H231344   2.668   0.928   8.299 -0.0955  1.6861  2.2638
 3237TIP3   OH231345   3.170   6.595   0.508 -0.0107 -0.2096 -0.0585
 3237TIP3    H131346   3.131   6.673   0.470 -2.1170 -0.0953  2.0535
 3237TIP3    H231347   3.211   6.626   0.589  1.2181 -0.9513 -0.3739
 3238TIP3   OH231348   1.396   4.772   0.097 -0.1250 -0.3917  0.0008
 3238TIP3    H131349   1.405   4.791   0.003 -1.0491 -1.8986 -0.4362
 3238TIP3    H231350   1.427   4.682   0.106  1.9244  0.3962  1.5486
 3239TIP3   OH231351   6.223   5.795   8.479 -0.2768  0.8188  0.6374
 3239TIP3    H131352   6.151   5.857   8.489 -0.0378  1.0542  0.8984
 3239TIP3    H231353   6.180   5.713   8.453 -0.5693  1.1487  0.0818
 3240TIP3   OH231354   4.085   4.190   2.228 -0.7959  0.0655  0.0456
 3240TIP3    H131355   4.009   4.151   2.184 -4.5124  2.2939  3.7027
 3240TIP3    H231356   4.116   4.121   2.287 -0.7498 -0.4895 -0.6148
 3241TIP3   OH231357   5.763   1.318   1.026  0.0526  0.2306 -0.5050
 3241TIP3    H131358   5.741   1.297   1.116  0.1734 -1.3779 -0.8304
 3241TIP3    H231359   5.859   1.320   1.024  0.0606 -0.1533 -0.6729
 3242TIP3   OH231360   4.101   0.871   8.199  0.2952 -0.2630 -0.1380
 3242TIP3    H131361   4.127   0.959   8.224 -0.9423  0.1218 -0.1118
 3242TIP3    H231362   4.050   0.883   8.119 -0.8345 -0.8119  0.4737
 3243TIP3   OH231363   0.827   0.592   2.950  0.2289 -0.0941 -0.4706
 3243TIP3    H131364   0.917   0.571   2.927 -0.1901 -0.0986 -2.2829
 3243TIP3    H231365   0.805   0.668   2.896 -0.7431  0.1436  0.2139
 3244TIP3   OH231366   3.365   4.448   1.806  0.6724 -0.0936 -0.5386
 3244TIP3    H131367   3.318   4.391   1.867  0.4761 -0.5774 -1.1340
 3244TIP3    H231368   3.340   4.537   1.833 -0.2990 -0.3352 -0.6057
 3245TIP3   OH231369   3.062   3.428   2.107 -1.0874  0.0708  0.0522
 3245TIP3    H131370   2.997   3.393   2.168 -1.6178 -0.7124 -0.9396
 3245TIP3    H231371   3.109   3.351   2.076 -0.1983  0.5605  0.1662
 3246TIP3   OH231372   0.078   6.736   7.733  0.1826 -0.1422  0.1751
 3246TIP3    H131373  -0.002   6.713   7.686  0.7272 -1.0987 -0.3156
 3246TIP3    H231374   0.110   6.815   7.689  1.1255 -1.4730 -1.6957
 3247TIP3   OH231375   0.301   1.533   2.001 -0.4907 -0.0753 -0.2126
 3247TIP3    H131376   0.263   1.478   1.932 -0.1040 -1.0157  0.3053
 3247TIP3    H231377   0.387   1.495   2.017 -0.3188  0.5294  0.3467
 3248TIP3   OH231378   6.398   5.200   2.958 -0.5729 -0.1004  0.2533
 3248TIP3    H131379   6.415   5.292   2.978 -0.4341 -0.1249  0.2464
 3248TIP3    H231380   6.390   5.198   2.862  1.3576 -0.4134  0.0626
 3249TIP3   OH231381   2.741   5.064   1.527 -0.1543  0.2628 -0.0708
 3249TIP3    H131382   2.813   5.116   1.491 -0.4902  0.6571 -0.1800
 3249TIP3    H231383   2.730   5.096   1.617 -1.0272  1.0998 -0.4602
 3250TIP3   OH231384   2.020   2.517   7.417  0.2413  0.3249 -0.1304
 3250TIP3    H131385   1.944   2.520   7.475 -0.2467 -1.1781 -0.6510
 3250TIP3    H231386   1.984   2.492   7.332  1.2443  0.2242 -0.5337
 3251TIP3   OH231387   5.013   1.280   2.131 -0.3111  0.0396  0.1248
 3251TIP3    H131388   5.023   1.197   2.178 -2.2869 -1.1265 -1.3617
 3251TIP3    H231389   5.089   1.284   2.073  0.1658 -0.3652  0.7017
 3252TIP3   OH231390   4.549   4.168   7.532 -0.7570  0.4146 -0.5927
 3252TIP3    H131391   4.599   4.188   7.453  0.2935  0.1782 -0.0023
 3252TIP3    H231392   4.513   4.253   7.559 -0.3973  0.6472 -0.8347
 3253TIP3   OH231393   1.731   6.315   2.663 -0.2783 -0.4569  0.2321
 3253TIP3    H131394   1.702   6.226   2.681 -0.6902 -0.3094  0.3304
 3253TIP3    H231395   1.733   6.357   2.749  1.2098 -0.7363  0.3526
 3254TIP3   OH231396   4.828   5.460   2.090  0.6126 -0.0449 -0.2085
 3254TIP3    H131397   4.747   5.435   2.135  0.5908  0.9518  0.3499
 3254TIP3    H231398   4.880   5.380   2.088 -1.1034 -1.2267 -2.2615
 3255TIP3   OH231399   4.860   0.163   1.074 -0.0308  0.5476 -0.3773
 3255TIP3    H131400   4.834   0.080   1.114  0.0560  0.1701 -1.0952
 3255TIP3    H231401   4.888   0.140   0.986 -2.1984  1.6167 -1.4351
 3256TIP3   OH231402   3.235   5.174   3.097  0.4211  0.2882 -0.2543
 3256TIP3    H131403   3.218   5.188   3.004 -4.0356 -0.0336  0.3043
 3256TIP3    H231404   3.255   5.080   3.104  0.9763  0.3520 -0.8594
 3257TIP3   OH231405   1.758   5.533   6.733 -0.1621  0.1499  0.3890
 3257TIP3    H131406   1.747   5.602   6.798 -2.3633 -0.3417  0.6305
 3257TIP3    H231407   1.845   5.498   6.750 -0.0881  1.0420  2.0832
 3258TIP3   OH231408   1.420   4.508   1.574 -0.0335  0.0916 -0.4844
 3258TIP3    H131409   1.450   4.440   1.514  2.5894  0.0123  0.7881
 3258TIP3    H231410   1.380   4.461   1.647  0.1142  0.0027 -0.4607
 3259TIP3   OH231411   2.960   0.884   7.960  0.1490 -0.0608  0.1774
 3259TIP3    H131412   2.931   0.793   7.957  0.4656 -0.1677  0.2774
 3259TIP3    H231413   3.056   0.878   7.969  0.3018  0.2836 -1.0200
 3260TIP3   OH231414   3.965   4.352   8.308  0.3793  0.4666  0.1499
 3260TIP3    H131415   3.910   4.370   8.384 -0.9847 -0.8222 -0.4729
 3260TIP3    H231416   3.925   4.274   8.268  1.2752  0.8920 -1.6648
 3261TIP3   OH231417   5.270   4.134   0.936 -0.6926  0.6568 -0.4293
 3261TIP3    H131418   5.239   4.066   0.876  0.0035 -0.6491  0.6412
 3261TIP3    H231419   5.364   4.140   0.918 -0.8268  1.7493 -0.8767
 3262TIP3   OH231420   4.725   4.429   1.750 -0.2881 -0.8682  0.3351
 3262TIP3    H131421   4.742   4.364   1.818 -0.3123 -0.4820  0.7147
 3262TIP3    H231422   4.772   4.397   1.673  0.9331 -0.5709  0.9449
 3263TIP3   OH231423   5.229   6.777   7.543  0.0241 -0.1673  0.3695
 3263TIP3    H131424   5.250   6.824   7.462  0.3957 -1.3121 -0.2200
 3263TIP3    H231425   5.312   6.741   7.572 -0.0730  0.3889  1.3837
 3264TIP3   OH231426   1.860   3.108   0.785  0.7131  0.6217  0.0127
 3264TIP3    H131427   1.835   3.194   0.817  1.2476  0.5513  0.6607
 3264TIP3    H231428   1.951   3.097   0.815  1.1966  0.4889 -1.4303
 3265TIP3   OH231429   2.494   3.636   2.315  0.3156  0.0041  0.1027
 3265TIP3    H131430   2.502   3.590   2.232 -0.2334 -0.6567  0.4124
 3265TIP3    H231431   2.477   3.568   2.380 -0.2718  0.6082  0.6031
 3266TIP3   OH231432   2.509   6.423   1.016 -0.3691 -0.0312  0.2044
 3266TIP3    H131433   2.511   6.435   0.921 -1.3215 -0.5338  0.1138
 3266TIP3    H231434   2.419   6.399   1.036  0.2879 -2.1097  0.9584
 3267TIP3   OH231435   6.108   2.735   2.218 -0.0007  0.2959  0.0024
 3267TIP3    H131436   6.019   2.765   2.240 -0.6834 -0.0470 -2.0909
 3267TIP3    H231437   6.109   2.731   2.122  1.4126 -2.3408  0.0516
 3268TIP3   OH231438   4.424   0.949   7.828 -0.3878 -0.5776 -0.1761
 3268TIP3    H131439   4.406   0.861   7.863  0.7315 -0.4321  0.8369
 3268TIP3    H231440   4.481   0.934   7.753  0.2820 -0.6989  0.3488
 3269TIP3   OH231441   1.288   0.024   8.570 -0.0121 -0.8619 -0.1963
 3269TIP3    H131442   1.248   0.099   8.614  0.0363 -0.8368 -0.1960
 3269TIP3    H231443   1.278  -0.048   8.633  0.6544 -0.6717  0.1339
 3270TIP3   OH231444   1.672   6.813   2.632 -0.2077 -0.6429 -0.1752
 3270TIP3    H131445   1.586   6.772   2.645  0.2533 -1.3883  0.6200
 3270TIP3    H231446   1.735   6.742   2.647  0.5377 -0.3276 -1.6383
 3271TIP3   OH231447   4.453   0.970   8.500 -0.3374 -0.4092 -0.4611
 3271TIP3    H131448   4.480   0.979   8.409 -0.5841 -0.2652 -0.5193
 3271TIP3    H231449   4.471   0.878   8.521  0.2260 -0.3111 -0.4892
 3272TIP3   OH231450   3.266   4.838   2.292 -0.3009  0.6147 -0.1159
 3272TIP3    H131451   3.331   4.783   2.336 -1.0503  1.0126  1.5937
 3272TIP3    H231452   3.317   4.897   2.237  0.5851 -0.9638 -1.0625
 3273TIP3   OH231453   4.348   4.388   2.969  0.2324  0.2375  0.0683
 3273TIP3    H131454   4.350   4.353   3.059 -0.3847  0.9866  0.3911
 3273TIP3    H231455   4.426   4.352   2.927  0.0845 -0.8050  0.6469
 3274TIP3   OH231456   1.153   3.496   0.950 -0.2784  0.4141 -0.2529
 3274TIP3    H131457   1.139   3.535   1.037 -1.0934  0.3403 -0.3382
 3274TIP3    H231458   1.100   3.415   0.952  1.9687 -1.1369  0.2002
 3275TIP3   OH231459   1.621   4.107   0.893 -0.0617  0.2568  0.1026
 3275TIP3    H131460   1.687   4.111   0.823  0.0284 -0.6293  0.1291
 3275TIP3    H231461   1.646   4.031   0.946 -0.9498  0.0661  0.2693
 3276TIP3   OH231462   2.067   0.436   2.741 -0.1493  0.6100  0.1624
 3276TIP3    H131463   1.975   0.458   2.726 -0.0755 -0.1447 -1.5804
 3276TIP3    H231464   2.116   0.507   2.699  0.0675  0.5757  0.3544
 3277TIP3   OH231465   2.281   2.662   0.962 -0.1013  0.2526  0.2123
 3277TIP3    H131466   2.235   2.579   0.970  0.5611 -0.1543 -0.0766
 3277TIP3    H231467   2.325   2.656   0.877  1.2476  0.2218  0.8836
 3278TIP3   OH231468   3.266   4.133   1.701  0.1371  0.0293  0.2415
 3278TIP3    H131469   3.324   4.210   1.703  0.8331 -0.4438 -0.8252
 3278TIP3    H231470   3.297   4.079   1.774  0.8534 -0.0804 -0.1355
 3279TIP3   OH231471   1.442   2.853   0.826 -0.1052  0.4698 -0.0755
 3279TIP3    H131472   1.395   2.864   0.908  0.8147  0.8069  0.4238
 3279TIP3    H231473   1.531   2.828   0.852  0.0459 -0.0020 -0.9845
 3280TIP3   OH231474   5.331   5.139   0.974 -0.2061 -0.3003 -0.1372
 3280TIP3    H131475   5.288   5.103   0.896 -0.2363  1.2383 -0.8770
 3280TIP3    H231476   5.273   5.210   1.002  0.4979  0.0389  0.4711
 3281TIP3   OH231477   5.986   3.380   8.077 -0.2346  0.0648 -0.2461
 3281TIP3    H131478   5.909   3.324   8.070  0.1681 -0.3412 -1.8994
 3281TIP3    H231479   6.004   3.385   8.171 -2.4850  0.4934  0.2106
 3282TIP3   OH231480   5.662   5.365   8.641 -0.7873  0.7971  0.7774
 3282TIP3    H131481   5.609   5.396   8.715 -0.5978  1.4243  0.6549
 3282TIP3    H231482   5.641   5.271   8.634 -0.8215  0.7378  1.6093
 3283TIP3   OH231483   3.779   4.351   2.403  0.1449  0.6598  0.4519
 3283TIP3    H131484   3.795   4.360   2.309  1.0259  0.4060  0.5686
 3283TIP3    H231485   3.792   4.258   2.421 -0.9570  0.5339  0.6688
 3284TIP3   OH231486   1.542   0.926   1.742  0.7337  0.0785 -0.0969
 3284TIP3    H131487   1.460   0.951   1.785 -1.2558 -3.4570 -1.4212
 3284TIP3    H231488   1.558   0.836   1.770  3.1922  0.0255 -1.3572
 3285TIP3   OH231489   2.841   6.606   2.506 -0.3090  0.1557 -0.2175
 3285TIP3    H131490   2.898   6.562   2.569 -0.5525  1.8438  1.2792
 3285TIP3    H231491   2.891   6.609   2.425  1.8522  1.6947  1.0797
 3286TIP3   OH231492   4.157   4.719   8.136 -0.5629 -0.1027  0.0133
 3286TIP3    H131493   4.094   4.689   8.070 -2.0248  1.6882  0.4933
 3286TIP3    H231494   4.237   4.670   8.117 -1.9082 -2.0480 -0.9961
 3287TIP3   OH231495   1.095   3.849   0.063 -0.4259 -0.0887  0.5152
 3287TIP3    H131496   1.021   3.906   0.043 -0.2317 -0.3913 -1.1745
 3287TIP3    H231497   1.167   3.909   0.085 -0.3363  0.3221 -0.8380
 3288TIP3   OH231498   1.562   3.672   8.631 -0.0118  0.2810  0.2431
 3288TIP3    H131499   1.524   3.697   8.716 -1.1792  0.0730 -0.1979
 3288TIP3    H231500   1.611   3.749   8.603 -1.9283  1.4162 -0.1764
 3289TIP3   OH231501   4.844   4.405   1.033 -0.6933 -0.3110 -0.7363
 3289TIP3    H131502   4.831   4.370   1.121  1.4145  0.2335 -0.1455
 3289TIP3    H231503   4.936   4.387   1.013 -0.8999  0.3308 -2.4982
 3290TIP3   OH231504   6.479   1.334   6.720  0.1294 -0.3016 -0.2652
 3290TIP3    H131505   6.557   1.303   6.766 -0.0657 -0.7593 -0.2379
 3290TIP3    H231506   6.416   1.262   6.728 -1.0697  0.8622  1.5625
 3291TIP3   OH231507   0.252   1.346   1.800 -0.2807  0.0883  0.3546
 3291TIP3    H131508   0.162   1.322   1.824  0.9281 -2.2291  3.1473
 3291TIP3    H231509   0.289   1.265   1.764  0.3728  1.4067 -2.2072
 3292TIP3   OH231510   5.628   6.693   1.056  0.6824  0.5737 -0.0775
 3292TIP3    H131511   5.654   6.624   0.995  1.6573  1.0704 -0.2398
 3292TIP3    H231512   5.708   6.714   1.104  0.1221  0.7791  0.7974
 3293TIP3   OH231513   6.053   0.893   8.352  0.5358  0.7538  0.4541
 3293TIP3    H131514   6.029   0.940   8.273  1.8693 -0.5073 -0.7709
 3293TIP3    H231515   5.989   0.921   8.418 -0.2773  2.2393 -0.9047
 3294TIP3   OH231516   4.485   4.086   1.174 -0.1036 -0.2817  0.4967
 3294TIP3    H131517   4.432   4.067   1.097 -0.9021 -2.1287  1.4213
 3294TIP3    H231518   4.434   4.050   1.247  0.7787  1.0911  1.8550
 3295TIP3   OH231519   0.166   6.286   0.289  0.3799  0.3368 -1.0299
 3295TIP3    H131520   0.123   6.206   0.319 -0.0401  1.0042  0.2101
 3295TIP3    H231521   0.248   6.289   0.338  0.3339  0.7363 -0.9787
 3296TIP3   OH231522   6.447   1.768   8.124  0.2500 -0.2091 -0.1678
 3296TIP3    H131523   6.374   1.829   8.131  0.6299  0.3460 -0.8548
 3296TIP3    H231524   6.407   1.681   8.129 -0.4523  0.0859 -0.5025
 3297TIP3   OH231525   6.681   6.529   0.095 -0.1945  0.0507  0.8140
 3297TIP3    H131526   6.745   6.556   0.029  1.1999 -1.4610  1.4570
 3297TIP3    H231527   6.662   6.609   0.145  0.0837  0.8313 -0.3047
 3298TIP3   OH231528   4.368   5.426   0.116  0.5507  0.8727 -0.7854
 3298TIP3    H131529   4.461   5.419   0.095  0.6387 -0.1483 -0.1308
 3298TIP3    H231530   4.361   5.510   0.163  1.6569 -0.2571  1.5726
 3299TIP3   OH231531   0.922   5.157   1.585 -0.0902 -0.4719  0.5225
 3299TIP3    H131532   0.953   5.105   1.660 -0.1395 -0.1044  0.7984
 3299TIP3    H231533   0.976   5.127   1.512 -0.5723 -1.4054  0.5272
 3300TIP3   OH231534   3.314   5.601   1.299 -0.5069 -0.6701 -0.4349
 3300TIP3    H131535   3.374   5.674   1.312 -0.1107 -0.8026 -1.3906
 3300TIP3    H231536   3.296   5.602   1.205 -0.0320 -2.1397 -0.5761
 3301TIP3   OH231537   2.407   0.711   8.326  0.1606 -0.0509 -0.1387
 3301TIP3    H131538   2.442   0.785   8.276  0.5622 -0.4902 -0.5169
 3301TIP3    H231539   2.479   0.686   8.384  0.9305 -1.6713 -1.6958
 3302TIP3   OH231540   5.044   3.041   8.054 -0.4309 -0.3661 -0.8709
 3302TIP3    H131541   5.051   3.103   7.981  2.0737 -0.2970 -0.6617
 3302TIP3    H231542   5.077   3.090   8.130 -1.0237 -1.1073 -0.1190
 3303TIP3   OH231543   0.907   1.210   1.889 -0.2221  0.1018 -0.0450
 3303TIP3    H131544   0.880   1.292   1.929 -0.4340  0.5211 -1.0059
 3303TIP3    H231545   0.872   1.142   1.946  1.6670  0.6484  1.9086
 3304TIP3   OH231546   1.914   2.083   7.618 -0.3353  0.5226  0.1973
 3304TIP3    H131547   1.958   2.100   7.535  1.7965 -0.8334  0.9487
 3304TIP3    H231548   1.969   2.126   7.684 -0.4031 -0.7513  1.1295
 3305TIP3   OH231549   0.879   2.724   7.756  0.2605  0.2121 -0.2521
 3305TIP3    H131550   0.815   2.741   7.688 -0.2206  1.8284  0.5587
 3305TIP3    H231551   0.963   2.746   7.716 -0.0529  1.5118 -0.2329
 3306TIP3   OH231552   5.376   6.082   0.904 -0.7419  0.4895  0.4235
 3306TIP3    H131553   5.297   6.057   0.856 -0.7574  0.8761  0.2362
 3306TIP3    H231554   5.407   6.001   0.944 -0.1536 -0.0715 -1.0704
 3307TIP3   OH231555   2.247   4.698   8.118  0.0213 -0.0709  0.1190
 3307TIP3    H131556   2.206   4.766   8.065 -0.8502 -0.8476 -0.2453
 3307TIP3    H231557   2.268   4.629   8.054  0.6255 -0.2695  0.5245
 3308TIP3   OH231558   5.084   4.679   8.295 -0.6036 -0.1775 -0.0577
 3308TIP3    H131559   5.024   4.745   8.329  0.7672  0.6685  0.8098
 3308TIP3    H231560   5.038   4.596   8.308 -1.5202  0.4312  0.7283
 3309TIP3   OH231561   2.306   2.557   8.232 -0.5250  0.0703 -0.7119
 3309TIP3    H131562   2.312   2.564   8.137 -1.0735 -0.5027 -0.7981
 3309TIP3    H231563   2.394   2.531   8.259  0.5377  3.2024 -0.7211
 3310TIP3   OH231564   2.510   6.378   2.471  0.2967  0.6575  0.2032
 3310TIP3    H131565   2.572   6.306   2.475  0.2637  0.4999 -1.5859
 3310TIP3    H231566   2.557   6.453   2.507  1.3598  0.4144 -0.6379
 3311TIP3   OH231567   6.752   0.819   2.063  0.3426 -0.1337  0.2366
 3311TIP3    H131568   6.693   0.814   1.988 -0.1009  0.6333  0.5201
 3311TIP3    H231569   6.697   0.851   2.135  0.6187 -1.4196  1.0533
 3312TIP3   OH231570   3.172   3.548   0.138  0.1364  0.1085 -0.1431
 3312TIP3    H131571   3.100   3.487   0.151 -0.0585  0.6490  1.4353
 3312TIP3    H231572   3.132   3.625   0.098  0.3008 -0.5638 -1.6716
 3313TIP3   OH231573   2.752   4.195   1.013  0.2238  0.2636 -0.1355
 3313TIP3    H131574   2.760   4.240   0.929  0.2397  0.4963 -0.0076
 3313TIP3    H231575   2.797   4.111   0.999  0.8949  0.6194 -0.1210
 3314TIP3   OH231576   3.358   2.245   7.996 -0.5838  0.2873 -0.5603
 3314TIP3    H131577   3.446   2.259   8.031  0.1348  1.4168 -2.6297
 3314TIP3    H231578   3.340   2.152   8.013  0.8096  0.1420  0.3083
 3315TIP3   OH231579   5.014   4.488   8.590 -0.1456 -0.1075  0.0908
 3315TIP3    H131580   5.043   4.410   8.637 -0.2481  0.9692  2.0356
 3315TIP3    H231581   4.929   4.510   8.629  0.1954  1.3625  0.0696
 3316TIP3   OH231582   6.228   3.957   2.449  0.1282  0.4529  0.1594
 3316TIP3    H131583   6.281   3.879   2.433  0.3748  0.2311  1.8848
 3316TIP3    H231584   6.181   3.938   2.531  1.2967  2.6672  1.4333
 3317TIP3   OH231585   3.259   4.628   1.346 -0.1603 -0.6919 -0.0504
 3317TIP3    H131586   3.245   4.702   1.404  0.1805  0.2996 -1.2094
 3317TIP3    H231587   3.353   4.625   1.332 -0.4057  0.5505 -2.3807
 3318TIP3   OH231588   0.181   0.293   2.295  0.1937  0.0969  0.2951
 3318TIP3    H131589   0.156   0.236   2.222  0.7215 -0.4257  0.5059
 3318TIP3    H231590   0.250   0.349   2.259  1.2969 -0.9548  0.6749
 3319TIP3   OH231591   4.328   5.873   1.185 -0.1567 -0.8512  0.0538
 3319TIP3    H131592   4.423   5.866   1.186  0.1898  0.1724 -4.1880
 3319TIP3    H231593   4.298   5.815   1.254  3.5186 -0.6702  2.0153
 3320TIP3   OH231594   2.187   3.827   1.922  0.3472 -0.1350 -0.6723
 3320TIP3    H131595   2.228   3.749   1.958  1.4796  1.0274  0.6745
 3320TIP3    H231596   2.243   3.853   1.849  1.5794  0.9379  0.6034
 3321TIP3   OH231597   0.710   0.450   1.224  0.5276 -0.3853 -0.3545
 3321TIP3    H131598   0.641   0.428   1.161  1.8350  1.5134 -2.6024
 3321TIP3    H231599   0.671   0.430   1.310 -2.5154 -0.0887 -1.5407
 3322TIP3   OH231600   3.672   0.996   6.903 -0.1276 -0.1177 -0.0152
 3322TIP3    H131601   3.740   0.947   6.951 -0.4116 -1.6551 -1.1225
 3322TIP3    H231602   3.718   1.074   6.871  1.1113 -1.0546 -0.6234
 3323TIP3   OH231603   5.416   5.772   1.473  0.4513  0.2001 -0.3888
 3323TIP3    H131604   5.355   5.706   1.441 -0.4175  1.8171 -2.3632
 3323TIP3    H231605   5.486   5.775   1.408  2.0919 -0.7781  1.2240
 3324TIP3   OH231606   4.602   5.511   8.228 -0.3353  0.4569  0.2601
 3324TIP3    H131607   4.616   5.448   8.158 -1.2070 -1.6030  1.8192
 3324TIP3    H231608   4.688   5.519   8.271 -0.3627 -0.1740  0.4364
 3325TIP3   OH231609   4.742   2.580   8.409  0.5868  0.2042  0.1542
 3325TIP3    H131610   4.728   2.659   8.357 -0.5133  0.1932  0.4113
 3325TIP3    H231611   4.752   2.510   8.344 -0.3700  0.2546 -0.0633
 3326TIP3   OH231612   5.366   5.861   1.989 -0.2234  0.6433 -0.2182
 3326TIP3    H131613   5.389   5.768   1.984  0.0868  0.7903 -1.8615
 3326TIP3    H231614   5.279   5.862   2.028 -0.1596 -0.3178 -0.0188
 3327TIP3   OH231615   2.940   0.859   2.118  0.0438  0.3260 -0.6493
 3327TIP3    H131616   2.851   0.827   2.131 -0.2740  1.2480 -0.4769
 3327TIP3    H231617   2.930   0.935   2.061  1.0287 -1.3202 -3.1769
 3328TIP3   OH231618   3.020   3.778   2.163  0.0983  0.1536  0.4073
 3328TIP3    H131619   2.958   3.767   2.235 -0.8930  0.8521 -0.3115
 3328TIP3    H231620   3.099   3.812   2.205 -0.1261 -0.3701  1.2860
 3329TIP3   OH231621   6.212   6.273   8.027 -0.2500  0.1037 -0.0412
 3329TIP3    H131622   6.195   6.277   7.933  1.8722  1.1316 -0.4310
 3329TIP3    H231623   6.290   6.218   8.035 -0.4555 -0.0425  1.1373
 3330TIP3   OH231624   2.406   3.196   1.514  0.1515 -0.0882  0.0129
 3330TIP3    H131625   2.381   3.143   1.589  1.3233 -0.7716 -0.0626
 3330TIP3    H231626   2.441   3.133   1.451  1.3856  0.7504 -0.1580
 3331TIP3   OH231627   1.479   1.584   1.465  0.4783  0.0085 -0.2073
 3331TIP3    H131628   1.505   1.673   1.443 -2.3776  1.1383  0.5639
 3331TIP3    H231629   1.456   1.587   1.557 -2.1933 -0.7834 -0.7601
 3332TIP3   OH231630   6.439   1.253   1.979 -0.1584  0.5400 -0.3492
 3332TIP3    H131631   6.510   1.286   1.924 -0.8723  2.5503 -0.1501
 3332TIP3    H231632   6.478   1.182   2.029  1.7570  1.6657 -0.1589
 3333TIP3   OH231633   4.761   6.599   7.703 -0.5102  0.0278  0.5314
 3333TIP3    H131634   4.823   6.625   7.634 -1.4835  0.3772 -0.2380
 3333TIP3    H231635   4.713   6.526   7.665  0.3135 -1.1452  1.6394
 3334TIP3   OH231636   6.474   1.527   2.012 -0.0655  0.0978  0.0546
 3334TIP3    H131637   6.482   1.534   2.107 -1.4328 -0.9268  0.2774
 3334TIP3    H231638   6.450   1.435   1.997  1.8219 -0.2187 -1.4139
 3335TIP3   OH231639   4.185   2.801   1.566  0.0331  0.1578  0.1948
 3335TIP3    H131640   4.093   2.798   1.539 -0.4184  2.1000  1.2842
 3335TIP3    H231641   4.228   2.856   1.500  0.7468 -1.8367 -1.0606
 3336TIP3   OH231642   3.881   2.292   8.626 -0.0166 -0.2071  0.4777
 3336TIP3    H131643   3.878   2.325   8.536  0.8416 -1.2846  0.0303
 3336TIP3    H231644   3.818   2.346   8.673 -0.6095  0.2678 -0.8017
 3337TIP3   OH231645   2.023   4.907   0.140 -0.5882  0.1134  0.6039
 3337TIP3    H131646   1.983   4.948   0.064  0.3260  0.6818  0.4161
 3337TIP3    H231647   1.951   4.894   0.202 -1.2157  0.2339 -0.1023
 3338TIP3   OH231648   5.492   5.209   1.345 -0.0917 -0.5708 -0.1510
 3338TIP3    H131649   5.464   5.137   1.289  0.7782 -0.2776 -0.9841
 3338TIP3    H231650   5.514   5.280   1.285  0.2236 -0.0236  0.5909
 3339TIP3   OH231651   2.945   0.618   7.832 -0.2020 -0.5205  0.4194
 3339TIP3    H131652   2.896   0.630   7.751 -0.5874 -0.7300  0.6141
 3339TIP3    H231653   3.037   0.629   7.808 -0.4139  1.0757  0.2809
 3340TIP3   OH231654   4.809   1.492   2.100 -0.0157 -0.3202  0.1288
 3340TIP3    H131655   4.762   1.483   2.183 -0.3188 -1.4513 -0.1499
 3340TIP3    H231656   4.883   1.431   2.108  0.9953  0.8882  0.2627
 3341TIP3   OH231657   2.567   4.334   7.219 -0.6880  0.1223 -0.3529
 3341TIP3    H131658   2.649   4.284   7.227 -0.0011  1.3626  0.7761
 3341TIP3    H231659   2.594   4.425   7.224 -2.0013  0.6166 -1.6210
 3342TIP3   OH231660   0.153   3.057   7.397  0.0650 -0.1171 -0.3518
 3342TIP3    H131661   0.223   2.992   7.396  0.6521  0.4253  1.6830
 3342TIP3    H231662   0.097   3.031   7.469 -1.3889 -0.0413 -1.4092
 3343TIP3   OH231663   0.660   0.279   8.633  0.1201  0.5624 -0.1666
 3343TIP3    H131664   0.701   0.330   8.563  0.0376 -0.6893 -1.1719
 3343TIP3    H231665   0.566   0.299   8.625 -0.2287 -1.5271 -2.1624
 3344TIP3   OH231666   6.564   1.738   0.138 -0.4893 -0.1026  0.9626
 3344TIP3    H131667   6.562   1.646   0.166  1.7567 -0.4787  0.1348
 3344TIP3    H231668   6.490   1.746   0.077 -0.7553 -1.3550  1.0906
 3345TIP3   OH231669   0.598   6.316   1.892 -0.5638  0.0624 -0.0227
 3345TIP3    H131670   0.503   6.328   1.888 -0.5255  0.4606  0.1629
 3345TIP3    H231671   0.622   6.281   1.807 -1.2317 -2.7099  0.8401
 3346TIP3   OH231672   6.606   1.483   7.437 -0.3800 -0.1275  0.6487
 3346TIP3    H131673   6.530   1.511   7.387 -1.1673 -1.9944  0.7103
 3346TIP3    H231674   6.665   1.444   7.372 -1.2753 -2.2848  1.0306
 3347TIP3   OH231675   5.388   0.940   0.806  0.0329  0.4288 -0.4758
 3347TIP3    H131676   5.304   0.916   0.845  0.2672 -0.5071 -0.5115
 3347TIP3    H231677   5.430   0.996   0.870  0.0914 -0.4732  0.2983
 3348TIP3   OH231678   2.578   0.072   1.886 -0.2121 -0.1535  0.2593
 3348TIP3    H131679   2.622   0.059   1.802 -0.1025  0.7308  0.1710
 3348TIP3    H231680   2.620   0.009   1.945 -0.0174 -0.5042 -0.2499
 3349TIP3   OH231681   5.665   2.331   1.498  0.4743  0.6852 -0.0447
 3349TIP3    H131682   5.729   2.266   1.527 -2.4848 -1.1223  3.2358
 3349TIP3    H231683   5.693   2.413   1.540 -0.5234 -0.6390  3.5613
 3350TIP3   OH231684   1.301   0.642   2.145 -0.6101 -0.4071  0.6978
 3350TIP3    H131685   1.252   0.659   2.225 -0.2563 -3.3422  1.6457
 3350TIP3    H231686   1.393   0.636   2.173 -0.2357  0.3369 -0.2677
 3351TIP3   OH231687   6.615   0.988   0.898  0.4360  0.4434  0.4341
 3351TIP3    H131688   6.656   0.909   0.933  2.6240  1.5020  0.4421
 3351TIP3    H231689   6.557   1.018   0.968  1.8598  0.4580  1.6639
 3352TIP3   OH231690   6.553   4.784   8.508 -0.3915  0.0954 -0.5887
 3352TIP3    H131691   6.504   4.855   8.551  0.4012 -0.5020  1.4095
 3352TIP3    H231692   6.501   4.705   8.525 -0.2404 -0.1040 -1.0520
 3353TIP3   OH231693   4.757   6.302   1.813  0.2228 -0.6562 -0.0329
 3353TIP3    H131694   4.760   6.382   1.867  1.1899 -0.8673  0.2422
 3353TIP3    H231695   4.797   6.235   1.868  0.2372 -1.1204 -0.6086
 3354TIP3   OH231696   0.143   1.697   7.145  0.1397  0.2432 -0.3396
 3354TIP3    H131697   0.090   1.693   7.224 -1.5254  1.9146 -1.2802
 3354TIP3    H231698   0.148   1.791   7.125  1.8214 -0.0274 -1.3813
 3355TIP3   OH231699   5.272   2.636   1.931 -0.0778 -0.0492  0.4660
 3355TIP3    H131700   5.257   2.712   1.988 -1.3334  0.5636 -0.6326
 3355TIP3    H231701   5.366   2.638   1.914  0.2377  0.0559  2.0655
 3356TIP3   OH231702   4.661   5.401   0.037 -0.6995  0.7335  0.0085
 3356TIP3    H131703   4.747   5.422   0.073  0.3765 -2.6859 -0.1805
 3356TIP3    H231704   4.679   5.369  -0.052 -2.0056 -0.7185  0.2181
 3357TIP3   OH231705   0.790   6.161   8.294 -0.3523 -0.4193 -0.0456
 3357TIP3    H131706   0.706   6.177   8.252 -0.2567 -1.0405 -0.4903
 3357TIP3    H231707   0.767   6.131   8.382 -0.5805 -0.0033  0.0345
 3358TIP3   OH231708   0.295   4.633   2.946  0.0056 -0.1005  0.3645
 3358TIP3    H131709   0.310   4.705   3.008 -0.6549  0.0034  0.4159
 3358TIP3    H231710   0.259   4.676   2.869  0.4569 -0.2772  0.0528
 3359TIP3   OH231711   6.089   6.801   1.361 -0.1973 -0.0644  0.2497
 3359TIP3    H131712   6.155   6.835   1.421  1.9088  0.6685 -2.2742
 3359TIP3    H231713   6.121   6.714   1.337 -1.4675 -0.7062  0.7951
 3360TIP3   OH231714   4.760   6.538   0.934  0.2854 -0.3585 -0.0586
 3360TIP3    H131715   4.725   6.518   1.021 -0.0057 -2.1842 -0.5495
 3360TIP3    H231716   4.691   6.590   0.892  0.3273  0.3349  0.6914
 3361TIP3   OH231717   3.998   3.614   2.717  1.3150  0.4346 -0.1273
 3361TIP3    H131718   4.073   3.609   2.777  1.2053  1.7489  0.1419
 3361TIP3    H231719   3.944   3.684   2.753  0.4211  0.1253 -0.8521
 3362TIP3   OH231720   1.969   5.512   1.331  0.6322  0.5130  0.7617
 3362TIP3    H131721   2.046   5.470   1.370 -1.3057 -1.4354  2.8673
 3362TIP3    H231722   1.981   5.504   1.237  2.6478 -0.4095  1.0541
 3363TIP3   OH231723   4.720   4.610   0.819  0.7581 -0.1443 -0.0993
 3363TIP3    H131724   4.750   4.589   0.907  1.1227 -1.6224 -0.5516
 3363TIP3    H231725   4.777   4.560   0.761  0.4110  0.6676 -1.1753
 3364TIP3   OH231726   5.098   4.186   8.566 -0.1958  0.2450  0.0046
 3364TIP3    H131727   5.037   4.209   8.497  0.6858  0.8710 -0.5876
 3364TIP3    H231728   5.181   4.169   8.521  0.0574 -0.6408  0.7793
 3365TIP3   OH231729   0.405   3.624   7.752 -0.2814  0.4065  0.5021
 3365TIP3    H131730   0.464   3.615   7.677 -1.6007 -3.6729 -0.3355
 3365TIP3    H231731   0.446   3.572   7.821 -2.5351 -2.2979 -0.0190
 3366TIP3   OH231732   6.289   0.555   1.440 -0.0289  0.0952 -0.9307
 3366TIP3    H131733   6.295   0.464   1.470 -0.6002  0.8144  1.5606
 3366TIP3    H231734   6.236   0.549   1.360  1.0217 -1.8578 -1.5681
 3367TIP3   OH231735   2.022   1.622   2.712  0.2524  0.2504 -0.2805
 3367TIP3    H131736   2.051   1.682   2.781 -0.2977  0.1019  0.0885
 3367TIP3    H231737   1.927   1.629   2.713  0.2785  1.6877 -2.3405
 3368TIP3   OH231738   3.853   2.434   2.525 -0.6794  0.2973 -0.1466
 3368TIP3    H131739   3.834   2.360   2.583  0.3041  1.0629  1.2238
 3368TIP3    H231740   3.783   2.433   2.460 -0.4718 -2.0640 -0.4085
 3369TIP3   OH231741   4.470   0.628   0.840 -0.3681  0.3709  0.2584
 3369TIP3    H131742   4.537   0.672   0.788 -0.0277  1.8121  1.8450
 3369TIP3    H231743   4.514   0.604   0.921 -1.2549 -0.5498  0.4886
 3370TIP3   OH231744   3.556   6.639   1.436  0.9308  0.1838  0.0013
 3370TIP3    H131745   3.486   6.702   1.420  0.9615  0.7752  1.9711
 3370TIP3    H231746   3.521   6.555   1.407  0.3112  0.8356 -1.2112
 3371TIP3   OH231747   5.563   4.482   0.300  0.3028  0.0820  0.9027
 3371TIP3    H131748   5.508   4.455   0.227 -0.2456  1.1001  0.9173
 3371TIP3    H231749   5.530   4.569   0.324  0.9696  0.0855  1.8656
 3372TIP3   OH231750   2.290   0.616   1.280  0.2691  0.3504  0.0575
 3372TIP3    H131751   2.281   0.569   1.363 -0.4525  0.0066 -0.2049
 3372TIP3    H231752   2.283   0.709   1.303 -0.2399  0.2445  0.3524
 3373TIP3   OH231753   3.717   1.764   8.096  0.2116  0.0948  0.1132
 3373TIP3    H131754   3.745   1.837   8.151 -0.1542 -0.3525  0.9202
 3373TIP3    H231755   3.744   1.685   8.144 -2.5941 -0.3831  1.1431
 3374TIP3   OH231756   4.078   4.789   0.731 -0.4441 -0.2812  0.5144
 3374TIP3    H131757   4.154   4.745   0.696  0.4077  1.8733 -0.5359
 3374TIP3    H231758   4.043   4.839   0.658 -2.7966 -1.0573  1.0123
 3375TIP3   OH231759   5.271   1.353   0.127 -0.3691 -0.0368 -0.1040
 3375TIP3    H131760   5.333   1.327   0.195  1.7997  0.6224 -1.7246
 3375TIP3    H231761   5.276   1.284   0.062 -0.2677  0.7085 -0.9087
 3376TIP3   OH231762   1.457   5.610   1.919 -0.5457 -0.5091  0.1809
 3376TIP3    H131763   1.493   5.593   2.006  0.2688  2.0650  0.4480
 3376TIP3    H231764   1.363   5.619   1.932 -0.6899 -2.0953  0.4038
 3377TIP3   OH231765   2.609   1.164   6.772  0.4192 -0.0806  0.4493
 3377TIP3    H131766   2.639   1.209   6.851  0.5071 -0.2581  0.5177
 3377TIP3    H231767   2.514   1.154   6.784  0.4257 -0.0662  0.5115
 3378TIP3   OH231768   5.695   0.534   2.029 -0.1470  0.0487  0.0170
 3378TIP3    H131769   5.685   0.588   1.951 -0.4192 -0.5938 -0.4041
 3378TIP3    H231770   5.606   0.514   2.056 -0.0691 -1.1060 -0.4987
 3379TIP3   OH231771   2.852   5.504   2.584  0.5586  0.3189  0.4239
 3379TIP3    H131772   2.765   5.509   2.624  0.4078  0.0397  0.1326
 3379TIP3    H231773   2.844   5.437   2.516  0.6477  1.1867 -0.4678
 3380TIP3   OH231774   4.754   6.386   8.276  0.2199 -0.2884  0.1590
 3380TIP3    H131775   4.686   6.447   8.306  1.3149  0.6564  0.7955
 3380TIP3    H231776   4.776   6.336   8.354  1.0959  0.2427  0.2614
 3381TIP3   OH231777   3.387   0.786   0.523  0.2815  0.2614 -0.8047
 3381TIP3    H131778   3.373   0.852   0.591 -0.0817  0.9079 -1.4898
 3381TIP3    H231779   3.482   0.787   0.508  0.7235 -1.5857  1.3336
 3382TIP3   OH231780   0.517   5.055   7.008  0.0494 -0.3214  0.5369
 3382TIP3    H131781   0.497   5.119   7.076  0.5913  0.5753 -0.1213
 3382TIP3    H231782   0.524   5.107   6.927  0.8222 -1.1557  0.0440
 3383TIP3   OH231783   4.321   0.568   0.213 -0.3137  0.0044  0.5357
 3383TIP3    H131784   4.266   0.568   0.135  0.9650 -2.5711 -0.5091
 3383TIP3    H231785   4.304   0.484   0.254  0.1504  0.6968  2.2177
 3384TIP3   OH231786   2.005   6.555   7.604  0.1443 -0.0641 -0.9467
 3384TIP3    H131787   2.026   6.643   7.574 -0.2758 -0.0134 -1.0993
 3384TIP3    H231788   1.910   6.555   7.614  0.2492 -0.1140  0.2896
 3385TIP3   OH231789   3.267   3.932   8.256 -0.4259  0.1058 -0.6968
 3385TIP3    H131790   3.363   3.932   8.255 -0.4086 -1.1655 -1.2916
 3385TIP3    H231791   3.242   4.016   8.217  0.4404  0.5757 -0.2534
 3386TIP3   OH231792   3.283   4.023   1.438 -0.0744 -0.0263 -0.2253
 3386TIP3    H131793   3.282   4.059   1.527  0.3143  1.2477 -0.7146
 3386TIP3    H231794   3.224   4.080   1.389 -0.7385 -1.0787 -0.6584
 3387TIP3   OH231795   5.071   3.553   1.282 -0.1710 -0.4628  0.1275
 3387TIP3    H131796   5.156   3.566   1.326  1.6587 -1.6814 -2.7498
 3387TIP3    H231797   5.022   3.633   1.302  1.2305 -0.1174  2.6710
 3388TIP3   OH231798   4.688   5.934   8.204  0.0431 -0.5018  0.4220
 3388TIP3    H131799   4.677   5.842   8.181 -2.5102 -0.9940  2.9689
 3388TIP3    H231800   4.650   5.982   8.131  0.2746 -1.4993 -0.3766
 3389TIP3   OH231801   4.240   2.170   2.697 -0.1753 -0.1773 -0.3942
 3389TIP3    H131802   4.322   2.182   2.745  0.6488  3.3405 -2.3723
 3389TIP3    H231803   4.172   2.192   2.761  0.5369 -0.5689  0.5323
 3390TIP3   OH231804   0.820   4.805   6.588  0.1970  0.1177  0.3978
 3390TIP3    H131805   0.895   4.824   6.531  0.0694 -2.3412 -0.7222
 3390TIP3    H231806   0.746   4.794   6.528  0.2187 -3.3311  0.7891
 3391TIP3   OH231807   1.187   4.152   3.306  0.1785 -0.3663  0.2704
 3391TIP3    H131808   1.203   4.200   3.225  1.0154 -1.0823 -0.0022
 3391TIP3    H231809   1.091   4.144   3.310  0.0595  0.7789  0.0199
 3392TIP3   OH231810   1.313   2.566   0.259 -0.2264  0.1379 -0.5458
 3392TIP3    H131811   1.308   2.487   0.206 -0.9523 -1.3869  1.6530
 3392TIP3    H231812   1.397   2.561   0.303 -0.1212  0.7902 -0.6567
 3393TIP3   OH231813   6.697   2.721   0.213  0.0373 -0.1298  0.3386
 3393TIP3    H131814   6.622   2.780   0.220 -0.3792 -0.4190 -1.2989
 3393TIP3    H231815   6.669   2.641   0.257 -0.9033 -0.4822 -0.8531
 3394TIP3   OH231816   2.270   3.595   0.426  0.1990 -0.0595 -0.7834
 3394TIP3    H131817   2.229   3.536   0.490 -0.3507 -1.1552 -2.0925
 3394TIP3    H231818   2.196   3.636   0.381  0.5252  2.9345  1.1295
 3395TIP3   OH231819   3.380   2.741   0.011  0.0447 -0.4198  0.1581
 3395TIP3    H131820   3.403   2.703  -0.073  0.9839  1.2963 -0.3978
 3395TIP3    H231821   3.300   2.790  -0.006 -0.5265 -1.1662  0.6074
 3396TIP3   OH231822   3.241   0.642   8.441 -0.2490 -0.5058 -0.2987
 3396TIP3    H131823   3.191   0.707   8.391 -0.0717  0.8933  1.2613
 3396TIP3    H231824   3.332   0.666   8.426 -0.1869 -0.2797  0.4279
 3397TIP3   OH231825   3.229   4.063   0.040 -0.3015 -0.3101  0.6610
 3397TIP3    H131826   3.193   3.993  -0.015  1.0053 -0.8206  0.3896
 3397TIP3    H231827   3.296   4.104  -0.015  1.7880 -1.5168  2.1678
 3398TIP3   OH231828   0.836   6.856   0.608 -0.6773 -0.4197  0.3522
 3398TIP3    H131829   0.798   6.927   0.661  0.1971  0.8590 -0.6886
 3398TIP3    H231830   0.871   6.900   0.530 -1.0674 -2.1408 -0.8407
 3399TIP3   OH231831   0.240   5.346   1.457  0.7591 -0.6662 -0.1051
 3399TIP3    H131832   0.174   5.380   1.397  1.3559  0.3945 -0.1795
 3399TIP3    H231833   0.213   5.378   1.543  1.4559  0.2197 -0.2080
 3400TIP3   OH231834   2.011   1.558   8.046  0.1058 -0.2126  0.4110
 3400TIP3    H131835   2.004   1.463   8.049 -2.0090 -0.0986  1.0801
 3400TIP3    H231836   1.928   1.587   8.007  0.2915  1.3865  1.1100
 3401TIP3   OH231837   2.335   4.831   2.074 -0.3448  0.4692  0.1360
 3401TIP3    H131838   2.406   4.885   2.107 -0.2812 -0.2294  1.2014
 3401TIP3    H231839   2.356   4.817   1.981  0.4505  0.9776  0.2347
 3402TIP3   OH231840   1.204   0.683   1.877 -0.2939 -0.1080 -0.3773
 3402TIP3    H131841   1.252   0.708   1.798 -0.7590 -0.8222 -0.8958
 3402TIP3    H231842   1.270   0.682   1.946 -0.0117  1.2366 -0.5952
 3403TIP3   OH231843   0.240   3.415   8.262  0.7079 -0.0572  0.4878
 3403TIP3    H131844   0.205   3.474   8.195 -0.1867 -2.5547 -1.3894
 3403TIP3    H231845   0.328   3.394   8.231  0.6972 -0.3707  0.6716
 3404TIP3   OH231846   1.223   2.275   7.936  0.0914 -0.0407  0.1074
 3404TIP3    H131847   1.231   2.196   7.883  0.4415 -1.1610  1.7421
 3404TIP3    H231848   1.176   2.246   8.015  0.0263  1.4372  0.6458
 3405TIP3   OH231849   5.904   6.633   2.309 -0.3734 -0.3261  0.4001
 3405TIP3    H131850   5.870   6.705   2.255  1.5452  0.0692 -0.3867
 3405TIP3    H231851   5.946   6.677   2.383 -1.1933 -0.7715  1.1360
 3406TIP3   OH231852   5.941   6.307   2.658  0.0122  0.0755  0.4894
 3406TIP3    H131853   5.998   6.254   2.714 -0.6890 -1.1563  0.0884
 3406TIP3    H231854   5.992   6.385   2.639  1.1896 -0.5655  0.9011
 3407TIP3   OH231855   2.858   3.858   8.120 -0.4202 -0.2618  0.2604
 3407TIP3    H131856   2.837   3.907   8.040  1.4513 -0.0762 -0.1751
 3407TIP3    H231857   2.831   3.768   8.101 -0.4732 -0.1162 -0.3882
 3408TIP3   OH231858   0.959   2.510   2.610  0.0702 -0.1652  0.3984
 3408TIP3    H131859   0.944   2.532   2.702 -0.4931  2.0559 -0.1448
 3408TIP3    H231860   1.023   2.576   2.581 -0.5770 -0.1394 -1.0429
 3409TIP3   OH231861   5.931   2.756   7.538  0.1108  0.1292 -1.0009
 3409TIP3    H131862   5.902   2.834   7.586 -0.5112 -0.4894 -0.3353
 3409TIP3    H231863   5.891   2.683   7.586 -1.9924 -0.4711 -3.4352
 3410TIP3   OH231864   2.999   4.684   1.130  0.0618  0.0151 -0.0081
 3410TIP3    H131865   3.005   4.654   1.221  0.0085 -0.2860 -0.1020
 3410TIP3    H231866   2.936   4.756   1.132  1.3263  1.1527  0.4767
 3411TIP3   OH231867   5.986   2.320   0.694  0.2070 -0.0327 -0.4582
 3411TIP3    H131868   5.971   2.226   0.696 -0.3544  0.0682  0.6088
 3411TIP3    H231869   6.080   2.329   0.677  0.2600 -0.7789 -0.5801
 3412TIP3   OH231870   3.540   2.516   2.151  0.6130  0.3344  0.4772
 3412TIP3    H131871   3.547   2.542   2.059  2.3451  1.5966  0.9020
 3412TIP3    H231872   3.531   2.599   2.199 -0.1958 -0.2980  1.4657
 3413TIP3   OH231873   1.440   5.712   2.401  0.1173 -0.4061  0.2421
 3413TIP3    H131874   1.517   5.717   2.457 -0.0817  0.4994  0.4545
 3413TIP3    H231875   1.371   5.677   2.458  0.1817 -0.5001  0.2628
 3414TIP3   OH231876   6.789   4.237   0.430 -0.0206 -0.0112 -0.0776
 3414TIP3    H131877   6.875   4.243   0.472  0.6013 -0.8925 -1.1665
 3414TIP3    H231878   6.735   4.301   0.476  1.1688  0.4336  0.7411
 3415TIP3   OH231879   2.700   6.292   1.168  0.5367 -0.3078 -0.3902
 3415TIP3    H131880   2.635   6.360   1.150  0.4582  0.0819  1.2133
 3415TIP3    H231881   2.648   6.211   1.176  0.3354 -0.1420  0.0410
 3416TIP3   OH231882   0.519   4.628   1.120 -0.0291  0.9468 -0.1380
 3416TIP3    H131883   0.465   4.624   1.199  0.6454  1.1067  0.3480
 3416TIP3    H231884   0.549   4.538   1.107  0.3999  1.0330  0.1919
 3417TIP3   OH231885   5.272   3.927   7.122 -0.3694  0.2776 -0.3219
 3417TIP3    H131886   5.340   3.875   7.164 -0.4702  1.4311  1.3711
 3417TIP3    H231887   5.244   3.875   7.047  0.7514 -1.2672  0.2940
 3418TIP3   OH231888   0.717   1.667   1.938 -0.2185 -0.1655 -0.2050
 3418TIP3    H131889   0.681   1.701   2.020 -1.4161 -2.2735  0.2162
 3418TIP3    H231890   0.664   1.709   1.870 -0.6420 -0.0323  0.1987
 3419TIP3   OH231891   1.964   3.379   1.953 -0.0195  0.3445  0.4270
 3419TIP3    H131892   1.997   3.430   1.879  0.4980 -3.2332 -2.0658
 3419TIP3    H231893   2.041   3.366   2.009  0.5344 -0.0325 -0.4008
 3420TIP3   OH231894   6.458   4.986   0.475  0.3454 -0.3222  0.4511
 3420TIP3    H131895   6.407   4.905   0.475 -0.5422  0.2099 -0.6753
 3420TIP3    H231896   6.538   4.964   0.429 -0.2192 -0.3857 -0.5239
 3421TIP3   OH231897   4.822   2.938   1.490  0.3243  0.4437 -0.4302
 3421TIP3    H131898   4.883   2.876   1.452 -0.8732 -0.8593 -0.3237
 3421TIP3    H231899   4.779   2.979   1.415  0.0535  0.0372 -0.4993
 3422TIP3   OH231900   1.664   1.140   0.475  0.8637  0.1926  0.1610
 3422TIP3    H131901   1.667   1.174   0.385 -1.3922  0.9257  0.3121
 3422TIP3    H231902   1.672   1.046   0.465  1.7094  0.3351 -0.7057
 3423TIP3   OH231903   2.709   6.179   0.805 -0.3081 -0.0366 -0.8301
 3423TIP3    H131904   2.665   6.147   0.727 -1.7666  0.2076 -0.1376
 3423TIP3    H231905   2.736   6.100   0.852 -1.0960 -0.2087 -0.6629
 3424TIP3   OH231906   0.848   4.548   7.415 -0.2174 -0.7245  1.2256
 3424TIP3    H131907   0.801   4.618   7.460  0.4479  1.8304 -1.6571
 3424TIP3    H231908   0.794   4.530   7.338  2.2822  0.8236 -1.0755
 3425TIP3   OH231909   3.473   0.252   0.493  0.0086  0.1103  0.4792
 3425TIP3    H131910   3.444   0.343   0.501  1.3453  0.5962  0.1240
 3425TIP3    H231911   3.524   0.237   0.572 -0.5801 -0.4835  0.7488
 3426TIP3   OH231912   5.161   5.835   7.877 -0.7574  0.2280 -0.1202
 3426TIP3    H131913   5.209   5.778   7.817  0.6497  0.4945  0.7019
 3426TIP3    H231914   5.115   5.776   7.936 -2.7044 -0.0537 -1.7975
 3427TIP3   OH231915   5.348   2.027   1.053  0.2406 -0.5389  0.0180
 3427TIP3    H131916   5.420   1.992   1.000  0.5511  1.0990 -0.7198
 3427TIP3    H231917   5.293   2.074   0.990 -0.5386 -0.3229  0.8410
 3428TIP3   OH231918   6.870   3.563   8.579 -0.2367  0.0468 -0.4662
 3428TIP3    H131919   6.915   3.546   8.662  1.4890 -0.8605 -1.5312
 3428TIP3    H231920   6.787   3.602   8.605  0.2728 -0.1531  1.6855
 3429TIP3   OH231921   1.529   2.429   2.763 -0.1477  0.1810  0.5696
 3429TIP3    H131922   1.570   2.462   2.683 -0.7855 -0.8126 -0.1860
 3429TIP3    H231923   1.466   2.364   2.733  0.2736 -0.9139  1.9425
 3430TIP3   OH231924   3.999   1.112   8.552 -0.1479 -0.0836  0.3461
 3430TIP3    H131925   3.955   1.036   8.512  1.5399  0.1898 -2.2917
 3430TIP3    H231926   3.954   1.124   8.635 -2.0962 -2.4737 -0.2198
 3431TIP3   OH231927   4.797   2.951   3.553 -0.2648 -0.2065 -0.3378
 3431TIP3    H131928   4.793   3.023   3.490  0.1668 -0.3007 -0.4809
 3431TIP3    H231929   4.722   2.896   3.531  0.3143 -0.6495 -1.2843
 3432TIP3   OH231930   0.710   4.194   7.681  0.1603  0.6995 -0.6655
 3432TIP3    H131931   0.708   4.098   7.686 -0.2107  0.6481 -1.6405
 3432TIP3    H231932   0.631   4.217   7.633  1.0541  1.3883 -1.8648
 3433TIP3   OH231933   0.038   2.302   6.798 -0.1702 -0.1056  0.4725
 3433TIP3    H131934   0.017   2.381   6.847 -0.3097  0.5609 -0.6350
 3433TIP3    H231935   0.068   2.333   6.712 -0.6592 -1.2545 -0.1413
 3434TIP3   OH231936   6.700   2.330   7.513  0.2977  0.5634 -0.2266
 3434TIP3    H131937   6.735   2.411   7.550  0.4211  0.3044  0.2269
 3434TIP3    H231938   6.707   2.266   7.584 -2.0900  0.7607  0.2857
 3435TIP3   OH231939   2.801   2.570   8.454  0.2443 -0.3206 -0.4246
 3435TIP3    H131940   2.783   2.547   8.362  2.4851  0.4705 -1.1213
 3435TIP3    H231941   2.876   2.629   8.450 -0.1468  0.4414  1.8906
 3436TIP3   OH231942   3.902   5.706   1.277  0.2427  0.5452  0.0921
 3436TIP3    H131943   3.929   5.692   1.368  1.9978  1.4273 -0.2604
 3436TIP3    H231944   3.842   5.780   1.281  0.4696  0.7073  0.5081
 3437TIP3   OH231945   0.167   5.347   0.089  0.2601  0.2942  0.4312
 3437TIP3    H131946   0.082   5.343   0.044 -0.5596 -0.5755  1.9662
 3437TIP3    H231947   0.220   5.280   0.046 -0.0583  0.3612 -0.0811
 3438TIP3   OH231948   0.895   6.026   0.314 -0.4821  0.2327  0.6353
 3438TIP3    H131949   0.836   6.086   0.359 -0.7774 -0.4379  1.1509
 3438TIP3    H231950   0.871   5.939   0.346 -0.3201 -0.2071 -0.3939
 3439TIP3   OH231951   6.325   4.777   2.454  0.2273 -0.4919  0.8409
 3439TIP3    H131952   6.302   4.691   2.418 -0.3792 -0.0146  0.0552
 3439TIP3    H231953   6.415   4.766   2.486  0.3875 -1.2475  0.1718
 3440TIP3   OH231954   5.831   0.820   1.515 -0.1063 -0.5864  0.1239
 3440TIP3    H131955   5.874   0.889   1.465 -0.1849 -0.6830 -0.0772
 3440TIP3    H231956   5.873   0.739   1.486 -0.5862 -0.7068 -0.2509
 3441TIP3   OH231957   1.295   0.900   8.088  0.9682  0.2190 -0.3489
 3441TIP3    H131958   1.231   0.831   8.107 -1.0987  2.0948 -0.0276
 3441TIP3    H231959   1.263   0.939   8.006  0.0307  2.9105  1.1691
 3442TIP3   OH231960   4.974   0.860   2.795 -0.0808 -0.2326 -0.0048
 3442TIP3    H131961   5.030   0.834   2.722 -0.6148  0.6541 -0.7447
 3442TIP3    H231962   4.935   0.942   2.768 -1.0042 -0.3459  0.9096
 3443TIP3   OH231963   4.464   2.909   7.467 -0.1899 -0.1406  0.1666
 3443TIP3    H131964   4.506   2.977   7.415 -0.6598 -0.4546 -0.6397
 3443TIP3    H231965   4.391   2.954   7.511  0.3519  0.1766  0.7533
 3444TIP3   OH231966   6.246   0.564   2.663  0.3297 -0.5344 -0.0708
 3444TIP3    H131967   6.165   0.517   2.643 -0.5856  1.1575 -0.5199
 3444TIP3    H231968   6.227   0.612   2.744  0.9356 -0.2616 -0.0806
 3445TIP3   OH231969   5.341   4.597   8.000 -0.2198 -0.3883  0.1225
 3445TIP3    H131970   5.393   4.529   7.958 -1.2213 -0.1727 -1.5515
 3445TIP3    H231971   5.404   4.666   8.020  0.1518 -0.0436 -2.0344
 3446TIP3   OH231972   6.627   3.295   7.233  0.6856  0.8863 -0.1589
 3446TIP3    H131973   6.570   3.309   7.309  0.6132 -2.6868  0.5970
 3446TIP3    H231974   6.715   3.286   7.269  1.0196  1.5343 -0.7848
 3447TIP3   OH231975   6.844   5.522   8.524  0.0116  0.2231  0.5221
 3447TIP3    H131976   6.921   5.560   8.566  1.4038 -0.7253 -1.0500
 3447TIP3    H231977   6.843   5.431   8.555  1.1303 -0.5253 -1.4949
 3448TIP3   OH231978   3.865   5.740   8.376 -0.4968  0.1943  0.5417
 3448TIP3    H131979   3.783   5.703   8.411  0.2282  0.5543  2.8375
 3448TIP3    H231980   3.919   5.664   8.356 -0.1433 -0.0841  2.3598
 3449TIP3   OH231981   4.386   0.074   0.866  0.5040  0.0054 -0.0992
 3449TIP3    H131982   4.427   0.077   0.780  2.8931 -0.0626  0.9301
 3449TIP3    H231983   4.424  -0.003   0.908  1.4334  1.4298  1.8836
 3450TIP3   OH231984   3.952   0.649   1.776  0.2002 -0.2260  0.1300
 3450TIP3    H131985   3.983   0.726   1.728  0.6467 -0.1756  0.4960
 3450TIP3    H231986   3.968   0.669   1.868  2.2165 -1.5505  0.1432
 3451TIP3   OH231987   2.737   3.695   0.813 -0.0547 -0.1843 -0.6869
 3451TIP3    H131988   2.692   3.639   0.750 -1.9838 -0.5418  0.9052
 3451TIP3    H231989   2.667   3.731   0.868  1.5051  0.3826  1.0351
 3452TIP3   OH231990   2.272   4.036   2.677 -0.0073  0.4259  0.1436
 3452TIP3    H131991   2.281   4.129   2.694  0.8854  0.1702  1.2185
 3452TIP3    H231992   2.286   4.026   2.583  0.8936  1.2604  0.1811
 3453TIP3   OH231993   6.156   0.750   7.069  0.3251 -0.1392 -0.1995
 3453TIP3    H131994   6.180   0.669   7.112 -1.3838 -0.5274  0.1185
 3453TIP3    H231995   6.119   0.723   6.985  0.8147  0.3996 -0.6003
 3454TIP3   OH231996   1.653   1.486   0.115  0.2934  0.3713  0.1225
 3454TIP3    H131997   1.591   1.558   0.129  0.4540  0.4602  0.3811
 3454TIP3    H231998   1.632   1.453   0.028 -2.0186 -1.4231  1.2205
 3455TIP3   OH231999   1.188   0.607   1.041  0.9484 -0.0647 -0.0481
 3455TIP3    H132000   1.106   0.602   1.090  0.2418  2.2646 -0.8644
 3455TIP3    H232001   1.181   0.539   0.974  0.3357 -0.8551  0.8061
 3456TIP3   OH232002   6.623   1.527   7.869 -0.3525  0.5458  0.2226
 3456TIP3    H132003   6.540   1.541   7.824 -0.3617  0.8639  0.3376
 3456TIP3    H232004   6.599   1.491   7.954 -0.2717 -1.4861 -0.5756
 3457TIP3   OH232005   1.247   3.766   0.881 -0.2133  0.1411  0.0172
 3457TIP3    H132006   1.214   3.689   0.926  1.6520  0.3705  1.9926
 3457TIP3    H232007   1.235   3.838   0.944  0.5393  0.9124 -0.6830
 3458TIP3   OH232008   2.604   1.317   1.662 -0.1300 -0.4495  0.3999
 3458TIP3    H132009   2.653   1.399   1.664 -2.8394  1.2782  1.1169
 3458TIP3    H232010   2.580   1.301   1.753  0.5799 -2.2154  0.2997
 3459TIP3   OH232011   1.340   5.041   0.986  0.4766  0.1258  0.3298
 3459TIP3    H132012   1.309   5.058   0.897  0.2624 -3.0697 -0.3268
 3459TIP3    H232013   1.386   4.957   0.980 -1.8943 -1.6685  3.6634
 3460TIP3   OH232014   1.899   6.763   8.348 -0.0204  0.4451  0.1813
 3460TIP3    H132015   1.853   6.795   8.271 -0.9659 -0.4125  0.3738
 3460TIP3    H232016   1.830   6.749   8.413  0.6451  0.1833  0.8478
 3461TIP3   OH232017   6.008   1.115   7.479 -0.6398  0.7791  0.0181
 3461TIP3    H132018   6.070   1.177   7.441 -1.1298  0.3721 -1.5223
 3461TIP3    H232019   6.019   1.035   7.428 -2.2289  0.6250 -0.1452
 3462TIP3   OH232020   4.210   4.912   7.343  0.2439 -0.0569  0.1288
 3462TIP3    H132021   4.182   4.898   7.433  1.2967 -0.7787  0.3498
 3462TIP3    H232022   4.211   5.008   7.333 -2.0420  0.0350  0.1591
 3463TIP3   OH232023   1.658   2.613   0.245 -0.2143  0.2502  0.7742
 3463TIP3    H132024   1.751   2.628   0.225  0.5248 -1.8775  2.1876
 3463TIP3    H232025   1.619   2.588   0.161  0.8683 -0.3013  0.4103
 3464TIP3   OH232026   3.925   2.986   1.533 -0.2222  0.0023 -0.5993
 3464TIP3    H132027   3.862   3.039   1.484 -0.1928  0.3899 -0.2239
 3464TIP3    H232028   3.970   3.049   1.590  0.3980 -0.2938 -0.7550
 3465TIP3   OH232029   1.998   1.286   0.001 -0.5024  0.8535 -0.0153
 3465TIP3    H132030   2.075   1.334   0.031 -0.8778  0.6664  1.3296
 3465TIP3    H232031   1.970   1.236   0.078 -0.7065 -0.7591 -1.0821
 3466TIP3   OH232032   0.688   3.709   7.931  0.3297 -0.5051 -0.3413
 3466TIP3    H132033   0.632   3.633   7.915 -1.0724  0.7466 -1.8213
 3466TIP3    H232034   0.630   3.774   7.972  0.7003  0.7707 -1.7444
 3467TIP3   OH232035   0.884   5.207   0.695  0.4827  0.5746  0.7959
 3467TIP3    H132036   0.843   5.224   0.610 -0.2755 -1.4523  0.7085
 3467TIP3    H232037   0.812   5.215   0.758  0.8076  0.9486  1.1220
 3468TIP3   OH232038   1.310   6.437   8.279  0.0595  0.2794  0.1623
 3468TIP3    H132039   1.372   6.368   8.256  0.2603  0.5351 -0.0731
 3468TIP3    H232040   1.227   6.391   8.294  0.1060  0.0223 -0.3321
 3469TIP3   OH232041   0.666   5.994   3.050 -0.2434 -0.2449  0.1888
 3469TIP3    H132042   0.617   5.912   3.057  1.0253 -1.0019  0.4733
 3469TIP3    H232043   0.750   5.976   3.092  0.6927  0.6908 -1.2004
 3470TIP3   OH232044   4.937   4.981   8.433  0.4070 -0.1909 -0.0059
 3470TIP3    H132045   5.022   5.020   8.414 -0.0914  0.8865 -0.1667
 3470TIP3    H232046   4.933   4.974   8.528  0.0306  1.3662  0.1231
 3471TIP3   OH232047   2.542   5.653   8.170  0.0978 -0.0903 -0.1986
 3471TIP3    H132048   2.594   5.574   8.181  1.1436  0.4556 -1.0831
 3471TIP3    H232049   2.496   5.662   8.253  1.3789 -0.6164  0.6039
 3472TIP3   OH232050   5.173   4.683   2.487  0.2435 -0.1605 -0.0207
 3472TIP3    H132051   5.258   4.694   2.529  0.1703  1.1037 -0.1626
 3472TIP3    H232052   5.110   4.677   2.559  0.4744 -1.5155  0.0942
 3473TIP3   OH232053   6.352   5.276   7.685  0.4279 -0.2660 -0.3199
 3473TIP3    H132054   6.381   5.190   7.655  0.7986 -0.0335 -0.6408
 3473TIP3    H232055   6.266   5.288   7.644  0.0894 -0.7474  0.2337
 3474TIP3   OH232056   3.953   5.756   0.343  0.0571  0.6820 -0.3704
 3474TIP3    H132057   3.969   5.708   0.261 -0.0200  0.5657 -0.3187
 3474TIP3    H232058   3.949   5.687   0.410 -2.2506  0.5244 -0.5924
 3475TIP3   OH232059   3.688   3.390   1.459  0.2621 -0.5147 -0.6438
 3475TIP3    H132060   3.702   3.295   1.461  1.3601 -0.4683 -2.8235
 3475TIP3    H232061   3.657   3.408   1.371 -1.4559  1.0222  0.2149
 3476TIP3   OH232062   0.435   2.534   0.785 -0.0920 -0.7429 -0.6707
 3476TIP3    H132063   0.448   2.499   0.697  1.4932 -0.5058 -0.5652
 3476TIP3    H232064   0.413   2.626   0.771  0.2926 -0.6716 -0.8204
 3477TIP3   OH232065   3.219   6.367   8.366  0.2507  0.0654 -0.1583
 3477TIP3    H132066   3.240   6.289   8.315 -1.7867 -1.7848  1.6060
 3477TIP3    H232067   3.142   6.404   8.322 -0.1591 -0.2538  0.2799
 3478TIP3   OH232068   2.847   4.442   8.066 -0.0053 -0.7580 -0.4243
 3478TIP3    H132069   2.758   4.428   8.032 -0.6599 -0.1798  0.9476
 3478TIP3    H232070   2.877   4.521   8.021  0.2733 -1.5859 -1.7294
 3479TIP3   OH232071   1.592   1.924   2.436 -0.1719  0.2351 -0.2502
 3479TIP3    H132072   1.530   1.995   2.422 -0.2162  0.4173  0.7768
 3479TIP3    H232073   1.558   1.852   2.383  0.2031  1.1468 -1.7799
 3480TIP3   OH232074   5.483   4.942   0.583  0.2947  0.4768  0.1409
 3480TIP3    H132075   5.459   5.005   0.650  1.0094 -0.3452  1.2201
 3480TIP3    H232076   5.530   4.993   0.517  1.6019  0.9741  1.3955
 3481TIP3   OH232077   0.733   6.694   1.939  0.3355 -0.0000 -0.0632
 3481TIP3    H132078   0.664   6.741   1.891  0.7382  1.5521  0.7958
 3481TIP3    H232079   0.792   6.763   1.969 -0.6385 -0.6218  3.8830
 3482TIP3   OH232080   5.604   2.717   0.012 -0.8961 -0.1461 -0.5120
 3482TIP3    H132081   5.688   2.727   0.056 -0.4761  4.2626 -1.8329
 3482TIP3    H232082   5.626   2.679  -0.073 -0.2532  0.6100 -0.6944
 3483TIP3   OH232083   2.917   3.342   0.057  0.1700 -0.1180 -0.3817
 3483TIP3    H132084   2.895   3.434   0.047  0.8608  0.0986  0.0228
 3483TIP3    H232085   2.989   3.328  -0.006 -0.7790 -0.7024 -1.3714
 3484TIP3   OH232086   6.054   3.900   1.054  0.3295 -0.1867 -0.2156
 3484TIP3    H132087   6.103   3.948   1.121 -1.0554  1.6740 -0.4660
 3484TIP3    H232088   6.105   3.913   0.974  0.4469  0.0613 -0.1004
 3485TIP3   OH232089   1.610   3.419   2.639  0.2692  0.0043 -0.1661
 3485TIP3    H132090   1.588   3.354   2.573 -0.2434  0.1711 -0.1642
 3485TIP3    H232091   1.693   3.389   2.676  0.3773 -0.2818 -0.6339
 3486TIP3   OH232092   4.279   4.647   0.977  0.2002  0.8741  0.1399
 3486TIP3    H132093   4.325   4.611   0.901  0.2929  1.6569 -0.1887
 3486TIP3    H232094   4.332   4.622   1.052 -0.9805 -1.7359  0.2003
 3487TIP3   OH232095   6.054   1.446   7.334  0.1533  0.4659 -0.8910
 3487TIP3    H132096   6.007   1.413   7.257  0.4337 -0.4542 -0.6810
 3487TIP3    H232097   6.013   1.530   7.353 -0.5133  0.2903 -1.5115
 3488TIP3   OH232098   1.655   4.288   0.469  0.0487  0.0290 -0.9723
 3488TIP3    H132099   1.623   4.207   0.428  0.3825 -0.7920  0.3423
 3488TIP3    H232100   1.728   4.259   0.524 -0.1747  1.1516 -0.0667
 3489TIP3   OH232101   6.675   5.071   3.008  0.3270 -0.2059 -0.2517
 3489TIP3    H132102   6.746   5.103   2.952 -1.1922  1.4103 -1.3618
 3489TIP3    H232103   6.699   5.101   3.096  1.4047 -0.4042 -0.4611
 3490TIP3   OH232104   4.657   6.061   7.818 -0.5638  0.6259 -0.4764
 3490TIP3    H132105   4.746   6.094   7.808 -1.0606  2.1473 -0.0779
 3490TIP3    H232106   4.605   6.138   7.840 -1.7049 -0.5064  0.9344
 3491TIP3   OH232107   5.477   4.533   0.685  0.1152 -0.1511 -0.6625
 3491TIP3    H132108   5.438   4.610   0.644 -0.2909 -0.4180 -0.7789
 3491TIP3    H232109   5.475   4.553   0.779 -2.3789 -1.0707 -0.4468
 3492TIP3   OH232110   0.983   4.063   6.876  0.3642  0.0653  0.3618
 3492TIP3    H132111   1.075   4.046   6.861  0.3298  1.2458 -1.5267
 3492TIP3    H232112   0.971   4.154   6.850 -1.7707 -0.7373 -1.8306
 3493TIP3   OH232113   1.797   2.837   8.579 -0.1031 -0.0126 -1.0197
 3493TIP3    H132114   1.862   2.788   8.629 -0.2988  3.2395  2.9767
 3493TIP3    H232115   1.849   2.897   8.525  0.2628  0.5991 -0.0192
 3494TIP3   OH232116   0.910   0.542   1.780 -0.0324  0.0328 -0.0579
 3494TIP3    H132117   0.937   0.617   1.833 -1.5692  1.2149 -0.8520
 3494TIP3    H232118   0.815   0.542   1.785 -0.0573 -1.9289 -0.0434
 3495TIP3   OH232119   5.139   1.749   2.401 -0.6218 -0.2959  0.3020
 3495TIP3    H132120   5.133   1.764   2.495  0.7670  0.3674  0.3197
 3495TIP3    H232121   5.066   1.798   2.363 -1.7477 -1.3183  1.0802
 3496TIP3   OH232122   3.374   1.324   2.165  0.3461  0.1050  0.6048
 3496TIP3    H132123   3.303   1.337   2.102  0.5132  0.8920  0.5757
 3496TIP3    H232124   3.354   1.239   2.205 -0.2316 -0.0053  0.1075
 3497TIP3   OH232125   5.214   1.078   1.472 -0.4450  0.7041  0.0087
 3497TIP3    H132126   5.157   1.002   1.483  0.2814  0.2772  1.1609
 3497TIP3    H232127   5.275   1.053   1.402 -0.2591  0.2368  0.3309
 3498TIP3   OH232128   2.563   0.585   0.650  0.0433 -0.1153 -0.2714
 3498TIP3    H132129   2.651   0.623   0.651 -0.1246  0.2666  0.0787
 3498TIP3    H232130   2.505   0.658   0.626 -0.1628 -0.4026 -0.6664
 3499TIP3   OH232131   1.576   6.639   8.174  0.1278 -0.1062  0.7318
 3499TIP3    H132132   1.507   6.622   8.110  0.8196  0.4029 -0.1766
 3499TIP3    H232133   1.533   6.631   8.259 -0.8007 -0.8445  0.2053
 3500TIP3   OH232134   4.256   5.819   8.416 -0.1533  0.3723 -0.0082
 3500TIP3    H132135   4.198   5.754   8.376  0.3875  0.3645 -0.7845
 3500TIP3    H232136   4.343   5.798   8.383  0.4479 -0.0941  1.7582
 3501TIP3   OH232137   0.319   2.573   1.098  0.0083 -0.2774  0.0937
 3501TIP3    H132138   0.359   2.569   1.011 -1.0431  2.1600 -0.6074
 3501TIP3    H232139   0.351   2.496   1.143  0.4136 -1.7577 -2.5247
 3502TIP3   OH232140   4.400   5.775   0.738 -0.1756  0.0967 -0.3325
 3502TIP3    H132141   4.321   5.722   0.724 -0.3049  0.0982  0.3361
 3502TIP3    H232142   4.427   5.801   0.650 -0.6009 -0.3686 -0.6112
 3503TIP3   OH232143   2.428   6.310   0.707 -0.4971 -0.4388 -0.1885
 3503TIP3    H132144   2.378   6.387   0.682 -1.6786 -0.9897  0.3755
 3503TIP3    H232145   2.518   6.329   0.681 -1.0715  0.4097 -1.6227
 3504TIP3   OH232146   2.244   6.240   7.212 -0.0233 -0.4948 -0.2821
 3504TIP3    H132147   2.281   6.198   7.134 -0.7889 -0.7450 -0.5156
 3504TIP3    H232148   2.225   6.330   7.184 -1.0414 -0.8116 -0.6235
 3505TIP3   OH232149   6.387   5.031   2.295  0.0046  0.1583 -0.7356
 3505TIP3    H132150   6.396   4.936   2.302 -0.2967  0.0722 -1.4342
 3505TIP3    H232151   6.451   5.066   2.357 -1.4278 -0.5136  1.2284
 3506TIP3   OH232152   1.055   1.237   0.481 -0.5785  0.1320 -0.8502
 3506TIP3    H132153   1.062   1.230   0.576 -0.8881 -0.8897 -0.8969
 3506TIP3    H232154   1.132   1.288   0.456 -0.1712 -0.1021 -0.1154
 3507TIP3   OH232155   4.430   1.541   2.874  0.6121 -0.6494  0.2319
 3507TIP3    H132156   4.408   1.448   2.876 -0.4927 -0.4294 -0.7163
 3507TIP3    H232157   4.471   1.558   2.959 -1.0441 -1.5564  1.2714
 3508TIP3   OH232158   6.861   5.287   8.266  0.1003  0.3054  0.1007
 3508TIP3    H132159   6.849   5.315   8.175  0.2153  2.5641  0.7156
 3508TIP3    H232160   6.956   5.288   8.279  0.0502  0.9370  0.4883
 3509TIP3   OH232161   0.535   2.914   2.191 -0.2398 -0.0011 -0.3183
 3509TIP3    H132162   0.538   2.964   2.273  0.7258  1.4816 -1.2106
 3509TIP3    H232163   0.612   2.857   2.195  1.6244  2.2734 -1.4610
 3510TIP3   OH232164   0.278   6.720   1.987  0.2739  0.6224 -0.5216
 3510TIP3    H132165   0.221   6.790   1.955 -0.6816  0.3592  0.5636
 3510TIP3    H232166   0.242   6.696   2.072  1.5410 -0.1005 -0.1559
 3511TIP3   OH232167   5.000   6.713   0.632 -0.3511 -0.1468  0.0254
 3511TIP3    H132168   4.924   6.722   0.575 -0.7635  0.8708  0.6980
 3511TIP3    H232169   5.062   6.661   0.582 -1.2333 -0.4318 -0.7979
 3512TIP3   OH232170   5.720   4.024   7.733  0.4043  0.0375  0.1684
 3512TIP3    H132171   5.756   4.066   7.655  0.4001 -0.3164 -0.0214
 3512TIP3    H232172   5.711   3.932   7.710  1.5811 -0.3194  0.9867
 3513TIP3   OH232173   3.334   4.388   1.086  0.0280 -0.3207  0.2888
 3513TIP3    H132174   3.243   4.402   1.059 -0.4844 -0.7152  1.7429
 3513TIP3    H232175   3.354   4.464   1.142  1.2768  0.8126 -1.5800
 3514TIP3   OH232176   1.322   3.555   6.425 -0.3458 -0.3446 -0.0659
 3514TIP3    H132177   1.358   3.620   6.485 -0.5234 -0.2396 -0.0722
 3514TIP3    H232178   1.281   3.490   6.482 -2.2266  0.7431 -0.0993
 3515TIP3   OH232179   2.577   2.423   0.626 -0.1834 -0.2347  0.5357
 3515TIP3    H132180   2.621   2.372   0.694  0.6608 -0.7988 -0.4028
 3515TIP3    H232181   2.649   2.466   0.579 -0.6505 -0.8966 -0.8220
 3516TIP3   OH232182   5.821   5.282   8.241 -0.4687  0.3287 -0.3342
 3516TIP3    H132183   5.796   5.215   8.177  2.8303  0.3499 -1.8564
 3516TIP3    H232184   5.814   5.365   8.194 -1.0817  0.7060  0.3965
 3517TIP3   OH232185   1.571   4.050   0.110 -0.5349  0.5766  1.0937
 3517TIP3    H132186   1.552   3.958   0.132  1.6228 -0.4368 -0.8650
 3517TIP3    H232187   1.665   4.059   0.129 -0.5846  2.2071  0.6295
 3518TIP3   OH232188   6.537   1.423   1.232  0.0053  0.5026  0.2964
 3518TIP3    H132189   6.603   1.379   1.285 -0.2611  0.7671  0.8611
 3518TIP3    H232190   6.526   1.509   1.274 -0.3487  0.6431 -0.0721
 3519TIP3   OH232191   2.240   3.050   2.628 -0.5445 -0.6603 -1.3668
 3519TIP3    H132192   2.197   2.971   2.660  0.5218 -1.2402 -1.3185
 3519TIP3    H232193   2.175   3.090   2.570 -1.1978 -1.4277 -1.1947
 3520TIP3   OH232194   5.532   0.958   7.561 -0.1420  0.1928  0.1405
 3520TIP3    H132195   5.436   0.962   7.556 -0.1947 -0.9614  0.0052
 3520TIP3    H232196   5.550   0.905   7.639  0.4083  0.9285  0.5290
 3521TIP3   OH232197   4.574   3.103   7.312  0.9634 -0.2822 -0.7183
 3521TIP3    H132198   4.522   3.113   7.232 -0.3836  0.4620  0.2045
 3521TIP3    H232199   4.622   3.185   7.321  1.4137 -0.5152 -0.9548
 3522TIP3   OH232200   0.452   2.317   1.148 -0.2577  0.1713  1.0178
 3522TIP3    H132201   0.518   2.345   1.211 -0.7470  1.6963  0.8792
 3522TIP3    H232202   0.496   2.323   1.063 -0.4710  0.8440  0.9570
 3523TIP3   OH232203   2.440   0.560   7.399  0.1557  0.1335 -0.4796
 3523TIP3    H132204   2.387   0.621   7.450  0.8466 -0.7495  1.3639
 3523TIP3    H232205   2.495   0.617   7.344 -0.4473  1.1151 -0.1053
 3524TIP3   OH232206   0.886   2.095   2.144 -0.6482 -0.2746 -0.2294
 3524TIP3    H132207   0.866   2.173   2.194  0.5943 -0.8314  1.1981
 3524TIP3    H232208   0.911   2.029   2.209 -0.5818 -1.5346 -1.4608
 3525TIP3   OH232209   0.541   4.773   0.557  0.1751 -0.1747 -0.0212
 3525TIP3    H132210   0.608   4.705   0.569  0.8447  0.6437  1.0415
 3525TIP3    H232211   0.579   4.832   0.492  0.0199 -0.2833 -0.2110
 3526TIP3   OH232212   0.053   6.715   8.335 -0.4114  0.2696  0.1517
 3526TIP3    H132213  -0.037   6.744   8.319 -0.2934  0.6852  0.2315
 3526TIP3    H232214   0.069   6.649   8.268 -0.2714  1.2505 -0.8075
 3527TIP3   OH232215   2.369   1.829   0.875  0.5316 -0.2712 -0.1900
 3527TIP3    H132216   2.373   1.782   0.791 -1.4308  2.1961 -1.8322
 3527TIP3    H232217   2.424   1.906   0.862 -1.0707  0.9852  0.1086
 3528TIP3   OH232218   2.407   1.797   1.138 -0.2924 -0.2250  0.2520
 3528TIP3    H132219   2.502   1.793   1.123 -0.4289 -3.2682 -0.3823
 3528TIP3    H232220   2.371   1.817   1.051 -0.2761  1.7432  0.6438
 3529TIP3   OH232221   5.498   2.196   7.991  0.3862 -0.5186  0.1555
 3529TIP3    H132222   5.512   2.185   8.085  2.0453  3.5179  0.5987
 3529TIP3    H232223   5.413   2.241   7.985  1.3718  1.4236  0.0305
 3530TIP3   OH232224   2.379   2.882   7.978  0.5743  0.3084  0.6842
 3530TIP3    H132225   2.380   2.976   7.958  0.4049  0.0534 -0.6126
 3530TIP3    H232226   2.308   2.847   7.924  0.3684 -0.5088  1.4679
 3531TIP3   OH232227   3.342   6.800   8.044 -0.0509  0.2299 -0.3523
 3531TIP3    H132228   3.292   6.882   8.040 -0.0462  0.1979 -2.3276
 3531TIP3    H232229   3.381   6.792   7.957  2.6635 -0.2281  0.8161
 3532TIP3   OH232230   1.445   6.594   1.603  0.0192 -0.2731  0.2595
 3532TIP3    H132231   1.399   6.614   1.522 -1.4169  1.4192  1.4049
 3532TIP3    H232232   1.460   6.500   1.600 -0.2625 -0.2945 -1.8061
 3533TIP3   OH232233   3.384   0.392   1.786  0.4418  0.6917  0.4294
 3533TIP3    H132234   3.376   0.487   1.778  2.1017  0.9392  1.2373
 3533TIP3    H232235   3.450   0.368   1.721 -0.0798  0.0645  0.1260
 3534TIP3   OH232236   5.971   0.672   7.271 -0.0277  0.0701  0.3092
 3534TIP3    H132237   6.012   0.721   7.342  0.5448  3.0312 -1.8535
 3534TIP3    H232238   6.018   0.701   7.192 -2.9444 -0.2822 -1.6992
 3535TIP3   OH232239   0.964   0.249   1.432 -0.2317  0.3301  0.3234
 3535TIP3    H132240   0.885   0.287   1.392 -0.9721 -0.7950  0.6800
 3535TIP3    H232241   1.033   0.313   1.412 -1.6380  2.5132  1.9719
 3536TIP3   OH232242   0.134   0.372   8.525  0.1770  0.1378  0.0565
 3536TIP3    H132243   0.190   0.401   8.452  1.6363 -3.3836 -0.4209
 3536TIP3    H232244   0.047   0.364   8.486  0.3935  0.7647 -0.5948
 3537TIP3   OH232245   5.611   2.184   8.252 -0.2600  0.5122  0.0896
 3537TIP3    H132246   5.681   2.213   8.311  0.7364 -0.4766 -0.5573
 3537TIP3    H232247   5.591   2.095   8.281  0.0820  0.1012 -0.8796
 3538TIP3   OH232248   6.131   5.719   1.238  0.6390 -0.1071  0.2707
 3538TIP3    H132249   6.188   5.667   1.294  2.2984  0.5994 -0.6986
 3538TIP3    H232250   6.149   5.689   1.149  0.2487  0.8109 -0.1414
 3539TIP3   OH232251   3.067   3.748   8.311 -0.4854  0.3220  0.0699
 3539TIP3    H132252   3.012   3.780   8.240  0.7412 -0.6806 -1.4107
 3539TIP3    H232253   3.153   3.787   8.295  0.1109 -0.8320  0.3012
 3540TIP3   OH232254   6.582   5.831   1.674 -0.3203  0.2751 -0.2957
 3540TIP3    H132255   6.520   5.858   1.741  0.7818  2.9806 -0.2448
 3540TIP3    H232256   6.661   5.807   1.722 -0.3002 -0.1063 -0.5143
 3541TIP3   OH232257   5.700   1.632   6.894  0.1114 -0.2382  0.3115
 3541TIP3    H132258   5.755   1.706   6.869 -0.1202 -0.3615 -0.5962
 3541TIP3    H232259   5.620   1.643   6.842 -0.4367 -0.4387  1.1030
 3542TIP3   OH232260   0.374   3.987   0.141  0.0821  0.1325 -0.1876
 3542TIP3    H132261   0.369   3.992   0.237 -1.3970 -0.8461 -0.1749
 3542TIP3    H232262   0.401   4.075   0.114 -2.2141  1.3209  1.0222
 3543TIP3   OH232263   4.701   5.137   0.080  0.3346 -0.1508  0.1688
 3543TIP3    H132264   4.615   5.100   0.099 -0.3369  0.6573 -1.1786
 3543TIP3    H232265   4.687   5.231   0.071  1.5820  0.1607  1.0742
 3544TIP3   OH232266   6.864   1.191   1.883  0.2753  0.3141 -0.0931
 3544TIP3    H132267   6.871   1.198   1.788  0.2308 -1.6016 -0.2620
 3544TIP3    H232268   6.920   1.117   1.906 -1.1864 -0.4629  1.1483
 3545TIP3   OH232269   3.095   2.866   8.324 -0.1487 -0.2302  0.3356
 3545TIP3    H132270   3.053   2.821   8.251  0.2210 -0.8386  0.4880
 3545TIP3    H232271   3.112   2.797   8.388 -2.6481  0.6493  2.0657
 3546TIP3   OH232272   3.158   1.278   8.379 -0.1984 -0.0303  0.2679
 3546TIP3    H132273   3.183   1.335   8.451 -0.0140 -0.7727  0.7999
 3546TIP3    H232274   3.064   1.265   8.390  0.0811 -1.3755  1.2945
 3547TIP3   OH232275   0.040   6.048   0.384 -0.1330 -0.2590  0.3200
 3547TIP3    H132276  -0.043   6.057   0.430 -0.1542  0.0589  0.2260
 3547TIP3    H232277   0.045   5.956   0.359 -0.5405 -0.2383  0.1692
 3548TIP3   OH232278   2.845   0.568   2.347  0.1912  0.8227 -0.3391
 3548TIP3    H132279   2.865   0.504   2.416  0.9020  1.6645  0.2649
 3548TIP3    H232280   2.772   0.619   2.382  0.5066  1.2056 -0.2301
 3549TIP3   OH232281   4.886   4.854   1.812  0.1611  0.0018 -0.2095
 3549TIP3    H132282   4.958   4.803   1.777  0.7638  0.1747  0.7232
 3549TIP3    H232283   4.831   4.791   1.858  0.6991  0.1108  0.6127
 3550TIP3   OH232284   6.272   2.561   7.062 -0.2288 -0.4755  0.2446
 3550TIP3    H132285   6.344   2.590   7.007  1.2917 -1.1972  1.7466
 3550TIP3    H232286   6.267   2.467   7.047 -1.2619 -0.3451 -0.2807
 3551TIP3   OH232287   4.696   4.257   2.521  0.1363  0.0755 -0.7353
 3551TIP3    H132288   4.746   4.307   2.456 -1.7144  2.3419 -0.5597
 3551TIP3    H232289   4.606   4.288   2.510 -0.7000 -1.5620  1.0451
 3552TIP3   OH232290   4.644   6.121   2.900  0.4223 -0.8455  0.7345
 3552TIP3    H132291   4.616   6.030   2.894 -0.2643 -0.6790  1.2780
 3552TIP3    H232292   4.591   6.158   2.971 -0.2701  0.3217 -0.3434
 3553TIP3   OH232293   4.141   5.009   7.825  0.3718 -0.2862  0.1526
 3553TIP3    H132294   4.079   4.957   7.877 -1.2759  0.6399 -0.8225
 3553TIP3    H232295   4.141   4.968   7.739  1.8300 -0.7938  0.3538
 3554TIP3   OH232296   0.676   2.107   0.983 -0.1144  0.2247  0.0508
 3554TIP3    H132297   0.723   2.051   0.920 -1.0304 -0.8340  0.2669
 3554TIP3    H232298   0.650   2.183   0.931 -1.7067 -1.0653 -1.1894
 3555TIP3   OH232299   1.566   0.149   0.405  0.3759  0.4411  0.0402
 3555TIP3    H132300   1.509   0.128   0.331  0.7483  0.0954 -0.1574
 3555TIP3    H232301   1.651   0.111   0.381  0.5584  0.5184  0.5457
 3556TIP3   OH232302   1.617   6.568   2.904  0.3257  0.5448 -0.4155
 3556TIP3    H132303   1.565   6.487   2.905  1.9085 -0.5344  1.6108
 3556TIP3    H232304   1.569   6.626   2.845 -0.1899 -2.2954 -3.0650
 3557TIP3   OH232305   3.595   3.760   1.034  0.2029 -0.6396  0.0342
 3557TIP3    H132306   3.618   3.695   0.968  0.0842 -1.3634  0.7005
 3557TIP3    H232307   3.664   3.826   1.028 -0.3436 -0.1536 -1.5124
 3558TIP3   OH232308   0.984   0.552   7.891 -0.8486 -0.1019  0.1164
 3558TIP3    H132309   0.947   0.539   7.978  2.8468 -0.6810  1.7854
 3558TIP3    H232310   1.010   0.465   7.862  1.7392  0.5244  0.3638
 3559TIP3   OH232311   1.134   6.381   7.646 -0.0892  0.4457 -0.3092
 3559TIP3    H132312   1.040   6.364   7.649  0.1999 -1.2142  1.3584
 3559TIP3    H232313   1.160   6.356   7.557 -1.2058  1.0165 -0.8251
 3560TIP3   OH232314   5.080   2.813   7.796  0.4570 -0.1668 -0.4092
 3560TIP3    H132315   5.084   2.760   7.716 -1.6879  0.7833 -1.2090
 3560TIP3    H232316   5.010   2.772   7.848 -0.5269  1.2187 -0.5868
 3561TIP3   OH232317   2.964   3.605   0.419 -0.1165  0.1861 -0.4114
 3561TIP3    H132318   2.868   3.610   0.426 -0.0730 -0.0371  0.5151
 3561TIP3    H232319   2.984   3.513   0.436  0.2462  0.1843 -0.8480
 3562TIP3   OH232320   2.206   5.976   1.212 -0.3738 -0.0895 -0.1629
 3562TIP3    H132321   2.153   5.909   1.254  0.3213 -1.6717 -1.7032
 3562TIP3    H232322   2.292   5.935   1.200  0.3220  1.3686 -0.3815
 3563TIP3   OH232323   1.219   0.967   7.812 -0.1539  0.2822  0.2556
 3563TIP3    H132324   1.203   1.049   7.765  1.2392  0.3332 -0.1626
 3563TIP3    H232325   1.144   0.912   7.789 -0.2412  0.8235 -0.8601
 3564TIP3   OH232326   2.715   4.321   0.754  0.3471 -0.4142  0.4597
 3564TIP3    H132327   2.652   4.389   0.732 -0.3771 -0.5616  1.9532
 3564TIP3    H232328   2.682   4.243   0.709  2.1100  0.4819 -2.6908
 3565TIP3   OH232329   5.250   3.409   1.910 -0.2145  0.4533 -1.1282
 3565TIP3    H132330   5.182   3.432   1.847 -1.2380 -0.8039 -0.5264
 3565TIP3    H232331   5.304   3.488   1.917 -2.6534  2.1554 -0.2938
 3566TIP3   OH232332   0.032   1.040   0.764 -0.0907 -0.0671 -0.1605
 3566TIP3    H132333   0.022   1.103   0.835  3.1577  0.2146  0.1925
 3566TIP3    H232334   0.051   0.957   0.809 -1.7003 -0.7798 -0.6962
 3567TIP3   OH232335   4.139   1.234   1.103  0.1767 -0.4076 -0.2655
 3567TIP3    H132336   4.181   1.295   1.164  1.2377 -0.3966 -0.9825
 3567TIP3    H232337   4.057   1.210   1.146  0.6734 -0.0201  0.9377
 3568TIP3   OH232338   0.741   6.387   8.609  0.8626 -0.3210  0.0996
 3568TIP3    H132339   0.790   6.307   8.629  2.0128 -0.0079 -1.2979
 3568TIP3    H232340   0.806   6.447   8.574 -0.1797  0.8463  0.0998
 3569TIP3   OH232341   1.394   1.628   2.586 -0.5302 -0.4613  0.5153
 3569TIP3    H132342   1.436   1.574   2.653  0.4237  2.4881  2.4765
 3569TIP3    H232343   1.465   1.651   2.526 -0.5234  0.0451  0.7123
 3570TIP3   OH232344   2.038   6.642   0.053 -0.3532  0.0140  0.2443
 3570TIP3    H132345   2.111   6.649   0.114 -0.3181  0.9273  0.1053
 3570TIP3    H232346   1.995   6.727   0.057 -0.8808 -0.2192 -0.3437
 3571TIP3   OH232347   4.108   0.894   2.559 -0.1462  0.2875  0.2448
 3571TIP3    H132348   4.137   0.908   2.649 -1.7941 -0.1127  0.8753
 3571TIP3    H232349   4.091   0.800   2.553  2.1325 -0.1118 -1.2146
 3572TIP3   OH232350   3.029   1.002   2.347  0.6052 -0.0364 -0.0985
 3572TIP3    H132351   3.018   0.961   2.261 -0.2292  0.1598 -0.0914
 3572TIP3    H232352   3.007   0.932   2.409 -0.6387  0.3464 -0.0838
 3573TIP3   OH232353   0.151   1.019   2.853 -0.0604 -0.0367 -0.1762
 3573TIP3    H132354   0.144   0.924   2.842 -0.5833 -0.1062  0.6391
 3573TIP3    H232355   0.123   1.035   2.943  2.2612  0.6283  0.5226
 3574TIP3   OH232356   2.933   6.638   1.183  0.3011  0.3352  0.3070
 3574TIP3    H132357   2.983   6.598   1.254 -0.7953 -1.2672  0.2301
 3574TIP3    H232358   2.967   6.596   1.104 -0.2331  0.2316  0.1303
 3575TIP3   OH232359   0.692   6.277   1.280 -0.2721 -0.3139 -0.4309
 3575TIP3    H132360   0.644   6.209   1.327 -0.5045  1.4660  2.1245
 3575TIP3    H232361   0.772   6.290   1.331 -0.7203  1.9911 -0.1808
 3576TIP3   OH232362   1.512   2.777   8.263 -0.1668 -0.4005  0.0526
 3576TIP3    H132363   1.549   2.830   8.334  0.5833 -1.1712  0.2491
 3576TIP3    H232364   1.530   2.828   8.184  0.3733 -0.2590  0.2600
 3577TIP3   OH232365   2.467   0.167   0.954  0.1650 -0.3971 -0.4595
 3577TIP3    H132366   2.426   0.164   1.040 -0.6917  3.8311 -0.4811
 3577TIP3    H232367   2.560   0.178   0.971  0.3490 -2.0799 -0.2170
 3578TIP3   OH232368   4.943   4.389   2.682  0.2176 -0.5161 -0.2824
 3578TIP3    H132369   4.879   4.318   2.692 -1.1600  0.4575 -1.7524
 3578TIP3    H232370   5.005   4.356   2.617  1.5507 -1.6270  1.4417
 3579TIP3   OH232371   6.804   0.532   2.150 -0.0642  0.3249 -0.3194
 3579TIP3    H132372   6.766   0.614   2.179  0.3645  0.6425 -0.6389
 3579TIP3    H232373   6.830   0.548   2.059  0.0716 -0.1451 -0.3697
 3580TIP3   OH232374   1.488   0.763   0.361  0.1303 -0.0879  0.2172
 3580TIP3    H132375   1.565   0.818   0.376 -1.3051  1.4952  2.3130
 3580TIP3    H232376   1.507   0.682   0.410  1.3685 -0.7247 -1.1990
 3581TIP3   OH232377   5.278   5.848   1.120 -0.1791 -0.1406  0.0764
 3581TIP3    H132378   5.229   5.906   1.177  1.0357  0.6258  0.3844
 3581TIP3    H232379   5.369   5.877   1.129  0.4013 -1.8299 -0.0916
 3582TIP3   OH232380   2.997   3.773   8.654 -0.7307  0.4792  0.1635
 3582TIP3    H132381   3.014   3.696   8.601 -2.5669 -0.0722  0.3096
 3582TIP3    H232382   3.032   3.846   8.602  0.8688 -0.4148 -0.0454
 3583TIP3   OH232383   0.210   1.217   2.180  0.4736  0.2812  0.7164
 3583TIP3    H132384   0.206   1.126   2.209  0.7903 -0.8025 -2.2867
 3583TIP3    H232385   0.125   1.233   2.138  1.2357  0.5519 -0.8099
 3584TIP3   OH232386   6.342   3.795   1.095 -0.2099 -0.2964  0.1710
 3584TIP3    H132387   6.292   3.850   1.035 -0.2334 -0.0261  0.4382
 3584TIP3    H232388   6.289   3.791   1.175 -1.1226 -2.2369 -0.4649
 3585TIP3   OH232389   1.653   1.472   8.071  0.1631 -0.3335  0.7232
 3585TIP3    H132390   1.584   1.418   8.033  1.4289 -0.5766 -1.4071
 3585TIP3    H232391   1.688   1.522   7.997  1.7242  0.3920  1.8840
 3586TIP3   OH232392   1.521   2.376   2.319 -0.3586 -0.1885  0.2338
 3586TIP3    H132393   1.445   2.431   2.337  0.7376  1.7094 -0.6203
 3586TIP3    H232394   1.533   2.383   2.224  0.4154 -1.1249  0.2489
 3587TIP3   OH232395   2.850   6.093   0.506  0.3464 -0.9491  0.4918
 3587TIP3    H132396   2.776   6.050   0.549  0.8954 -0.5251  1.9015
 3587TIP3    H232397   2.927   6.055   0.547  0.9531 -1.6625 -1.2325
 3588TIP3   OH232398   2.409   4.572   7.465 -0.5685 -0.7622  0.3214
 3588TIP3    H132399   2.465   4.585   7.388 -0.1002 -1.9857  0.4295
 3588TIP3    H232400   2.406   4.657   7.508  2.2544 -0.9184  0.9911
 3589TIP3   OH232401   1.749   2.992   7.148  0.0091  0.3733 -0.1473
 3589TIP3    H132402   1.662   2.975   7.114 -0.8103  0.6025  1.7019
 3589TIP3    H232403   1.775   2.908   7.188  1.3014 -0.1520 -1.9423
 3590TIP3   OH232404   4.934   3.962   8.241 -0.1196 -0.4329 -0.4737
 3590TIP3    H132405   4.982   3.898   8.294 -2.2359 -1.9218 -0.2157
 3590TIP3    H232406   4.922   3.918   8.157  1.9235  1.3297 -1.7887
 3591TIP3   OH232407   0.966   1.231   1.113 -0.2402 -0.7975  0.4461
 3591TIP3    H132408   0.917   1.167   1.165 -0.1824  0.0167  1.5518
 3591TIP3    H232409   1.035   1.181   1.071 -0.7135 -1.5965  0.6067
 3592TIP3   OH232410   4.025   0.174   1.982  0.4692 -0.6850  0.4519
 3592TIP3    H132411   3.994   0.233   2.050 -0.1169 -0.9494  0.4177
 3592TIP3    H232412   4.089   0.226   1.933  1.3562 -0.6885  1.5593
 3593TIP3   OH232413   3.438   1.347   8.024 -0.2554  0.2943  0.1335
 3593TIP3    H132414   3.445   1.442   8.020 -1.4000  0.4193  0.7916
 3593TIP3    H232415   3.438   1.319   7.932  0.9275  0.8397 -0.0522
 3594TIP3   OH232416   5.492   2.233   1.706  0.6497  0.3064  0.3279
 3594TIP3    H132417   5.406   2.248   1.667  0.5325 -0.3618  0.3216
 3594TIP3    H232418   5.554   2.266   1.640  0.4266 -0.0238 -0.0479
 3595TIP3   OH232419   2.538   3.797   0.967  0.0314  0.3762 -0.0346
 3595TIP3    H132420   2.467   3.759   0.915 -0.6103  1.5561 -0.0520
 3595TIP3    H232421   2.507   3.885   0.989  0.8816  0.3874  1.1864
 3596TIP3   OH232422   4.127   1.114   7.891  0.0557  0.0192  0.2279
 3596TIP3    H132423   4.067   1.047   7.924  0.8474 -0.3635  0.9278
 3596TIP3    H232424   4.136   1.176   7.964  0.1409  0.3318 -0.0465
 3597TIP3   OH232425   4.657   3.007   8.492  0.5848  0.2749 -0.3180
 3597TIP3    H132426   4.613   3.073   8.545  1.0667  1.6215 -1.5183
 3597TIP3    H232427   4.737   2.986   8.540  0.1140  0.0605  0.3896
 3598TIP3   OH232428   6.819   2.957   0.797 -0.0159 -0.7684 -0.0300
 3598TIP3    H132429   6.746   3.007   0.760  0.8412  0.3878 -0.1974
 3598TIP3    H232430   6.819   2.980   0.890 -0.3698 -1.4197  0.1372
 3599TIP3   OH232431   1.311   6.101   0.008  0.4978  0.3586  0.0025
 3599TIP3    H132432   1.249   6.078   0.076 -3.0760 -0.5963 -3.2450
 3599TIP3    H232433   1.294   6.193  -0.010  0.7569  0.3580 -0.2630
 3600TIP3   OH232434   6.109   3.524   0.343  0.0277  0.1452 -0.3830
 3600TIP3    H132435   6.150   3.602   0.380 -0.5086 -0.4973  1.7018
 3600TIP3    H232436   6.078   3.552   0.257  0.3759  2.0549  0.0638
 3601TIP3   OH232437   3.776   1.236   6.812  0.3938 -0.1843  0.1123
 3601TIP3    H132438   3.852   1.213   6.866  1.5947  1.1795 -0.9067
 3601TIP3    H232439   3.795   1.324   6.781 -1.6211  0.1665 -0.2093
 3602TIP3   OH232440   6.580   1.452   0.273  0.2223  0.0251 -0.2337
 3602TIP3    H132441   6.585   1.372   0.326 -1.1244  0.3546  0.4498
 3602TIP3    H232442   6.505   1.437   0.215 -0.0197  0.7694 -0.1249
 3603TIP3   OH232443   0.562   3.097   1.043 -0.1854 -0.2096  0.0485
 3603TIP3    H132444   0.477   3.135   1.025  0.0324  0.5899  0.6245
 3603TIP3    H232445   0.567   3.093   1.139 -0.3212 -2.0052  0.0111
 3604TIP3   OH232446   3.995   3.471   1.281  0.3585 -0.1200 -1.1140
 3604TIP3    H132447   4.082   3.510   1.275  0.6471 -0.9569 -2.8825
 3604TIP3    H232448   3.938   3.544   1.307  1.4917  0.5320 -0.3624
 3605TIP3   OH232449   5.681   4.949   0.034 -0.4178  0.3562 -0.3973
 3605TIP3    H132450   5.737   5.013   0.077 -1.5988 -0.0621  1.8917
 3605TIP3    H232451   5.614   5.001  -0.010 -1.4450  0.7679  1.5476
 3606TIP3   OH232452   2.341   3.898   1.711 -0.4534 -0.0432 -0.0116
 3606TIP3    H132453   2.338   3.821   1.654  0.4810  1.0919 -1.6620
 3606TIP3    H232454   2.340   3.973   1.651  0.0373  1.2178  1.4954
 3607TIP3   OH232455   1.730   6.018   2.438 -0.0743  0.1509 -0.2420
 3607TIP3    H132456   1.656   5.986   2.488  0.7490 -2.9040 -0.7462
 3607TIP3    H232457   1.807   5.992   2.489  0.7057  0.1519 -1.3766
 3608TIP3   OH232458   6.819   6.390   2.243 -0.5841  0.0581 -0.1245
 3608TIP3    H132459   6.784   6.338   2.171  0.2827 -0.6343 -0.0681
 3608TIP3    H232460   6.909   6.410   2.217  0.9312 -2.9850  2.0801
 3609TIP3   OH232461   2.446   2.548   0.011 -0.4698  0.2585  0.5477
 3609TIP3    H132462   2.511   2.491   0.053 -0.5548  0.5765  1.1223
 3609TIP3    H232463   2.409   2.599   0.083 -2.0380 -0.5856  0.3981
 3610TIP3   OH232464   5.929   0.356   2.113  0.2547  0.1915  0.3375
 3610TIP3    H132465   5.841   0.383   2.089 -1.0372 -2.7647  1.3000
 3610TIP3    H232466   5.922   0.332   2.206  2.1286  0.1017  0.4970
 3611TIP3   OH232467   5.876   5.797   1.277 -0.6394 -0.1284 -0.2836
 3611TIP3    H132468   5.970   5.779   1.268 -0.8198 -0.3965 -1.9314
 3611TIP3    H232469   5.872   5.890   1.299 -0.0096  0.1435 -1.2641
 3612TIP3   OH232470   1.108   1.415   0.178  0.5620 -0.6891  0.4913
 3612TIP3    H132471   1.185   1.430   0.123  0.1216  0.7812  0.2266
 3612TIP3    H232472   1.124   1.467   0.256 -0.0503 -0.5611  0.5391
 3613TIP3   OH232473   4.680   3.829   0.225 -0.4854 -0.1253 -0.2821
 3613TIP3    H132474   4.615   3.895   0.203 -1.1199 -0.9903 -1.1222
 3613TIP3    H232475   4.645   3.748   0.186  1.1200 -0.5961 -0.8219
 3614TIP3   OH232476   6.688   4.230   2.232 -0.3313 -0.2718  0.6331
 3614TIP3    H132477   6.616   4.266   2.285 -0.7688 -0.3162  0.0783
 3614TIP3    H232478   6.652   4.150   2.194 -1.0988  1.2740 -2.1614
 3615TIP3   OH232479   5.816   2.243   7.506 -0.2820 -0.0128 -0.6179
 3615TIP3    H132480   5.909   2.242   7.483 -0.1400  1.3279 -0.1922
 3615TIP3    H232481   5.787   2.332   7.487 -0.7775  0.4378  1.8880
 3616TIP3   OH232482   4.906   0.826   8.393  0.2192  0.6854 -0.5132
 3616TIP3    H132483   4.970   0.755   8.395  0.0864  0.5566 -0.7693
 3616TIP3    H232484   4.847   0.808   8.466 -0.5537 -0.1671 -1.3138
 3617TIP3   OH232485   0.179   5.497   0.872 -0.3692 -0.5428 -0.3026
 3617TIP3    H132486   0.236   5.541   0.936  1.1064 -1.6946 -0.7623
 3617TIP3    H232487   0.239   5.459   0.808 -1.7876  0.2309 -2.1933
 3618TIP3   OH232488   0.656   1.980   2.359  0.9092  0.4302 -0.5229
 3618TIP3    H132489   0.741   1.943   2.385  2.4690  1.8050 -3.2255
 3618TIP3    H232490   0.594   1.946   2.424  3.8997  1.5828  3.3123
 3619TIP3   OH232491   0.527   3.553   7.266  0.4902 -0.6107 -0.0845
 3619TIP3    H132492   0.584   3.544   7.189  0.2539  0.1602 -0.3556
 3619TIP3    H232493   0.439   3.542   7.232  0.3926 -0.3914  0.0996
 3620TIP3   OH232494   0.667   4.253   2.465  0.0211 -0.5211 -0.4020
 3620TIP3    H132495   0.714   4.177   2.430  1.7217 -0.3090  1.2764
 3620TIP3    H232496   0.715   4.277   2.543 -1.9050  0.8441  0.4401
 3621TIP3   OH232497   0.292   6.091   7.885 -0.0535  0.0945  0.1501
 3621TIP3    H132498   0.330   6.128   7.805  0.9669 -0.0483  0.5673
 3621TIP3    H232499   0.198   6.109   7.876  0.1035  0.4914 -0.8636
 3622TIP3   OH232500   3.733   0.633   7.836 -0.1936 -0.4501 -0.1414
 3622TIP3    H132501   3.724   0.727   7.853  0.3487 -0.4916  0.3892
 3622TIP3    H232502   3.644   0.599   7.844 -0.3061 -0.0741  0.2329
 3623TIP3   OH232503   3.682   5.421   0.222 -0.2993 -0.0409 -0.4562
 3623TIP3    H132504   3.615   5.483   0.193 -0.9122 -0.1480  0.6691
 3623TIP3    H232505   3.680   5.426   0.317  0.5387 -0.8543 -0.3768
 3624TIP3   OH232506   4.432   0.961   7.204 -0.3624  0.3967 -0.4536
 3624TIP3    H132507   4.409   1.025   7.272  2.4764  2.0759 -0.9152
 3624TIP3    H232508   4.483   0.895   7.250  0.2859  0.7427 -0.6608
 3625TIP3   OH232509   2.136   0.907   0.591 -0.1909 -0.5609 -0.4566
 3625TIP3    H132510   2.102   0.850   0.660 -1.2141 -0.4392 -0.8445
 3625TIP3    H232511   2.228   0.921   0.614 -0.5578 -0.3785  0.9743
 3626TIP3   OH232512   3.712   6.810   2.525 -0.0883  0.2886 -0.4522
 3626TIP3    H132513   3.746   6.727   2.557 -2.4423 -1.1503 -1.3875
 3626TIP3    H232514   3.749   6.876   2.583  2.9791 -1.2083 -0.5438
 3627TIP3   OH232515   3.223   5.811   0.717  0.1334  0.3912  0.4391
 3627TIP3    H132516   3.209   5.895   0.760 -0.7924  0.9632 -0.9243
 3627TIP3    H232517   3.136   5.773   0.707  0.2656  0.4159 -1.1487
 3628TIP3   OH232518   5.576   3.328   1.300 -0.0145 -0.0505  0.5434
 3628TIP3    H132519   5.636   3.265   1.340 -0.9639 -0.1603  1.8544
 3628TIP3    H232520   5.623   3.411   1.302  1.8657 -0.8805 -2.5703
 3629TIP3   OH232521   6.679   3.038   1.644  0.6353  0.3642 -0.3147
 3629TIP3    H132522   6.678   2.972   1.713 -1.0302 -0.2595 -0.8848
 3629TIP3    H232523   6.689   2.988   1.562 -0.7466  0.7767 -0.7595
 3630TIP3   OH232524   4.783   2.353   0.464  0.4339  0.3403  0.4665
 3630TIP3    H132525   4.691   2.367   0.487  0.5828  1.6018  0.3700
 3630TIP3    H232526   4.785   2.266   0.426 -0.9815  0.7958 -0.7650
 3631TIP3   OH232527   6.504   4.412   7.671  0.2053 -0.4968  0.2985
 3631TIP3    H132528   6.577   4.400   7.611 -0.2257  3.0279 -1.1917
 3631TIP3    H232529   6.433   4.446   7.616 -1.1524  0.1545  2.3313
 3632TIP3   OH232530   1.394   4.853   7.495 -0.1015 -0.0544 -1.0295
 3632TIP3    H132531   1.312   4.817   7.462  0.1543 -0.3656 -1.3357
 3632TIP3    H232532   1.450   4.861   7.417  1.1735 -2.5399 -0.4540
 3633TIP3   OH232533   5.157   0.882   0.947 -0.0919 -0.5396 -0.0403
 3633TIP3    H132534   5.153   0.797   0.990 -1.7491 -0.5194 -0.1023
 3633TIP3    H232535   5.091   0.935   0.991 -1.4498 -0.3415 -2.1870
 3634TIP3   OH232536   3.526   0.375   2.249  0.2428 -0.7754  0.1715
 3634TIP3    H132537   3.506   0.403   2.338  0.9264 -0.5394  0.2608
 3634TIP3    H232538   3.542   0.280   2.256 -2.9704 -1.4653 -0.2843
 3635TIP3   OH232539   6.008   0.214   1.482 -0.1113  0.1124  0.0153
 3635TIP3    H132540   5.955   0.246   1.555  0.0820  1.3029 -0.3478
 3635TIP3    H232541   5.954   0.147   1.442 -0.4695 -0.1375  0.8931
 3636TIP3   OH232542   2.088   5.238   8.419  0.1026  0.1515 -0.1063
 3636TIP3    H132543   2.058   5.294   8.348 -0.6875  0.6068  0.5756
 3636TIP3    H232544   2.073   5.148   8.388  0.8737  0.3044 -0.9811
 3637TIP3   OH232545   5.893   2.896   8.470  0.0023  0.2437  0.3022
 3637TIP3    H132546   5.831   2.858   8.407 -1.9226 -0.1223  2.3007
 3637TIP3    H232547   5.958   2.828   8.484 -0.4655 -0.2899 -0.0765
 3638TIP3   OH232548   4.140   6.424   1.367  0.6574 -0.3977  0.0709
 3638TIP3    H132549   4.067   6.371   1.334 -0.2509 -0.1165  1.5014
 3638TIP3    H232550   4.168   6.476   1.292  0.5249 -1.7441 -0.9494
 3639TIP3   OH232551   0.705   3.824   1.039 -0.4994  0.1288  0.6872
 3639TIP3    H132552   0.624   3.875   1.042  0.2781  2.0359 -3.2206
 3639TIP3    H232553   0.689   3.749   1.095 -4.1392  1.5069  1.7676
 3640TIP3   OH232554   3.232   5.000   0.416 -0.0461  0.3112 -0.5785
 3640TIP3    H132555   3.218   4.965   0.328  0.4487  0.7471 -0.8366
 3640TIP3    H232556   3.206   4.929   0.474 -1.0324  0.2481 -1.0592
 3641TIP3   OH232557   5.878   0.249   2.377 -0.1588  0.0431  0.1891
 3641TIP3    H132558   5.823   0.305   2.433  0.7130  1.3216 -0.2019
 3641TIP3    H232559   5.943   0.212   2.437  1.6387  2.5028 -0.1264
 3642TIP3   OH232560   0.117   1.960   2.665  0.0184  0.0476 -0.3302
 3642TIP3    H132561   0.064   1.901   2.611 -0.4447 -0.9970  1.2108
 3642TIP3    H232562   0.103   2.046   2.626 -0.8815 -0.5598 -1.4236
 3643TIP3   OH232563   5.976   3.103   0.302 -0.0603 -0.1778 -0.5646
 3643TIP3    H132564   6.029   3.023   0.311  0.6411  0.3360  0.0364
 3643TIP3    H232565   5.886   3.071   0.300  0.2118 -0.9974 -0.3955
 3644TIP3   OH232566   2.546   2.470   8.353 -0.3059  0.1711  0.1409
 3644TIP3    H132567   2.514   2.381   8.368  0.5740 -0.2674 -0.5035
 3644TIP3    H232568   2.617   2.480   8.416  0.3037  0.0181 -0.5095
 3645TIP3   OH232569   0.849   3.044   7.320 -1.0018  0.4555 -0.6451
 3645TIP3    H132570   0.870   2.989   7.245 -2.2839  1.5946 -1.8973
 3645TIP3    H232571   0.869   3.133   7.292 -1.5875  0.9170  0.3326
 3646TIP3   OH232572   4.346   6.614   8.196 -0.2018 -0.2519 -0.4356
 3646TIP3    H132573   4.298   6.581   8.272 -1.4039 -0.1949 -1.1400
 3646TIP3    H232574   4.356   6.539   8.138  0.3653 -0.2097 -0.4002
 3647TIP3   OH232575   2.134   1.280   1.838  0.1687 -0.0142 -0.2988
 3647TIP3    H132576   2.196   1.353   1.842 -0.4954  0.6055 -1.1165
 3647TIP3    H232577   2.076   1.293   1.913 -0.7996  1.1032 -1.2010
 3648TIP3   OH232578   4.691   4.660   8.526  0.1300  0.4011 -0.2627
 3648TIP3    H132579   4.619   4.701   8.573  0.7265  0.4330  0.6632
 3648TIP3    H232580   4.749   4.628   8.595 -0.0028 -1.4419 -0.9527
 3649TIP3   OH232581   3.708   4.624   2.386  0.5563 -0.1661 -0.2983
 3649TIP3    H132582   3.717   4.543   2.437  0.9310 -0.4604 -0.8116
 3649TIP3    H232583   3.773   4.614   2.316 -0.9737 -0.4616 -1.7251
 3650TIP3   OH232584   1.834   5.789   8.300  0.6610 -0.0486 -0.1161
 3650TIP3    H132585   1.814   5.865   8.355 -0.9758 -0.6049  0.1360
 3650TIP3    H232586   1.748   5.749   8.282  1.5459 -2.9683  1.4237
 3651TIP3   OH232587   0.938   6.538   7.312 -0.7111  0.3414  0.0304
 3651TIP3    H132588   1.021   6.528   7.266 -0.4437  1.6264  0.2028
 3651TIP3    H232589   0.873   6.503   7.251 -0.0499 -0.7990 -0.0528
 3652TIP3   OH232590   0.181   3.823   1.770 -0.0506 -0.1783  0.5130
 3652TIP3    H132591   0.153   3.744   1.817  0.2531  0.6136  2.0581
 3652TIP3    H232592   0.104   3.848   1.718 -0.2899 -1.2285  0.3317
 3653TIP3   OH232593   6.479   1.191   8.404  0.5032 -0.4554  0.0434
 3653TIP3    H132594   6.553   1.137   8.377  0.1979 -2.0764  2.1594
 3653TIP3    H232595   6.511   1.239   8.480 -0.6426 -1.3923  1.1720
 3654TIP3   OH232596   0.374   3.253   7.579 -0.6252  0.7045  0.5652
 3654TIP3    H132597   0.454   3.270   7.529 -0.0715  0.1661  1.2630
 3654TIP3    H232598   0.304   3.291   7.524  0.1011  1.2644 -0.0039
 3655TIP3   OH232599   1.826   5.970   8.007 -0.2301  0.3039  0.0412
 3655TIP3    H132600   1.840   6.055   7.965  0.0920  0.0973 -0.2739
 3655TIP3    H232601   1.908   5.952   8.053 -0.1448 -0.0354 -0.2461
 3656TIP3   OH232602   1.407   2.130   0.265 -0.2132 -0.4283  0.8010
 3656TIP3    H132603   1.426   2.191   0.337  1.2077 -0.1673  0.2252
 3656TIP3    H232604   1.492   2.095   0.239 -0.8712 -1.7045  0.2588
 3657TIP3   OH232605   6.233   5.648   0.994  0.2087  0.2488 -0.4434
 3657TIP3    H132606   6.315   5.695   1.004 -1.0439  2.5339 -0.1396
 3657TIP3    H232607   6.227   5.629   0.900  1.5736 -1.0272 -0.3163
 3658TIP3   OH232608   0.322   5.566   7.992 -0.0850 -0.0800 -0.3550
 3658TIP3    H132609   0.393   5.508   7.967 -0.4238 -1.9774  2.5197
 3658TIP3    H232610   0.248   5.539   7.938  0.3239 -0.9160 -0.5040
 3659TIP3   OH232611   0.931   1.916   1.396  0.2714  0.2813  0.2084
 3659TIP3    H132612   0.992   1.882   1.331 -0.1858  0.4883 -0.3391
 3659TIP3    H232613   0.864   1.962   1.345 -1.7582 -2.0229  0.5771
 3660TIP3   OH232614   5.236   2.620   2.919  0.1779 -0.0310  0.1501
 3660TIP3    H132615   5.198   2.708   2.920  0.5428  0.1254  0.5238
 3660TIP3    H232616   5.165   2.564   2.889 -0.3224  0.2682  0.7506
 3661TIP3   OH232617   1.261   4.278   8.116 -0.1434 -0.0102 -0.4645
 3661TIP3    H132618   1.270   4.356   8.061 -0.1506  0.6507  0.4378
 3661TIP3    H232619   1.178   4.238   8.089 -0.2507  0.4226 -0.7798
 3662TIP3   OH232620   0.251   3.742   0.109 -0.0713 -0.2517 -0.1532
 3662TIP3    H132621   0.297   3.826   0.111 -0.1482 -0.2282  0.9438
 3662TIP3    H232622   0.158   3.764   0.117 -0.1335 -0.4095 -0.4199
 3663TIP3   OH232623   3.504   6.439   1.249  0.6908  0.1817 -0.2672
 3663TIP3    H132624   3.572   6.414   1.186  0.7092 -3.7892  1.0409
 3663TIP3    H232625   3.423   6.442   1.199  1.3180  1.7622 -1.2504
 3664TIP3   OH232626   3.347   1.086   0.365 -0.1686 -0.4214  0.0368
 3664TIP3    H132627   3.352   1.139   0.286 -0.4710 -2.9284 -1.7700
 3664TIP3    H232628   3.373   0.998   0.337  0.9266 -1.1655  3.0099
 3665TIP3   OH232629   4.155   4.118   0.699 -0.0953  0.0116  0.6169
 3665TIP3    H132630   4.219   4.134   0.630  0.5708  0.8383  1.4048
 3665TIP3    H232631   4.075   4.094   0.652  0.7795 -1.0513 -0.3817
 3666TIP3   OH232632   1.939   1.048   2.819 -0.4354  0.2963 -0.2327
 3666TIP3    H132633   2.027   1.085   2.807 -0.0421 -1.2447 -2.7946
 3666TIP3    H232634   1.895   1.111   2.877  2.2186  1.2795  0.9074
 3667TIP3   OH232635   2.413   3.302   1.047  0.0816 -0.2293  0.3798
 3667TIP3    H132636   2.465   3.263   1.117  0.8705 -0.2403 -0.2044
 3667TIP3    H232637   2.408   3.395   1.069 -2.9841 -0.7565  2.5377
 3668TIP3   OH232638   3.711   4.023   8.011 -0.2515 -0.2015 -0.4843
 3668TIP3    H132639   3.616   4.035   8.015 -0.2971 -0.4585 -0.8289
 3668TIP3    H232640   3.723   3.929   7.994  0.0622 -0.1381 -0.6144
 3669TIP3   OH232641   3.485   3.455   3.274 -0.5538  0.1345 -0.3566
 3669TIP3    H132642   3.538   3.377   3.287 -0.6142 -0.3511 -2.5548
 3669TIP3    H232643   3.396   3.429   3.299 -0.4138 -0.2087 -0.2186
 3670TIP3   OH232644   1.626   2.571   0.969 -0.0144  0.1990  0.1233
 3670TIP3    H132645   1.689   2.628   1.012 -0.1708  0.1080  0.4755
 3670TIP3    H232646   1.593   2.622   0.895  1.6055 -0.3064 -1.0149
 3671TIP3   OH232647   1.861   0.655   8.290  0.1803 -0.3467 -0.4454
 3671TIP3    H132648   1.841   0.740   8.330 -2.2816 -1.3288  0.6526
 3671TIP3    H232649   1.951   0.636   8.318  0.8042  1.8560 -0.7300
 3672TIP3   OH232650   3.715   0.472   1.230 -0.0369  0.0501 -0.1299
 3672TIP3    H132651   3.750   0.455   1.318  1.0302  0.8062 -0.3775
 3672TIP3    H232652   3.725   0.567   1.219  3.0637 -0.3554 -2.3091
 3673TIP3   OH232653   1.850   2.163   2.238  0.6687 -0.1358  0.2266
 3673TIP3    H132654   1.883   2.213   2.313 -2.7274  0.6870  1.3225
 3673TIP3    H232655   1.797   2.226   2.188 -1.7099 -1.9563  0.2867
 3674TIP3   OH232656   5.967   5.551   0.761  0.2927  0.5650  0.5118
 3674TIP3    H132657   5.966   5.527   0.669  1.4322 -1.0886  0.8824
 3674TIP3    H232658   5.997   5.642   0.762 -0.1364  0.7407 -0.7448
 3675TIP3   OH232659   5.564   3.698   8.261  0.4473  0.4652  0.1248
 3675TIP3    H132660   5.603   3.687   8.174 -0.7957  1.9574 -0.6844
 3675TIP3    H232661   5.500   3.768   8.249 -0.1674  0.3002  2.1315
 3676TIP3   OH232662   5.171   1.819   1.166 -0.1103 -0.8584  0.2725
 3676TIP3    H132663   5.259   1.792   1.191  0.6047  0.5457 -0.5824
 3676TIP3    H232664   5.185   1.886   1.099 -1.8510 -1.5172 -0.8398
 3677TIP3   OH232665   1.075   2.253   1.785  0.1799 -0.1711  0.0106
 3677TIP3    H132666   1.123   2.196   1.846 -2.6380  1.5637  4.3516
 3677TIP3    H232667   0.983   2.232   1.801 -0.8022  3.0881 -0.7675
 3678TIP3   OH232668   4.410   3.601   0.960  0.3411 -0.1860  0.2152
 3678TIP3    H132669   4.428   3.547   0.883 -0.5316 -0.1615 -0.0123
 3678TIP3    H232670   4.408   3.691   0.926 -3.6830 -0.3554 -0.5364
 3679TIP3   OH232671   2.896   0.340   0.310 -0.3288  0.6765 -0.0886
 3679TIP3    H132672   2.920   0.417   0.362 -1.1090  0.0861  1.1865
 3679TIP3    H232673   2.976   0.288   0.306  0.1044  1.3549 -0.6574
 3680TIP3   OH232674   0.494   4.196   0.036 -0.5025 -0.3647  0.5833
 3680TIP3    H132675   0.498   4.229  -0.054 -1.3076  0.2732  0.7599
 3680TIP3    H232676   0.535   4.265   0.088  1.9624 -1.6806  0.5186
 3681TIP3   OH232677   6.320   4.689   0.500 -0.1315 -0.2368 -0.4240
 3681TIP3    H132678   6.274   4.669   0.582 -0.4758 -1.6100 -0.9300
 3681TIP3    H232679   6.256   4.670   0.431  0.8904 -1.3715 -1.1029
 3682TIP3   OH232680   2.633   0.289   0.300  0.1779  0.0975 -0.2752
 3682TIP3    H132681   2.613   0.323   0.387  0.9463  2.2065 -0.8503
 3682TIP3    H232682   2.729   0.295   0.293  0.0687  0.6961 -1.5264
 3683TIP3   OH232683   3.837   4.513   2.640 -0.0170  0.4400 -0.2991
 3683TIP3    H132684   3.804   4.441   2.586 -0.4076 -0.3675  0.9774
 3683TIP3    H232685   3.764   4.534   2.698  0.3654  1.3512 -0.1462
 3684TIP3   OH232686   3.316   1.163   8.189 -0.0335 -0.7516 -0.6043
 3684TIP3    H132687   3.369   1.225   8.139  1.2299 -0.0581  1.4833
 3684TIP3    H232688   3.246   1.218   8.227  1.0531 -0.5473  1.1999
 3685TIP3   OH232689   3.763   3.804   8.497 -0.4649 -0.1038 -0.2932
 3685TIP3    H132690   3.858   3.803   8.492 -0.4369  0.9330 -0.2123
 3685TIP3    H232691   3.744   3.810   8.591 -0.6244 -0.6354 -0.2858
 3686TIP3   OH232692   3.678   0.185   1.527  0.2487  0.2108  0.5382
 3686TIP3    H132693   3.727   0.260   1.493 -1.5641  1.7672  1.1829
 3686TIP3    H232694   3.685   0.192   1.622 -0.2905 -0.1808  0.6145
 3687TIP3   OH232695   6.640   6.859   1.587  0.2635 -0.4131  0.1734
 3687TIP3    H132696   6.718   6.873   1.534  0.5366 -0.5471  0.5324
 3687TIP3    H232697   6.674   6.843   1.675 -0.2208  0.8748  0.6196
 3688TIP3   OH232698   3.504   6.025   2.738 -0.4669  0.3091  0.2373
 3688TIP3    H132699   3.589   6.069   2.740 -0.3515  0.0747  0.9615
 3688TIP3    H232700   3.487   6.003   2.830 -0.0579 -2.0353 -0.1874
 3689TIP3   OH232701   4.771   4.591   2.585 -0.3317 -0.3686 -0.2965
 3689TIP3    H132702   4.835   4.660   2.566 -0.2550 -0.7563 -1.5480
 3689TIP3    H232703   4.822   4.510   2.586 -0.5476 -0.5031  0.3874
 3690TIP3   OH232704   3.755   5.257   8.591  0.4232  0.5305  0.2563
 3690TIP3    H132705   3.821   5.260   8.661 -0.1460  0.3798  0.8069
 3690TIP3    H232706   3.738   5.164   8.579  0.7241  0.5411 -0.2903
 3691TIP3   OH232707   4.159   5.926   0.711 -0.3893 -0.2320 -0.2097
 3691TIP3    H132708   4.184   5.901   0.800 -1.4707  0.2639  0.2412
 3691TIP3    H232709   4.184   5.850   0.657 -0.8093 -1.0265  0.6832
 3692TIP3   OH232710   6.446   5.154   1.241  0.1334 -0.1979 -0.4918
 3692TIP3    H132711   6.387   5.219   1.205 -0.1535 -0.1236  0.0963
 3692TIP3    H232712   6.391   5.101   1.299  0.5320 -0.4408 -0.3309
 3693TIP3   OH232713   5.149   3.640   7.584  0.5091 -0.0767  0.0504
 3693TIP3    H132714   5.106   3.617   7.666  0.4691 -1.1274 -0.2524
 3693TIP3    H232715   5.171   3.556   7.544  2.4928  0.4039  0.0103
 3694TIP3   OH232716   3.807   4.049   2.395 -0.6591  0.4433  0.3550
 3694TIP3    H132717   3.893   4.040   2.436 -0.3008  0.5973 -0.3556
 3694TIP3    H232718   3.753   3.982   2.438  0.8566 -2.5209 -1.9510
 3695TIP3   OH232719   1.264   3.010   8.375  0.1897  0.3177 -0.6041
 3695TIP3    H132720   1.218   2.957   8.441 -0.3507  0.7610 -0.6189
 3695TIP3    H232721   1.295   3.087   8.424 -1.9933  1.6774 -1.2460
 3696TIP3   OH232722   1.255   0.182   7.871 -0.1746 -0.0371 -0.7830
 3696TIP3    H132723   1.206   0.173   7.789  2.8540  2.2550 -3.0539
 3696TIP3    H232724   1.229   0.268   7.904 -1.6689 -1.0977  1.0380
 3697TIP3   OH232725   4.482   4.456   7.547 -0.2680  0.3004 -0.1585
 3697TIP3    H132726   4.489   4.533   7.604  1.4869  0.8104 -0.9796
 3697TIP3    H232727   4.428   4.485   7.474  0.3162  0.7524 -0.4212
 3698TIP3   OH232728   0.198   4.114   3.196 -0.0200  0.0706 -0.1087
 3698TIP3    H132729   0.133   4.063   3.245 -0.1639  0.3754  0.0186
 3698TIP3    H232730   0.282   4.078   3.222  0.0777  1.7101  2.1102
 3699TIP3   OH232731   5.952   6.088   3.065  0.2531  0.0344  0.2461
 3699TIP3    H132732   6.038   6.046   3.061  0.1433 -0.1024 -1.1923
 3699TIP3    H232733   5.894   6.027   3.019 -0.3075  0.8376 -0.1230
 3700TIP3   OH232734   6.333   3.415   8.503 -0.0388 -0.2999  0.0150
 3700TIP3    H132735   6.425   3.416   8.477 -0.2757 -0.3274 -0.8589
 3700TIP3    H232736   6.330   3.353   8.576  0.4712 -1.0989 -0.6193
 3701TIP3   OH232737   2.869   1.271   8.404 -0.5313 -0.2420 -0.4438
 3701TIP3    H132738   2.881   1.337   8.473  0.3375 -0.8090 -0.0341
 3701TIP3    H232739   2.786   1.228   8.428  0.0124 -0.7767  0.5610
 3702TIP3   OH232740   5.362   3.665   2.109  0.1666 -0.3933  0.2379
 3702TIP3    H132741   5.335   3.676   2.200  0.3721 -2.2942  0.5741
 3702TIP3    H232742   5.296   3.713   2.058 -0.8080 -0.5535  1.3054
 3703TIP3   OH232743   1.166   0.403   8.406 -0.2032 -0.5320  0.1849
 3703TIP3    H132744   1.226   0.408   8.481  0.1352  0.2775 -0.1339
 3703TIP3    H232745   1.124   0.489   8.403 -0.3408 -0.6171 -0.4554
 3704TIP3   OH232746   5.282   1.457   2.803  0.0017  0.1491  0.3146
 3704TIP3    H132747   5.210   1.395   2.791 -0.8121  0.8559  1.4163
 3704TIP3    H232748   5.335   1.447   2.724 -0.7364 -1.1217 -0.0521
 3705TIP3   OH232749   1.975   2.985   8.423 -0.6669  0.3594  0.3639
 3705TIP3    H132750   1.982   3.077   8.398  1.1811 -0.0171 -0.6850
 3705TIP3    H232751   2.038   2.939   8.366 -2.5610 -1.7721 -0.1928
 3706TIP3   OH232752   6.758   3.712   0.487 -0.4555 -0.0690 -0.1374
 3706TIP3    H132753   6.850   3.696   0.465 -1.0682 -4.2950 -0.5028
 3706TIP3    H232754   6.753   3.693   0.580 -0.6105  2.6097  0.4568
 3707TIP3   OH232755   6.459   1.480   7.164 -0.7275  0.0731 -0.2084
 3707TIP3    H132756   6.439   1.386   7.166 -4.1037  0.6812  2.1247
 3707TIP3    H232757   6.384   1.520   7.120  0.1535  1.7999 -0.2390
 3708TIP3   OH232758   0.567   4.903   1.080 -0.2844 -0.1261  0.4911
 3708TIP3    H132759   0.632   4.923   1.013  0.2488  1.5539  1.4464
 3708TIP3    H232760   0.541   4.813   1.063 -0.4300  0.3614 -2.1797
 3709TIP3   OH232761   0.389   1.192   0.301 -0.4871  0.7012 -0.2239
 3709TIP3    H132762   0.368   1.284   0.281  0.5298  1.1335  0.6294
 3709TIP3    H232763   0.462   1.197   0.362 -1.2586 -0.6453  0.8723
 3710TIP3   OH232764   4.219   4.604   1.663 -0.0223 -0.1324 -0.3747
 3710TIP3    H132765   4.196   4.598   1.756 -0.1097  2.6045 -0.1299
 3710TIP3    H232766   4.160   4.542   1.620  0.5555 -2.0522  1.4260
 3711TIP3   OH232767   4.485   5.055   1.675  0.3985 -0.0838 -0.4540
 3711TIP3    H132768   4.477   4.961   1.660  2.7650 -0.0693 -2.5167
 3711TIP3    H232769   4.431   5.095   1.607  0.1127  0.0387 -0.1541
 3712TIP3   OH232770   3.402   3.178   2.237  0.1643  0.1906 -0.1076
 3712TIP3    H132771   3.386   3.269   2.262 -0.6025  0.0041  0.0877
 3712TIP3    H232772   3.479   3.183   2.181 -1.4213  1.3104 -2.3259
 3713TIP3   OH232773   3.426   0.361   2.764  0.0632 -0.0443 -0.2111
 3713TIP3    H132774   3.465   0.305   2.832 -2.3089  0.0755  1.3482
 3713TIP3    H232775   3.429   0.449   2.801  1.0865  0.4509 -1.4046
 3714TIP3   OH232776   2.167   3.997   2.168 -0.0889 -0.4763  0.0689
 3714TIP3    H132777   2.176   3.935   2.097 -1.1509 -0.3763 -0.1751
 3714TIP3    H232778   2.073   4.011   2.176  0.0965  0.6423  0.5133
 3715TIP3   OH232779   0.926   3.304   7.422  0.2192  0.3415 -0.2958
 3715TIP3    H132780   0.868   3.276   7.493 -1.9996  0.5997 -1.9155
 3715TIP3    H232781   1.010   3.318   7.465 -0.6429 -0.9193  2.0115
 3716TIP3   OH232782   6.828   2.338   8.633 -0.1211  0.1731 -0.3133
 3716TIP3    H132783   6.858   2.420   8.672  2.1933 -0.0870 -1.3323
 3716TIP3    H232784   6.774   2.365   8.559  0.6466  0.8183 -0.6613
 3717TIP3   OH232785   1.403   1.261   1.622 -0.4512  0.0524 -0.5402
 3717TIP3    H132786   1.357   1.194   1.672 -0.1845 -2.2941 -3.1507
 3717TIP3    H232787   1.457   1.212   1.560  0.0202  2.6998 -2.4087
 3718TIP3   OH232788   5.708   3.589   0.019  0.3781 -0.6285 -0.0368
 3718TIP3    H132789   5.742   3.628   0.099  0.0833 -2.5224  1.0609
 3718TIP3    H232790   5.690   3.664  -0.038 -2.3179  1.0952  2.7501
 3719TIP3   OH232791   4.593   3.032   2.577 -0.1629  0.1736 -0.2648
 3719TIP3    H132792   4.510   3.072   2.550  0.6541  1.3628 -1.1117
 3719TIP3    H232793   4.660   3.088   2.539  1.0639  0.0235  1.5474
 3720TIP3   OH232794   0.475   0.326   7.596  0.3600 -0.1881  0.5301
 3720TIP3    H132795   0.539   0.396   7.579  0.1202 -0.2802 -0.8356
 3720TIP3    H232796   0.522   0.263   7.650  0.6494  0.9026  1.6213
 3721TIP3   OH232797   5.603   0.394   0.629  0.0580 -0.2858 -0.0870
 3721TIP3    H132798   5.636   0.475   0.667 -1.3369 -0.1360  0.9052
 3721TIP3    H232799   5.510   0.411   0.614 -0.6818 -2.2519  1.7767
 3722TIP3   OH232800   0.668   3.447   3.037 -0.1281  0.1959  0.1383
 3722TIP3    H132801   0.640   3.528   2.994 -0.3345 -0.4326 -0.9487
 3722TIP3    H232802   0.589   3.417   3.083 -0.0646  0.5749  0.5053
 3723TIP3   OH232803   5.272   6.150   0.154 -0.2939 -0.0264 -0.3897
 3723TIP3    H132804   5.354   6.101   0.161 -0.6907 -0.7801 -0.7914
 3723TIP3    H232805   5.288   6.232   0.199  0.1408 -0.8702  1.0626
 3724TIP3   OH232806   6.799   0.305   0.502 -0.7140 -0.2639 -0.2639
 3724TIP3    H132807   6.794   0.385   0.555 -0.2516 -0.0162 -0.5869
 3724TIP3    H232808   6.858   0.248   0.550 -2.0241 -0.9142  0.6078
 3725TIP3   OH232809   6.859   4.132   0.169 -0.1228 -0.1426 -0.2010
 3725TIP3    H132810   6.827   4.152   0.258  1.3278  0.2636  0.2695
 3725TIP3    H232811   6.929   4.196   0.155  0.8200 -1.3059 -0.9594
 3726TIP3   OH232812   4.428   1.947   0.921 -0.6373 -0.2602 -0.3018
 3726TIP3    H132813   4.421   1.897   1.002  3.2169 -1.0375 -0.2614
 3726TIP3    H232814   4.435   2.038   0.950 -0.4074 -0.4197  0.1528
 3727TIP3   OH232815   4.415   1.862   1.380  0.3069  0.1902 -0.5392
 3727TIP3    H132816   4.331   1.908   1.387  0.5613  0.6606 -0.4795
 3727TIP3    H232817   4.399   1.791   1.319 -0.5416 -0.6809  0.6438
 3728TIP3   OH232818   0.497   2.648   8.547  1.0431 -0.4150 -0.2810
 3728TIP3    H132819   0.438   2.705   8.596  0.5823  0.8459 -2.1967
 3728TIP3    H232820   0.572   2.635   8.605 -0.3331 -0.6805  1.5386
 3729TIP3   OH232821   1.441   3.447   8.208 -0.1473 -0.5689  0.6214
 3729TIP3    H132822   1.423   3.522   8.264 -1.6231 -0.9457  0.6883
 3729TIP3    H232823   1.357   3.402   8.199  0.7166 -2.3319  0.7587
 3730TIP3   OH232824   0.396   6.040   0.267 -0.2166 -0.6260 -0.4442
 3730TIP3    H132825   0.430   6.096   0.197 -2.3666 -0.8225 -1.7221
 3730TIP3    H232826   0.361   6.101   0.332 -1.4998 -0.4576 -1.2819
 3731TIP3   OH232827   0.036   1.814   2.932 -0.4551  0.1193  0.4031
 3731TIP3    H132828  -0.059   1.809   2.920 -0.1356 -2.1473 -1.8592
 3731TIP3    H232829   0.050   1.793   3.025 -2.1362  0.5716  0.7861
 3732TIP3   OH232830   4.509   2.517   0.352  0.5810  0.4641 -0.0997
 3732TIP3    H132831   4.498   2.447   0.416  0.9184 -0.4195 -0.9888
 3732TIP3    H232832   4.427   2.567   0.356 -0.4660 -1.1341 -0.8092
 3733TIP3   OH232833   1.402   0.367   1.858 -0.4244  0.0562  0.1774
 3733TIP3    H132834   1.316   0.381   1.819 -0.0015  2.0301 -0.1476
 3733TIP3    H232835   1.389   0.375   1.952 -0.4652  1.2248  0.0797
 3734TIP3   OH232836   6.283   2.746   8.646 -0.2539  0.2122  0.0067
 3734TIP3    H132837   6.335   2.786   8.577  0.5067 -0.5221  0.1331
 3734TIP3    H232838   6.347   2.724   8.714 -1.0137  1.0631  1.0197
 3735TIP3   OH232839   1.652   4.697   2.639 -0.5272 -0.4351  0.2480
 3735TIP3    H132840   1.704   4.705   2.719 -0.8579 -1.1322  0.5355
 3735TIP3    H232841   1.704   4.743   2.572  0.6025 -1.3841  0.4492
 3736TIP3   OH232842   3.340   3.092   0.722  0.5560  0.2640  0.2190
 3736TIP3    H132843   3.366   3.007   0.687 -0.8261 -0.1840  0.2180
 3736TIP3    H232844   3.302   3.138   0.648  1.6791  1.0847  0.1148
 3737TIP3   OH232845   1.308   5.842   7.670 -0.1857 -0.4188 -0.1628
 3737TIP3    H132846   1.316   5.907   7.600 -1.4345 -2.5840 -2.5273
 3737TIP3    H232847   1.236   5.875   7.725  0.7206  1.2660  0.0646
 3738TIP3   OH232848   3.939   5.526   0.489  0.4549  0.0929  0.1073
 3738TIP3    H132849   3.845   5.513   0.478  0.3645  0.3518  0.5532
 3738TIP3    H232850   3.967   5.452   0.544  0.4311  0.2630  0.3489
 3739TIP3   OH232851   0.868   2.533   0.981  0.0745 -0.2089  0.1658
 3739TIP3    H132852   0.786   2.581   0.988  1.1191  1.6214  0.4543
 3739TIP3    H232853   0.922   2.565   1.053  1.3007 -0.8400 -0.4314
 3740TIP3   OH232854   5.053   0.198   8.210  0.0026  0.3877  0.0249
 3740TIP3    H132855   4.972   0.162   8.177  0.4020  0.6407 -1.2886
 3740TIP3    H232856   5.075   0.144   8.286 -0.7302 -0.4643 -0.3624
 3741TIP3   OH232857   2.801   3.575   0.045  0.0394 -0.3473 -0.2090
 3741TIP3    H132858   2.820   3.668   0.046  1.4000 -0.6075 -0.0626
 3741TIP3    H232859   2.714   3.568   0.004  0.1148  0.9348 -0.6111
 3742TIP3   OH232860   3.849   1.007   2.527  0.3322 -0.0671 -0.3373
 3742TIP3    H132861   3.931   0.960   2.512  0.8430  1.2648 -2.1567
 3742TIP3    H232862   3.865   1.062   2.603  0.3698 -1.3853  0.6309
 3743TIP3   OH232863   1.363   0.697   8.451  0.7584 -0.5440  0.1187
 3743TIP3    H132864   1.384   0.788   8.473  1.9512 -1.1555  1.7239
 3743TIP3    H232865   1.424   0.675   8.380  1.4979 -0.4977  0.7175
 3744TIP3   OH232866   0.778   2.257   8.012 -0.2559 -0.1567  0.3422
 3744TIP3    H132867   0.779   2.296   7.924 -2.2163 -0.5193  0.0955
 3744TIP3    H232868   0.700   2.294   8.053  0.4210 -0.3015  1.8095
 3745TIP3   OH232869   5.380   4.803   7.787  0.7669  0.4265  0.0362
 3745TIP3    H132870   5.297   4.757   7.772 -2.2225  4.5621  1.7808
 3745TIP3    H232871   5.395   4.852   7.705  0.1252  1.3950  0.4708
 3746TIP3   OH232872   0.326   5.272   1.838  0.1834  0.7202 -0.3106
 3746TIP3    H132873   0.281   5.278   1.922  1.0858 -1.8544  0.4368
 3746TIP3    H232874   0.407   5.322   1.851  0.5346 -0.0433  0.5398
 3747TIP3   OH232875   5.548   3.846   0.977 -0.0837 -0.2340 -0.5817
 3747TIP3    H132876   5.557   3.927   0.927  2.4750 -0.1981 -0.2166
 3747TIP3    H232877   5.633   3.802   0.966 -0.1848 -1.2369  1.9795
 3748TIP3   OH232878   3.007   5.074   7.871  0.1509  0.4457 -0.1919
 3748TIP3    H132879   2.931   5.113   7.912  0.2640 -0.2752  0.7469
 3748TIP3    H232880   3.080   5.131   7.896  0.3489 -0.4096  1.3413
 3749TIP3   OH232881   4.576   5.030   1.120 -0.4887  0.3904 -0.0810
 3749TIP3    H132882   4.523   5.096   1.165 -0.9584  0.6118 -0.9339
 3749TIP3    H232883   4.577   4.955   1.180 -0.5666  0.9065  0.5736
 3750TIP3   OH232884   6.128   4.910   0.566  0.0379  0.4464  0.1839
 3750TIP3    H132885   6.081   4.936   0.645  0.3505 -0.1546  0.5697
 3750TIP3    H232886   6.101   4.820   0.549 -0.0525  0.5776 -0.4161
 3751TIP3   OH232887   4.158   0.197   2.541  0.5725  0.0854 -0.3121
 3751TIP3    H132888   4.163   0.130   2.610  1.0962 -1.1518 -1.5207
 3751TIP3    H232889   4.217   0.266   2.571  2.2992 -1.2920 -0.4087
 3752TIP3   OH232890   3.389   5.888   2.173 -0.5498 -0.2482 -0.2212
 3752TIP3    H132891   3.334   5.870   2.097 -2.0183 -1.5149  1.0784
 3752TIP3    H232892   3.391   5.806   2.221  2.0473 -0.0774  0.1076
 3753TIP3   OH232893   3.007   1.568   2.039 -0.4918  0.1809  0.5738
 3753TIP3    H132894   2.912   1.555   2.031 -0.5422 -0.0258  1.4118
 3753TIP3    H232895   3.033   1.510   2.111  0.4533 -0.5626 -0.3494
 3754TIP3   OH232896   6.067   2.597   1.087  0.8608 -0.0284  1.0907
 3754TIP3    H132897   6.142   2.538   1.077  0.8133 -0.4763  2.9774
 3754TIP3    H232898   6.024   2.595   1.002  1.4412 -1.9235  0.7883
 3755TIP3   OH232899   4.519   6.757   1.266 -0.2428 -0.2507 -0.6179
 3755TIP3    H132900   4.578   6.831   1.276 -1.8382  0.8875  1.0556
 3755TIP3    H232901   4.496   6.757   1.173  0.3858  0.8653 -0.7861
 3756TIP3   OH232902   2.695   3.844   2.080 -0.3246 -0.2189 -0.1078
 3756TIP3    H132903   2.775   3.799   2.052 -0.3368  0.5832 -1.5192
 3756TIP3    H232904   2.727   3.923   2.125 -0.3241 -0.6715  0.7062
 3757TIP3   OH232905   1.459   1.883   1.491 -0.0817 -0.3222  0.1609
 3757TIP3    H132906   1.527   1.920   1.434 -0.0519  0.7261  0.8557
 3757TIP3    H232907   1.470   1.929   1.574 -0.6714 -1.2330  0.7545
 3758TIP3   OH232908   1.950   2.270   2.483 -0.0201 -0.4819  0.5366
 3758TIP3    H132909   1.900   2.318   2.549  0.8009 -0.9832  1.5471
 3758TIP3    H232910   2.033   2.318   2.476 -0.1440 -0.3559 -0.2470
 3759TIP3   OH232911   6.663   0.652   6.498  0.1831  0.0286 -0.0433
 3759TIP3    H132912   6.581   0.615   6.529  0.3309  0.3731  0.7850
 3759TIP3    H232913   6.665   0.741   6.533  0.3140  0.4773 -1.1491
 3760TIP3   OH232914   5.509   0.087   8.158  0.2070 -0.3084 -0.1884
 3760TIP3    H132915   5.453   0.032   8.103 -1.7496  1.7822 -0.4198
 3760TIP3    H232916   5.492   0.057   8.247  1.1467 -1.7334 -0.4500
 3761TIP3   OH232917   6.168   1.214   0.940 -0.0683 -0.9157 -0.1635
 3761TIP3    H132918   6.109   1.200   0.865  2.3957 -0.6618 -2.2790
 3761TIP3    H232919   6.115   1.264   1.002 -1.2583  2.0571 -3.2527
 3762TIP3   OH232920   6.678   6.538   2.435 -0.1266  0.3710 -0.3333
 3762TIP3    H132921   6.726   6.474   2.381 -2.7993 -1.7832 -0.4001
 3762TIP3    H232922   6.634   6.594   2.371 -0.3494  0.1968 -0.3332
 3763TIP3   OH232923   3.635   5.450   0.533 -0.3041 -0.4580 -0.6941
 3763TIP3    H132924   3.574   5.401   0.588 -0.6869  0.0812 -0.6298
 3763TIP3    H232925   3.595   5.536   0.523  1.4039  0.6162  1.0591
 3764TIP3   OH232926   1.756   3.609   0.117 -0.5317  0.1770  0.6180
 3764TIP3    H132927   1.823   3.561   0.068 -0.6994  0.5195  0.0437
 3764TIP3    H232928   1.674   3.588   0.071 -0.6322  0.8398  0.4878
 3765TIP3   OH232929   5.286   0.178   1.597 -0.1868 -0.2096 -0.4048
 3765TIP3    H132930   5.351   0.149   1.661 -0.1891  1.1402  0.2435
 3765TIP3    H232931   5.202   0.165   1.642 -0.1331  1.8601  0.3900
 3766TIP3   OH232932   0.684   4.028   8.343  0.5491  0.7552 -0.3273
 3766TIP3    H132933   0.654   4.029   8.252  0.0779 -1.4851 -0.2542
 3766TIP3    H232934   0.604   4.021   8.394  0.9259 -1.1887  0.0686
 3767TIP3   OH232935   3.552   6.611   2.328  0.2624 -0.0879  0.0175
 3767TIP3    H132936   3.551   6.700   2.361  0.8087  0.5525 -1.6286
 3767TIP3    H232937   3.596   6.616   2.243  0.7717 -2.0010  0.1101
 3768TIP3   OH232938   0.902   5.776   1.160  0.0193 -0.2959 -0.5229
 3768TIP3    H132939   0.982   5.804   1.114 -0.3641  1.9798  0.0442
 3768TIP3    H232940   0.879   5.851   1.214 -1.2836 -1.7485  1.0364
 3769TIP3   OH232941   2.529   0.826   7.869 -0.6474  0.0018  0.4702
 3769TIP3    H132942   2.574   0.818   7.785  0.0801 -0.4668  0.8904
 3769TIP3    H232943   2.572   0.899   7.913  0.3787 -1.0393  1.2594
 3770TIP3   OH232944   0.056   2.494   0.161  0.3289  0.4509  0.1128
 3770TIP3    H132945   0.096   2.522   0.243 -0.2427  0.1237  0.5058
 3770TIP3    H232946  -0.016   2.437   0.187  0.7082 -0.3852 -0.6430
 3771TIP3   OH232947   6.313   4.293   0.937 -0.4765  0.6277 -0.2686
 3771TIP3    H132948   6.250   4.289   1.009  0.0420  0.3092  0.1771
 3771TIP3    H232949   6.354   4.207   0.937 -2.6792 -0.5729 -3.0032
 3772TIP3   OH232950   5.225   5.418   7.884 -0.0209  0.2259  0.4070
 3772TIP3    H132951   5.258   5.382   7.802 -1.1308 -3.4516  1.4029
 3772TIP3    H232952   5.278   5.497   7.898  2.9257 -1.1356 -1.8767
 3773TIP3   OH232953   1.215   2.485   1.759  0.4443  0.0667  0.4575
 3773TIP3    H132954   1.220   2.519   1.670  0.7057  0.1986  0.5210
 3773TIP3    H232955   1.188   2.394   1.749 -1.5720  0.6293  0.3509
 3774TIP3   OH232956   1.106   5.719   7.828 -0.1918  0.8372 -0.0034
 3774TIP3    H132957   1.083   5.630   7.802 -1.5742  1.1854 -0.0449
 3774TIP3    H232958   1.033   5.773   7.798  0.3925  1.9230  0.4540
 3775TIP3   OH232959   2.648   6.450   8.555  0.4224 -0.1351  0.4652
 3775TIP3    H132960   2.597   6.408   8.624  0.3325 -1.0451 -0.1278
 3775TIP3    H232961   2.624   6.542   8.560 -0.9740 -0.4648  0.4835
 3776TIP3   OH232962   1.173   2.754   1.868  0.2403 -0.1867  0.4035
 3776TIP3    H132963   1.241   2.819   1.850 -1.1880  1.0067 -0.8718
 3776TIP3    H232964   1.183   2.689   1.798  0.0709 -0.0363  0.2429
 3777TIP3   OH232965   0.966   6.541   0.065 -0.6290  0.0655  0.3990
 3777TIP3    H132966   0.947   6.541  -0.028 -0.2186  0.6809  0.3171
 3777TIP3    H232967   0.995   6.630   0.085  0.1626 -0.2987  0.9335
 3778TIP3   OH232968   0.405   1.395   7.966 -0.2181  0.2264 -0.1674
 3778TIP3    H132969   0.445   1.473   7.928  0.8191  0.1784  0.7818
 3778TIP3    H232970   0.324   1.426   8.007 -1.4084  0.2651 -2.4221
 3779TIP3   OH232971   0.276   3.890   1.457  0.0069 -0.1043 -0.0509
 3779TIP3    H132972   0.263   3.838   1.536 -1.0149 -0.6473 -0.5636
 3779TIP3    H232973   0.365   3.870   1.429 -0.1149 -0.9826  0.1869
 3780TIP3   OH232974   5.925   0.846   1.772  0.2068 -0.0124 -0.3267
 3780TIP3    H132975   5.954   0.937   1.763 -0.3393  0.2564  0.5707
 3780TIP3    H232976   5.890   0.824   1.685  0.6254  0.5183 -0.6422
 3781TIP3   OH232977   5.721   3.854   7.162 -0.3843  0.0822  0.4871
 3781TIP3    H132978   5.791   3.826   7.221 -0.8114 -0.1039  0.9146
 3781TIP3    H232979   5.649   3.878   7.221 -0.1865  1.6632  0.1141
 3782TIP3   OH232980   4.500   6.671   0.925 -0.1682  0.1624 -0.1278
 3782TIP3    H132981   4.526   6.645   0.837 -1.1094  2.7175 -1.2669
 3782TIP3    H232982   4.455   6.594   0.961  1.1025 -1.2635 -1.4635
 3783TIP3   OH232983   5.392   5.699   8.337  0.3252  0.0535 -0.1855
 3783TIP3    H132984   5.433   5.700   8.250  1.2576 -1.1628  0.2123
 3783TIP3    H232985   5.380   5.606   8.357 -1.2535  0.3453  0.3826
 3784TIP3   OH232986   3.008   4.148   2.964 -0.1042 -0.2235 -0.7218
 3784TIP3    H132987   3.094   4.137   3.004 -0.4449 -1.5078 -0.2866
 3784TIP3    H232988   3.023   4.131   2.871  0.0668 -0.7749 -0.5988
 3785TIP3   OH232989   6.516   3.783   1.910 -1.0049  0.8795  0.6180
 3785TIP3    H132990   6.433   3.799   1.954 -2.1499  1.0366 -1.4698
 3785TIP3    H232991   6.567   3.731   1.972 -2.4573  1.1699  2.1280
 3786TIP3   OH232992   5.537   5.954   7.123 -0.0446  0.0459  0.0564
 3786TIP3    H132993   5.593   5.945   7.046  1.1245 -0.3904  0.9245
 3786TIP3    H232994   5.457   5.908   7.100  0.4481 -0.4287 -0.7481
 3787TIP3   OH232995   0.902   5.721   2.330  0.0488  0.0413  0.1775
 3787TIP3    H132996   0.898   5.813   2.302 -2.0026  0.3866  1.4436
 3787TIP3    H232997   0.921   5.725   2.423 -0.6600 -0.7850  0.3689
 3788TIP3   OH232998   2.289   3.552   7.895 -0.8063 -0.0437  0.3298
 3788TIP3    H132999   2.295   3.466   7.853  1.1865  0.6009 -0.8943
 3788TIP3    H233000   2.293   3.615   7.822  0.5475  1.0926  1.3204
 3789TIP3   OH233001   2.159   6.579   1.790  0.5003  0.0552  0.1920
 3789TIP3    H133002   2.086   6.565   1.730  0.7927  1.1669 -0.4649
 3789TIP3    H233003   2.119   6.588   1.876 -0.1093  0.3511 -0.1196
 3790TIP3   OH233004   0.031   4.896   1.387  0.4050  0.3703 -0.0212
 3790TIP3    H133005   0.113   4.907   1.339  2.1028 -1.9044  2.0783
 3790TIP3    H233006   0.015   4.981   1.428  1.2113  1.0922 -1.1447
 3791TIP3   OH233007   3.904   4.846   2.125  0.2642 -0.5657 -0.2799
 3791TIP3    H133008   3.980   4.859   2.068  0.7534 -1.8702  0.0374
 3791TIP3    H233009   3.832   4.892   2.081  0.6168 -1.5706 -1.9799
 3792TIP3   OH233010   0.452   5.035   1.284 -0.0656 -0.3692 -0.0690
 3792TIP3    H133011   0.487   4.979   1.214  1.4919 -0.3572  0.6572
 3792TIP3    H233012   0.529   5.077   1.321 -0.9693  0.3707  1.0285
 3793TIP3   OH233013   4.746   1.402   0.985  0.2416 -0.3979 -0.2352
 3793TIP3    H133014   4.714   1.491   0.974 -1.7086 -0.9075  0.6921
 3793TIP3    H233015   4.667   1.348   0.981  1.4298 -2.1671 -1.3761
 3794TIP3   OH233016   0.593   4.680   1.900  0.0067  0.1299 -0.5145
 3794TIP3    H133017   0.558   4.612   1.958  1.1032  0.4759  0.5974
 3794TIP3    H233018   0.538   4.676   1.822  1.3876 -3.6396 -1.5414
 3795TIP3   OH233019   3.874   6.348   3.102  0.2272  0.3403 -0.4188
 3795TIP3    H133020   3.903   6.349   3.193  1.7667 -1.3816 -0.8447
 3795TIP3    H233021   3.792   6.299   3.104  0.0845  0.5870  0.0668
 3796TIP3   OH233022   1.751   5.052   2.570 -0.6552  0.7226 -0.1402
 3796TIP3    H133023   1.675   5.110   2.568 -0.5848  0.8449  0.5202
 3796TIP3    H233024   1.815   5.099   2.624  0.1644  0.9551 -1.2948
 3797TIP3   OH233025   4.376   4.178   2.184 -0.4167 -0.1740  0.1510
 3797TIP3    H133026   4.407   4.123   2.256  0.9429  1.2692  0.7180
 3797TIP3    H233027   4.280   4.170   2.188 -0.3836 -0.0564  2.2052
 3798TIP3   OH233028   0.980   4.900   1.422 -0.6584  0.2212  1.0785
 3798TIP3    H133029   0.911   4.905   1.355 -1.1583  0.1084  1.5792
 3798TIP3    H233030   1.055   4.862   1.376  0.1024  3.0791 -0.3063
 3799TIP3   OH233031   5.958   5.738   1.990  0.0637  0.4898 -0.2347
 3799TIP3    H133032   5.929   5.763   2.077 -2.0148 -0.3030 -0.6296
 3799TIP3    H233033   5.904   5.661   1.968  1.1834  0.1091 -1.8394
 3800TIP3   OH233034   5.834   2.973   1.227  0.0274  0.2000 -0.0646
 3800TIP3    H133035   5.757   2.939   1.181 -1.4839  1.1906  1.5926
 3800TIP3    H233036   5.843   3.063   1.197  2.6058 -0.7741 -2.6755
 3801TIP3   OH233037   6.437   2.480   2.486 -0.2061 -0.0832 -0.1769
 3801TIP3    H133038   6.491   2.503   2.561  3.1492 -0.4915 -2.2208
 3801TIP3    H233039   6.417   2.564   2.444 -1.2052  0.0678  0.5715
 3802TIP3   OH233040   0.479   6.817   7.885  0.6708  0.3355  0.2608
 3802TIP3    H133041   0.428   6.825   7.966  0.6115 -0.4870  0.3117
 3802TIP3    H233042   0.545   6.750   7.906  0.2352 -0.3766 -0.5812
 3803TIP3   OH233043   5.369   2.966   0.013 -0.3103  0.1354  0.1268
 3803TIP3    H133044   5.277   2.982  -0.009 -0.9103 -1.0653  1.6244
 3803TIP3    H233045   5.392   2.889  -0.040  0.0783  0.9014 -0.8314
 3804TIP3   OH233046   4.450   4.015   2.993  0.2264  0.0704 -0.1158
 3804TIP3    H133047   4.472   4.065   3.071  2.0705 -0.1897 -0.4139
 3804TIP3    H233048   4.435   3.926   3.025  0.5744  0.0509 -0.0015
 3805TIP3   OH233049   4.778   2.534   1.479 -0.2586  0.3852 -1.0053
 3805TIP3    H133050   4.857   2.587   1.468 -0.8417  1.1779 -1.4819
 3805TIP3    H233051   4.729   2.579   1.547 -0.8142  0.5128 -1.4918
 3806TIP3   OH233052   0.374   2.077   2.056  0.3865  0.0330  0.4751
 3806TIP3    H133053   0.395   2.158   2.103 -0.5409 -0.9091  2.6796
 3806TIP3    H233054   0.459   2.044   2.026  1.0158  0.7764  1.3943
 3807TIP3   OH233055   0.058   4.019   8.363  0.1754 -0.4335  0.3250
 3807TIP3    H133056   0.121   3.994   8.431  3.6511 -2.3293 -3.1907
 3807TIP3    H233057   0.017   3.937   8.336  0.6270 -0.1330 -1.3936
 3808TIP3   OH233058   5.132   1.246   8.360  0.3407 -0.3860  0.7017
 3808TIP3    H133059   5.173   1.315   8.308 -1.1058 -0.6280 -0.8322
 3808TIP3    H233060   5.082   1.292   8.427  0.0822  0.0229  0.2305
 3809TIP3   OH233061   5.187   6.440   2.606 -0.5710  0.0966  0.5291
 3809TIP3    H133062   5.151   6.526   2.625  0.1747  0.1540  1.8072
 3809TIP3    H233063   5.225   6.411   2.689  0.0553 -1.0400 -0.1259
 3810TIP3   OH233064   3.313   4.468   7.916  0.1536  0.2316  0.3604
 3810TIP3    H133065   3.334   4.556   7.947  0.2759  0.4219 -0.2347
 3810TIP3    H233066   3.285   4.420   7.994  1.3593  0.4065  0.9358
 3811TIP3   OH233067   4.520   0.069   8.474  0.4149  0.4209  0.3184
 3811TIP3    H133068   4.517   0.045   8.381  1.0688 -0.5436  0.5351
 3811TIP3    H233069   4.470  -0.000   8.517  0.4740  0.6377  0.7322
 3812TIP3   OH233070   1.778   4.822   2.423 -0.0756 -0.1319 -0.5979
 3812TIP3    H133071   1.770   4.908   2.466  0.0343 -1.2383  1.8089
 3812TIP3    H233072   1.868   4.819   2.391 -0.5140  1.1960 -2.0763
 3813TIP3   OH233073   4.069   5.154   8.180 -0.3586  0.5051  0.2969
 3813TIP3    H133074   4.105   5.132   8.266  2.6099  0.2152 -0.9238
 3813TIP3    H233075   4.128   5.220   8.145 -0.9840 -0.0096 -1.8769
 3814TIP3   OH233076   3.985   6.044   2.558  0.1246  0.0666  0.3673
 3814TIP3    H133077   4.026   6.105   2.619 -2.2199  0.1620  1.9701
 3814TIP3    H233078   3.990   5.959   2.603 -0.2991 -0.1469  0.0164
 3815TIP3   OH233079   0.611   0.494   7.841 -0.3847 -0.4280 -0.0596
 3815TIP3    H133080   0.649   0.433   7.905 -0.9202  0.3751  1.0521
 3815TIP3    H233081   0.521   0.464   7.830 -0.5457 -0.0436  0.2188
 3816TIP3   OH233082   3.993   6.722   7.560 -0.4020 -0.5570 -0.0949
 3816TIP3    H133083   3.909   6.718   7.516 -0.4984  1.4926 -0.1951
 3816TIP3    H233084   4.058   6.701   7.493 -0.4448  3.6057 -1.7604
 3817TIP3   OH233085   5.846   5.001   1.495 -0.4503 -0.3446 -0.0843
 3817TIP3    H133086   5.807   4.994   1.408  1.3752 -1.4496 -0.8911
 3817TIP3    H233087   5.780   4.966   1.554 -1.3550 -0.4998 -1.1554
 3818TIP3   OH233088   1.185   4.713   0.985 -0.3418  0.1519  0.1468
 3818TIP3    H133089   1.187   4.680   0.895  0.1515 -0.1744  0.2773
 3818TIP3    H233090   1.277   4.719   1.012 -0.5181 -2.2062  1.5144
 3819TIP3   OH233091   1.428   3.972   7.983  0.5365  0.7537  0.4255
 3819TIP3    H133092   1.344   3.953   7.941  0.6392  2.2735 -0.5441
 3819TIP3    H233093   1.428   3.920   8.063 -0.5120 -0.7352 -0.5048
 3820TIP3   OH233094   2.951   5.809   3.106 -0.6527  0.2455  0.2170
 3820TIP3    H133095   2.986   5.898   3.094 -2.5501  0.8367 -1.5157
 3820TIP3    H233096   2.857   5.818   3.088 -0.7903 -2.2132 -0.5821
 3821TIP3   OH233097   2.891   2.838   1.065 -0.6550  0.2996  0.0872
 3821TIP3    H133098   2.886   2.798   0.978 -0.7898 -1.3074  0.7923
 3821TIP3    H233099   2.800   2.856   1.088 -0.9932 -2.2411  1.1377
 3822TIP3   OH233100   2.403   0.976   1.140  0.1993  0.0496  0.0438
 3822TIP3    H133101   2.439   1.065   1.143  0.7816 -0.1839  0.3644
 3822TIP3    H233102   2.365   0.967   1.053  2.0028 -0.0844 -0.7757
 3823TIP3   OH233103   0.603   3.349   7.459 -0.1136 -0.9432  0.3357
 3823TIP3    H133104   0.607   3.416   7.527  1.8776 -0.5176 -0.1165
 3823TIP3    H233105   0.605   3.398   7.377  0.4395 -1.5101  0.0013
 3824TIP3   OH233106   6.780   5.719   8.336 -0.3216  0.8314 -0.2059
 3824TIP3    H133107   6.806   5.683   8.252  0.4750 -0.2938  0.4969
 3824TIP3    H233108   6.818   5.660   8.401 -0.9587  1.6393  0.9505
 3825TIP3   OH233109   0.812   1.999   1.693  0.1091  0.3450  0.6706
 3825TIP3    H133110   0.888   1.997   1.634  0.0624  1.7575  0.5353
 3825TIP3    H233111   0.750   1.938   1.654  0.3447  0.7680 -0.3873
 3826TIP3   OH233112   0.780   1.922   6.908 -0.3829  0.2752  0.3795
 3826TIP3    H133113   0.875   1.919   6.914 -0.3115  2.2036  1.1827
 3826TIP3    H233114   0.750   1.841   6.950  0.8828 -0.0311  0.7204
 3827TIP3   OH233115   1.441   5.570   1.288  1.2476  0.5144 -1.0365
 3827TIP3    H133116   1.406   5.485   1.263 -1.6765  0.6298  1.9916
 3827TIP3    H233117   1.509   5.588   1.222  0.2151 -2.8961 -3.3226
 3828TIP3   OH233118   4.403   3.355   1.444  0.0932 -0.7652  0.1378
 3828TIP3    H133119   4.373   3.327   1.531 -0.0379 -0.8901  0.0535
 3828TIP3    H233120   4.378   3.447   1.438 -0.2256 -0.8522  0.0909
 3829TIP3   OH233121   3.483   4.275   7.773 -0.3421  0.3783 -0.2949
 3829TIP3    H133122   3.417   4.337   7.803 -0.1685 -0.3879  1.8154
 3829TIP3    H233123   3.439   4.223   7.706 -1.8236  0.0388  0.9042
 3830TIP3   OH233124   1.608   2.265   3.169 -0.1782  0.0665 -0.1156
 3830TIP3    H133125   1.530   2.257   3.224  0.2589  0.3397  0.5615
 3830TIP3    H233126   1.634   2.175   3.150 -0.5939 -0.0255 -0.2562
 3831TIP3   OH233127   0.794   1.563   3.176  0.0862  0.1405  0.0625
 3831TIP3    H133128   0.835   1.559   3.090  0.3687  0.0300  0.2016
 3831TIP3    H233129   0.839   1.635   3.221  0.3593 -0.1983  0.3340
 3832TIP3   OH233130   2.620   2.700   2.317  0.2663  0.9345  0.1203
 3832TIP3    H133131   2.666   2.782   2.334 -0.1925  1.0760  0.7432
 3832TIP3    H233132   2.533   2.727   2.288 -1.0252  0.7415  3.4222
 3833TIP3   OH233133   5.191   5.742   0.564 -0.1220 -0.0510  0.2969
 3833TIP3    H133134   5.179   5.647   0.565  0.2763 -0.1048 -0.0406
 3833TIP3    H233135   5.219   5.762   0.475 -0.1202  0.3746  0.3910
 3834TIP3   OH233136   3.644   2.032   3.422 -0.3224 -0.4824 -0.5313
 3834TIP3    H133137   3.734   2.047   3.452 -0.7153  0.5459  0.1863
 3834TIP3    H233138   3.642   2.066   3.333 -0.5635  1.6351  0.2375
 3835TIP3   OH233139   6.269   6.280   1.425 -0.8834 -0.0134 -0.1063
 3835TIP3    H133140   6.260   6.186   1.438 -0.3367 -0.2036 -1.0551
 3835TIP3    H233141   6.179   6.313   1.433 -1.2781 -0.7936 -1.0820
 3836TIP3   OH233142   2.922   2.363   8.275  0.2179 -0.0110 -0.1470
 3836TIP3    H133143   3.000   2.322   8.237 -0.0448 -0.1165 -0.5743
 3836TIP3    H233144   2.852   2.299   8.262 -0.4088  0.9106 -1.6622
 3837TIP3   OH233145   2.066   5.325   7.964  0.0410 -0.1072 -0.3032
 3837TIP3    H133146   2.157   5.354   7.969 -0.5918  2.7998 -2.8853
 3837TIP3    H233147   2.072   5.232   7.943  2.2717 -0.8797  2.9239
 3838TIP3   OH233148   2.584   5.441   7.913 -0.1786  0.2119  0.3496
 3838TIP3    H133149   2.652   5.505   7.891  0.1118 -0.1017  0.3185
 3838TIP3    H233150   2.630   5.374   7.964  0.0937 -1.3146 -1.7736
 3839TIP3   OH233151   0.413   3.411   3.175  0.7251 -0.4380  0.3605
 3839TIP3    H133152   0.333   3.418   3.124 -0.3018 -0.9704  1.8460
 3839TIP3    H233153   0.421   3.496   3.218  2.1084  0.3661 -1.3212
 3840TIP3   OH233154   0.424   2.936   7.665 -0.2053 -0.1450  0.1629
 3840TIP3    H133155   0.513   2.907   7.687  0.0203  1.7021  1.9235
 3840TIP3    H233156   0.426   3.031   7.677 -2.1182  0.0885 -0.9617
 3841TIP3   OH233157   1.684   2.670   0.702  0.1118 -0.4232  0.5440
 3841TIP3    H133158   1.663   2.734   0.635  0.3910 -1.0103 -0.1169
 3841TIP3    H233159   1.743   2.608   0.659 -0.3043 -1.2356  1.1035
 3842TIP3   OH233160   3.309   5.315   8.449  0.1237  0.3791 -0.2215
 3842TIP3    H133161   3.272   5.368   8.378 -1.5678 -0.7281 -0.2156
 3842TIP3    H233162   3.270   5.228   8.437 -0.2068  0.1645  2.0646
 3843TIP3   OH233163   1.453   3.117   0.258  0.0805 -0.6644 -0.4213
 3843TIP3    H133164   1.500   3.137   0.339  1.0646 -1.3480 -0.7980
 3843TIP3    H233165   1.361   3.123   0.282  0.3318  1.1903  0.2281
 3844TIP3   OH233166   6.768   4.424   0.203 -0.2141  0.2431  0.4600
 3844TIP3    H133167   6.805   4.491   0.261  0.9811 -1.3218  1.6148
 3844TIP3    H233168   6.764   4.346   0.258 -2.0361 -0.5181 -0.6982
 3845TIP3   OH233169   1.111   4.522   7.625 -0.0073 -0.2465 -0.3046
 3845TIP3    H133170   1.078   4.436   7.600 -1.9540  0.2464  0.4197
 3845TIP3    H233171   1.049   4.554   7.690  1.6993  0.9450  0.8198
 3846TIP3   OH233172   3.586   4.995   8.647 -0.0343 -0.7328 -0.3311
 3846TIP3    H133173   3.618   4.906   8.658  1.0658 -0.2861  0.3027
 3846TIP3    H233174   3.583   5.008   8.552  1.4083 -0.9097 -0.4228
 3847TIP3   OH233175   1.386   5.302   6.363 -0.1161 -0.0623 -0.0810
 3847TIP3    H133176   1.470   5.295   6.318 -0.3332 -1.2840 -0.3439
 3847TIP3    H233177   1.404   5.357   6.440  1.1175 -0.9597  0.3037
 3848TIP3   OH233178   2.633   2.464   1.848 -0.2038  0.2770  0.4753
 3848TIP3    H133179   2.580   2.406   1.794 -0.1950  0.2902  0.4522
 3848TIP3    H233180   2.603   2.448   1.938 -0.4506  0.4983  0.4329
 3849TIP3   OH233181   6.116   4.891   7.625  0.1308  0.5557  0.1375
 3849TIP3    H133182   6.107   4.975   7.670 -0.7159  0.3774  0.3083
 3849TIP3    H233183   6.074   4.905   7.540 -1.9026 -0.2698  0.9288
 3850TIP3   OH233184   0.517   5.520   0.227 -0.2669  0.2362 -0.1124
 3850TIP3    H133185   0.599   5.483   0.193 -0.3462  0.1650 -0.2241
 3850TIP3    H233186   0.463   5.533   0.150  0.4433  2.3123 -0.3400
 3851TIP3   OH233187   1.565   0.603   1.147 -0.5552  0.5629  0.6242
 3851TIP3    H133188   1.555   0.524   1.093 -3.2108  1.1241  0.1603
 3851TIP3    H233189   1.630   0.656   1.101  0.7332 -0.9979  0.5639
 3852TIP3   OH233190   6.134   0.468   2.374  0.3896 -0.1635  0.3134
 3852TIP3    H133191   6.039   0.470   2.368  0.2863  1.7851  1.4310
 3852TIP3    H233192   6.160   0.389   2.329 -1.8015 -1.0617  0.5107
 3853TIP3   OH233193   1.750   0.637   1.985 -0.2093  0.2803 -0.2140
 3853TIP3    H133194   1.759   0.718   2.036  0.8107 -0.3016  0.5769
 3853TIP3    H233195   1.776   0.568   2.046  0.8657 -0.4654 -1.4717
 3854TIP3   OH233196   3.173   5.429   7.906 -0.3508 -0.2204 -0.0128
 3854TIP3    H133197   3.260   5.410   7.870  0.1128  1.8580 -0.0997
 3854TIP3    H233198   3.120   5.454   7.831 -1.1705 -1.8042 -0.0054
 3855TIP3   OH233199   3.381   0.957   7.803  0.2549  0.0269  0.2977
 3855TIP3    H133200   3.423   0.970   7.718  1.6384 -1.3515  0.7456
 3855TIP3    H233201   3.288   0.947   7.782  0.5150  0.1456 -0.9960
 3856TIP3   OH233202   3.871   2.121   1.336 -0.3999 -0.4347  0.2589
 3856TIP3    H133203   3.884   2.164   1.420  0.4929  0.7416 -0.4635
 3856TIP3    H233204   3.807   2.052   1.354 -0.0036 -0.3885  1.9505
 3857TIP3   OH233205   5.818   6.175   7.187  0.1831 -0.6088  0.3860
 3857TIP3    H133206   5.895   6.232   7.190 -0.7091  0.6158  1.1958
 3857TIP3    H233207   5.848   6.092   7.224  1.2521 -0.3314  0.1629
 3858TIP3   OH233208   3.598   2.911   3.623 -0.1250 -0.4146  0.1078
 3858TIP3    H133209   3.658   2.980   3.653 -2.6380  1.3814  1.4033
 3858TIP3    H233210   3.558   2.878   3.704 -0.8588 -1.5885 -0.7042
 3859TIP3   OH233211   1.326   4.577   0.648 -0.4828  0.2368  0.3552
 3859TIP3    H133212   1.257   4.520   0.681 -1.0910  0.0367 -1.1744
 3859TIP3    H233213   1.407   4.537   0.679 -0.9887 -0.4354  0.8301
 3860TIP3   OH233214   2.756   1.558   8.351 -0.0378 -0.1575  0.1734
 3860TIP3    H133215   2.682   1.498   8.350 -1.2545  1.2971 -0.8014
 3860TIP3    H233216   2.809   1.532   8.275  0.3987 -1.0711  0.7611
 3861TIP3   OH233217   4.508   3.368   1.700 -0.5766  0.2853 -0.2960
 3861TIP3    H133218   4.564   3.443   1.682  0.2706  0.5443  2.8604
 3861TIP3    H233219   4.563   3.292   1.681 -0.0419  0.5107  0.3376
 3862TIP3   OH233220   0.598   2.957   6.594  0.7879 -0.7095  0.3262
 3862TIP3    H133221   0.678   2.970   6.644  0.5316  0.4987  0.4688
 3862TIP3    H233222   0.569   3.046   6.572 -1.0881 -1.0509  1.2093
 3863TIP3   OH233223   4.151   4.123   3.120  0.1248 -0.2875  0.0377
 3863TIP3    H133224   4.202   4.095   3.197 -0.5310 -0.7745  0.3053
 3863TIP3    H233225   4.184   4.069   3.049  0.3574 -0.2153  0.0872
 3864TIP3   OH233226   1.792   3.778   1.209  0.0053 -0.2875 -0.5580
 3864TIP3    H133227   1.760   3.800   1.296 -0.2359 -2.5035 -0.0191
 3864TIP3    H233228   1.880   3.815   1.205  0.1287 -0.4068  0.7625
 3865TIP3   OH233229   2.704   5.836   2.992  0.0422 -0.5918  0.1248
 3865TIP3    H133230   2.626   5.863   3.039  0.3083  1.3280 -0.4421
 3865TIP3    H233231   2.715   5.902   2.924  1.2256 -1.7500 -0.8609
 3866TIP3   OH233232   2.575   1.492   1.179 -0.2484  0.1474 -0.0746
 3866TIP3    H133233   2.573   1.587   1.167 -1.2186  0.0951 -0.4986
 3866TIP3    H233234   2.518   1.476   1.254 -4.1313 -0.3731 -2.7806
 3867TIP3   OH233235   0.952   6.474   1.131 -0.0544  0.3757 -0.2085
 3867TIP3    H133236   0.948   6.418   1.209  0.7327  1.7816  0.8808
 3867TIP3    H233237   0.914   6.557   1.159 -0.6907  0.5943 -1.6343
 3868TIP3   OH233238   6.615   0.782   8.451 -0.5616 -0.1945 -0.3695
 3868TIP3    H133239   6.633   0.876   8.452  4.3214 -0.8735  0.3062
 3868TIP3    H233240   6.584   0.763   8.540  1.7726  0.4052  0.6446
 3869TIP3   OH233241   4.216   1.234   2.495 -0.4840 -0.3934  0.3810
 3869TIP3    H133242   4.174   1.274   2.571  1.1354  1.9028  0.1544
 3869TIP3    H233243   4.145   1.218   2.433 -1.3525  1.0653  0.9700
 3870TIP3   OH233244   1.558   6.324   8.199 -0.2779  0.5082 -0.1283
 3870TIP3    H133245   1.562   6.367   8.114 -0.9413  0.1476 -0.3499
 3870TIP3    H233246   1.622   6.370   8.252 -2.1558  2.9775  0.1886
 3871TIP3   OH233247   3.738   1.971   0.248 -0.3805 -0.8540  0.5047
 3871TIP3    H133248   3.700   2.058   0.251  1.2729  0.0314 -1.5118
 3871TIP3    H233249   3.673   1.917   0.204 -1.2028 -0.5376  1.3135
 3872TIP3   OH233250   2.158   6.240   1.230  0.1530 -0.6441 -0.8626
 3872TIP3    H133251   2.154   6.145   1.240 -0.2159 -0.4023  2.4453
 3872TIP3    H233252   2.250   6.261   1.241 -0.1434 -0.4537  1.9093
 3873TIP3   OH233253   4.100   0.643   8.357 -0.3371 -0.1692  0.3931
 3873TIP3    H133254   4.150   0.697   8.295  1.5166 -1.1071  0.9892
 3873TIP3    H233255   4.097   0.556   8.318 -2.2349  0.0216  0.0176
 3874TIP3   OH233256   5.408   5.240   0.699 -0.0908 -0.2320 -0.8542
 3874TIP3    H133257   5.323   5.272   0.730 -0.7640 -3.4856  1.1044
 3874TIP3    H233258   5.471   5.290   0.750 -0.8579  1.0975 -1.1524
 3875TIP3   OH233259   2.238   1.641   0.596  0.4344  0.3638  0.7854
 3875TIP3    H133260   2.183   1.712   0.561  2.0836  0.4662 -1.9234
 3875TIP3    H233261   2.251   1.582   0.521  1.6396 -1.1663  2.1350
 3876TIP3   OH233262   1.359   3.134   2.652 -0.0689 -0.1103  0.2703
 3876TIP3    H133263   1.321   3.215   2.688 -1.2126  0.4166 -1.9358
 3876TIP3    H233264   1.448   3.158   2.626  1.4566 -0.9436  4.0490
 3877TIP3   OH233265   3.483   2.098   1.727 -0.8621 -0.3286  0.0461
 3877TIP3    H133266   3.475   2.100   1.823 -2.5441 -0.3060 -0.0616
 3877TIP3    H233267   3.419   2.032   1.699  0.7506 -1.5194 -0.9886
 3878TIP3   OH233268   6.374   6.125   2.075  0.4227  0.6672  0.2832
 3878TIP3    H133269   6.465   6.098   2.085 -0.3588 -1.8784  1.4671
 3878TIP3    H233270   6.330   6.091   2.154 -1.8153  0.3900 -0.9896
 3879TIP3   OH233271   0.577   5.716   2.185  0.0755 -0.2026  0.0435
 3879TIP3    H133272   0.606   5.743   2.098  0.8338 -1.3557 -0.0864
 3879TIP3    H233273   0.497   5.767   2.201  0.0731  0.2111 -1.2118
 3880TIP3   OH233274   3.224   3.387   7.420 -0.4626  0.6459 -0.3363
 3880TIP3    H133275   3.218   3.300   7.380  2.1800 -0.1997  0.8634
 3880TIP3    H233276   3.302   3.426   7.381 -0.8096  1.9014  0.1829
 3881TIP3   OH233277   4.280   4.941   2.193  0.0630  0.0008  0.0778
 3881TIP3    H133278   4.335   5.017   2.212 -1.9655  1.1793  1.5621
 3881TIP3    H233279   4.286   4.886   2.271 -0.2672 -0.2422 -0.0623
 3882TIP3   OH233280   5.182   5.616   1.892 -0.5254  0.1713  0.4331
 3882TIP3    H133281   5.182   5.650   1.802  0.1790 -0.4034  0.2065
 3882TIP3    H233282   5.131   5.535   1.887  0.5538 -0.5181  0.2782
 3883TIP3   OH233283   0.250   6.666   0.083 -0.4076  0.2112  0.0458
 3883TIP3    H133284   0.249   6.706  -0.004  1.1655 -2.2842 -1.2565
 3883TIP3    H233285   0.342   6.644   0.098 -0.6759  0.3671  2.2933
 3884TIP3   OH233286   2.306   1.455   0.395  0.1603  0.2901 -0.3698
 3884TIP3    H133287   2.333   1.371   0.432  0.3826 -0.8017 -2.8702
 3884TIP3    H233288   2.386   1.507   0.393  0.3504  0.0051 -0.2689
 3885TIP3   OH233289   5.744   1.168   8.349 -0.3524 -0.1422 -0.3000
 3885TIP3    H133290   5.810   1.179   8.418 -0.3601 -2.6991  0.2085
 3885TIP3    H233291   5.661   1.168   8.396 -0.5067  0.0790 -0.5701
 3886TIP3   OH233292   0.443   0.798   8.005 -0.0392 -0.7933 -0.7045
 3886TIP3    H133293   0.537   0.802   8.023 -0.0717  0.1848 -0.7078
 3886TIP3    H233294   0.427   0.706   7.984  1.4233 -0.5170 -3.4404
 3887TIP3   OH233295   6.065   2.298   7.921 -0.2447 -0.0577  0.5229
 3887TIP3    H133296   6.000   2.324   7.986  0.7694 -2.9820  2.9730
 3887TIP3    H233297   6.021   2.232   7.867  0.6535 -2.5057  2.5787
 3888TIP3   OH233298   0.514   4.354   7.509  0.7895  0.5467  0.3092
 3888TIP3    H133299   0.511   4.353   7.413  1.2525 -0.6665  0.2861
 3888TIP3    H233300   0.424   4.337   7.536  0.7908  0.1400  0.0720
 3889TIP3   OH233301   3.524   4.076   1.251  0.0117  0.2883  0.5443
 3889TIP3    H133302   3.518   3.985   1.223 -0.6718  0.5416 -0.1528
 3889TIP3    H233303   3.461   4.083   1.323 -0.5305  0.4088  0.0587
 3890TIP3   OH233304   1.674   6.343   7.619 -0.2591 -0.5209  0.3013
 3890TIP3    H133305   1.617   6.271   7.644 -0.1839 -1.4246 -1.9132
 3890TIP3    H233306   1.638   6.375   7.536 -0.7484  2.5375  1.5415
 3891TIP3   OH233307   3.278   2.752   3.032 -0.5604  0.3607 -0.0437
 3891TIP3    H133308   3.360   2.753   3.081 -0.1261  1.8605 -0.7245
 3891TIP3    H233309   3.227   2.682   3.071  0.8563 -0.2893  0.7126
 3892TIP3   OH233310   3.567   5.115   7.969 -0.4812  0.2279 -0.0175
 3892TIP3    H133311   3.566   5.074   7.882 -0.8802 -0.0598  0.1198
 3892TIP3    H233312   3.624   5.058   8.022 -2.4494 -1.2065  0.6631
 3893TIP3   OH233313   0.829   4.440   7.752  0.2504  0.5703 -0.0069
 3893TIP3    H133314   0.771   4.379   7.706  0.5837  0.0793  0.2191
 3893TIP3    H233315   0.797   4.527   7.727  0.5648  0.3185 -1.3603
 3894TIP3   OH233316   5.306   6.405   8.307 -0.4664 -0.0208  0.4947
 3894TIP3    H133317   5.362   6.458   8.251  0.2080 -1.3470 -0.1270
 3894TIP3    H233318   5.230   6.384   8.252 -0.0028 -0.9671  0.1878
 3895TIP3   OH233319   2.393   1.186   0.350  0.2325  0.5270 -0.3388
 3895TIP3    H133320   2.449   1.192   0.273  1.2941 -0.2371  0.3302
 3895TIP3    H233321   2.434   1.118   0.404  2.3905  4.0787  3.0992
 3896TIP3   OH233322   4.506   3.973   2.320 -0.0232 -0.1884 -0.1355
 3896TIP3    H133323   4.560   3.989   2.398 -0.2556 -1.6297  0.3550
 3896TIP3    H233324   4.565   3.930   2.258 -0.0806  0.0874 -0.3792
 3897TIP3   OH233325   6.173   4.130   0.539 -0.3991  0.4888 -0.2083
 3897TIP3    H133326   6.100   4.125   0.601  0.1065 -0.3283  0.3447
 3897TIP3    H233327   6.154   4.207   0.486 -2.1740 -0.2312 -0.7062
 3898TIP3   OH233328   1.106   1.442   8.298  0.6347 -0.1599  0.0452
 3898TIP3    H133329   1.095   1.514   8.359 -0.6068  1.5744 -2.0609
 3898TIP3    H233330   1.017   1.408   8.284  1.3994 -4.1123  3.0615
 3899TIP3   OH233331   3.499   0.786   8.100 -0.5540  0.2329 -0.3325
 3899TIP3    H133332   3.477   0.778   8.193  0.2047 -0.7059 -0.2179
 3899TIP3    H233333   3.595   0.785   8.098 -0.4274  3.2673 -0.8931
 3900TIP3   OH233334   6.794   3.777   2.043 -0.5102 -0.3888  0.3767
 3900TIP3    H133335   6.875   3.794   2.090 -0.1999 -0.5882 -0.0818
 3900TIP3    H233336   6.772   3.686   2.065 -0.4005 -0.4609  0.1904
 3901TIP3   OH233337   1.472   6.507   1.886  0.0575  0.2146 -1.1753
 3901TIP3    H133338   1.379   6.528   1.875 -0.1197 -0.5357 -1.1400
 3901TIP3    H233339   1.517   6.591   1.874 -0.7391  0.9039  0.4088
 3902TIP3   OH233340   3.711   2.021   2.990 -0.2028 -0.6745 -0.1649
 3902TIP3    H133341   3.783   2.054   3.043  0.6081 -2.0362 -0.3864
 3902TIP3    H233342   3.711   2.078   2.913  0.6767 -0.6993 -0.1967
 3903TIP3   OH233343   1.316   0.451   8.020 -0.1733  0.0627  0.1197
 3903TIP3    H133344   1.400   0.485   8.050 -0.8473  2.1219 -0.1694
 3903TIP3    H233345   1.256   0.466   8.093 -0.7017  0.3532 -0.3663
 3904TIP3   OH233346   4.318   5.086   0.712 -0.5692  0.0960  0.0827
 3904TIP3    H133347   4.325   5.174   0.750  1.0299  0.4738 -0.9737
 3904TIP3    H233348   4.325   5.028   0.787  1.7735  0.8431  0.5261
 3905TIP3   OH233349   3.581   2.986   7.540  0.1422 -0.4404  0.2197
 3905TIP3    H133350   3.658   2.935   7.568  0.0420  0.4168  2.1712
 3905TIP3    H233351   3.520   2.980   7.613 -1.3837 -0.4976 -1.0113
 3906TIP3   OH233352   4.263   4.668   0.573 -0.3741 -0.4683  0.2603
 3906TIP3    H133353   4.319   4.608   0.623 -1.8401 -2.6351 -0.5232
 3906TIP3    H233354   4.189   4.613   0.546 -1.5191  1.6083 -1.0151
 3907TIP3   OH233355   6.606   3.909   3.089 -0.3755 -0.0031 -0.1018
 3907TIP3    H133356   6.559   3.826   3.076  0.2822 -0.4412  0.2668
 3907TIP3    H233357   6.689   3.896   3.044 -0.9359  1.1061 -1.5411
 3908TIP3   OH233358   4.746   2.174   7.290 -0.2348  0.2147 -0.8781
 3908TIP3    H133359   4.744   2.252   7.235  0.6056 -0.2056 -1.5203
 3908TIP3    H233360   4.831   2.134   7.272 -0.6913 -0.9034 -0.6289
 3909TIP3   OH233361   0.914   1.402   8.679  0.1765 -0.0668 -0.0765
 3909TIP3    H133362   0.837   1.397   8.735 -0.7257  1.2583 -1.1413
 3909TIP3    H233363   0.987   1.413   8.739 -0.4708 -1.0864  0.9390
 3910TIP3   OH233364   1.795   0.591   8.578 -0.1884 -0.1386  0.1101
 3910TIP3    H133365   1.743   0.670   8.564  1.3612  1.0816  0.9306
 3910TIP3    H233366   1.748   0.523   8.529 -2.4731  0.8837  0.7155
 3911TIP3   OH233367   2.138   0.326   2.330  0.1637  0.4550 -0.2127
 3911TIP3    H133368   2.168   0.363   2.247  0.2806  0.5384 -0.1329
 3911TIP3    H233369   2.138   0.231   2.315  0.7408  0.4394 -0.1214
 3912TIP3   OH233370   3.310   4.282   0.654 -0.3401 -0.1346  0.0525
 3912TIP3    H133371   3.281   4.247   0.738  0.8304 -2.0672 -0.2617
 3912TIP3    H233372   3.405   4.289   0.663 -0.4440  2.3241 -0.2119
 3913TIP3   OH233373   0.594   0.574   1.467  0.4524  0.0360 -0.1896
 3913TIP3    H133374   0.505   0.608   1.458  0.4813  0.7425  1.8576
 3913TIP3    H233375   0.650   0.642   1.428  0.3673  1.5803  2.2189
 3914TIP3   OH233376   1.617   3.558   8.039 -0.3405  0.0674  0.1311
 3914TIP3    H133377   1.683   3.489   8.032  1.0304  1.4208 -1.2211
 3914TIP3    H233378   1.539   3.514   8.071 -0.1202 -2.4916 -2.4239
 3915TIP3   OH233379   0.964   0.318   7.185 -0.5181  0.1642 -0.5036
 3915TIP3    H133380   1.021   0.364   7.123  0.2691  0.8037  0.6397
 3915TIP3    H233381   1.025   0.273   7.244 -1.1280  1.3762  1.1414
 3916TIP3   OH233382   0.280   3.147   1.028 -0.3729  0.1845 -0.2229
 3916TIP3    H133383   0.209   3.179   0.973 -0.4610 -1.8968 -1.4305
 3916TIP3    H233384   0.252   3.059   1.054  1.7369 -0.6998 -0.7519
 3917TIP3   OH233385   5.884   1.251   0.715  0.0792 -0.2561 -0.5845
 3917TIP3    H133386   5.816   1.290   0.661  0.6357  0.1179 -1.0184
 3917TIP3    H233387   5.931   1.192   0.656  1.3298  0.9035 -0.8044
 3918TIP3   OH233388   1.389   4.479   8.286 -0.2105 -1.0985  0.4298
 3918TIP3    H133389   1.333   4.403   8.271 -1.7500 -0.1519  1.0881
 3918TIP3    H233390   1.468   4.462   8.235 -1.3360 -2.2232 -1.0123
 3919TIP3   OH233391   5.208   6.596   0.475 -0.0085  0.8395 -0.0006
 3919TIP3    H133392   5.286   6.546   0.499  1.1026  2.9868  1.2393
 3919TIP3    H233393   5.239   6.658   0.409 -1.6044 -0.7578 -2.3468
 3920TIP3   OH233394   3.591   0.209   0.738  0.0469  0.4533  0.1916
 3920TIP3    H133395   3.560   0.160   0.814  0.9940  0.2491  0.4589
 3920TIP3    H233396   3.679   0.238   0.762  1.7772 -2.4080 -2.0044
 3921TIP3   OH233397   3.201   1.831   2.214 -0.1023 -0.0467  0.2057
 3921TIP3    H133398   3.180   1.870   2.299  0.4718 -0.3079  0.4780
 3921TIP3    H233399   3.198   1.736   2.230  0.5851 -0.0968  0.0971
 3922TIP3   OH233400   6.574   3.990   7.788  0.0464  0.0296  0.0749
 3922TIP3    H133401   6.492   3.992   7.739 -1.0085 -0.7436  1.7344
 3922TIP3    H233402   6.556   4.040   7.868  1.3106  0.1655  0.2924
 3923TIP3   OH233403   3.439   5.658   2.344 -0.1487 -0.2016  0.3658
 3923TIP3    H133404   3.354   5.618   2.364 -1.0814  1.5089  0.0801
 3923TIP3    H233405   3.464   5.702   2.425  0.9985 -1.5175  0.7669
 3924TIP3   OH233406   5.560   1.756   7.584  0.2720  0.3521  0.1385
 3924TIP3    H133407   5.573   1.721   7.496 -0.2273 -0.0130  0.2120
 3924TIP3    H233408   5.477   1.803   7.580  1.1701  2.0201 -0.1102
 3925TIP3   OH233409   0.780   5.457   7.741 -0.3561 -0.3093  0.2343
 3925TIP3    H133410   0.687   5.474   7.753 -0.4635 -0.1991 -0.6866
 3925TIP3    H233411   0.796   5.474   7.648  0.9458  1.4163  0.7278
 3926TIP3   OH233412   2.340   5.030   8.251 -0.3413  0.1422  0.4002
 3926TIP3    H133413   2.435   5.018   8.249 -0.5849 -2.3290 -0.3717
 3926TIP3    H233414   2.315   5.034   8.159 -1.1469 -1.4436  0.5170
 3927TIP3   OH233415   2.951   6.858   8.282  0.0067  0.1967  0.6382
 3927TIP3    H133416   3.038   6.895   8.294 -0.1217  0.9932 -0.6850
 3927TIP3    H233417   2.954   6.818   8.195 -0.4163 -1.3516  1.2933
 3928TIP3   OH233418   5.381   1.699   0.885  0.4273 -0.0316  0.6240
 3928TIP3    H133419   5.342   1.783   0.862  2.2793  0.8137  0.3751
 3928TIP3    H233420   5.469   1.702   0.847  0.1538 -2.5766 -0.4198
 3929TIP3   OH233421   6.207   0.227   2.260  0.6281  0.0090  0.8272
 3929TIP3    H133422   6.235   0.223   2.168  0.8424 -1.0891  0.9207
 3929TIP3    H233423   6.167   0.141   2.276  1.4056 -0.1515  2.0035
 3930TIP3   OH233424   2.903   3.545   7.062  0.4401 -0.5080  0.4589
 3930TIP3    H133425   2.811   3.549   7.088  0.4426 -0.7632  0.5063
 3930TIP3    H233426   2.904   3.483   6.989  0.5251 -0.2542  0.2437
 3931TIP3   OH233427   3.712   3.325   0.816 -0.6960  0.2909  0.2134
 3931TIP3    H133428   3.628   3.310   0.859 -0.6314 -1.3964 -0.1964
 3931TIP3    H233429   3.777   3.288   0.876 -0.6242 -2.3562 -1.3449
 3932TIP3   OH233430   1.934   2.305   1.779 -0.1446 -0.1079  0.3855
 3932TIP3    H133431   1.897   2.316   1.691 -2.5100 -0.1857  1.3247
 3932TIP3    H233432   1.909   2.217   1.805  0.0722  0.1085  1.3705
 3933TIP3   OH233433   2.716   0.922   1.688  0.4720 -0.0587  0.1722
 3933TIP3    H133434   2.791   0.969   1.654 -0.4297  0.6672 -0.8984
 3933TIP3    H233435   2.695   0.966   1.770  0.7073  0.2691  0.0564
 3934TIP3   OH233436   0.857   3.748   2.121  0.3443 -0.5258 -0.5321
 3934TIP3    H133437   0.838   3.660   2.088 -1.2657 -1.0011  1.4294
 3934TIP3    H233438   0.772   3.791   2.127  0.8226  0.3091  0.7340
 3935TIP3   OH233439   6.792   0.231   2.040  0.2454  0.2267  0.9224
 3935TIP3    H133440   6.770   0.256   2.130 -1.1226 -0.2203  0.7372
 3935TIP3    H233441   6.837   0.307   2.004 -0.8620  1.1406  1.4190
 3936TIP3   OH233442   6.463   5.736   0.630  0.4796  0.2129  0.2779
 3936TIP3    H133443   6.485   5.710   0.720  1.8866  0.7098  0.1078
 3936TIP3    H233444   6.407   5.812   0.641 -0.8117 -0.7744  0.7358
 3937TIP3   OH233445   3.508   1.796   0.946  0.3653 -0.1218  0.7470
 3937TIP3    H133446   3.532   1.740   0.871 -0.6355 -1.6643  1.5229
 3937TIP3    H233447   3.438   1.748   0.990 -0.3220  1.6263  1.6619
 3938TIP3   OH233448   6.095   6.307   8.667  0.4354 -0.0747 -0.0026
 3938TIP3    H133449   6.001   6.311   8.650  0.3691  1.9526  0.5777
 3938TIP3    H233450   6.129   6.389   8.632  2.2879 -1.4604 -1.6968
 3939TIP3   OH233451   3.300   3.817   1.716 -0.0836  0.1982 -0.5375
 3939TIP3    H133452   3.218   3.818   1.765  0.0001 -1.3697 -0.2884
 3939TIP3    H233453   3.368   3.828   1.782 -0.0658  1.2854 -0.7188
 3940TIP3   OH233454   0.788   0.231   2.732 -0.0415  0.2798  0.1439
 3940TIP3    H133455   0.855   0.190   2.787  1.1682  0.6760 -0.9779
 3940TIP3    H233456   0.837   0.290   2.675 -1.3236  0.3715 -0.9099
 3941TIP3   OH233457   5.187   4.931   2.767  0.1686 -0.8883  0.0192
 3941TIP3    H133458   5.231   4.875   2.832 -1.1682 -0.0102  1.7810
 3941TIP3    H233459   5.115   4.877   2.734  0.1897 -0.9578  0.0861
 3942TIP3   OH233460   4.647   2.097   8.102 -0.2391 -0.2344  0.4052
 3942TIP3    H133461   4.719   2.062   8.049  0.3369  1.9490 -0.3789
 3942TIP3    H233462   4.598   2.153   8.042 -3.1437 -2.2472  0.7114
 3943TIP3   OH233463   3.929   1.704   1.841 -0.4101  1.0286  1.1384
 3943TIP3    H133464   3.979   1.711   1.923  1.1655  0.2635  0.2910
 3943TIP3    H233465   3.965   1.773   1.785  0.8703 -0.4847 -0.0221
 3944TIP3   OH233466   2.034   5.043   1.838 -0.3071  0.0793  0.8826
 3944TIP3    H133467   1.940   5.054   1.830 -0.0750  2.3985  0.4617
 3944TIP3    H233468   2.065   5.040   1.747  0.1251  0.9389  0.9839
 3945TIP3   OH233469   2.583   5.528   1.130 -0.0087 -0.3843  0.1425
 3945TIP3    H133470   2.519   5.487   1.073 -1.9659 -0.4700  2.2451
 3945TIP3    H233471   2.536   5.544   1.212  2.8996 -1.2519  2.1605
 3946TIP3   OH233472   1.485   1.150   1.309  0.5448 -0.0066  0.1957
 3946TIP3    H133473   1.452   1.065   1.282  0.5875 -0.5256  1.6792
 3946TIP3    H233474   1.530   1.133   1.391  1.1670  1.3394  0.1612
 3947TIP3   OH233475   4.310   1.174   7.691  0.1458 -0.2388  0.0614
 3947TIP3    H133476   4.367   1.128   7.754  1.9955 -0.1909 -1.4831
 3947TIP3    H233477   4.224   1.175   7.733  0.6134 -2.8574  1.2655
 3948TIP3   OH233478   2.127   0.651   1.063  0.1056  0.4541 -0.0508
 3948TIP3    H133479   2.145   0.592   0.990 -1.4727 -1.2469  0.8601
 3948TIP3    H233480   2.191   0.627   1.130 -0.0083  0.3356  0.0162
 3949TIP3   OH233481   5.367   1.441   8.569 -0.1016 -0.0983  0.1801
 3949TIP3    H133482   5.309   1.407   8.637  0.4867 -1.0521  0.2225
 3949TIP3    H233483   5.335   1.530   8.552  0.8561  0.9147  3.0475
 3950TIP3   OH233484   1.379   3.372   2.047 -0.0873 -0.5115  0.2432
 3950TIP3    H133485   1.390   3.376   1.952 -3.0293 -2.1300 -0.2596
 3950TIP3    H233486   1.353   3.282   2.065 -1.8846  0.3173  2.2604
 3951TIP3   OH233487   3.281   3.702   0.929 -0.1994 -0.1132 -0.4300
 3951TIP3    H133488   3.330   3.779   0.902  0.4812  0.5510  2.4150
 3951TIP3    H233489   3.219   3.734   0.995  0.6929 -2.0685  1.4698
 3952TIP3   OH233490   0.680   0.141   1.208  0.2939  0.4901 -0.1303
 3952TIP3    H133491   0.770   0.169   1.191 -0.0818  1.2981 -0.8862
 3952TIP3    H233492   0.670   0.148   1.303  1.4449 -0.9777  0.1369
 3953TIP3   OH233493   1.435   3.783   8.183  0.3143 -0.0728 -0.9362
 3953TIP3    H133494   1.385   3.807   8.261  1.8392  0.1667  0.0228
 3953TIP3    H233495   1.374   3.732   8.130 -0.6553 -0.6051  0.6147
 3954TIP3   OH233496   1.521   5.099   1.216  0.1131  0.3374  0.0926
 3954TIP3    H133497   1.498   5.019   1.169 -1.3800  0.3627  0.7194
 3954TIP3    H233498   1.600   5.132   1.172  0.0309 -0.8129 -0.9493
 3955TIP3   OH233499   5.095   1.029   8.575  0.0736 -0.7617 -0.1934
 3955TIP3    H133500   5.026   0.989   8.628 -1.1000  1.0145 -0.2999
 3955TIP3    H233501   5.048   1.080   8.508  1.3961  1.8016  0.6850
 3956TIP3   OH233502   1.665   4.371   1.661 -0.1049 -0.6095  1.0885
 3956TIP3    H133503   1.584   4.417   1.680  0.4884  0.3293  1.4131
 3956TIP3    H233504   1.645   4.279   1.680 -0.0485 -0.0020  4.9402
 3957TIP3   OH233505   4.153   1.834   7.643 -0.4958  0.3667 -0.0494
 3957TIP3    H133506   4.213   1.864   7.711 -0.1021 -0.6148  0.0556
 3957TIP3    H233507   4.084   1.788   7.690 -0.5934  0.2944 -0.2624
 3958TIP3   OH233508   2.232   1.135   2.863  0.3989  0.3309 -0.3273
 3958TIP3    H133509   2.213   1.101   2.951  2.4260 -0.2190 -0.0678
 3958TIP3    H233510   2.192   1.222   2.862  1.2537  0.7786  1.5217
 3959TIP3   OH233511   2.970   2.634   8.172  0.1926 -0.4476  0.6923
 3959TIP3    H133512   2.888   2.674   8.144  0.8146 -0.4852 -1.3806
 3959TIP3    H233513   2.947   2.544   8.194 -0.3219 -0.4892  0.0246
 3960TIP3   OH233514   0.437   3.229   7.860  0.0646  0.0577 -0.7730
 3960TIP3    H133515   0.419   3.211   7.768 -0.3111 -0.7078 -0.5644
 3960TIP3    H233516   0.353   3.216   7.904 -0.7475  4.0853 -0.7556
 3961TIP3   OH233517   0.242   4.577   1.935 -0.2157 -0.0661 -0.0158
 3961TIP3    H133518   0.259   4.594   2.028 -0.8023 -0.2485  0.1305
 3961TIP3    H233519   0.147   4.590   1.926 -0.3335 -1.1160 -0.3560
 3962TIP3   OH233520   3.564   3.821   1.920 -0.3583  0.2111 -0.0774
 3962TIP3    H133521   3.642   3.876   1.927  0.4968 -1.0975  1.1702
 3962TIP3    H233522   3.582   3.763   1.846  0.3489 -0.8111  0.8762
 3963TIP3   OH233523   2.203   1.266   0.700 -0.7318  0.3665 -0.0539
 3963TIP3    H133524   2.133   1.254   0.636 -0.6921  1.9936 -0.4610
 3963TIP3    H233525   2.180   1.348   0.745  0.3042  0.3149  0.6045
 3964TIP3   OH233526   0.885   4.898   0.023 -0.1424  0.4677 -0.0479
 3964TIP3    H133527   0.849   4.942  -0.055  0.6783 -1.0183 -1.3280
 3964TIP3    H233528   0.877   4.805   0.003  1.1015  0.0717  1.1975
 3965TIP3   OH233529   2.374   6.440   0.020 -0.0485 -0.3993 -0.0411
 3965TIP3    H133530   2.424   6.518   0.043 -0.6340  0.0240 -0.1825
 3965TIP3    H233531   2.405   6.373   0.082  1.5901 -0.5157 -0.9341
 3966TIP3   OH233532   4.943   2.271   1.222  0.2656 -0.4688 -0.7081
 3966TIP3    H133533   4.945   2.211   1.297 -3.3246 -0.1196 -0.1991
 3966TIP3    H233534   5.031   2.311   1.222  0.6527 -0.9371  2.9026
 3967TIP3   OH233535   0.536   2.796   8.319 -0.4372  0.1942  0.3374
 3967TIP3    H133536   0.579   2.877   8.344  0.5974 -0.3071  0.2534
 3967TIP3    H233537   0.525   2.748   8.401 -0.4937  0.1593  0.3099
 3968TIP3   OH233538   1.132   3.878   2.055  0.1712  0.9685 -0.0262
 3968TIP3    H133539   1.057   3.848   2.107  0.0148  0.3629 -0.5871
 3968TIP3    H233540   1.208   3.839   2.098 -0.0618 -0.5856 -0.9673
 3969TIP3   OH233541   0.949   0.737   7.229  0.6564  0.5381  0.1697
 3969TIP3    H133542   0.934   0.687   7.149 -1.0822 -2.7430  2.3269
 3969TIP3    H233543   0.887   0.810   7.223 -1.1951 -1.0080 -0.4524
 3970TIP3   OH233544   4.656   6.370   7.550  0.2756  0.0292  0.0943
 3970TIP3    H133545   4.724   6.362   7.483 -0.0486  1.8188 -0.4953
 3970TIP3    H233546   4.580   6.324   7.513  0.4511  0.0380 -0.2808
 3971TIP3   OH233547   5.115   4.382   2.428  0.2440  0.1128 -0.0746
 3971TIP3    H133548   5.107   4.467   2.383 -0.4128  0.7510  1.1701
 3971TIP3    H233549   5.189   4.393   2.487 -0.2139  0.0495  0.5272
 3972TIP3   OH233550   4.651   3.031   1.280  0.1847 -0.5968 -0.3231
 3972TIP3    H133551   4.651   2.971   1.206  0.7330 -1.5326  0.4019
 3972TIP3    H233552   4.568   3.016   1.324 -0.3396  0.2818 -0.9715
 3973TIP3   OH233553   5.793   1.917   7.532 -0.5628 -0.6450 -0.5499
 3973TIP3    H133554   5.731   1.848   7.511 -1.9049  1.2062 -3.1479
 3973TIP3    H233555   5.873   1.893   7.484 -0.2778 -1.4276  0.2848
 3974TIP3   OH233556   1.528   5.112   1.716 -0.3770  0.0568  0.0727
 3974TIP3    H133557   1.566   5.179   1.772 -0.2521  0.3336 -0.3397
 3974TIP3    H233558   1.534   5.148   1.627 -0.1293 -0.5777 -0.1727
 3975TIP3   OH233559   5.065   3.511   2.285  0.5922 -0.4525 -0.0665
 3975TIP3    H133560   5.125   3.437   2.291  1.1022 -0.1512 -1.1103
 3975TIP3    H233561   5.121   3.588   2.294  0.3296 -0.1750 -0.7126
 3976TIP3   OH233562   1.637   6.701   8.448  0.6462  0.4470 -0.7267
 3976TIP3    H133563   1.558   6.743   8.414  0.6214 -0.6503 -2.0997
 3976TIP3    H233564   1.607   6.617   8.482  1.2054  0.0061 -1.2874
 3977TIP3   OH233565   5.717   1.269   1.548  0.2047  0.0583 -0.1030
 3977TIP3    H133566   5.698   1.314   1.631 -1.3926 -0.0401 -0.3832
 3977TIP3    H233567   5.768   1.192   1.574  1.2241  0.9265  0.5825
 3978TIP3   OH233568   5.222   1.511   1.704 -0.2624  0.0675  0.4457
 3978TIP3    H133569   5.181   1.597   1.692 -0.9150 -0.3397 -0.2978
 3978TIP3    H233570   5.166   1.451   1.656  0.5196 -0.6961  0.4744
 3979TIP3   OH233571   0.972   1.591   1.084  0.0235 -0.3929  0.4496
 3979TIP3    H133572   0.935   1.676   1.107  0.5073 -0.3185  0.9639
 3979TIP3    H233573   0.992   1.598   0.990  0.9480  0.3941  0.6976
 3980TIP3   OH233574   2.733   2.960   8.213 -0.0586 -0.0545 -0.2316
 3980TIP3    H133575   2.688   2.881   8.185 -4.7691  1.4883  1.8889
 3980TIP3    H233576   2.788   2.932   8.287  0.5769 -1.6485 -1.2479
 3981TIP3   OH233577   3.137   0.417   7.665  0.1047 -0.0463 -0.0024
 3981TIP3    H133578   3.174   0.506   7.666  0.4229 -0.1782  0.3418
 3981TIP3    H233579   3.055   0.425   7.615  1.5144 -0.1204 -2.5099
 3982TIP3   OH233580   0.581   5.798   0.083 -0.9883 -0.4443  0.1212
 3982TIP3    H133581   0.595   5.715   0.129 -0.4122  1.0621  2.9095
 3982TIP3    H233582   0.542   5.855   0.148  1.3212  2.3603 -0.7325
 3983TIP3   OH233583   4.698   4.337   8.208 -0.0597 -0.1967  1.1088
 3983TIP3    H133584   4.634   4.314   8.140 -0.6230 -2.1052  2.2024
 3983TIP3    H233585   4.699   4.432   8.209 -1.2210 -0.1233 -0.4743
 3984TIP3   OH233586   5.109   1.344   0.834  0.3469 -0.9346  0.1427
 3984TIP3    H133587   5.200   1.326   0.854 -0.0284 -2.2308  0.7983
 3984TIP3    H233588   5.108   1.436   0.807  1.5773 -0.3911  1.7854
 3985TIP3   OH233589   6.233   6.496   0.717  0.0500  0.7827 -0.4056
 3985TIP3    H133590   6.193   6.473   0.634  1.6974 -1.3629 -0.6628
 3985TIP3    H233591   6.265   6.585   0.704 -0.0814  0.6314 -1.9134
 3986TIP3   OH233592   1.422   2.091   0.660  0.0556  0.0642  0.3821
 3986TIP3    H133593   1.358   2.141   0.611  0.8298  0.0899 -0.6463
 3986TIP3    H233594   1.470   2.042   0.593  0.2652 -0.9336  1.2341
 3987TIP3   OH233595   1.796   5.296   7.151  0.7410 -0.0323 -0.2900
 3987TIP3    H133596   1.813   5.243   7.073 -0.5731  1.7098 -1.8401
 3987TIP3    H233597   1.877   5.345   7.164  0.5812  0.5297 -1.3063
 3988TIP3   OH233598   0.755   5.545   1.212 -0.3057 -0.0161  0.2110
 3988TIP3    H133599   0.807   5.613   1.168 -1.5236 -0.6871 -2.5081
 3988TIP3    H233600   0.789   5.463   1.176 -0.2052 -0.7626  1.9220
 3989TIP3   OH233601   5.310   2.798   0.635 -0.2124  0.5842 -0.0418
 3989TIP3    H133602   5.282   2.810   0.725 -1.3789 -2.0828  0.0580
 3989TIP3    H233603   5.372   2.869   0.619 -1.3227  2.1791  2.2414
 3990TIP3   OH233604   2.337   2.524   1.251 -0.0152 -0.2438 -0.4109
 3990TIP3    H133605   2.345   2.592   1.318  1.4263 -0.8413  0.0616
 3990TIP3    H233606   2.415   2.535   1.196 -1.3504  0.4765 -2.2682
 3991TIP3   OH233607   6.234   4.280   8.081  0.2999 -0.0963  0.2557
 3991TIP3    H133608   6.186   4.344   8.028  1.2057  0.1089 -0.3364
 3991TIP3    H233609   6.303   4.248   8.023 -0.0542 -1.5214  0.5812
 3992TIP3   OH233610   5.159   0.186   0.500 -0.4841  0.3660  0.8213
 3992TIP3    H133611   5.082   0.216   0.547 -0.7805 -1.6286  1.7055
 3992TIP3    H233612   5.127   0.115   0.444 -0.3291  3.1385 -3.1799
 3993TIP3   OH233613   6.785   0.346   8.368  0.7131  0.2938 -0.0653
 3993TIP3    H133614   6.828   0.359   8.284  1.5498 -0.2510  0.2572
 3993TIP3    H233615   6.693   0.364   8.352  1.1841  2.4842 -0.5473
 3994TIP3   OH233616   5.758   2.865   1.789  0.3646  0.1504 -0.1134
 3994TIP3    H133617   5.776   2.941   1.844 -0.3519  0.9210 -0.9159
 3994TIP3    H233618   5.839   2.851   1.740  2.2147 -2.4779  3.2403
 3995TIP3   OH233619   5.331   4.107   1.524 -0.0038  0.6630  0.4052
 3995TIP3    H133620   5.352   4.024   1.483  3.3189  0.7922  1.5472
 3995TIP3    H233621   5.293   4.159   1.453  1.6199 -0.5040 -1.4559
 3996TIP3   OH233622   1.811   4.291   7.286 -0.1358  0.1111 -0.0742
 3996TIP3    H133623   1.842   4.204   7.261  2.2488  0.2873  1.9184
 3996TIP3    H233624   1.721   4.294   7.254  0.2751 -2.3709 -1.7962
 3997TIP3   OH233625   1.756   6.690   1.342  0.1386 -0.4404  0.6432
 3997TIP3    H133626   1.850   6.706   1.355  0.3796 -1.3681  0.1559
 3997TIP3    H233627   1.714   6.742   1.410  1.1506 -1.9848  2.5491
 3998TIP3   OH233628   3.123   6.651   7.438 -0.2989  0.3068  1.0643
 3998TIP3    H133629   3.176   6.639   7.360 -1.2232  1.0225  0.2953
 3998TIP3    H233630   3.101   6.744   7.438 -4.2406 -0.4110 -0.5429
 3999TIP3   OH233631   6.774   3.947   1.798 -0.2825  0.0575 -0.3077
 3999TIP3    H133632   6.702   3.921   1.740 -0.1757  0.7405 -0.7546
 3999TIP3    H233633   6.773   3.881   1.867 -1.8639  0.4916  0.1479
 4000TIP3   OH233634   4.273   6.057   2.739 -0.0626 -0.4066  0.2289
 4000TIP3    H133635   4.270   6.015   2.825 -1.1096 -2.1688 -0.5998
 4000TIP3    H233636   4.196   6.114   2.737 -0.1383 -0.5034  0.3952
 4001TIP3   OH233637   4.589   0.266   0.888  0.2924  0.0013  0.4456
 4001TIP3    H133638   4.600   0.176   0.858 -0.1764 -0.1664  0.7608
 4001TIP3    H233639   4.678   0.294   0.910  0.2037 -1.3327  2.9442
 4002TIP3   OH233640   1.958   6.106   0.130 -0.2856  0.4211  0.5914
 4002TIP3    H133641   1.878   6.150   0.158 -0.4062  0.5389  0.0756
 4002TIP3    H233642   2.008   6.093   0.210 -0.3482  1.2914  0.7796
 4003TIP3   OH233643   5.551   3.936   1.979  0.3403  0.2706 -0.5959
 4003TIP3    H133644   5.531   3.873   1.910  1.8474 -1.9430  0.8959
 4003TIP3    H233645   5.465   3.960   2.015 -0.2651 -0.9512 -1.1658
 4004TIP3   OH233646   6.511   4.359   0.407  0.5398 -0.1411  0.4341
 4004TIP3    H133647   6.423   4.340   0.374  0.1875  1.1247  0.5792
 4004TIP3    H233648   6.523   4.297   0.479 -0.0260 -0.6697  0.0888
 4005TIP3   OH233649   1.335   0.482   8.644 -0.4222  0.1685 -0.4220
 4005TIP3    H133650   1.337   0.562   8.592  0.3023  1.5129  1.5746
 4005TIP3    H233651   1.427   0.455   8.650 -0.5522 -0.2377 -0.2264
 4006TIP3   OH233652   0.547   4.763   2.724  0.3472  0.1706  0.6676
 4006TIP3    H133653   0.579   4.761   2.815  1.0595 -0.4992  0.4084
 4006TIP3    H233654   0.617   4.723   2.673 -1.3958 -2.5451  0.2395
 4007TIP3   OH233655   2.598   6.393   2.076  0.0288  0.2312  0.1304
 4007TIP3    H133656   2.503   6.382   2.073 -0.0145  0.8005 -1.6050
 4007TIP3    H233657   2.617   6.454   2.005  1.8915 -1.3339 -0.8066
 4008TIP3   OH233658   6.392   1.085   2.734  0.2000 -0.1188 -0.0818
 4008TIP3    H133659   6.418   1.165   2.780  0.6392 -0.1846 -0.2038
 4008TIP3    H233660   6.465   1.025   2.750 -0.3189 -0.6348  0.3515
 4009TIP3   OH233661   2.959   6.867   1.759 -0.5873 -0.3379  0.0356
 4009TIP3    H133662   2.890   6.862   1.692  1.2935 -1.6553 -1.9431
 4009TIP3    H233663   3.040   6.879   1.709  0.7220  0.5925  2.2344
 4010TIP3   OH233664   3.732   0.070   2.254  0.1538 -0.5083 -0.5743
 4010TIP3    H133665   3.722  -0.012   2.205  0.3535  0.6881 -2.7690
 4010TIP3    H233666   3.644   0.090   2.285  0.2726 -2.0172  0.8626
 4011TIP3   OH233667   3.892   6.371   0.049  0.3307  0.4749 -0.0863
 4011TIP3    H133668   3.809   6.389   0.006  0.2982  1.9306  0.5355
 4011TIP3    H233669   3.892   6.427   0.127  1.4320 -0.2878  0.5013
 4012TIP3   OH233670   6.527   2.425   1.896 -0.6087 -0.3758 -0.3508
 4012TIP3    H133671   6.437   2.455   1.893 -0.3436  0.5060  0.1983
 4012TIP3    H233672   6.520   2.330   1.906 -1.5305 -0.1292  2.2253
 4013TIP3   OH233673   1.610   6.065   7.763  0.2315 -0.0182  0.1654
 4013TIP3    H133674   1.553   6.078   7.687  0.1838 -1.3024 -0.0431
 4013TIP3    H233675   1.651   5.980   7.748 -0.6654 -0.8554  2.1608
 4014TIP3   OH233676   3.484   0.444   1.445 -0.0481 -0.3747 -0.2209
 4014TIP3    H133677   3.506   0.350   1.441 -1.7055 -0.8173  0.1336
 4014TIP3    H233678   3.474   0.470   1.354  0.0005 -0.6606 -0.3105
 4015TIP3   OH233679   3.148   6.625   7.879 -0.5824 -0.3041 -0.1461
 4015TIP3    H133680   3.237   6.600   7.856 -0.7089 -0.4654 -0.4670
 4015TIP3    H233681   3.094   6.593   7.807 -0.8179  0.4291 -0.3070
 4016TIP3   OH233682   3.456   5.620   7.079 -0.2267 -0.1635  0.2342
 4016TIP3    H133683   3.435   5.699   7.029 -0.2839  0.1899  0.8078
 4016TIP3    H233684   3.536   5.587   7.038 -0.2516  0.1390 -0.0703
 4017TIP3   OH233685   5.651   5.608   2.720 -0.1340  0.6324 -0.4607
 4017TIP3    H133686   5.609   5.581   2.802  1.6238  1.6875  0.8554
 4017TIP3    H233687   5.741   5.578   2.728  0.0074  0.4812 -2.1816
 4018TIP3   OH233688   6.745   6.388   1.535  0.4401 -0.5352  0.1843
 4018TIP3    H133689   6.650   6.394   1.529  0.3330 -1.1609  1.0561
 4018TIP3    H233690   6.762   6.295   1.548  1.1250 -0.3317  0.7569
 4019TIP3   OH233691   2.509   0.986   0.487 -0.7407  1.0199 -0.3768
 4019TIP3    H133692   2.510   0.903   0.439  1.6834  0.3818  0.6495
 4019TIP3    H233693   2.459   0.966   0.567  0.2700  0.3295  0.1178
 4020TIP3   OH233694   0.025   3.876   1.335  0.1651 -0.4013  0.4113
 4020TIP3    H133695   0.117   3.881   1.359 -0.0541 -0.5138  1.3319
 4020TIP3    H233696  -0.017   3.943   1.390 -0.3769 -0.7243  0.3921
 4021TIP3   OH233697   6.012   3.875   1.993  0.0183  0.2084  0.7045
 4021TIP3    H133698   5.957   3.799   1.973  1.1366  0.0216 -2.0108
 4021TIP3    H233699   5.957   3.951   1.972  0.4432  0.0319 -1.2204
 4022TIP3   OH233700   5.878   5.182   7.197 -0.6113  0.1045  0.1209
 4022TIP3    H133701   5.882   5.208   7.289  1.7028 -1.9707  0.7159
 4022TIP3    H233702   5.862   5.264   7.150  1.0066  1.7161  2.1602
 4023TIP3   OH233703   3.263   2.996   2.407 -0.7912  0.3211  0.0473
 4023TIP3    H133704   3.318   2.984   2.484 -2.5666  1.1636  1.5163
 4023TIP3    H233705   3.307   3.066   2.358  0.2616 -0.0946  0.3620
 4024TIP3   OH233706   3.983   5.114   7.581 -0.4398  0.0323 -0.6440
 4024TIP3    H133707   3.985   5.021   7.557  1.2298  0.3784 -2.0259
 4024TIP3    H233708   3.986   5.161   7.498  0.8426  1.3047  0.0689
 4025TIP3   OH233709   0.875   2.815   7.133  0.2897 -0.1082  0.4520
 4025TIP3    H133710   0.837   2.727   7.138  1.0869 -0.5314 -0.7183
 4025TIP3    H233711   0.950   2.806   7.075 -0.9393  1.8076 -1.6129
 4026TIP3   OH233712   5.119   4.999   7.832  0.2831  0.0791 -0.5031
 4026TIP3    H133713   5.141   5.005   7.925  1.1058  1.5232 -0.7632
 4026TIP3    H233714   5.161   4.919   7.803 -1.6059 -1.4684  0.7496
 4027TIP3   OH233715   6.584   1.656   1.384  0.0690  0.2569 -0.4416
 4027TIP3    H133716   6.615   1.688   1.469  0.4158  1.6080 -1.0568
 4027TIP3    H233717   6.618   1.718   1.320 -2.7075  1.0285 -1.3097
 4028TIP3   OH233718   3.061   0.889   0.784 -0.8599 -0.2193 -0.2965
 4028TIP3    H133719   3.020   0.907   0.699  0.5340 -1.3374 -1.2664
 4028TIP3    H233720   3.152   0.868   0.762 -0.2643  0.2316  1.5719
 4029TIP3   OH233721   6.651   0.142   2.665  0.4564  0.0025  0.6581
 4029TIP3    H133722   6.624   0.070   2.722 -1.6055  0.0433 -0.1637
 4029TIP3    H233723   6.660   0.101   2.579  2.2176  0.1919  0.7343
 4030TIP3   OH233724   3.910   2.078   3.457  0.3841 -0.1890 -0.1085
 4030TIP3    H133725   3.966   2.032   3.394  1.9151 -1.6494  2.1189
 4030TIP3    H233726   3.963   2.151   3.488 -0.4559  0.6794 -0.6755
 4031TIP3   OH233727   0.456   4.740   7.636 -0.1553 -0.1113  0.2041
 4031TIP3    H133728   0.455   4.814   7.697  1.2665 -0.6700  0.9525
 4031TIP3    H233729   0.402   4.769   7.563 -1.1527  0.9415  1.3090
 4032TIP3   OH233730   0.945   5.937   7.753  0.1219 -0.4002 -0.7519
 4032TIP3    H133731   0.890   5.971   7.824 -0.6149  1.5110 -2.1508
 4032TIP3    H233732   1.019   5.997   7.750  0.9461 -1.3864 -0.6273
 4033TIP3   OH233733   2.185   4.375   7.720  0.5471  0.2756 -0.1609
 4033TIP3    H133734   2.106   4.392   7.668  0.9609  0.8351 -0.6269
 4033TIP3    H233735   2.255   4.371   7.655  1.2066  1.8100  0.4107
 4034TIP3   OH233736   6.558   0.528   7.983 -0.2029  0.1959 -0.2935
 4034TIP3    H133737   6.550   0.441   8.023  0.7894  0.2595  0.0517
 4034TIP3    H233738   6.572   0.587   8.057  2.6186  0.1994 -0.7332
 4035TIP3   OH233739   3.245   5.580   1.004  0.1004  0.2567 -0.2865
 4035TIP3    H133740   3.151   5.592   1.018  0.2050  0.0019  0.7157
 4035TIP3    H233741   3.261   5.488   1.028  0.5874  0.2618 -0.5694
 4036TIP3   OH233742   2.133   0.392   2.047  0.9725 -0.4769 -0.0795
 4036TIP3    H133743   2.101   0.318   1.995 -0.0023 -0.9785  1.1691
 4036TIP3    H233744   2.105   0.470   1.998 -1.2592 -0.9177  0.3797
 4037TIP3   OH233745   5.375   2.259   7.574 -0.1014 -0.2956  0.0525
 4037TIP3    H133746   5.341   2.199   7.507  1.5381 -0.1275 -0.9998
 4037TIP3    H233747   5.443   2.208   7.619  2.5511  1.1540 -1.9943
 4038TIP3   OH233748   6.200   0.306   0.130 -0.2820 -0.1271 -0.2156
 4038TIP3    H133749   6.290   0.334   0.149 -1.1357  3.8643 -1.0300
 4038TIP3    H233750   6.198   0.291   0.036 -0.5185  0.1392 -0.2555
 4039TIP3   OH233751   5.096   4.673   1.951 -0.2651  0.1697 -0.2902
 4039TIP3    H133752   5.016   4.707   1.992 -1.5446 -0.2597 -2.2771
 4039TIP3    H233753   5.067   4.641   1.865  1.4571 -2.8399  0.0906
 4040TIP3   OH233754   1.542   3.753   7.604  0.0834 -0.6676 -0.1277
 4040TIP3    H133755   1.463   3.807   7.604  0.9629  0.7190 -2.2824
 4040TIP3    H233756   1.613   3.813   7.626  0.9224 -1.1870 -1.2961
 4041TIP3   OH233757   6.197   5.394   7.982 -0.2238 -0.3008 -0.3904
 4041TIP3    H133758   6.133   5.426   8.045 -0.2091  1.0234 -1.0290
 4041TIP3    H233759   6.188   5.452   7.907 -1.1259 -2.5972 -2.1744
 4042TIP3   OH233760   5.728   0.103   1.547  0.3981  0.6184 -0.6965
 4042TIP3    H133761   5.712   0.175   1.486 -3.1092 -0.9634 -1.9598
 4042TIP3    H233762   5.654   0.107   1.608  1.5665 -0.3609  0.8523
 4043TIP3   OH233763   4.412   6.409   0.972 -0.1929  0.4784 -0.0143
 4043TIP3    H133764   4.421   6.347   1.045  0.3322  0.8627  0.2541
 4043TIP3    H233765   4.485   6.387   0.914  0.7478  1.6466  0.6895
 4044TIP3   OH233766   6.377   2.685   2.091  0.9108  0.5368  0.0687
 4044TIP3    H133767   6.327   2.618   2.044  1.5986  0.0435  0.0401
 4044TIP3    H233768   6.348   2.676   2.182 -0.9544  1.9605 -0.2980
 4045TIP3   OH233769   3.107   3.799   7.484  0.8013  0.0517  0.7776
 4045TIP3    H133770   3.098   3.747   7.405 -1.0750 -1.0393  1.6307
 4045TIP3    H233771   3.179   3.860   7.465  0.8154 -0.5791 -1.4952
 4046TIP3   OH233772   3.969   5.841   8.614  0.2294  0.5943  0.4053
 4046TIP3    H133773   3.929   5.799   8.538 -0.5237 -0.2138  1.2245
 4046TIP3    H233774   3.897   5.886   8.657  0.4045  0.0885  1.2580
 4047TIP3   OH233775   0.128   6.021   2.121 -0.3020  0.2661 -0.3186
 4047TIP3    H133776   0.199   6.025   2.185 -0.8959 -0.5895  0.4189
 4047TIP3    H233777   0.171   5.992   2.040  0.9909  4.0722 -1.2102
 4048TIP3   OH233778   0.124   0.998   0.493  0.5974 -0.0351 -0.0550
 4048TIP3    H133779   0.086   0.911   0.496  0.8317 -0.2121 -1.3801
 4048TIP3    H233780   0.108   1.035   0.579 -0.2256 -1.0833  0.2579
 4049TIP3   OH233781   5.104   5.149   7.596  0.6879  0.5679  0.3514
 4049TIP3    H133782   5.012   5.170   7.613  0.8180 -0.1078  2.2044
 4049TIP3    H233783   5.130   5.095   7.671  2.4788  0.3779 -0.3548
 4050TIP3   OH233784   2.932   0.151   0.093  0.1068  0.4443 -0.0304
 4050TIP3    H133785   2.850   0.126   0.050 -0.1316  2.4619 -0.8837
 4050TIP3    H233786   2.943   0.087   0.162  0.0939 -2.5122 -2.5636
 4051TIP3   OH233787   1.681   6.649   0.116 -0.0328  0.0971 -0.5427
 4051TIP3    H133788   1.734   6.723   0.085  2.1505 -0.8102  0.8165
 4051TIP3    H233789   1.643   6.612   0.036 -0.0153  1.8161 -1.3871
 4052TIP3   OH233790   4.050   3.626   7.654 -0.3725 -0.7058  0.6752
 4052TIP3    H133791   4.012   3.713   7.662 -1.8793 -1.4784  2.9439
 4052TIP3    H233792   3.989   3.578   7.599 -0.1602 -0.6435  0.3859
 4053TIP3   OH233793   0.713   6.423   7.189 -0.0640  0.3843  0.5760
 4053TIP3    H133794   0.699   6.353   7.252 -0.3663  0.2010  0.3065
 4053TIP3    H233795   0.687   6.385   7.105 -0.8972  1.0283  0.5245
 4054TIP3   OH233796   6.410   3.793   0.658  0.1256  0.5210  0.2168
 4054TIP3    H133797   6.429   3.776   0.566  0.1650  1.4020  0.0518
 4054TIP3    H233798   6.481   3.749   0.706  0.0005 -0.0988 -0.1554
 4055TIP3   OH233799   4.210   6.125   7.021  0.3908  0.4588 -0.5974
 4055TIP3    H133800   4.241   6.214   7.009 -0.0307  0.7006  0.0507
 4055TIP3    H233801   4.273   6.085   7.080 -0.5014  0.9531  0.7279
 4056TIP3   OH233802   5.398   4.241   2.331 -0.0227 -0.1565 -0.3630
 4056TIP3    H133803   5.384   4.335   2.345 -0.0513 -0.0758 -0.9165
 4056TIP3    H233804   5.466   4.218   2.393  1.4819  0.6822 -1.6343
 4057TIP3   OH233805   5.288   4.542   1.581  0.0473  0.2765  0.0901
 4057TIP3    H133806   5.323   4.516   1.666  0.4418  0.2881 -0.0666
 4057TIP3    H233807   5.207   4.589   1.602 -0.3239 -0.4924  0.4083
 4058TIP3   OH233808   5.603   2.787   1.072  0.6244  0.1960 -0.0317
 4058TIP3    H133809   5.545   2.849   1.115  0.2591  0.7950 -1.3254
 4058TIP3    H233810   5.634   2.833   0.994 -1.3196 -1.8942 -2.2058
 4059TIP3   OH233811   6.268   1.146   7.761 -0.3849 -0.1188  0.2235
 4059TIP3    H133812   6.254   1.051   7.756  0.0998 -0.1418 -1.0007
 4059TIP3    H233813   6.180   1.183   7.756 -0.5026 -0.4730 -0.3606
 4060TIP3   OH233814   4.237   2.244   8.455 -0.4004  0.6578  0.6425
 4060TIP3    H133815   4.310   2.296   8.422  0.4309 -0.3392  0.8511
 4060TIP3    H233816   4.199   2.298   8.524 -0.0556  1.3185  0.3293
 4061TIP3   OH233817   0.138   4.231   2.700 -0.1920  0.4331 -0.1562
 4061TIP3    H133818   0.060   4.281   2.678  0.2674  1.2469  0.0148
 4061TIP3    H233819   0.117   4.188   2.783 -0.7735 -0.0722 -0.5609
 4062TIP3   OH233820   0.282   2.057   7.197 -0.1218 -0.8305  0.1446
 4062TIP3    H133821   0.236   2.103   7.267  2.3816  0.2307  1.1960
 4062TIP3    H233822   0.325   2.126   7.147 -0.7437 -1.6882 -1.6726
 4063TIP3   OH233823   0.666   1.347   8.037 -0.1144  0.0184  0.0382
 4063TIP3    H133824   0.684   1.442   8.034 -0.4292  0.1156  0.9430
 4063TIP3    H233825   0.579   1.338   8.000  0.8587 -0.2213 -2.3935
 4064TIP3   OH233826   2.434   0.950   1.636  0.3661  0.1408 -0.3220
 4064TIP3    H133827   2.422   0.860   1.665  0.1679  0.0794 -0.5873
 4064TIP3    H233828   2.529   0.964   1.640  0.3651  0.0455  0.0804
 4065TIP3   OH233829   0.953   3.034   1.890  0.2780  0.0887 -0.1499
 4065TIP3    H133830   1.047   3.021   1.878 -0.2305 -1.5263 -3.6576
 4065TIP3    H233831   0.925   2.959   1.943  0.7766 -0.1901 -0.2757
 4066TIP3   OH233832   6.486   2.342   1.340  0.0653 -0.0649  0.0789
 4066TIP3    H133833   6.540   2.417   1.364 -0.5945  0.7311 -0.8637
 4066TIP3    H233834   6.528   2.267   1.384  0.7061  0.8439  1.0624
 4067TIP3   OH233835   6.251   0.522   7.989  0.0508 -0.2876 -0.0454
 4067TIP3    H133836   6.173   0.468   8.005 -0.1711  0.5151  1.8617
 4067TIP3    H233837   6.307   0.505   8.064  0.4290  1.3458  0.0713
 4068TIP3   OH233838   2.782   2.248   0.755  0.0398  0.3043  0.3249
 4068TIP3    H133839   2.839   2.179   0.721  0.3791  1.1215 -0.8290
 4068TIP3    H233840   2.840   2.308   0.801  0.1146  1.0686 -0.7379
 4069TIP3   OH233841   4.753   4.591   8.259  0.1084  0.2868 -0.0286
 4069TIP3    H133842   4.796   4.673   8.234 -0.0921  0.2248 -0.5799
 4069TIP3    H233843   4.723   4.607   8.349  0.4789  0.6520  0.0331
 4070TIP3   OH233844   1.878   5.866   1.959 -0.2468  0.3640 -0.5610
 4070TIP3    H133845   1.805   5.804   1.969  0.3582 -0.2185  0.4566
 4070TIP3    H233846   1.844   5.948   1.994 -0.1051 -0.1717  0.9162
 4071TIP3   OH233847   2.096   4.850   7.547  0.9562  0.5327  0.5553
 4071TIP3    H133848   2.190   4.870   7.537  0.9625  1.3163  1.9674
 4071TIP3    H233849   2.094   4.772   7.603  0.7571  2.5924  3.6222
 4072TIP3   OH233850   5.287   5.645   2.276 -0.6127  0.0876  0.3846
 4072TIP3    H133851   5.378   5.650   2.306 -0.4203 -0.6554 -0.0553
 4072TIP3    H233852   5.254   5.563   2.312 -0.3454 -0.8859 -1.4718
 4073TIP3   OH233853   3.480   6.359   1.530  0.3382 -0.1001  0.8366
 4073TIP3    H133854   3.569   6.356   1.566  0.7545 -0.3454 -0.1511
 4073TIP3    H233855   3.492   6.398   1.443 -0.6743  0.7961  1.0839
 4074TIP3   OH233856   3.911   6.688   1.297  0.3643 -0.3325 -0.3154
 4074TIP3    H133857   3.869   6.723   1.375  0.2676 -0.7147 -0.1918
 4074TIP3    H233858   3.840   6.675   1.234  0.2005 -1.5096  0.0919
 4075TIP3   OH233859   5.304   4.400   0.509  0.1580 -0.5419  0.5969
 4075TIP3    H133860   5.244   4.473   0.492  1.8436  0.7384 -0.1366
 4075TIP3    H233861   5.367   4.434   0.572  1.2703 -1.1631 -0.1371
 4076TIP3   OH233862   1.986   6.319   6.979 -0.4030  0.1198  0.8158
 4076TIP3    H133863   2.010   6.227   6.987 -3.9586 -1.1151 -0.6533
 4076TIP3    H233864   2.015   6.345   6.892  1.1713  0.6545  1.4687
 4077TIP3   OH233865   1.593   4.655   7.107 -0.2126 -0.3532  0.3540
 4077TIP3    H133866   1.653   4.675   7.036 -0.7761 -0.3228 -0.1211
 4077TIP3    H233867   1.537   4.586   7.072 -0.3011 -0.5525  0.8780
 4078TIP3   OH233868   5.220   6.019   7.668 -0.0595  0.0604 -0.1507
 4078TIP3    H133869   5.218   5.947   7.606  0.4485 -0.0836 -0.0046
 4078TIP3    H233870   5.199   5.978   7.752 -0.0689  0.1355 -0.1169
 4079TIP3   OH233871   3.669   5.906   2.209 -0.2866 -0.6087  0.3495
 4079TIP3    H133872   3.573   5.904   2.215 -0.3023 -1.8256  0.0381
 4079TIP3    H233873   3.698   5.914   2.300 -0.6854 -0.5273  0.4726
 4080TIP3   OH233874   4.606   4.632   7.763 -0.2793 -0.5632 -0.3693
 4080TIP3    H133875   4.625   4.552   7.811  2.0953  0.6259  0.8727
 4080TIP3    H233876   4.534   4.673   7.811  1.9629  0.5477  2.3203
 4081TIP3   OH233877   5.247   1.767   7.329 -0.4171  0.2468 -0.1358
 4081TIP3    H133878   5.308   1.693   7.335 -0.8192 -0.0858 -0.1038
 4081TIP3    H233879   5.165   1.733   7.365 -0.8093  0.4835 -0.8036
 4082TIP3   OH233880   3.710   3.063   0.739  0.7936 -0.2780 -0.3699
 4082TIP3    H133881   3.616   3.069   0.755  0.4055 -1.3408 -2.0166
 4082TIP3    H233882   3.743   3.150   0.762 -0.3591 -0.2606  1.4522
 4083TIP3   OH233883   0.972   1.385   1.613  0.2877  0.2262 -0.8621
 4083TIP3    H133884   1.011   1.426   1.691  1.3396 -1.5186 -0.4015
 4083TIP3    H233885   1.006   1.436   1.540 -0.5441  1.7616 -0.2191
 4084TIP3   OH233886   3.876   4.088   2.120  0.6963 -0.0631  0.3857
 4084TIP3    H133887   3.832   4.061   2.201 -0.7785  0.7352 -0.1054
 4084TIP3    H233888   3.840   4.029   2.053 -0.5924  1.3584 -0.2336
 4085TIP3   OH233889   0.151   0.043   0.221  0.0884 -0.2518  0.6421
 4085TIP3    H133890   0.171  -0.051   0.220 -2.8836 -1.0156  0.9936
 4085TIP3    H233891   0.122   0.062   0.131 -2.5163 -0.5839  1.3310
 4086TIP3   OH233892   6.235   4.617   7.284 -0.5260 -0.3656  0.6609
 4086TIP3    H133893   6.176   4.611   7.209 -0.3703 -0.4392  0.5429
 4086TIP3    H233894   6.295   4.543   7.273 -0.6469 -0.5171  0.9835
 4087TIP3   OH233895   6.872   3.352   8.387  0.0858  0.4025 -0.5727
 4087TIP3    H133896   6.957   3.352   8.343 -0.0304 -0.2302 -0.8079
 4087TIP3    H233897   6.885   3.406   8.465  0.2359  1.6941 -1.4684
 4088TIP3   OH233898   4.391   0.850   1.562 -1.1247 -0.0895  0.0495
 4088TIP3    H133899   4.415   0.777   1.618 -2.7089 -1.3344 -0.8092
 4088TIP3    H233900   4.331   0.903   1.615 -0.5455  0.1913  0.4255
 4089TIP3   OH233901   5.926   3.461   8.569  0.3613 -0.1365 -0.0140
 4089TIP3    H133902   5.972   3.406   8.632  1.1446  1.3023  0.7118
 4089TIP3    H233903   5.866   3.514   8.622 -0.2081 -0.1141 -0.6657
 4090TIP3   OH233904   6.752   0.173   0.009 -1.0179 -0.2692  0.1168
 4090TIP3    H133905   6.833   0.155  -0.039 -1.1802 -1.9160  0.4164
 4090TIP3    H233906   6.776   0.238   0.075  0.1185 -0.9266  0.3614
 4091TIP3   OH233907   6.731   5.405   1.626  0.1937 -0.3854 -0.6444
 4091TIP3    H133908   6.664   5.442   1.684  0.3995  0.0137 -0.6589
 4091TIP3    H233909   6.814   5.425   1.670  0.5328  2.0119 -2.1730
 4092TIP3   OH233910   6.379   6.336   7.589 -0.0695 -0.3709  0.4904
 4092TIP3    H133911   6.309   6.368   7.533  0.1939 -2.1170 -0.9545
 4092TIP3    H233912   6.432   6.413   7.608 -0.2954  0.3394 -1.5230
 4093TIP3   OH233913   0.241   3.388   7.370 -0.2273 -0.4587  0.1593
 4093TIP3    H133914   0.256   3.436   7.289  0.6358 -0.8563  0.0721
 4093TIP3    H233915   0.218   3.455   7.434  0.5933  0.0422 -0.0529
 4094TIP3   OH233916   1.220   4.532   7.918 -0.4097  0.0602 -0.0816
 4094TIP3    H133917   1.206   4.602   7.854  0.9563  0.0175 -0.4489
 4094TIP3    H233918   1.145   4.473   7.906 -0.4017  0.2791 -1.3489
 4095TIP3   OH233919   4.093   1.777   2.075  0.5508 -0.4984 -0.1725
 4095TIP3    H133920   4.137   1.797   2.158 -1.9815  1.8603  0.7520
 4095TIP3    H233921   4.139   1.832   2.010  2.2605 -2.0330 -0.3490
 4096TIP3   OH233922   2.597   4.088   6.935 -0.1920  0.2591 -0.2847
 4096TIP3    H133923   2.622   4.017   6.993  0.2033  0.6632  0.0532
 4096TIP3    H233924   2.629   4.167   6.978 -2.7533  0.9278  0.5989
 4097TIP3   OH233925   1.643   1.423   7.171  0.4359 -0.1387 -0.5449
 4097TIP3    H133926   1.659   1.501   7.118  0.5007 -0.4755 -1.0399
 4097TIP3    H233927   1.590   1.453   7.245  0.4108  0.3596 -0.7652
 4098TIP3   OH233928   4.173   5.542   2.711 -0.0334 -0.8455  0.1814
 4098TIP3    H133929   4.112   5.469   2.714 -3.0842  1.4882 -0.2898
 4098TIP3    H233930   4.160   5.581   2.625  1.4518  0.3219  0.4441
 4099TIP3   OH233931   3.884   1.950   8.208  0.3210 -0.7441  0.5132
 4099TIP3    H133932   3.942   1.886   8.248  1.9744  0.5093  0.2049
 4099TIP3    H233933   3.932   2.033   8.211 -1.6324  0.4704  0.6773
 4100TIP3   OH233934   1.410   1.558   7.644  0.6716  0.2166  0.2008
 4100TIP3    H133935   1.429   1.649   7.668 -1.7853  1.1524 -1.0864
 4100TIP3    H233936   1.480   1.535   7.583 -0.2523  2.3410 -1.8142
 4101TIP3   OH233937   1.090   0.597   2.831  0.2642  0.0990 -0.5433
 4101TIP3    H133938   1.128   0.535   2.769 -0.4724  1.5585 -2.5679
 4101TIP3    H233939   1.164   0.628   2.883  0.8524 -1.3826 -0.4341
 4102TIP3   OH233940   2.521   4.086   8.433  0.0224 -0.2527  0.3409
 4102TIP3    H133941   2.506   4.033   8.511 -1.1767 -1.0309 -0.3953
 4102TIP3    H233942   2.580   4.033   8.379 -1.0278 -0.8009 -0.3106
 4103TIP3   OH233943   5.938   4.970   8.115  0.0286  0.5098  0.5654
 4103TIP3    H133944   5.998   5.017   8.058 -1.4023  3.2436  1.1612
 4103TIP3    H233945   5.981   4.969   8.200 -0.2038  1.2998  0.6927
 4104TIP3   OH233946   5.339   6.480   7.005 -0.3029 -0.2509 -0.5383
 4104TIP3    H133947   5.351   6.432   7.086 -1.6709 -2.2813 -1.4468
 4104TIP3    H233948   5.354   6.571   7.028 -1.7512 -0.6184  2.2496
 4105TIP3   OH233949   2.390   5.353   0.345  0.2720  0.0304 -0.2830
 4105TIP3    H133950   2.320   5.372   0.283 -0.5781 -0.6515  0.4271
 4105TIP3    H233951   2.373   5.263   0.373  0.4913  0.3914  1.0948
 4106TIP3   OH233952   0.719   1.492   1.691  0.3283 -0.1004  0.5021
 4106TIP3    H133953   0.790   1.428   1.691  0.1690 -0.2772  0.2120
 4106TIP3    H233954   0.724   1.533   1.777  0.1006 -0.8812  0.8997
 4107TIP3   OH233955   1.533   4.799   2.888  0.2974  0.4760  0.5854
 4107TIP3    H133956   1.480   4.852   2.828 -1.8748  0.4252  2.2968
 4107TIP3    H233957   1.473   4.778   2.960  2.0670 -1.5110  1.5910
 4108TIP3   OH233958   5.000   2.292   0.655  0.2774 -0.1892 -0.4715
 4108TIP3    H133959   4.921   2.346   0.650 -1.4026 -2.4123  0.7483
 4108TIP3    H233960   4.977   2.210   0.611  1.9123 -0.8931 -0.0970
 4109TIP3   OH233961   0.707   4.461   7.198  0.2448 -0.1084 -0.5612
 4109TIP3    H133962   0.626   4.504   7.171  0.4107 -0.2218 -1.2698
 4109TIP3    H233963   0.689   4.368   7.186  0.5655 -0.1189 -0.9865
 4110TIP3   OH233964   2.054   6.022   0.990  0.1316  0.4763  0.3400
 4110TIP3    H133965   2.089   6.076   0.919  2.5070  0.0220  1.0745
 4110TIP3    H233966   2.123   6.021   1.056 -1.5469 -0.0408  2.2058
 4111TIP3   OH233967   4.689   5.278   0.788 -0.1880 -0.6258 -0.0805
 4111TIP3    H133968   4.604   5.264   0.746 -0.4315  0.6626 -0.0560
 4111TIP3    H233969   4.735   5.337   0.730 -0.8575  1.9040  1.7822
 4112TIP3   OH233970   3.940   0.001   2.425  0.3909  0.7894 -0.3259
 4112TIP3    H133971   3.855  -0.016   2.385 -0.3686 -0.3522  1.5994
 4112TIP3    H233972   3.923  -0.000   2.519  2.9135 -2.3297  0.2943
 4113TIP3   OH233973   4.352   1.267   2.831 -0.5109 -0.2988  0.1290
 4113TIP3    H133974   4.361   1.184   2.877 -1.8191 -1.6877 -1.9483
 4113TIP3    H233975   4.271   1.258   2.781 -0.2376  1.9058 -0.8175
 4114TIP3   OH233976   3.991   3.026   0.075 -0.4761 -1.0767 -0.0111
 4114TIP3    H133977   4.069   3.080   0.086 -0.4836 -0.8819 -0.8066
 4114TIP3    H233978   3.955   3.018   0.163  1.5175 -2.8210  0.7386
 4115TIP3   OH233979   5.657   4.194   0.047  0.1067  0.3923 -0.0043
 4115TIP3    H133980   5.653   4.275  -0.003  0.3181  0.6984  0.4606
 4115TIP3    H233981   5.576   4.148   0.025 -0.8380  1.4964  0.9715
 4116TIP3   OH233982   1.550   5.712   0.851  0.4716  0.1188  0.0824
 4116TIP3    H133983   1.503   5.667   0.920  1.7274 -2.6969 -0.7629
 4116TIP3    H233984   1.499   5.695   0.771 -0.4753  2.5670  0.0616
 4117TIP3   OH233985   3.816   5.403   1.386 -0.4036 -0.4125 -0.2627
 4117TIP3    H133986   3.885   5.467   1.404  1.4742 -2.1017 -1.1051
 4117TIP3    H233987   3.757   5.447   1.326 -1.3262  1.8317  2.1054
 4118TIP3   OH233988   6.441   3.051   7.859  0.0757  0.0848  0.1041
 4118TIP3    H133989   6.474   3.129   7.903  0.2739  0.5622 -0.8819
 4118TIP3    H233990   6.382   3.084   7.791  0.1554 -0.6249 -0.3204
 4119TIP3   OH233991   3.522   0.949   0.005 -0.6852 -0.0747  0.4782
 4119TIP3    H133992   3.483   1.024  -0.041  0.4348 -0.6561 -1.5701
 4119TIP3    H233993   3.577   0.988   0.073  0.2730  1.0454 -0.8681
 4120TIP3   OH233994   1.392   3.147   6.598  0.5594 -0.3176  0.0948
 4120TIP3    H133995   1.379   3.124   6.690 -1.2086  1.0918  0.2502
 4120TIP3    H233996   1.340   3.082   6.550 -0.6591  0.4675  0.2844
 4121TIP3   OH233997   1.402   4.733   8.028  0.1086 -0.0613 -0.4352
 4121TIP3    H133998   1.339   4.662   8.011  0.0323 -0.1609  0.2621
 4121TIP3    H233999   1.464   4.726   7.955  0.2810 -1.0481 -0.2133
 4122TIP3   OH234000   0.263   2.386   8.204 -0.4182  0.3380 -0.0532
 4122TIP3    H134001   0.290   2.373   8.295  0.4663 -2.9257 -0.6702
 4122TIP3    H234002   0.333   2.438   8.166 -0.6787  1.5326  1.0116
 4123TIP3   OH234003   0.409   3.678   3.259 -0.7930 -0.4381 -0.6149
 4123TIP3    H134004   0.432   3.763   3.223 -1.8047 -0.8427 -2.3500
 4123TIP3    H234005   0.378   3.697   3.348  2.0457  0.5693  0.2645
 4124TIP3   OH234006   4.773   2.073   2.546  0.0060  0.4241  0.2208
 4124TIP3    H134007   4.814   2.036   2.624  1.9169 -0.0487 -0.9416
 4124TIP3    H234008   4.837   2.137   2.515 -0.6567  0.4924 -1.0346
 4125TIP3   OH234009   4.325   6.774   8.599  0.2419 -0.2753  0.1338
 4125TIP3    H134010   4.334   6.741   8.688  1.2913  0.5594  0.3689
 4125TIP3    H234011   4.326   6.696   8.544  0.7298 -0.7381  0.7847
 4126TIP3   OH234012   2.007   0.340   1.673 -0.5409  0.2592  0.1196
 4126TIP3    H134013   1.977   0.430   1.690 -3.2982 -0.9123  2.3444
 4126TIP3    H234014   1.976   0.321   1.585 -1.1492  1.0758  0.1410
 4127TIP3   OH234015   6.849   1.850   1.321  0.0783  0.4055 -0.3698
 4127TIP3    H134016   6.778   1.908   1.293  0.2921  0.9337  0.1765
 4127TIP3    H234017   6.898   1.832   1.241 -1.9492 -1.7999 -1.2530
 4128TIP3   OH234018   2.100   0.243   2.905  0.2737  0.0063 -0.0924
 4128TIP3    H134019   2.078   0.320   2.853  0.7733  0.3140  0.1404
 4128TIP3    H234020   2.116   0.277   2.993 -1.7007 -0.6346  0.5858
 4129TIP3   OH234021   4.726   2.771   8.213  0.3228 -0.0287 -0.5231
 4129TIP3    H134022   4.683   2.852   8.241 -0.5495 -0.7954  0.4412
 4129TIP3    H234023   4.816   2.797   8.192 -0.4246  1.5223 -2.0677
 4130TIP3   OH234024   0.736   1.524   7.821 -1.1910 -0.6049 -0.3423
 4130TIP3    H134025   0.780   1.521   7.736 -1.6688 -0.3661 -0.6020
 4130TIP3    H234026   0.735   1.617   7.845  0.6785 -0.8385  0.8590
 4131TIP3   OH234027   6.259   5.194   0.561 -0.0744  0.0338 -0.1229
 4131TIP3    H134028   6.333   5.174   0.503 -0.2272 -0.5372 -0.1299
 4131TIP3    H234029   6.201   5.118   0.552 -1.3963  1.1280 -1.2580
 4132TIP3   OH234030   3.548   1.383   8.288  0.1264 -0.2079  0.0471
 4132TIP3    H134031   3.551   1.348   8.199  0.3215  0.2681 -0.1334
 4132TIP3    H234032   3.481   1.450   8.286  1.0996  0.7889 -0.1012
 4133TIP3   OH234033   0.353   2.346   7.342 -0.3159 -0.3668  0.3739
 4133TIP3    H134034   0.319   2.391   7.264 -0.2964 -2.1813 -0.7457
 4133TIP3    H234035   0.286   2.360   7.409  0.3819  2.5925  0.6260
 4134TIP3   OH234036   5.501   5.934   1.661  0.1614 -0.0149  0.0215
 4134TIP3    H134037   5.474   5.877   1.588  1.3455 -0.6704  0.0712
 4134TIP3    H234038   5.435   5.918   1.729  1.4239 -2.8353  0.7568
 4135TIP3   OH234039   0.030   2.430   0.692  0.0394  0.4063  0.0607
 4135TIP3    H134040   0.046   2.520   0.721  0.5072 -0.0011  1.1200
 4135TIP3    H234041   0.095   2.414   0.624  0.3128  0.6862  0.2555
 4136TIP3   OH234042   4.316   3.719   7.618  0.5337 -0.2594 -0.1550
 4136TIP3    H134043   4.370   3.641   7.631  2.5022  0.8243 -1.3392
 4136TIP3    H234044   4.227   3.690   7.637  1.4612 -2.2166  1.5742
 4137TIP3   OH234045   0.217   4.335   1.781 -0.2147 -0.4663  0.0657
 4137TIP3    H134046   0.132   4.293   1.766 -0.5623  0.9949 -2.8964
 4137TIP3    H234047   0.195   4.421   1.819 -0.1424  0.0966 -1.1253
 4138TIP3   OH234048   0.666   3.082   7.547 -0.0486  0.1162  0.2797
 4138TIP3    H134049   0.668   3.175   7.528 -0.0739 -0.2300 -1.6461
 4138TIP3    H234050   0.691   3.040   7.465 -1.6436 -1.6266  0.6078
 4139TIP3   OH234051   4.799   0.163   8.128 -0.1792  0.3060 -0.0292
 4139TIP3    H134052   4.775   0.252   8.152 -1.2297  0.1615 -0.4975
 4139TIP3    H234053   4.718   0.124   8.096  0.9164  0.2752 -3.1020
 4140TIP3   OH234054   0.724   6.111   1.005 -0.2657 -0.1475 -0.0435
 4140TIP3    H134055   0.725   6.101   1.100 -1.4664 -0.5776 -0.0546
 4140TIP3    H234056   0.654   6.174   0.988  1.8444  2.2440 -0.5009
 4141TIP3   OH234057   5.931   2.115   1.232  0.0139  0.2384  0.6153
 4141TIP3    H134058   5.904   2.059   1.160  0.0027 -1.7403  2.0619
 4141TIP3    H234059   6.010   2.160   1.200 -1.0790  0.9166 -1.2505
 4142TIP3   OH234060   2.896   0.789   7.322  0.0144 -0.4923  0.3319
 4142TIP3    H134061   2.852   0.870   7.297 -2.2383 -1.8827 -0.5488
 4142TIP3    H234062   2.923   0.750   7.239 -0.5431 -1.4606  0.5854
 4143TIP3   OH234063   1.047   5.071   0.444  0.4891 -0.2694  0.0869
 4143TIP3    H134064   1.011   5.028   0.366 -0.5586 -1.8885  1.3998
 4143TIP3    H234065   0.975   5.126   0.475  1.2973  1.2921 -0.6923
 4144TIP3   OH234066   2.592   6.378   8.132  0.1353  0.2167  0.2534
 4144TIP3    H134067   2.666   6.318   8.134  0.4342  0.5852  0.3342
 4144TIP3    H234068   2.557   6.375   8.221 -0.2546 -0.3295  0.0896
 4145TIP3   OH234069   2.308   3.781   2.766  0.3304 -0.7729  0.4035
 4145TIP3    H134070   2.289   3.868   2.731  3.3255  0.5461  1.6696
 4145TIP3    H234071   2.388   3.754   2.721  0.0108 -2.4334  0.7616
 4146TIP3   OH234072   5.832   5.244   1.849 -0.3417  0.2400 -0.0249
 4146TIP3    H134073   5.903   5.305   1.869 -0.5033  0.8825 -1.2905
 4146TIP3    H234074   5.833   5.181   1.921  2.2179 -0.4332 -0.5623
 4147TIP3   OH234075   2.453   4.317   7.546 -0.2605  0.7619  0.4022
 4147TIP3    H134076   2.443   4.404   7.507  0.8207  1.5616  1.8139
 4147TIP3    H234077   2.489   4.334   7.633  2.6891 -1.2298 -0.3116
 4148TIP3   OH234078   1.278   1.442   8.045  0.3384  0.1732  0.4202
 4148TIP3    H134079   1.188   1.423   8.016  0.4461 -0.3609  0.4192
 4148TIP3    H234080   1.270   1.520   8.099 -0.1118  0.2027  0.3164
 4149TIP3   OH234081   5.608   5.767   2.210 -0.1535 -0.2522 -0.2492
 4149TIP3    H134082   5.578   5.717   2.286 -0.4791 -1.4549 -1.1485
 4149TIP3    H234083   5.698   5.792   2.232 -0.1662 -0.7751  0.4294
 4150TIP3   OH234084   4.577   1.902   0.453 -0.6954  0.1562  0.4339
 4150TIP3    H134085   4.543   1.812   0.460  1.2887 -0.7389 -0.5436
 4150TIP3    H234086   4.548   1.945   0.534  0.9551 -2.3220  2.5039
 4151TIP3   OH234087   3.880   6.732   8.635  0.2315  0.0832  0.4679
 4151TIP3    H134088   3.832   6.665   8.683 -0.3924  0.7242  0.7602
 4151TIP3    H234089   3.845   6.815   8.668 -0.7511  0.5646 -1.6057
 4152TIP3   OH234090   1.808   3.340   7.988 -0.2030 -0.2317  0.3559
 4152TIP3    H134091   1.806   3.254   8.030  0.2561 -0.4252 -0.0090
 4152TIP3    H234092   1.863   3.328   7.911 -0.1273  0.3919  0.3044
 4153TIP3   OH234093   3.759   1.614   2.215  0.2343  0.2915 -0.4269
 4153TIP3    H134094   3.770   1.673   2.290  1.8800  0.4665 -0.7577
 4153TIP3    H234095   3.665   1.615   2.197 -0.1385  0.5979  1.3377
 4154TIP3   OH234096   4.543   1.870   2.962  0.1156 -0.1774  0.1332
 4154TIP3    H134097   4.635   1.886   2.982  0.0822 -0.8092  0.8294
 4154TIP3    H234098   4.513   1.812   3.032 -0.4870 -0.9824 -0.7636
 4155TIP3   OH234099   0.946   5.254   7.728 -0.5269  0.0418 -0.0935
 4155TIP3    H134100   1.008   5.289   7.664 -0.8800  0.5343 -0.1709
 4155TIP3    H234101   0.878   5.321   7.734 -1.7879 -1.0926 -1.0593
 4156TIP3   OH234102   5.461   6.497   2.119  0.2905 -0.6122  0.1818
 4156TIP3    H134103   5.550   6.500   2.153 -0.2137 -1.4761  1.6890
 4156TIP3    H234104   5.406   6.508   2.196 -0.9204 -0.3519 -0.6881
 4157TIP3   OH234105   6.879   4.573   1.809  0.1185 -0.4338  0.2111
 4157TIP3    H134106   6.881   4.654   1.758  0.3694 -0.2782  0.4660
 4157TIP3    H234107   6.787   4.546   1.808 -0.0130  0.0089  0.3685
 4158TIP3   OH234108   6.763   3.644   1.747  0.1321  0.0793 -0.3594
 4158TIP3    H134109   6.822   3.657   1.821 -0.5670 -0.9643  0.3895
 4158TIP3    H234110   6.815   3.594   1.684  0.4722  0.2940 -0.2522
 4159TIP3   OH234111   4.775   2.378   8.206 -0.1134 -0.0386 -0.3187
 4159TIP3    H134112   4.737   2.303   8.251  0.6185 -0.0948  0.2122
 4159TIP3    H234113   4.810   2.341   8.125  0.3195 -0.2849 -0.0204
 4160TIP3   OH234114   2.091   0.105   8.660 -0.6428 -0.5051 -0.1834
 4160TIP3    H134115   2.084   0.180   8.718  0.6884 -0.2072 -0.3670
 4160TIP3    H234116   2.075   0.140   8.573  0.7569 -0.2331 -0.3640
 4161TIP3   OH234117   4.053   0.796   0.180 -0.0108 -0.2076  0.9765
 4161TIP3    H134118   3.998   0.875   0.171 -0.0351 -0.2342  0.8923
 4161TIP3    H234119   4.121   0.822   0.242  0.2325  0.0176  0.6255
 4162TIP3   OH234120   1.366   1.940   0.042 -0.2399 -0.5311 -0.0761
 4162TIP3    H134121   1.388   2.022  -0.001 -0.0269 -1.1075 -1.0947
 4162TIP3    H234122   1.297   1.963   0.104  0.1821  0.5056  0.0288
 4163TIP3   OH234123   1.876   6.278   0.748 -0.2455 -0.0294  0.1317
 4163TIP3    H134124   1.890   6.196   0.700 -0.1311 -0.5196  0.9883
 4163TIP3    H234125   1.784   6.298   0.733 -0.7868 -1.3438  1.4621
 4164TIP3   OH234126   4.078   0.011   8.547 -0.4254  0.7455  0.2201
 4164TIP3    H134127   4.023  -0.060   8.580 -0.1875  0.0890 -0.7392
 4164TIP3    H234128   4.168  -0.022   8.555 -0.2027  1.5825  1.2426
 4165TIP3   OH234129   0.925   3.463   7.968 -0.1925 -0.3192 -0.6727
 4165TIP3    H134130   0.962   3.376   7.953  0.8595  0.0805 -0.4770
 4165TIP3    H234131   0.852   3.448   8.028  1.9697 -0.7223  2.0529
 4166TIP3   OH234132   0.554   4.723   7.991 -0.3224  0.0113  0.1235
 4166TIP3    H134133   0.496   4.662   7.945  0.8275 -1.2636  0.2978
 4166TIP3    H234134   0.535   4.709   8.084 -1.3681  1.2993  0.1408
 4167TIP3   OH234135   5.447   3.766   7.264 -0.0587 -0.0000  0.3582
 4167TIP3    H134136   5.437   3.761   7.359 -1.0460 -1.1960  0.2093
 4167TIP3    H234137   5.474   3.678   7.237 -0.4941  0.1243 -0.5371
 4168TIP3   OH234138   6.268   0.262   7.470  0.1295 -0.1620 -0.3057
 4168TIP3    H134139   6.354   0.279   7.432  0.3825  0.0776  0.3517
 4168TIP3    H234140   6.238   0.347   7.502 -0.8721 -0.0153 -1.5420
 4169TIP3   OH234141   5.194   5.058   2.345  0.1504  0.1071  0.3737
 4169TIP3    H134142   5.100   5.048   2.333  0.2150  0.2492 -0.3030
 4169TIP3    H234143   5.220   5.123   2.280  0.5486  0.8997  1.2987
 4170TIP3   OH234144   1.004   5.392   1.965 -0.0780 -0.4962 -0.3939
 4170TIP3    H134145   1.096   5.396   1.990  0.3023 -3.1313 -1.0335
 4170TIP3    H234146   0.960   5.453   2.024  1.8244 -0.6461  1.2780
 4171TIP3   OH234147   1.006   6.356   8.283  0.5747 -0.1833 -0.4329
 4171TIP3    H134148   1.021   6.369   8.190  0.9096 -0.7663 -0.4675
 4171TIP3    H234149   0.940   6.286   8.286  0.8229 -0.4125 -0.2363
 4172TIP3   OH234150   3.526   1.448   1.695  0.5595  0.3187  0.8121
 4172TIP3    H134151   3.546   1.497   1.775 -0.1455  1.4073  0.3394
 4172TIP3    H234152   3.501   1.515   1.632 -0.5476 -0.6632  0.1797
 4173TIP3   OH234153   2.096   1.675   8.277  0.3657  0.0959 -0.6958
 4173TIP3    H134154   2.051   1.640   8.200  1.4278 -0.4866 -1.0750
 4173TIP3    H234155   2.184   1.696   8.245  0.8156 -0.1484  0.3540
 4174TIP3   OH234156   1.409   2.938   7.342 -0.0293 -0.3808  0.6576
 4174TIP3    H134157   1.452   2.862   7.380  0.9310  1.0906  2.7021
 4174TIP3    H234158   1.461   2.960   7.265  1.0554 -0.4500  1.3581
 4175TIP3   OH234159   4.603   6.693   0.270 -0.1567  0.2974  0.4374
 4175TIP3    H134160   4.636   6.677   0.359 -0.7505  1.5001  0.8948
 4175TIP3    H234161   4.508   6.685   0.278 -0.1899  0.0004 -0.1917
 4176TIP3   OH234162   6.456   6.823   0.017 -0.0934  0.2300  0.0379
 4176TIP3    H134163   6.413   6.853   0.097  0.4989  0.8597  0.1324
 4176TIP3    H234164   6.444   6.728   0.017 -2.0307  0.4198 -0.2730
 4177TIP3   OH234165   0.043   4.088   1.492  0.1337  0.7802  0.2551
 4177TIP3    H134166   0.128   4.127   1.471 -0.6163  1.1507 -2.4770
 4177TIP3    H234167  -0.021   4.145   1.448 -1.4356 -0.3059  1.0228
 4178TIP3   OH234168   3.888   0.907   1.096 -0.2112 -0.4121 -0.2722
 4178TIP3    H134169   3.894   0.990   1.143 -0.2447 -1.0773  0.9464
 4178TIP3    H234170   3.819   0.859   1.141  0.1170 -1.2781 -0.6781
 4179TIP3   OH234171   5.836   2.123   1.505 -0.6065 -0.0460 -0.4006
 4179TIP3    H134172   5.848   2.118   1.410  0.2288 -1.5313 -0.2472
 4179TIP3    H234173   5.824   2.032   1.532 -2.0817  0.4686  0.7842
 4180TIP3   OH234174   4.994   6.193   2.741  0.0112 -0.2083 -0.8705
 4180TIP3    H134175   4.968   6.213   2.651  1.2195 -1.7567 -1.6182
 4180TIP3    H234176   5.086   6.167   2.733 -0.3140 -1.9149  0.5761
 4181TIP3   OH234177   2.896   1.701   2.391 -0.2382 -0.7340 -0.1976
 4181TIP3    H134178   2.949   1.645   2.449  1.1347 -0.7774 -1.4559
 4181TIP3    H234179   2.806   1.670   2.405  0.4848 -3.5596 -1.0887
 4182TIP3   OH234180   6.827   4.790   8.434 -0.2094  0.1076 -0.2668
 4182TIP3    H134181   6.732   4.791   8.436 -0.2198  1.5567  1.4651
 4182TIP3    H234182   6.852   4.883   8.426  1.0055  0.0121  1.6645
 4183TIP3   OH234183   5.042   2.088   1.414  0.1487 -0.4366 -0.5584
 4183TIP3    H134184   5.104   2.105   1.343 -1.5291 -2.2450 -2.6231
 4183TIP3    H234185   5.053   1.995   1.434 -0.8331 -0.4237  0.1084
 4184TIP3   OH234186   6.015   5.402   0.485 -0.0235 -0.3328  0.4088
 4184TIP3    H134187   6.045   5.493   0.484 -1.0725  0.0808  1.9286
 4184TIP3    H234188   5.955   5.396   0.411 -0.4601  0.4328  0.6851
 4185TIP3   OH234189   0.960   0.146   0.417  0.1460 -0.0176 -0.0258
 4185TIP3    H134190   1.056   0.144   0.414  0.1030 -0.7099 -1.3289
 4185TIP3    H234191   0.938   0.239   0.405  0.5949 -0.2222 -3.0499
 4186TIP3   OH234192   5.562   1.907   8.311  0.0922 -0.0689 -0.6827
 4186TIP3    H134193   5.536   1.844   8.244  1.3887 -2.9204  1.3104
 4186TIP3    H234194   5.490   1.904   8.375 -1.1030  2.5745 -1.7587
 4187TIP3   OH234195   5.372   6.620   8.470 -0.1937 -0.5659 -0.1231
 4187TIP3    H134196   5.351   6.552   8.405 -0.3939 -0.7030  0.0809
 4187TIP3    H234197   5.333   6.588   8.551 -1.6990  0.5693 -0.3700
 4188TIP3   OH234198   6.551   0.260   7.431  0.4828  0.5033 -0.0998
 4188TIP3    H134199   6.628   0.258   7.374  1.1918 -0.6774  0.8617
 4188TIP3    H234200   6.547   0.350   7.463  1.6959  0.4995  0.1277
 4189TIP3   OH234201   2.517   2.654   7.465 -0.5564  0.1171  0.5318
 4189TIP3    H134202   2.502   2.578   7.410  1.1961  0.0943  0.0156
 4189TIP3    H234203   2.451   2.718   7.437  0.0863  0.0002 -1.4223
 4190TIP3   OH234204   6.884   3.738   8.303  0.0689  0.8802 -0.0188
 4190TIP3    H134205   6.920   3.652   8.280  1.3500  0.5301  2.8115
 4190TIP3    H234206   6.803   3.718   8.350  1.0262  1.0633  1.7942
 4191TIP3   OH234207   6.399   6.737   1.928 -0.6350  0.1257  0.4247
 4191TIP3    H134208   6.450   6.773   2.000 -0.5171 -0.2468  0.5317
 4191TIP3    H234209   6.359   6.658   1.964  0.3570 -0.7104 -0.2385
 4192TIP3   OH234210   4.050   6.190   2.055 -0.2830  0.0718 -0.3666
 4192TIP3    H134211   4.010   6.104   2.042 -3.0758  1.3269 -0.8446
 4192TIP3    H234212   4.036   6.209   2.148 -1.1384  0.6433 -0.5986
 4193TIP3   OH234213   5.811   3.143   8.529 -0.9325 -0.0223  0.1892
 4193TIP3    H134214   5.853   3.059   8.511 -0.4761  0.2296  0.0570
 4193TIP3    H234215   5.856   3.177   8.606  1.7854  1.9851 -2.0655
 4194TIP3   OH234216   0.698   0.295   7.996 -0.5519 -0.2940 -0.1020
 4194TIP3    H134217   0.674   0.249   8.076  0.5930  1.1538  1.1399
 4194TIP3    H234218   0.673   0.235   7.925 -0.9879 -1.8999  1.3398
 4195TIP3   OH234219   1.574   2.830   7.532  0.3829  0.9060 -0.3195
 4195TIP3    H134220   1.670   2.823   7.533  0.3203 -0.2015 -0.3668
 4195TIP3    H234221   1.546   2.784   7.611 -0.0219  3.6091  1.2166
 4196TIP3   OH234222   6.718   5.904   1.100  0.0732 -0.4395  0.3104
 4196TIP3    H134223   6.668   5.979   1.068  0.7383 -0.2349 -0.2780
 4196TIP3    H234224   6.810   5.931   1.091  0.2987 -0.7534  1.4991
 4197TIP3   OH234225   2.863   0.242   7.941 -0.3663  0.6855 -0.2976
 4197TIP3    H134226   2.941   0.273   7.987 -0.2118  0.3896 -0.3619
 4197TIP3    H234227   2.791   0.262   8.001 -0.3125  1.5272 -0.4997
 4198TIP3   OH234228   5.340   2.080   0.520  0.2726 -0.5641  0.5800
 4198TIP3    H134229   5.263   2.122   0.559 -0.4233 -2.2303  1.0578
 4198TIP3    H234230   5.332   1.988   0.543  3.1450 -0.6204  1.8776
 4199TIP3   OH234231   4.627   4.658   1.512 -0.1914  0.2939 -0.4935
 4199TIP3    H134232   4.716   4.692   1.497 -0.2682 -0.0119 -1.7742
 4199TIP3    H234233   4.584   4.727   1.562  0.7978  0.3861  0.2847
 4200TIP3   OH234234   2.608   2.894   1.050 -0.4225 -0.0386 -0.2171
 4200TIP3    H134235   2.522   2.900   1.092 -0.4313 -0.6000 -0.1409
 4200TIP3    H234236   2.589   2.884   0.957 -0.4283  0.2071 -0.2432
 4201TIP3   OH234237   4.997   2.816   2.178 -0.1308 -0.2943  0.0770
 4201TIP3    H134238   5.038   2.847   2.097  1.2060 -2.1291  0.0017
 4201TIP3    H234239   4.946   2.739   2.152 -0.6153 -0.2359  0.8101
 4202TIP3   OH234240   2.222   2.406   2.735  0.1694  0.6146 -0.4536
 4202TIP3    H134241   2.136   2.403   2.778  0.9973  1.3074  1.3589
 4202TIP3    H234242   2.259   2.490   2.761  1.2302  0.5439 -1.6010
 4203TIP3   OH234243   5.051   5.925   1.287 -0.3662  0.3431  0.0721
 4203TIP3    H134244   5.069   6.005   1.337 -0.5196  1.2316 -1.2251
 4203TIP3    H234245   4.956   5.924   1.277 -0.5783 -1.1783  1.8971
 4204TIP3   OH234246   3.058   0.119   1.323  0.0902  0.0991 -0.5070
 4204TIP3    H134247   3.040   0.096   1.232 -0.1452  0.4619 -0.5529
 4204TIP3    H234248   3.118   0.193   1.318  0.5923 -0.2952 -0.3615
 4205TIP3   OH234249   0.356   4.966   1.772 -0.2000  0.4131  0.4486
 4205TIP3    H134250   0.326   5.010   1.692 -1.7930  0.0469  0.8031
 4205TIP3    H234251   0.417   5.028   1.811 -1.0442  1.5549  0.0290
 4206TIP3   OH234252   3.554   3.713   8.095  0.3793 -0.4104 -0.3035
 4206TIP3    H134253   3.556   3.745   8.185  0.9284  0.0714 -0.4799
 4206TIP3    H234254   3.468   3.739   8.063 -0.5650 -2.1849  0.6300
 4207TIP3   OH234255   4.317   3.751   0.673 -0.3467 -0.1040 -1.1740
 4207TIP3    H134256   4.368   3.778   0.596 -0.3400 -0.6331 -1.3587
 4207TIP3    H234257   4.333   3.657   0.680 -0.6996 -0.1346 -0.7835
 4208TIP3   OH234258   2.231   2.927   2.313 -0.9295  0.4249 -0.1911
 4208TIP3    H134259   2.163   2.872   2.352  2.0279 -0.8432  4.0025
 4208TIP3    H234260   2.297   2.864   2.283  0.2044  1.6070 -0.2542
 4209TIP3   OH234261   1.581   4.025   1.846  0.3959 -0.4146 -0.0303
 4209TIP3    H134262   1.617   4.059   1.928  1.3720 -0.5174 -0.4002
 4209TIP3    H234263   1.491   4.001   1.868 -0.0387  1.5191  0.4710
 4210TIP3   OH234264   5.930   2.970   7.868  0.3807  0.2517 -0.0666
 4210TIP3    H134265   5.936   3.032   7.940 -0.5879 -0.4685  0.6473
 4210TIP3    H234266   5.870   3.011   7.805  0.6777  0.5638 -0.1496
 4211TIP3   OH234267   4.249   5.174   2.463 -0.0956 -0.1274 -0.3921
 4211TIP3    H134268   4.299   5.196   2.384 -0.0605  0.9074 -0.0986
 4211TIP3    H234269   4.177   5.237   2.464 -1.8419 -2.0078 -1.1528
 4212TIP3   OH234270   1.212   4.715   7.300  1.0326  0.2496 -0.3360
 4212TIP3    H134271   1.300   4.747   7.278  0.8846  0.3023 -0.8677
 4212TIP3    H234272   1.160   4.733   7.222  0.5482  0.2068 -0.0280
 4213TIP3   OH234273   3.951   0.115   2.934  0.2433 -0.0947 -0.1917
 4213TIP3    H134274   4.037   0.078   2.958  0.0833 -0.5828 -0.3518
 4213TIP3    H234275   3.946   0.197   2.983  0.0301 -0.9557  1.2832
 4214TIP3   OH234276   1.207   2.775   1.474 -0.2187 -0.2947  0.5667
 4214TIP3    H134277   1.253   2.697   1.443  0.1344  0.4944 -0.9670
 4214TIP3    H234278   1.273   2.823   1.525 -0.5317 -1.1181  1.8099
 4215TIP3   OH234279   0.212   2.236   1.222  0.4790  0.2996 -0.3703
 4215TIP3    H134280   0.212   2.175   1.296  1.8713  0.8075  0.1003
 4215TIP3    H234281   0.303   2.265   1.216 -0.1207  2.2632 -0.6276
 4216TIP3   OH234282   4.529   0.420   1.683 -0.5143  0.1147 -0.4302
 4216TIP3    H134283   4.583   0.495   1.708 -0.7731  0.0198  0.4363
 4216TIP3    H234284   4.573   0.344   1.720  0.0023 -0.2368 -1.7029
 4217TIP3   OH234285   3.228   4.429   7.281  0.2308  0.2057  0.4625
 4217TIP3    H134286   3.300   4.489   7.301  0.5795 -0.3339  0.8868
 4217TIP3    H234287   3.255   4.346   7.321 -0.8154  0.0937  0.9741
 4218TIP3   OH234288   4.343   2.553   0.086  0.0205 -0.8989 -0.2605
 4218TIP3    H134289   4.328   2.464   0.115  0.2706 -2.0251 -3.2435
 4218TIP3    H234290   4.427   2.549   0.039  0.1236  0.9501 -0.3139
 4219TIP3   OH234291   2.676   0.967   1.236  0.2141 -0.0368  0.3834
 4219TIP3    H134292   2.591   0.928   1.218  1.4406 -2.4733 -0.5556
 4219TIP3    H234293   2.655   1.052   1.276 -2.6179  0.2484 -1.4132
 4220TIP3   OH234294   6.668   1.018   2.852 -0.2467 -0.5944  0.3066
 4220TIP3    H134295   6.699   1.086   2.792  0.9091 -1.3626 -0.0134
 4220TIP3    H234296   6.719   0.941   2.828  1.9789 -0.3880  3.7357
 4221TIP3   OH234297   2.293   4.823   6.839  0.5616  0.4953  0.4576
 4221TIP3    H134298   2.232   4.804   6.768  1.5907 -0.7366 -0.1235
 4221TIP3    H234299   2.336   4.905   6.813  0.3109  0.5095  0.0908
 4222TIP3   OH234300   3.014   3.278   3.160 -0.0384 -0.3907  0.1303
 4222TIP3    H134301   3.026   3.350   3.222 -2.1087 -1.2282  1.6535
 4222TIP3    H234302   2.943   3.308   3.103 -0.3425 -0.8814  0.2442
 4223TIP3   OH234303   2.353   6.537   8.121 -0.1397  0.1078 -0.2712
 4223TIP3    H134304   2.432   6.529   8.068  0.4393  0.3429  0.5391
 4223TIP3    H234305   2.364   6.473   8.191 -0.8040 -0.0582 -0.3157
 4224TIP3   OH234306   2.124   5.008   1.559  0.3410 -0.1993  0.2365
 4224TIP3    H134307   2.188   4.970   1.499 -1.0672  2.0457 -2.9848
 4224TIP3    H234308   2.148   5.101   1.564  0.2268 -0.2206  3.0931
 4225TIP3   OH234309   0.924   0.213   0.091  0.0534 -0.6479  0.1349
 4225TIP3    H134310   0.947   0.297   0.129 -0.6740 -0.5697  0.4089
 4225TIP3    H234311   0.830   0.218   0.075 -0.2222 -1.8339  1.2526
 4226TIP3   OH234312   4.333   3.214   7.628  0.0503  0.3848 -0.1467
 4226TIP3    H134313   4.399   3.269   7.587  0.8435 -1.0422 -0.8583
 4226TIP3    H234314   4.344   3.230   7.722  0.0404  1.6507 -0.3435
 4227TIP3   OH234315   0.512   4.085   2.213 -0.3107 -0.4337 -0.1593
 4227TIP3    H134316   0.525   4.165   2.264 -1.6818  0.6055 -1.3385
 4227TIP3    H234317   0.417   4.075   2.208 -0.1651 -2.5246  0.4991
 4228TIP3   OH234318   3.745   4.348   7.156  0.2419 -0.1573 -0.1015
 4228TIP3    H134319   3.839   4.351   7.176 -0.0902  0.8059  1.4621
 4228TIP3    H234320   3.736   4.272   7.098  2.2051  0.6936 -1.6822
 4229TIP3   OH234321   4.251   6.119   1.747  0.2501  0.4522 -0.3207
 4229TIP3    H134322   4.233   6.211   1.727  0.0604 -0.0620 -2.7376
 4229TIP3    H234323   4.267   6.078   1.662 -0.5617 -1.9614  0.6056
 4230TIP3   OH234324   2.058   1.831   2.928  0.6864 -0.1137 -0.1726
 4230TIP3    H134325   2.124   1.851   2.994  1.2991  1.6167 -1.2315
 4230TIP3    H234326   2.016   1.916   2.910 -0.9759 -0.9436 -0.4432
 4231TIP3   OH234327   6.101   2.908   1.152  0.0997 -0.0689 -0.6655
 4231TIP3    H134328   6.118   2.814   1.159 -0.2312 -0.2270 -1.8325
 4231TIP3    H234329   6.012   2.919   1.184 -0.7777 -0.5373 -2.7735
 4232TIP3   OH234330   1.325   1.049   1.825 -0.5438  0.4874 -0.5137
 4232TIP3    H134331   1.236   1.021   1.848 -0.5557  0.9905  0.1005
 4232TIP3    H234332   1.347   1.114   1.892  0.6599 -0.3416 -0.0644
 4233TIP3   OH234333   4.074   1.827   8.362 -0.2764 -0.0031  0.5951
 4233TIP3    H134334   4.054   1.868   8.447 -0.3473  0.7699  0.2098
 4233TIP3    H234335   4.101   1.738   8.385 -1.1564 -0.0960  1.3719
 4234TIP3   OH234336   5.943   1.683   1.332  0.0314  0.2433 -0.6345
 4234TIP3    H134337   6.013   1.700   1.396 -2.4435  1.1760  2.0926
 4234TIP3    H234338   5.906   1.599   1.360 -1.9479  1.3009  0.1448
 4235TIP3   OH234339   6.464   5.437   1.831  0.4342  0.4046  0.3738
 4235TIP3    H134340   6.485   5.476   1.916 -1.6461  1.2340  0.5781
 4235TIP3    H234341   6.398   5.371   1.850 -0.0279  0.5699 -0.5688
 4236TIP3   OH234342   0.676   0.452   2.196  0.1023 -0.2143 -0.1011
 4236TIP3    H134343   0.765   0.461   2.230 -0.0063  1.1464 -0.1277
 4236TIP3    H234344   0.671   0.515   2.124 -0.6694 -0.7875 -0.5777
 4237TIP3   OH234345   0.727   2.220   0.293  0.0941  0.3233  0.2090
 4237TIP3    H134346   0.660   2.241   0.358  0.3442 -0.7111  0.8255
 4237TIP3    H234347   0.680   2.177   0.222  0.2464 -1.9079  1.3595
 4238TIP3   OH234348   0.733   1.187   2.336  0.6506  0.3573 -0.5273
 4238TIP3    H134349   0.655   1.239   2.315 -0.6314 -0.4749  1.8140
 4238TIP3    H234350   0.796   1.251   2.369 -1.0603  0.5815  2.7590
 4239TIP3   OH234351   3.301   5.287   0.634  0.0110 -0.1740  0.1105
 4239TIP3    H134352   3.242   5.216   0.610 -0.5769  0.4048 -0.2168
 4239TIP3    H234353   3.374   5.245   0.679 -0.5889 -0.9217  0.4033
 4240TIP3   OH234354   6.595   3.364   8.461 -0.4985  0.0701  0.0204
 4240TIP3    H134355   6.557   3.281   8.490 -0.7498 -0.5335 -1.8885
 4240TIP3    H234356   6.684   3.341   8.434 -0.7750  0.2497 -1.1101
 4241TIP3   OH234357   4.479   3.720   0.430  0.0364 -0.2757 -0.4554
 4241TIP3    H134358   4.475   3.698   0.337 -1.3232 -1.0616 -0.2385
 4241TIP3    H234359   4.518   3.808   0.432  0.1817 -0.2930 -1.7538
 4242TIP3   OH234360   6.014   5.995   1.834 -0.5841  0.4807  0.1716
 4242TIP3    H134361   6.000   6.081   1.874 -1.1890 -0.2062  1.4644
 4242TIP3    H234362   5.992   5.932   1.902  2.5168 -0.7472  0.1946
 4243TIP3   OH234363   0.189   1.501   0.430  0.2220 -0.0637 -0.3638
 4243TIP3    H134364   0.163   1.576   0.483  4.3045  2.5849 -1.6758
 4243TIP3    H234365   0.224   1.438   0.493  0.6992  1.0117  0.4812
 4244TIP3   OH234366   1.723   6.124   8.411  0.9774 -0.1369 -0.2362
 4244TIP3    H134367   1.673   6.129   8.492  1.3976 -1.4665  0.1344
 4244TIP3    H234368   1.722   6.213   8.376 -2.7405 -0.2773 -0.9183
 4245TIP3   OH234369   2.144   5.751   2.007  0.4325 -0.5001 -0.0105
 4245TIP3    H134370   2.084   5.816   1.972  0.6912  0.1689  0.7445
 4245TIP3    H234371   2.088   5.679   2.036  0.1724 -0.7959 -1.1796
 4246TIP3   OH234372   1.854   2.758   7.254  0.1982  0.3230  0.1268
 4246TIP3    H134373   1.943   2.749   7.220  1.8804 -1.0574  4.2736
 4246TIP3    H234374   1.824   2.667   7.265 -1.3016  0.7713 -0.0811
 4247TIP3   OH234375   4.162   2.880   7.574  0.3522  0.4021  0.0792
 4247TIP3    H134376   4.093   2.818   7.599 -0.7136  1.3474 -0.3969
 4247TIP3    H234377   4.122   2.966   7.586  1.7059  1.0043  0.4573
 4248TIP3   OH234378   5.651   5.279   2.374  0.2662  0.5670  0.0891
 4248TIP3    H134379   5.735   5.322   2.392 -0.7924  2.8300  0.0509
 4248TIP3    H234380   5.601   5.288   2.455 -0.2590  0.0948 -0.1773
 4249TIP3   OH234381   5.278   6.401   8.009  0.2086  0.1689 -0.3125
 4249TIP3    H134382   5.210   6.457   8.045 -0.2876 -0.5994 -0.0344
 4249TIP3    H234383   5.360   6.447   8.028 -0.0792  0.0505  1.2795
 4250TIP3   OH234384   1.280   6.396   7.852  0.7402 -0.4825  0.2426
 4250TIP3    H134385   1.219   6.388   7.778 -0.1146 -0.2974  0.9216
 4250TIP3    H234386   1.322   6.310   7.857  1.9048 -0.0584 -1.3752
 4251TIP3   OH234387   1.030   2.965   0.812  0.3876  0.1097 -0.1606
 4251TIP3    H134388   1.105   3.022   0.792  0.7841 -0.6191 -0.8193
 4251TIP3    H234389   0.954   3.023   0.804  0.8900  0.9618  0.9119
 4252TIP3   OH234390   6.562   4.772   7.763 -0.0285 -0.3641  0.5359
 4252TIP3    H134391   6.599   4.747   7.679 -2.0421 -2.1033  0.0869
 4252TIP3    H234392   6.564   4.692   7.816  0.0345  0.3738  1.6950
 4253TIP3   OH234393   4.236   4.267   7.635 -0.2709 -0.4044  0.0058
 4253TIP3    H134394   4.274   4.179   7.629  1.5878  0.1795  1.8225
 4253TIP3    H234395   4.230   4.297   7.545  2.0148 -1.2529 -0.5054
 4254TIP3   OH234396   2.058   2.128   0.041 -0.3008  0.2183 -0.2591
 4254TIP3    H134397   2.110   2.195  -0.003 -0.2777 -0.6100 -1.5678
 4254TIP3    H234398   2.030   2.070  -0.030 -0.1305 -1.2735  0.8431
 4255TIP3   OH234399   1.442   4.297   0.231 -0.0869  0.1958  0.5914
 4255TIP3    H134400   1.468   4.225   0.173 -0.0795  0.6178  0.0579
 4255TIP3    H234401   1.521   4.317   0.281 -0.2077 -0.4464  1.0488
 4256TIP3   OH234402   5.379   6.468   7.707 -0.2572  0.3661 -0.2607
 4256TIP3    H134403   5.336   6.412   7.643 -1.2987  0.8545  0.0016
 4256TIP3    H234404   5.426   6.533   7.654  1.5966 -1.1334 -0.5980
 4257TIP3   OH234405   0.894   0.301   1.910  0.8339 -0.0907 -0.3853
 4257TIP3    H134406   0.977   0.252   1.919 -0.0396 -1.3620  1.5520
 4257TIP3    H234407   0.920   0.393   1.915  2.0125 -0.4697  2.3498
 4258TIP3   OH234408   0.185   2.432   7.947  0.2880  0.3903 -0.4633
 4258TIP3    H134409   0.179   2.394   8.034 -0.4821  0.9427 -0.2642
 4258TIP3    H234410   0.219   2.362   7.892  0.9430  0.0899  0.3113
 4259TIP3   OH234411   0.232   0.804   6.701 -0.9264 -0.0918  0.2889
 4259TIP3    H134412   0.254   0.881   6.754 -0.4771  0.6968 -1.0021
 4259TIP3    H234413   0.214   0.735   6.766  0.6799  0.5312  1.4606
 4260TIP3   OH234414   0.360   0.628   1.279  0.1865 -0.3120  0.3232
 4260TIP3    H134415   0.271   0.624   1.311  0.5301  0.5835  1.4682
 4260TIP3    H234416   0.359   0.578   1.198 -1.2253 -0.7494  0.5904
 4261TIP3   OH234417   0.888   4.328   0.702  0.2424 -0.1998 -0.4361
 4261TIP3    H134418   0.892   4.288   0.616  1.4983 -1.4377  0.1537
 4261TIP3    H234419   0.851   4.261   0.759 -1.4049  0.8994 -0.1234
 4262TIP3   OH234420   0.641   0.556   2.568  0.1695 -0.0669  0.2212
 4262TIP3    H134421   0.615   0.556   2.661  0.1078 -0.1212  0.2044
 4262TIP3    H234422   0.561   0.579   2.521  0.3709  0.6573  0.2263
 4263TIP3   OH234423   2.454   6.053   1.950 -0.2040  0.1848  0.1362
 4263TIP3    H134424   2.444   6.034   2.043 -0.9074  1.7250  0.3885
 4263TIP3    H234425   2.420   6.141   1.939  0.3244  0.2153 -1.5045
 4264TIP3   OH234426   4.580   0.323   0.522 -0.4459  0.0814  0.4066
 4264TIP3    H134427   4.621   0.356   0.602  1.7938 -0.6239 -0.3621
 4264TIP3    H234428   4.503   0.379   0.509 -1.2858 -0.2480  3.3768
 4265TIP3   OH234429   4.502   0.246   1.148  0.4608 -0.5265  0.7622
 4265TIP3    H134430   4.494   0.336   1.178 -0.0070 -0.3740  0.2062
 4265TIP3    H234431   4.526   0.254   1.055 -1.8595 -0.9270  0.0689
 4266TIP3   OH234432   1.251   4.124   0.827  0.3370  0.4219 -0.0603
 4266TIP3    H134433   1.221   4.087   0.910 -1.7839  3.7165  0.8086
 4266TIP3    H234434   1.332   4.171   0.849  0.2689  0.5317 -0.0419
 4267TIP3   OH234435   0.251   5.165   8.569  0.2059  0.3764  0.2782
 4267TIP3    H134436   0.300   5.213   8.502  2.3387 -2.1665 -0.1713
 4267TIP3    H234437   0.315   5.104   8.606 -2.3474 -2.3368  0.5461
 4268TIP3   OH234438   1.858   2.757   7.535  0.3812 -0.7223  0.2193
 4268TIP3    H134439   1.908   2.755   7.453  0.5189  0.0097  0.2727
 4268TIP3    H234440   1.845   2.665   7.557  0.0230 -0.9369 -0.8136
 4269TIP3   OH234441   3.342   6.619   8.575 -0.9127  0.7207 -0.5311
 4269TIP3    H134442   3.282   6.681   8.617  0.1841  1.2918  0.2469
 4269TIP3    H234443   3.391   6.581   8.647  0.1538  0.7963 -1.1994
 4270TIP3   OH234444   4.717   2.918   1.743  0.1020  0.3402  0.3245
 4270TIP3    H134445   4.755   2.924   1.655  0.5100 -2.0653  0.2831
 4270TIP3    H234446   4.790   2.890   1.799 -0.5556  0.1277  1.1032
 4271TIP3   OH234447   1.827   6.885   0.006 -0.1043  0.2283  0.7528
 4271TIP3    H134448   1.909   6.917  -0.032 -0.3649 -0.3333 -0.3303
 4271TIP3    H234449   1.759   6.933  -0.039 -0.5671 -2.4248 -1.6917
 4272TIP3   OH234450   1.569   0.766   0.026 -0.2415  0.0079 -0.1253
 4272TIP3    H134451   1.554   0.710   0.102 -0.8733  0.2741 -0.0519
 4272TIP3    H234452   1.484   0.804   0.006 -0.4913 -1.3891 -2.0210
 4273TIP3   OH234453   5.617   1.334   1.798  0.4869 -0.1324 -0.0826
 4273TIP3    H134454   5.641   1.323   1.890  3.2792 -2.0130 -0.8996
 4273TIP3    H234455   5.586   1.424   1.792  1.0339  0.3087  2.5471
 4274TIP3   OH234456   0.718   3.052   0.198 -0.0189 -0.3050 -0.3688
 4274TIP3    H134457   0.784   3.099   0.147  0.5833 -2.0673 -1.2827
 4274TIP3    H234458   0.714   3.100   0.281  0.5419  1.3440 -1.2427
 4275TIP3   OH234459   4.380   6.755   2.556  0.1190 -0.3139 -0.2134
 4275TIP3    H134460   4.461   6.762   2.506  0.1303 -0.5777 -0.2334
 4275TIP3    H234461   4.407   6.723   2.642  0.0385 -0.3625 -0.2065
 4276TIP3   OH234462   3.448   4.285   7.440 -0.2756 -0.3106 -0.1279
 4276TIP3    H134463   3.390   4.326   7.505  1.8312  0.6753  1.2512
 4276TIP3    H234464   3.462   4.196   7.474 -2.4167 -1.2701 -1.5098
 4277TIP3   OH234465   3.044   0.697   1.027  0.0388 -0.3099 -0.0028
 4277TIP3    H134466   3.103   0.628   0.996  0.6273  0.7958 -1.4879
 4277TIP3    H234467   3.023   0.672   1.117  2.7076 -0.8125  0.5781
 4278TIP3   OH234468   2.656   4.945   8.223  0.2958  0.5384 -0.8196
 4278TIP3    H134469   2.691   4.975   8.307  0.7356 -0.2392 -0.7138
 4278TIP3    H234470   2.683   5.012   8.160  3.1371 -0.6023 -0.9786
 4279TIP3   OH234471   3.419   1.273   8.621 -0.5721 -0.1800  0.5451
 4279TIP3    H134472   3.387   1.275   8.711  0.4454  2.3150  0.9436
 4279TIP3    H234473   3.387   1.355   8.582  1.4984  0.2524 -0.3919
 4280TIP3   OH234474   3.118   5.608   7.123  0.5318 -0.1574  0.5400
 4280TIP3    H134475   3.042   5.565   7.161  0.0336 -0.7223 -1.0194
 4280TIP3    H234476   3.164   5.539   7.075  0.3430  0.7758 -1.0623
 4281TIP3   OH234477   0.151   1.284   7.123  0.0180  0.0077 -0.2750
 4281TIP3    H134478   0.245   1.263   7.124  0.4282  1.6155 -1.3956
 4281TIP3    H234479   0.111   1.213   7.073  0.9920  0.5090 -1.8150
 4282TIP3   OH234480   2.584   3.143   8.472 -0.0106 -0.3484 -0.1440
 4282TIP3    H134481   2.617   3.167   8.558 -2.4137  1.3552  0.3958
 4282TIP3    H234482   2.613   3.052   8.460  1.1299 -0.3343  2.0391
 4283TIP3   OH234483   3.309   1.977   8.040  0.1865 -0.2405  0.2688
 4283TIP3    H134484   3.355   1.940   8.115  2.3448  1.5723 -0.0663
 4283TIP3    H234485   3.317   1.911   7.972 -0.4088 -1.2175  1.1097
 4284TIP3   OH234486   3.364   5.517   2.710  0.5165 -0.3370  0.3743
 4284TIP3    H134487   3.276   5.540   2.679 -0.8877 -3.2110  1.8337
 4284TIP3    H234488   3.373   5.564   2.793 -0.7662 -1.9329  1.4806
 4285TIP3   OH234489   4.469   3.244   7.881 -0.2400  0.4855  0.0155
 4285TIP3    H134490   4.539   3.301   7.847 -0.8619  1.3312  0.1061
 4285TIP3    H234491   4.489   3.158   7.846  1.9936  0.2452  1.6692
 4286TIP3   OH234492   0.399   3.882   3.496 -0.3973 -0.1063 -0.1684
 4286TIP3    H134493   0.343   3.806   3.483 -1.0825  0.5843 -1.4776
 4286TIP3    H234494   0.386   3.935   3.417  1.2643  0.6151  0.0098
 4287TIP3   OH234495   2.601   1.134   8.089 -0.0998 -0.5342  0.3212
 4287TIP3    H134496   2.662   1.141   8.016  1.2509  0.0967  1.4411
 4287TIP3    H234497   2.514   1.139   8.050  0.5825  1.6449 -1.0837
 4288TIP3   OH234498   1.715   6.500   0.622  0.5685 -0.1876  0.1073
 4288TIP3    H134499   1.644   6.504   0.559  0.1221 -0.6372  0.5728
 4288TIP3    H234500   1.795   6.496   0.568  0.3989  2.1847 -0.4303
 4289TIP3   OH234501   0.300   0.571   7.649 -0.3145 -0.0691 -0.6076
 4289TIP3    H134502   0.390   0.585   7.620 -0.0433 -1.2904 -0.4104
 4289TIP3    H234503   0.288   0.631   7.722 -0.0536  0.9352 -1.3603
 4290TIP3   OH234504   4.577   3.659   1.192 -0.5650  0.6613 -0.0946
 4290TIP3    H134505   4.592   3.565   1.206  2.1903  1.1329  0.7072
 4290TIP3    H234506   4.519   3.662   1.115 -0.6708 -1.6702 -0.2023
 4291TIP3   OH234507   4.719   6.676   7.158 -0.0113 -0.2650 -0.7740
 4291TIP3    H134508   4.706   6.736   7.231 -0.6840 -0.5270 -0.6703
 4291TIP3    H234509   4.652   6.702   7.094  1.3012  0.7218 -1.8140
 4292TIP3   OH234510   6.807   2.537   7.679 -0.3053 -0.3867 -0.7040
 4292TIP3    H134511   6.724   2.583   7.689  0.6438  1.3497 -0.3862
 4292TIP3    H234512   6.873   2.607   7.670  0.9812 -1.6949 -2.2647
 4293TIP3   OH234513   0.465   2.313   6.774  0.3642 -0.0752  0.1949
 4293TIP3    H134514   0.451   2.219   6.771 -1.2598  0.1055  0.7175
 4293TIP3    H234515   0.434   2.345   6.689 -0.3217  0.1058  0.5054
 4294TIP3   OH234516   3.379   2.820   1.762  0.4771  1.0598  0.0363
 4294TIP3    H134517   3.342   2.821   1.674 -1.4752  2.3211  0.8026
 4294TIP3    H234518   3.473   2.833   1.749  0.7732 -2.1823 -1.9855
 4295TIP3   OH234519   6.431   2.392   7.703  0.1987 -0.4555 -0.4008
 4295TIP3    H134520   6.412   2.366   7.613 -2.1481  0.2469 -0.1799
 4295TIP3    H234521   6.445   2.486   7.698  2.4677 -0.7272 -0.3109
 4296TIP3   OH234522   4.925   4.515   3.583 -0.4643  0.3502  0.2977
 4296TIP3    H134523   4.965   4.469   3.509 -1.1042  0.7145 -0.2800
 4296TIP3    H234524   4.893   4.597   3.546 -0.8382  0.5159  0.9709
 4297TIP3   OH234525   4.385   5.298   1.982  0.7007  0.6780 -0.1731
 4297TIP3    H134526   4.472   5.277   1.947  0.9180  1.9535 -0.4387
 4297TIP3    H234527   4.392   5.389   2.010 -0.1002  0.3252  1.2692
 4298TIP3   OH234528   3.210   5.644   7.598  0.0497 -0.0669  0.5296
 4298TIP3    H134529   3.208   5.672   7.507 -2.7701 -0.9108  0.2191
 4298TIP3    H234530   3.238   5.553   7.596 -0.5297 -0.2478  0.4192
 4299TIP3   OH234531   1.379   5.532   0.980  0.3110 -0.1830  0.5745
 4299TIP3    H134532   1.394   5.442   1.010  2.0499 -0.2901 -0.4763
 4299TIP3    H234533   1.285   5.537   0.963 -0.0460 -1.3353  2.0751
 4300TIP3   OH234534   6.382   0.049   8.253  0.3733  0.1294  0.3148
 4300TIP3    H134535   6.388   0.143   8.271  2.1255  0.0497  0.3438
 4300TIP3    H234536   6.471   0.016   8.265 -0.1482 -1.5010  0.0455
 4301TIP3   OH234537   1.847   3.700   2.617 -0.1696  0.0372 -0.2784
 4301TIP3    H134538   1.817   3.720   2.705  0.9127 -1.3198  0.4548
 4301TIP3    H234539   1.914   3.766   2.598  0.5769 -0.4687  0.5042
 4302TIP3   OH234540   4.171   2.101   8.010  0.4642  0.2370 -0.0375
 4302TIP3    H134541   4.087   2.098   7.965 -0.3090 -0.4231  1.3829
 4302TIP3    H234542   4.151   2.135   8.097  1.4460 -1.1175  0.7548
 4303TIP3   OH234543   0.994   0.467   0.143 -0.1508  0.2869 -0.1896
 4303TIP3    H134544   1.080   0.498   0.171 -0.4932 -0.2298  1.5434
 4303TIP3    H234545   0.932   0.517   0.197 -0.8726 -0.4505 -0.3180
 4304TIP3   OH234546   4.261   6.192   0.691  0.4049  0.8674  0.7316
 4304TIP3    H134547   4.271   6.207   0.597  1.1185  2.7732  1.0730
 4304TIP3    H234548   4.259   6.096   0.700  0.8470  0.6461 -1.1629
 4305TIP3   OH234549   3.354   3.757   7.706  0.4384  0.0324 -0.1101
 4305TIP3    H134550   3.405   3.750   7.625  1.0390 -0.1404  0.2743
 4305TIP3    H234551   3.267   3.727   7.682  0.0461  1.8633 -1.1825
 4306TIP3   OH234552   6.393   5.643   1.355 -0.0106 -0.1257 -0.3185
 4306TIP3    H134553   6.487   5.627   1.352 -0.4567 -3.5233 -0.1329
 4306TIP3    H234554   6.373   5.651   1.448  0.0249  0.1852 -0.3362
 4307TIP3   OH234555   4.708   6.335   2.232 -0.5336  0.1207  0.4661
 4307TIP3    H134556   4.621   6.320   2.195 -0.4212  0.3189  0.1070
 4307TIP3    H234557   4.704   6.423   2.269 -0.8123 -0.2915  1.4323
 4308TIP3   OH234558   2.561   3.186   2.010  0.3447 -0.3892  0.4293
 4308TIP3    H134559   2.519   3.107   1.977  0.8285 -1.3469  2.0399
 4308TIP3    H234560   2.573   3.241   1.932 -2.3200 -0.7606 -0.3466
 4309TIP3   OH234561   0.099   4.351   1.106 -0.6398  0.5185  0.1008
 4309TIP3    H134562   0.048   4.432   1.100 -0.1835  0.6985 -1.6465
 4309TIP3    H234563   0.150   4.348   1.026 -0.3488 -1.3171  0.3102
 4310TIP3   OH234564   2.742   4.546   8.428  0.5701  0.3258  0.1624
 4310TIP3    H134565   2.662   4.523   8.380  0.1539 -0.7400  1.3216
 4310TIP3    H234566   2.777   4.622   8.381 -1.6300  1.4217  0.1886
 4311TIP3   OH234567   6.354   4.468   2.674  0.4109  0.0377 -0.2425
 4311TIP3    H134568   6.354   4.448   2.767  0.1579 -0.5118 -0.3539
 4311TIP3    H234569   6.434   4.519   2.660  0.4158  0.1800  0.2825
 4312TIP3   OH234570   5.952   2.119   7.720 -0.1629 -0.0873 -0.0783
 4312TIP3    H134571   5.896   2.191   7.691  1.4538  0.7823 -1.1925
 4312TIP3    H234572   5.904   2.039   7.697 -1.7380  0.6007  0.6763
 4313TIP3   OH234573   3.763   2.747   0.916 -0.0635 -0.2550  0.4596
 4313TIP3    H134574   3.679   2.758   0.871 -0.5521  0.1160  1.4513
 4313TIP3    H234575   3.750   2.673   0.974  0.3666 -0.3212  0.4759
 4314TIP3   OH234576   3.320   6.605   1.990  0.3162 -0.3877 -0.0776
 4314TIP3    H134577   3.332   6.511   1.975  3.5997  0.1651 -1.7363
 4314TIP3    H234578   3.274   6.636   1.912  0.7122 -0.3782 -0.3098
 4315TIP3   OH234579   2.216   1.244   2.200  0.1969  0.5780  0.4159
 4315TIP3    H134580   2.178   1.157   2.193 -1.6164  1.4819 -3.1146
 4315TIP3    H234581   2.300   1.238   2.154 -0.1788  0.8181 -0.3017
 4316TIP3   OH234582   0.454   2.685   1.496 -0.0297 -0.5043 -0.4950
 4316TIP3    H134583   0.478   2.719   1.583  0.0943 -1.1176 -0.2866
 4316TIP3    H234584   0.517   2.615   1.479 -0.1542 -0.4952 -1.0134
 4317TIP3   OH234585   3.098   2.066   3.262 -0.1183  0.1225  0.8182
 4317TIP3    H134586   3.009   2.063   3.226  0.4355 -1.2911 -0.5476
 4317TIP3    H234587   3.103   2.151   3.304 -1.6671  0.8190 -0.2875
 4318TIP3   OH234588   1.756   4.979   0.764  0.0529  0.2715  0.0093
 4318TIP3    H134589   1.671   4.942   0.739  1.2318 -3.6302  1.1383
 4318TIP3    H234590   1.819   4.939   0.705  1.5240 -0.0937  1.7262
 4319TIP3   OH234591   2.826   2.206   2.548 -0.1586 -0.8415  0.4799
 4319TIP3    H134592   2.847   2.168   2.633 -1.5095  1.1741  1.8166
 4319TIP3    H234593   2.739   2.171   2.527 -0.0676 -0.8993  0.1972
 4320TIP3   OH234594   6.147   3.753   2.215  0.0524 -0.3895  0.2158
 4320TIP3    H134595   6.114   3.792   2.135 -0.4790 -0.2967  0.4711
 4320TIP3    H234596   6.071   3.749   2.273  0.2525 -1.1437  0.4492
 4321TIP3   OH234597   1.638   5.090   2.156 -0.2239  0.0773  0.2171
 4321TIP3    H134598   1.655   5.183   2.169 -2.4601  0.2539  2.8565
 4321TIP3    H234599   1.718   5.047   2.188  0.4991  1.0394 -0.2469
 4322TIP3   OH234600   5.606   1.006   8.073 -0.4435  0.6048  0.2809
 4322TIP3    H134601   5.602   1.088   8.123 -2.2200  1.2421 -0.8139
 4322TIP3    H234602   5.515   0.981   8.060  0.0105 -0.4218 -1.1884
 4323TIP3   OH234603   1.606   6.131   8.649  0.0101 -0.1461  0.0183
 4323TIP3    H134604   1.643   6.106   8.733  0.5235 -1.8131 -0.6632
 4323TIP3    H234605   1.511   6.129   8.663  0.0750 -1.0777  0.3921
 4324TIP3   OH234606   3.697   2.883   0.551  0.9202  0.0925 -0.4383
 4324TIP3    H134607   3.731   2.953   0.607  1.8332 -0.1041 -0.7408
 4324TIP3    H234608   3.609   2.913   0.526  1.7781  1.7747 -1.6398
 4325TIP3   OH234609   0.127   3.646   0.446  0.4860 -0.1965  0.0064
 4325TIP3    H134610   0.115   3.623   0.354  1.1443 -3.1751  0.5714
 4325TIP3    H234611   0.204   3.703   0.446  0.3876 -0.0242 -1.2723
 4326TIP3   OH234612   6.328   1.254   0.395  0.5797  0.0957  0.0385
 4326TIP3    H134613   6.310   1.322   0.459 -1.0617  0.2951 -0.5997
 4326TIP3    H234614   6.306   1.294   0.310 -1.0284 -1.3797 -0.3053
 4327TIP3   OH234615   6.150   1.568   0.819 -0.4138 -0.1359  0.0383
 4327TIP3    H134616   6.216   1.577   0.888 -0.0474  0.0539 -0.3308
 4327TIP3    H234617   6.071   1.608   0.856 -0.4989 -0.8897  0.7108
 4328TIP3   OH234618   1.130   5.119   1.190 -0.3223 -0.3917 -0.4902
 4328TIP3    H134619   1.204   5.060   1.176  1.7414  1.9456 -0.1859
 4328TIP3    H234620   1.059   5.082   1.137  0.6286 -3.4134  0.1744
 4329TIP3   OH234621   1.564   4.244   7.202 -0.3141 -0.1515  0.0755
 4329TIP3    H134622   1.526   4.311   7.145  1.4562 -0.5225 -1.6790
 4329TIP3    H234623   1.499   4.174   7.203 -0.7176  0.1922 -0.8930
 4330TIP3   OH234624   1.992   5.396   6.805 -0.1227 -0.1999  0.2038
 4330TIP3    H134625   2.079   5.399   6.846 -0.4913  2.3301  0.9831
 4330TIP3    H234626   1.953   5.315   6.839  1.6718 -1.0424  0.3639
 4331TIP3   OH234627   4.846   0.967   2.367 -0.3619 -0.1058 -0.0797
 4331TIP3    H134628   4.933   0.992   2.337  0.2269 -0.0894  1.5651
 4331TIP3    H234629   4.834   1.015   2.449 -2.0386  0.1053 -0.4140
 4332TIP3   OH234630   5.577   5.711   0.770  0.2952  0.1342  0.7391
 4332TIP3    H134631   5.640   5.742   0.836  0.7002  0.1326  0.3573
 4332TIP3    H234632   5.557   5.622   0.797  1.2054 -0.2083  0.3277
 4333TIP3   OH234633   3.511   4.305   1.619  0.0999  0.4976 -0.2038
 4333TIP3    H134634   3.527   4.323   1.526 -2.8905  0.1930 -0.8539
 4333TIP3    H234635   3.456   4.378   1.648 -0.2043 -0.1801  0.9621
 4334TIP3   OH234636   6.071   1.435   1.719 -0.3446  0.1302 -0.3846
 4334TIP3    H134637   6.014   1.389   1.781  0.6233  1.1443  1.3206
 4334TIP3    H234638   6.154   1.444   1.765  0.0459  1.9816 -1.3610
 4335TIP3   OH234639   0.936   0.434   2.279 -0.1877 -0.1352 -0.1939
 4335TIP3    H134640   0.997   0.464   2.211  0.0096  1.9790  0.8180
 4335TIP3    H234641   0.975   0.353   2.312 -0.1324 -1.0340 -2.3347
 4336TIP3   OH234642   1.343   3.733   2.174 -0.1455 -0.2930 -0.2250
 4336TIP3    H134643   1.337   3.649   2.220  0.1439  0.3422  1.0277
 4336TIP3    H234644   1.416   3.723   2.114 -0.5026 -1.1387 -0.5255
 4337TIP3   OH234645   2.807   3.575   8.041  0.6178  0.3428  0.1235
 4337TIP3    H134646   2.799   3.534   8.127  0.4927  0.5822  0.2268
 4337TIP3    H234647   2.723   3.559   7.999  0.5537  0.5236  0.1792
 4338TIP3   OH234648   1.409   2.498   8.043  0.0073 -0.2340 -0.5989
 4338TIP3    H134649   1.346   2.432   8.014  0.6443  0.2505 -3.2926
 4338TIP3    H234650   1.361   2.581   8.039 -0.2438 -0.2561  1.0279
 4339TIP3   OH234651   1.777   3.448   0.683 -0.0734  0.3496  0.2197
 4339TIP3    H134652   1.784   3.543   0.669 -0.3373  0.3968  0.4049
 4339TIP3    H234653   1.779   3.411   0.595 -0.9692  0.5972  0.0864
 4340TIP3   OH234654   4.363   0.631   7.638  0.0131 -0.4609 -0.2732
 4340TIP3    H134655   4.302   0.565   7.604 -1.0492 -1.0231  2.4646
 4340TIP3    H234656   4.449   0.598   7.614 -0.5227 -2.4971  0.3612
 4341TIP3   OH234657   5.236   5.040   8.565  0.9141 -0.1088  0.2145
 4341TIP3    H134658   5.216   4.947   8.550 -0.4642  0.2869 -0.6020
 4341TIP3    H234659   5.183   5.063   8.641 -1.0256  0.6763 -1.2931
 4342TIP3   OH234660   1.167   1.994   8.013  0.8656 -0.1027  0.5878
 4342TIP3    H134661   1.208   1.957   7.935 -0.7022 -0.8408  0.0920
 4342TIP3    H234662   1.156   1.920   8.072  3.0005  0.6198  1.9995
 4343TIP3   OH234663   0.962   3.737   8.067  0.4693  0.2889 -0.6649
 4343TIP3    H134664   0.966   3.645   8.095 -1.0175  0.5009  0.3805
 4343TIP3    H234665   0.874   3.747   8.031 -0.3037  1.8457  1.4396
 4344TIP3   OH234666   0.803   2.397   7.357 -0.5433  0.4397  0.0559
 4344TIP3    H134667   0.739   2.361   7.418 -1.5752  0.6833 -0.8533
 4344TIP3    H234668   0.879   2.338   7.363 -1.8174 -1.3527 -0.7096
 4345TIP3   OH234669   1.771   5.514   0.894 -0.1613  0.4409 -0.2287
 4345TIP3    H134670   1.747   5.426   0.866  1.2082 -0.1798  0.4342
 4345TIP3    H234671   1.705   5.571   0.854  0.3241 -0.6082 -2.7752
 4346TIP3   OH234672   3.258   6.095   8.245 -0.3427  0.5353 -0.1507
 4346TIP3    H134673   3.196   6.081   8.316  1.0589  1.4829  1.3197
 4346TIP3    H234674   3.241   6.024   8.183 -1.2081 -0.6448  1.3927
 4347TIP3   OH234675   0.972   6.134   1.960 -0.1851 -0.3552  0.7337
 4347TIP3    H134676   1.055   6.182   1.962 -1.1128  1.5340 -1.2533
 4347TIP3    H234677   0.953   6.123   1.866 -2.8196  0.5118  1.0883
 4348TIP3   OH234678   4.470   2.895   0.591  0.0616  0.3595  0.0800
 4348TIP3    H134679   4.415   2.924   0.517  0.1431 -0.7967 -0.4554
 4348TIP3    H234680   4.557   2.930   0.571 -0.1529  0.9705  0.1913
 4349TIP3   OH234681   5.074   3.232   8.235  0.5879 -0.3399  0.0237
 4349TIP3    H134682   5.053   3.258   8.325  1.9625  2.8087 -0.4545
 4349TIP3    H234683   5.089   3.315   8.189  0.2925 -1.8667 -3.0470
 4350TIP3   OH234684   2.496   6.057   0.029  0.2926  0.1608  0.0914
 4350TIP3    H134685   2.486   5.963   0.014 -0.2604  0.2813 -0.3449
 4350TIP3    H234686   2.416   6.095  -0.008  0.4262  0.7833  0.4388
 4351TIP3   OH234687   4.060   3.377   8.425 -0.7168 -0.0115 -0.2337
 4351TIP3    H134688   4.125   3.312   8.454  0.4065  0.5891 -1.2787
 4351TIP3    H234689   4.017   3.406   8.505  0.9923  0.2760  0.6223
 4352TIP3   OH234690   2.415   6.784   2.065 -0.0381  0.9667  0.0624
 4352TIP3    H134691   2.330   6.750   2.090  0.0629  0.2155 -0.5856
 4352TIP3    H234692   2.397   6.867   2.021 -0.5930 -0.0743 -1.7383
 4353TIP3   OH234693   0.856   4.720   8.214  0.4341 -0.8768  0.0954
 4353TIP3    H134694   0.824   4.640   8.173 -0.4445 -0.1549 -0.6593
 4353TIP3    H234695   0.857   4.785   8.144 -2.4375  0.7633  1.4100
 4354TIP3   OH234696   0.220   3.975   8.034  0.5370  0.0182 -1.0920
 4354TIP3    H134697   0.128   3.951   8.045  0.9701 -1.4831 -0.5740
 4354TIP3    H234698   0.228   4.060   8.077 -0.3947 -0.2859 -0.2912
 4355TIP3   OH234699   5.256   6.261   7.563 -0.3945 -0.0384  0.2985
 4355TIP3    H134700   5.219   6.176   7.587  0.6670 -1.0187 -1.3456
 4355TIP3    H234701   5.180   6.318   7.552 -1.2385 -1.2293 -0.2035
 4356TIP3   OH234702   1.991   3.050   1.818  0.8478 -0.1804  0.0122
 4356TIP3    H134703   2.039   3.076   1.739 -0.8237  0.0898 -0.9460
 4356TIP3    H234704   1.909   3.100   1.815 -0.0789 -1.5737  0.9376
 4357TIP3   OH234705   4.585   1.173   0.210  0.2874  0.3026 -0.0653
 4357TIP3    H134706   4.626   1.239   0.155  0.5989  0.5646  0.4726
 4357TIP3    H234707   4.658   1.120   0.243 -0.0063 -0.7397 -1.0228
 4358TIP3   OH234708   4.478   5.906   0.502 -0.3106  0.1622  0.3575
 4358TIP3    H134709   4.550   5.914   0.439 -0.5012 -0.5085  0.0374
 4358TIP3    H234710   4.399   5.900   0.447 -0.6019  0.7735  0.7022
 4359TIP3   OH234711   3.038   5.141   3.475 -0.0650  0.5370  0.0155
 4359TIP3    H134712   3.073   5.060   3.512  1.6966  0.6886 -1.2107
 4359TIP3    H234713   3.115   5.194   3.455 -1.0966  1.7162 -1.0199
 4360TIP3   OH234714   2.147   0.065   1.966  0.1305  0.1338  0.6390
 4360TIP3    H134715   2.197   0.009   1.906  0.2708 -0.2240  1.0924
 4360TIP3    H234716   2.078   0.102   1.911  1.8472  1.9530 -0.4132
 4361TIP3   OH234717   0.069   1.745   1.091  0.3690 -0.0156 -0.1484
 4361TIP3    H134718   0.067   1.649   1.089  0.1625 -0.0429 -3.2775
 4361TIP3    H234719   0.146   1.768   1.039 -0.0600  1.5444 -0.1319
 4362TIP3   OH234720   2.211   4.396   7.386  0.3509 -0.0898 -0.4959
 4362TIP3    H134721   2.239   4.380   7.295 -0.7032  0.0606 -0.8555
 4362TIP3    H234722   2.276   4.458   7.420  0.4332  0.3050 -1.3356
 4363TIP3   OH234723   3.605   5.701   1.385  0.1159  0.4512 -0.4031
 4363TIP3    H134724   3.582   5.625   1.438  3.7023  0.4887  1.5734
 4363TIP3    H234725   3.617   5.771   1.449  1.2936  1.4565 -1.6652
 4364TIP3   OH234726   5.350   0.889   8.115  0.0057  0.1996  0.2409
 4364TIP3    H134727   5.328   0.802   8.081 -1.3952  0.9036 -0.7387
 4364TIP3    H234728   5.271   0.917   8.162 -0.1618  1.5670 -0.7796
 4365TIP3   OH234729   0.799   2.249   1.814  0.0439 -0.0909 -0.3415
 4365TIP3    H134730   0.741   2.248   1.890  0.4728 -0.6002 -0.0161
 4365TIP3    H234731   0.783   2.165   1.771 -0.3293  0.2693 -0.9211
 4366TIP3   OH234732   6.327   3.685   2.482 -0.0451 -0.4371 -0.6657
 4366TIP3    H134733   6.338   3.686   2.577  1.8640  0.8997 -0.8271
 4366TIP3    H234734   6.233   3.676   2.468 -0.6031  1.3758  1.3986
 4367TIP3   OH234735   0.305   6.136   1.049 -0.2644  0.0396 -0.2302
 4367TIP3    H134736   0.387   6.146   1.002  0.5029 -0.6335  0.9333
 4367TIP3    H234737   0.276   6.226   1.067 -0.1835  0.2929 -1.2593
 4368TIP3   OH234738   6.839   1.954   6.504  0.0372 -0.2078  0.2590
 4368TIP3    H134739   6.869   1.979   6.592 -0.5690  1.2342  0.0896
 4368TIP3    H234740   6.918   1.921   6.460  0.5427 -0.0930  1.0540
 4369TIP3   OH234741   1.332   3.290   2.394  0.3067 -0.2871 -0.5634
 4369TIP3    H134742   1.294   3.309   2.480  0.3396 -1.8367 -0.1840
 4369TIP3    H234743   1.393   3.218   2.410  2.1825  1.0119 -1.4606
 4370TIP3   OH234744   1.861   4.424   0.852 -0.2816 -0.4111 -0.0914
 4370TIP3    H134745   1.893   4.386   0.934  3.0169  1.3441 -0.4224
 4370TIP3    H234746   1.821   4.507   0.878  1.6190  0.6048 -0.2593
 4371TIP3   OH234747   2.235   3.551   2.018 -0.4419  0.4533  0.3579
 4371TIP3    H134748   2.272   3.522   2.102 -1.5540  0.2748  0.8203
 4371TIP3    H234749   2.238   3.473   1.962  0.5503  0.6462  0.1415
 4372TIP3   OH234750   2.820   6.212   8.022 -0.3097 -0.1533  0.2563
 4372TIP3    H134751   2.802   6.119   8.006  1.6446 -0.2887 -1.7014
 4372TIP3    H234752   2.806   6.254   7.937 -0.4981  1.2374  0.9494
 4373TIP3   OH234753   5.625   5.670   1.340  0.3191  0.7269 -0.3194
 4373TIP3    H134754   5.631   5.634   1.428  1.5126  0.1963 -0.5934
 4373TIP3    H234755   5.715   5.692   1.316 -0.3233  3.8580 -0.2290
 4374TIP3   OH234756   5.603   0.911   2.786  0.1939  0.2040  0.2279
 4374TIP3    H134757   5.544   0.942   2.718  0.3105  0.1297  0.0932
 4374TIP3    H234758   5.604   0.981   2.851  1.6258  1.1657 -0.7734
 4375TIP3   OH234759   5.320   4.431   0.054 -0.1467  0.2165  0.1805
 4375TIP3    H134760   5.252   4.444   0.120 -2.0344  1.5198 -1.8637
 4375TIP3    H234761   5.357   4.518   0.040  0.5928 -0.1363 -0.1330
 4376TIP3   OH234762   0.150   6.722   1.655  0.3239  0.0035  0.0539
 4376TIP3    H134763   0.233   6.683   1.626  1.0410  0.1853  1.7265
 4376TIP3    H234764   0.094   6.647   1.675  0.8226 -0.1785  0.8550
 4377TIP3   OH234765   0.783   0.459   8.465  0.3074 -0.1848 -0.1995
 4377TIP3    H134766   0.877   0.444   8.472  0.2232 -0.7158 -0.1766
 4377TIP3    H234767   0.775   0.552   8.442  0.7173  0.9183  3.4490
 4378TIP3   OH234768   6.086   6.035   8.487  0.4581 -0.1159 -0.4794
 4378TIP3    H134769   6.125   6.094   8.552  1.5794 -0.5729 -0.7085
 4378TIP3    H234770   6.079   6.088   8.408  1.2088 -0.2051 -0.6094
 4379TIP3   OH234771   3.784   0.574   0.626 -0.3971 -0.1319  0.2982
 4379TIP3    H134772   3.707   0.524   0.600  0.7343 -1.4863 -0.5646
 4379TIP3    H234773   3.808   0.539   0.712 -0.6359  0.1657  0.4870
 4380TIP3   OH234774   6.560   1.263   8.100 -0.1520 -0.2380 -0.8463
 4380TIP3    H134775   6.503   1.187   8.094  1.2209 -2.0144  3.9617
 4380TIP3    H234776   6.648   1.229   8.084  0.3521  0.6084  0.0299
 4381TIP3   OH234777   0.395   2.060   6.671 -0.5470  0.6753  0.5420
 4381TIP3    H134778   0.411   2.078   6.579 -1.1701 -0.8074  0.1019
 4381TIP3    H234779   0.472   2.011   6.700 -1.5518 -1.3505 -0.0049
 4382TIP3   OH234780   1.403   1.708   6.858 -0.0265 -0.1443 -0.1142
 4382TIP3    H134781   1.449   1.706   6.942 -0.3326 -2.3257  0.0503
 4382TIP3    H234782   1.472   1.696   6.792 -0.0074 -0.3820 -0.0516
 4383TIP3   OH234783   2.361   4.122   7.997 -0.2987  0.0511  0.4996
 4383TIP3    H134784   2.346   4.053   8.062 -0.1924 -0.7825 -0.3372
 4383TIP3    H234785   2.291   4.185   8.012 -0.9399 -0.6964  0.6853
 4384TIP3   OH234786   0.636   1.424   0.150 -0.0167 -0.2071 -0.6380
 4384TIP3    H134787   0.667   1.347   0.199  0.5705  0.8859  0.7834
 4384TIP3    H234788   0.547   1.438   0.181  0.0597 -0.0171 -0.4997
 4385TIP3   OH234789   0.217   1.043   1.390  0.0829  0.8059 -0.7583
 4385TIP3    H134790   0.198   1.047   1.484  0.5210 -0.4569 -0.6066
 4385TIP3    H234791   0.132   1.026   1.349 -0.2280  2.0309 -0.6699
 4386TIP3   OH234792   1.181   1.437   7.370 -0.2429 -0.0295 -0.2931
 4386TIP3    H134793   1.266   1.457   7.332  0.1829 -0.4636  0.4201
 4386TIP3    H234794   1.118   1.481   7.313  0.2923 -1.5491 -2.1374
 4387TIP3   OH234795   0.038   1.240   1.615  0.0511  0.2174  0.1485
 4387TIP3    H134796   0.044   1.314   1.555 -3.2931  1.3908  1.0039
 4387TIP3    H234797  -0.016   1.176   1.569  0.3615 -0.3630  0.5750
 4388TIP3   OH234798   2.257   5.662   7.515  0.0510  0.2702  0.2147
 4388TIP3    H134799   2.201   5.672   7.438  0.2061  0.5004  0.1303
 4388TIP3    H234800   2.232   5.577   7.552 -1.0797  0.8268  0.7654
 4389TIP3   OH234801   2.463   0.823   2.617 -0.4614  0.3556 -0.1415
 4389TIP3    H134802   2.518   0.890   2.657 -0.0278 -0.6544  1.0133
 4389TIP3    H234803   2.395   0.805   2.682 -0.2585 -0.6955 -0.1972
 4390TIP3   OH234804   4.674   0.221   1.795 -0.1008  0.0188 -0.0002
 4390TIP3    H134805   4.614   0.158   1.833 -1.9001  1.5543 -0.1576
 4390TIP3    H234806   4.716   0.263   1.870 -0.8359  0.4145  0.2012
 4391TIP3   OH234807   5.654   1.948   0.639 -0.2867 -0.1328  0.0004
 4391TIP3    H134808   5.671   2.041   0.649 -0.2457 -0.2242  0.9537
 4391TIP3    H234809   5.614   1.939   0.553  1.5489  0.5113 -0.9696
 4392TIP3   OH234810   1.171   1.363   2.891 -0.9221 -0.1288 -0.1210
 4392TIP3    H134811   1.169   1.278   2.935  0.0307 -0.8487 -1.4206
 4392TIP3    H234812   1.087   1.369   2.846 -0.6967 -0.7107 -0.6220
 4393TIP3   OH234813   3.231   4.255   2.624  0.1328 -0.0359  0.0428
 4393TIP3    H134814   3.168   4.196   2.665  0.2296  0.7179  1.3341
 4393TIP3    H234815   3.180   4.304   2.559 -0.2718 -0.4511  0.0452
 4394TIP3   OH234816   6.422   4.282   1.236  0.7021 -0.3154  0.5767
 4394TIP3    H134817   6.484   4.351   1.213  1.8776 -0.7868  2.1193
 4394TIP3    H234818   6.477   4.206   1.258 -0.5519 -1.8552 -1.2902
 4395TIP3   OH234819   3.502   1.843   1.321 -0.2548 -0.5721  0.2089
 4395TIP3    H134820   3.543   1.848   1.234  0.7098 -2.4277  0.5032
 4395TIP3    H234821   3.569   1.877   1.380 -0.3192 -0.7516  0.3829
 4396TIP3   OH234822   1.616   6.103   0.660  0.3634 -0.2939 -0.4620
 4396TIP3    H134823   1.686   6.045   0.690 -0.0861 -0.7150 -0.2307
 4396TIP3    H234824   1.553   6.046   0.616  0.5873  0.1970 -1.4753
 4397TIP3   OH234825   6.173   4.857   2.867  0.3342  0.0293  0.0140
 4397TIP3    H134826   6.235   4.874   2.796 -0.2965  1.2827 -0.2562
 4397TIP3    H234827   6.222   4.881   2.947  1.2836 -2.0275  0.1210
 4398TIP3   OH234828   0.626   2.626   0.139 -0.4234  0.4464 -0.4401
 4398TIP3    H134829   0.636   2.655   0.230  0.0004 -0.7658 -0.0757
 4398TIP3    H234830   0.532   2.614   0.128 -0.4718  0.5312 -0.1367
 4399TIP3   OH234831   1.704   5.006   1.416 -0.5415 -0.6557 -1.0317
 4399TIP3    H134832   1.733   5.097   1.415  0.4702 -0.9310  0.4448
 4399TIP3    H234833   1.610   5.011   1.400 -0.6888  0.7398  0.0246
 4400TIP3   OH234834   0.032   2.987   2.201  0.2360 -0.5155  0.3261
 4400TIP3    H134835   0.125   2.966   2.193  0.2111 -0.5085  0.0265
 4400TIP3    H234836   0.029   3.054   2.269  0.7861  1.7712 -1.7647
 4401TIP3   OH234837   0.647   0.516   1.740 -0.2018  0.3615  0.2561
 4401TIP3    H134838   0.629   0.539   1.649 -0.5409 -0.4148  0.1225
 4401TIP3    H234839   0.651   0.601   1.785 -0.8282  0.7148 -0.3315
 4402TIP3   OH234840   1.686   5.554   1.510  0.1947  0.1239 -0.1154
 4402TIP3    H134841   1.747   5.621   1.540 -0.1261  0.6211 -0.5493
 4402TIP3    H234842   1.602   5.601   1.500 -0.5029 -0.7390  1.3813
 4403TIP3   OH234843   5.794   4.327   1.887 -0.0927  0.0551  0.0518
 4403TIP3    H134844   5.858   4.373   1.940 -1.5194  1.5577  0.5694
 4403TIP3    H234845   5.743   4.275   1.950 -0.6056  0.3943 -0.0741
 4404TIP3   OH234846   4.182   5.523   8.576  0.2468 -0.2125 -0.3051
 4404TIP3    H134847   4.227   5.452   8.530  0.0945  0.7819 -2.0647
 4404TIP3    H234848   4.089   5.505   8.562  0.1882 -0.1864  0.0569
 4405TIP3   OH234849   3.473   4.034   0.183 -0.2188 -0.4402 -0.1464
 4405TIP3    H134850   3.446   4.013   0.272 -0.0908  1.7186  0.4724
 4405TIP3    H234851   3.391   4.056   0.138 -0.2039 -0.7954 -0.3503
 4406TIP3   OH234852   2.462   3.884   8.116  0.2091 -0.5429  0.0679
 4406TIP3    H134853   2.501   3.899   8.202  0.2475 -0.1508 -0.0166
 4406TIP3    H234854   2.385   3.829   8.133 -0.6507  0.7632  0.5360
 4407TIP3   OH234855   1.653   6.742   0.579  0.0959 -0.1606 -0.1203
 4407TIP3    H134856   1.732   6.795   0.588 -0.2653  0.3750 -0.0771
 4407TIP3    H234857   1.674   6.660   0.623  0.9863 -0.4189 -0.9942
 4408TIP3   OH234858   5.005   2.795   8.184  0.0753 -0.4355  0.4741
 4408TIP3    H134859   5.052   2.850   8.122  0.2176 -0.9727  0.0917
 4408TIP3    H234860   5.016   2.837   8.268  2.8727 -1.5243  0.7517
 4409TIP3   OH234861   0.915   6.244   0.828 -0.5115 -0.4760  0.1012
 4409TIP3    H134862   0.874   6.191   0.896 -0.5962 -2.1649 -1.1837
 4409TIP3    H234863   1.006   6.215   0.827 -0.4572 -0.2971 -0.3342
 4410TIP3   OH234864   6.069   3.707   0.130  0.3974  0.0026  0.1129
 4410TIP3    H134865   6.096   3.755   0.208  0.2717 -0.5800  0.5292
 4410TIP3    H234866   5.975   3.721   0.124  0.4704  0.3926 -0.1846
 4411TIP3   OH234867   0.093   1.397   0.774  0.3892 -0.2924 -0.0460
 4411TIP3    H134868   0.131   1.349   0.700 -0.4620 -0.2633 -0.5050
 4411TIP3    H234869   0.002   1.412   0.750  0.3539  0.5949  0.5767
 4412TIP3   OH234870   1.607   4.385   8.142  0.5572 -0.6020 -0.5926
 4412TIP3    H134871   1.689   4.425   8.114  2.1025 -3.5994 -0.8126
 4412TIP3    H234872   1.572   4.342   8.064 -0.4587 -0.5824 -0.1703
 4413TIP3   OH234873   5.137   4.183   8.158  0.6511 -0.3305 -0.5023
 4413TIP3    H134874   5.128   4.103   8.209  1.5487  0.1338  0.4098
 4413TIP3    H234875   5.192   4.158   8.083  0.2166 -0.7577 -0.6855
 4414TIP3   OH234876   4.552   3.932   2.608  0.3256  0.4092  0.0817
 4414TIP3    H134877   4.578   3.897   2.693  0.3947  1.5716  0.5558
 4414TIP3    H234878   4.632   3.931   2.556  0.2460 -0.4611 -0.0392
 4415TIP3   OH234879   1.231   5.661   2.039 -0.4476 -0.4549 -0.1683
 4415TIP3    H134880   1.140   5.660   2.070 -0.1795  2.3977  1.0062
 4415TIP3    H234881   1.280   5.616   2.107 -0.9363 -1.8908 -0.7408
 4416TIP3   OH234882   4.666   2.558   1.239  0.6547 -0.3323  0.2588
 4416TIP3    H134883   4.625   2.474   1.218  0.3902 -0.8527  2.5310
 4416TIP3    H234884   4.690   2.550   1.331 -2.4778  3.2395  1.6666
 4417TIP3   OH234885   3.500   5.737   1.817  0.1503  1.0756  0.0624
 4417TIP3    H134886   3.565   5.730   1.886 -0.7071  0.4976  0.8221
 4417TIP3    H234887   3.438   5.666   1.833 -0.2010  1.0681 -1.1557
 4418TIP3   OH234888   5.509   0.736   0.433 -0.8062 -0.3178 -0.5104
 4418TIP3    H134889   5.447   0.734   0.505 -1.1469 -3.3904 -0.7559
 4418TIP3    H234890   5.568   0.809   0.453 -2.3170  0.4060  1.5753
 4419TIP3   OH234891   6.090   3.500   0.677 -0.0412 -0.9469 -0.4327
 4419TIP3    H134892   6.097   3.586   0.637 -1.1222  1.0841  3.2780
 4419TIP3    H234893   6.162   3.496   0.739 -1.6420 -1.3703  1.5198
 4420TIP3   OH234894   6.832   1.198   1.012 -0.1043  0.1402 -0.9221
 4420TIP3    H134895   6.814   1.292   1.004 -1.4599 -0.1592 -1.7208
 4420TIP3    H234896   6.764   1.156   0.958  0.6855 -1.2829 -0.8525
 4421TIP3   OH234897   4.080   1.301   0.860 -0.5288  0.1938  0.7535
 4421TIP3    H134898   4.123   1.384   0.837 -1.8726  0.3292 -1.5059
 4421TIP3    H234899   4.111   1.283   0.949  1.8404  1.7800  0.3657
 4422TIP3   OH234900   5.685   2.545   7.040  0.0037  0.7655  0.0050
 4422TIP3    H134901   5.638   2.608   7.095 -2.1121 -0.9500  0.3335
 4422TIP3    H234902   5.678   2.580   6.951 -0.2484  1.4989  0.3098
 4423TIP3   OH234903   5.162   0.113   7.673 -0.3407  0.3917  0.3390
 4423TIP3    H134904   5.183   0.021   7.659 -0.6414  0.3823 -0.0695
 4423TIP3    H234905   5.223   0.141   7.741 -0.9216 -0.3633  1.1942
 4424TIP3   OH234906   2.765   3.733   7.520  0.0565  0.3115  0.0783
 4424TIP3    H134907   2.678   3.737   7.560  1.0480 -0.4756  2.4811
 4424TIP3    H234908   2.756   3.669   7.449 -1.4094  0.5684 -0.0023
 4425TIP3   OH234909   3.290   5.385   7.622  0.4838 -0.1155  0.6766
 4425TIP3    H134910   3.380   5.360   7.642  1.6166  0.9649 -2.3967
 4425TIP3    H234911   3.258   5.315   7.566  0.2002  0.5294  0.0148
 4426TIP3   OH234912   4.334   0.102   6.894  0.2405  0.5592 -0.1719
 4426TIP3    H134913   4.253   0.139   6.859  0.7863  0.3650 -1.7475
 4426TIP3    H234914   4.398   0.173   6.886  0.4619  0.3904  0.0867
 4427TIP3   OH234915   1.514   1.705   8.147 -0.2085 -0.2861  0.3624
 4427TIP3    H134916   1.556   1.786   8.117 -1.7455 -0.2372 -1.8845
 4427TIP3    H234917   1.576   1.636   8.122  0.0656  0.0311  0.1493
 4428TIP3   OH234918   6.639   4.934   2.781 -0.6680  0.1930  0.0839
 4428TIP3    H134919   6.607   4.987   2.854 -0.3061 -1.5867  1.6099
 4428TIP3    H234920   6.719   4.894   2.814  0.1561  0.2481 -1.7337
 4429TIP3   OH234921   6.594   5.985   1.431  0.1841 -0.0858  0.1345
 4429TIP3    H134922   6.605   5.901   1.476 -1.9906 -1.3647 -1.5113
 4429TIP3    H234923   6.505   6.012   1.453  0.3040  0.9740 -0.6443
 4430TIP3   OH234924   4.699   3.869   8.392 -0.5445  0.1527  0.1049
 4430TIP3    H134925   4.774   3.915   8.354 -0.3918 -0.1644  0.0141
 4430TIP3    H234926   4.730   3.836   8.476 -0.3653 -0.5547 -0.2281
 4431TIP3   OH234927   3.035   5.109   7.104  0.0434 -0.3522  0.0798
 4431TIP3    H134928   3.040   5.014   7.091  1.5557 -0.5909  2.0415
 4431TIP3    H234929   2.944   5.125   7.129 -0.3147 -1.2159 -0.6124
 4432TIP3   OH234930   6.726   5.031   0.025 -0.0698 -0.4288 -0.5050
 4432TIP3    H134931   6.759   4.942   0.009 -0.0474 -0.4719 -0.2259
 4432TIP3    H234932   6.632   5.019   0.039 -0.2331 -0.2878 -1.4446
 4433TIP3   OH234933   0.178   2.293   1.938 -0.3587 -0.1111 -0.6795
 4433TIP3    H134934   0.156   2.227   1.871 -0.9195 -1.9373  1.1980
 4433TIP3    H234935   0.273   2.285   1.948 -0.5775 -1.6706  0.4861
 4434TIP3   OH234936   1.178   3.613   8.643  0.4643  0.1719  0.2100
 4434TIP3    H134937   1.110   3.569   8.693 -0.0708  0.2307 -0.4493
 4434TIP3    H234938   1.159   3.707   8.652 -0.4882  0.1527 -1.2296
 4435TIP3   OH234939   3.913   5.340   3.036 -0.1922 -0.5484 -0.6441
 4435TIP3    H134940   3.946   5.315   3.122 -0.1857 -1.8722 -1.0121
 4435TIP3    H234941   3.882   5.258   2.997 -0.4302  0.0695 -1.7986
 4436TIP3   OH234942   0.601   3.593   0.071  0.5996 -0.2793  0.0071
 4436TIP3    H134943   0.620   3.556  -0.016 -1.1738 -0.5743 -0.2885
 4436TIP3    H234944   0.539   3.531   0.110  0.5075  0.4399  1.0379
 4437TIP3   OH234945   1.308   1.189   0.360 -0.2654  0.3542 -0.0393
 4437TIP3    H134946   1.309   1.167   0.267  1.2973 -0.1043  0.0634
 4437TIP3    H234947   1.386   1.243   0.373 -0.8874  1.0669  0.8659
 4438TIP3   OH234948   0.710   3.003   2.489 -0.4932 -0.3740  0.4850
 4438TIP3    H134949   0.652   3.079   2.485  1.3300  1.2121  2.2689
 4438TIP3    H234950   0.695   2.966   2.576  0.0529 -0.8640  0.3734
 4439TIP3   OH234951   3.158   1.711   1.649  0.1335 -0.3796 -0.2655
 4439TIP3    H134952   3.217   1.756   1.710  0.6332  0.1400 -1.1038
 4439TIP3    H234953   3.168   1.760   1.567  1.1596 -2.3662 -1.4043
 4440TIP3   OH234954   0.665   1.719   7.054 -0.5094 -0.8288 -0.1429
 4440TIP3    H134955   0.637   1.788   7.114  1.2451 -1.0629  1.0244
 4440TIP3    H234956   0.686   1.645   7.111 -1.1505 -1.9258 -1.2707
 4441TIP3   OH234957   6.723   2.751   1.008  0.1887 -0.1761  0.1081
 4441TIP3    H134958   6.804   2.786   0.972 -0.3048 -0.1941 -1.0707
 4441TIP3    H234959   6.670   2.829   1.029  0.4502 -0.1669  0.7514
 4442TIP3   OH234960   4.757   2.092   0.365 -0.1451 -0.3525  0.7021
 4442TIP3    H134961   4.696   2.019   0.369 -0.2249 -0.5542 -2.0528
 4442TIP3    H234962   4.729   2.142   0.289  0.3094  2.2404  2.1407
 4443TIP3   OH234963   0.736   2.073   1.256  0.2489 -0.2932 -0.8378
 4443TIP3    H134964   0.760   2.164   1.274 -1.3984 -0.0832  0.4722
 4443TIP3    H234965   0.725   2.070   1.161 -0.8845  1.2343 -0.8016
 4444TIP3   OH234966   4.309   2.672   0.999  0.6055  1.2669 -0.2845
 4444TIP3    H134967   4.267   2.755   1.019  0.1352  1.0320 -0.3036
 4444TIP3    H234968   4.379   2.695   0.937  0.6172  1.6737 -0.1213
 4445TIP3   OH234969   0.941   2.591   2.860  0.1084 -0.3619  0.4924
 4445TIP3    H134970   0.986   2.668   2.895 -0.3257  0.2843 -0.3461
 4445TIP3    H234971   0.849   2.607   2.878  0.0614 -0.9226  0.7562
 4446TIP3   OH234972   0.242   0.016   1.412 -0.6016  0.8147  0.7768
 4446TIP3    H134973   0.208   0.045   1.497 -2.0015  1.2080  0.1203
 4446TIP3    H234974   0.165  -0.019   1.366  0.0210  1.0989 -0.5325
 4447TIP3   OH234975   5.493   4.785   0.305 -0.5329  0.1450 -0.0602
 4447TIP3    H134976   5.580   4.817   0.327 -0.5806  2.0026 -2.2520
 4447TIP3    H234977   5.447   4.782   0.389  1.8095 -1.6597  1.2623
 4448TIP3   OH234978   2.359   4.936   8.591 -0.2607 -0.5462  0.5949
 4448TIP3    H134979   2.318   4.856   8.625  0.5067 -0.0035  2.9874
 4448TIP3    H234980   2.428   4.905   8.533 -0.8684 -1.5776  0.3996
 4449TIP3   OH234981   5.519   0.885   0.039  0.1538 -0.1484  0.4909
 4449TIP3    H134982   5.539   0.793   0.021  0.0566 -0.1804  0.5467
 4449TIP3    H234983   5.453   0.883   0.109  0.5043 -0.0277  0.8316
 4450TIP3   OH234984   1.474   0.004   8.345  0.7792  0.2549  0.4585
 4450TIP3    H134985   1.448   0.036   8.258 -0.1078 -1.8854 -0.1233
 4450TIP3    H234986   1.398   0.018   8.400  0.7335  0.0210  0.4539
 4451TIP3   OH234987   0.660   0.928   2.377  0.4674  0.4837 -0.5765
 4451TIP3    H134988   0.690   1.015   2.351 -0.2512  0.9778  0.2017
 4451TIP3    H234989   0.720   0.903   2.448  1.0646  0.0594 -1.2098
 4452TIP3   OH234990   5.150   3.714   1.925  0.1434  0.8477  0.6030
 4452TIP3    H134991   5.091   3.781   1.891  0.8903  0.4033 -1.7710
 4452TIP3    H234992   5.121   3.633   1.883  1.4605  0.3530  0.5905
 4453TIP3   OH234993   2.686   0.762   0.322  0.1369 -0.1316  0.2081
 4453TIP3    H134994   2.662   0.826   0.255  0.9335  2.0254  1.8873
 4453TIP3    H234995   2.754   0.805   0.373 -0.0896 -1.8964  2.1048
 4454TIP3   OH234996   3.224   0.931   8.071 -0.2028 -0.1184 -0.4627
 4454TIP3    H134997   3.286   0.872   8.028 -0.3366 -1.9462  1.6795
 4454TIP3    H234998   3.279   0.998   8.112  0.0946  0.1346 -1.2615
 4455TIP3   OH234999   0.320   5.724   1.457  0.4031 -0.3507 -0.0300
 4455TIP3    H135000   0.300   5.646   1.507  2.1725 -0.3769  0.7069
 4455TIP3    H235001   0.414   5.717   1.438  0.8303  2.0131  0.8616
 4456TIP3   OH235002   5.307   3.025   2.413 -0.1524  0.0247 -0.3843
 4456TIP3    H135003   5.286   2.965   2.341 -2.4996  2.0049 -1.5146
 4456TIP3    H235004   5.327   2.968   2.487  0.4928 -2.1004 -2.0769
 4457TIP3   OH235005   2.662   3.802   0.462  0.2169  0.6283 -0.0047
 4457TIP3    H135006   2.584   3.781   0.512  1.2961 -0.6621  1.2012
 4457TIP3    H235007   2.670   3.731   0.399  1.4592 -0.3155  1.1704
 4458TIP3   OH235008   2.648   0.112   7.275 -0.6154 -0.0027 -0.2072
 4458TIP3    H135009   2.704   0.190   7.275  0.5473 -0.6852  2.5512
 4458TIP3    H235010   2.619   0.105   7.366 -1.8254 -2.0214 -0.6996
 4459TIP3   OH235011   6.205   2.108   7.213 -0.7601  0.2054  0.1063
 4459TIP3    H135012   6.168   2.031   7.170 -2.8129  1.8035 -1.1099
 4459TIP3    H235013   6.239   2.163   7.142  1.4212  0.1566  1.0055
 4460TIP3   OH235014   0.105   5.363   1.171 -0.0602 -0.4734  0.4208
 4460TIP3    H135015   0.090   5.385   1.079 -0.9758 -0.7336  0.4986
 4460TIP3    H235016   0.084   5.270   1.177 -1.7141 -0.0932  1.2192
 4461TIP3   OH235017   4.625   4.581   2.886 -0.4886  0.1815  0.4113
 4461TIP3    H135018   4.624   4.624   2.801  1.3266 -1.3515 -0.4669
 4461TIP3    H235019   4.607   4.489   2.866 -1.0565 -0.0435  1.8303
 4462TIP3   OH235020   5.071   6.011   8.539  0.4006  0.1694  0.3999
 4462TIP3    H135021   5.039   5.971   8.619  0.1055  0.7420  0.5774
 4462TIP3    H235022   4.997   6.006   8.478  0.1546  0.9679  0.6189
 4463TIP3   OH235023   2.368   1.979   1.978  0.0904 -0.4178 -0.2955
 4463TIP3    H135024   2.350   2.051   1.918 -1.3103 -2.0467 -1.9502
 4463TIP3    H235025   2.314   1.998   2.056 -1.6651 -0.5120 -1.4324
 4464TIP3   OH235026   6.661   3.089   7.059 -0.2286  0.2026 -0.1677
 4464TIP3    H135027   6.640   3.157   7.123 -0.6967  0.7034 -0.8386
 4464TIP3    H235028   6.702   3.137   6.986  1.1121 -0.4643  0.1157
 4465TIP3   OH235029   1.310   0.340   2.139  0.0143 -0.0967  0.3139
 4465TIP3    H135030   1.388   0.390   2.161 -0.1038  0.5138 -0.6262
 4465TIP3    H235031   1.292   0.288   2.218  1.1803 -0.0186  0.6466
 4466TIP3   OH235032   5.268   2.532   8.568 -0.2030  0.3636 -0.0923
 4466TIP3    H135033   5.283   2.617   8.527 -0.8375 -0.1818 -1.5198
 4466TIP3    H235034   5.311   2.539   8.654 -0.1016  2.0481 -0.2411
 4467TIP3   OH235035   6.827   5.785   1.335 -0.5178  0.0532 -0.1383
 4467TIP3    H135036   6.771   5.716   1.370  0.2926 -0.4333  0.2159
 4467TIP3    H235037   6.773   5.829   1.270 -1.3005 -0.4247  0.1778
 4468TIP3   OH235038   5.969   1.672   1.044  0.3080  0.3467  0.1755
 4468TIP3    H135039   5.962   1.763   1.016 -1.6102  0.3447  0.5260
 4468TIP3    H235040   5.933   1.671   1.133 -1.5664 -1.0350 -0.5211
 4469TIP3   OH235041   4.046   3.396   7.818  0.1903 -0.6387 -0.7119
 4469TIP3    H135042   4.031   3.481   7.777  1.4619 -0.1248 -0.1480
 4469TIP3    H235043   4.126   3.407   7.868 -0.0020 -1.9753 -0.0651
 4470TIP3   OH235044   5.451   0.940   8.447 -0.1272 -0.0580 -0.4079
 4470TIP3    H135045   5.501   0.936   8.529 -0.8444  1.8086  0.1917
 4470TIP3    H235046   5.380   0.878   8.459 -1.1550  1.3129  1.1331
 4471TIP3   OH235047   1.611   4.232   1.138 -0.0973 -0.4435 -0.2420
 4471TIP3    H135048   1.698   4.252   1.174 -0.2509  0.3369 -0.2933
 4471TIP3    H235049   1.626   4.225   1.044 -0.1659  0.1859 -0.3082
 4472TIP3   OH235050   6.781   1.089   8.307 -0.1312 -0.3621  0.5992
 4472TIP3    H135051   6.829   1.010   8.331  1.4462 -0.0230 -1.2354
 4472TIP3    H235052   6.826   1.160   8.355 -0.7432 -0.3890  1.2382
 4473TIP3   OH235053   2.339   2.277   1.408  0.2411  0.5436 -0.4377
 4473TIP3    H135054   2.304   2.345   1.350 -3.5474  0.1112  1.0405
 4473TIP3    H235055   2.320   2.195   1.362 -2.0182  0.2452  0.8983
 4474TIP3   OH235056   4.093   6.642   0.667  0.0385 -0.3333  0.0169
 4474TIP3    H135057   3.998   6.635   0.669  0.0742 -1.1183 -0.6637
 4474TIP3    H235058   4.124   6.571   0.723  0.2256  0.1433  0.5305
 4475TIP3   OH235059   3.836   4.056   1.596  0.7286  0.0800 -0.1804
 4475TIP3    H135060   3.811   4.141   1.632  0.6440  0.2666 -0.6761
 4475TIP3    H235061   3.886   4.076   1.517  1.5856 -0.3114  0.2481
 4476TIP3   OH235062   3.569   1.908   2.291  0.0571 -0.6178 -0.5978
 4476TIP3    H135063   3.540   1.999   2.292 -0.5749 -0.8051 -1.0957
 4476TIP3    H235064   3.632   1.904   2.219  0.6676 -0.4036 -0.0768
 4477TIP3   OH235065   3.037   3.116   8.414 -0.1759  0.0256 -0.7889
 4477TIP3    H135066   2.951   3.126   8.455  1.1829  1.5514  1.9538
 4477TIP3    H235067   3.046   3.021   8.402 -2.6242 -0.1193 -2.2494
 4478TIP3   OH235068   0.143   2.380   7.525 -0.5674 -0.0930 -0.5015
 4478TIP3    H135069   0.216   2.352   7.580 -0.5509  0.1982 -0.3750
 4478TIP3    H235070   0.106   2.455   7.570 -1.2954 -0.5731 -0.2791
 4479TIP3   OH235071   1.572   6.298   1.189  0.7837  0.2534 -0.0789
 4479TIP3    H135072   1.630   6.258   1.124  2.0765  2.2789 -0.2604
 4479TIP3    H235073   1.630   6.335   1.255 -0.4408 -0.1266  1.2651
 4480TIP3   OH235074   6.589   4.939   1.104 -0.3144 -0.0125 -0.0559
 4480TIP3    H135075   6.533   5.009   1.136 -0.1122  0.8933 -1.5728
 4480TIP3    H235076   6.590   4.874   1.175 -0.1327  1.6995  1.5834
 4481TIP3   OH235077   1.522   0.336   0.604  0.1616  0.5410  0.1151
 4481TIP3    H135078   1.605   0.332   0.652  1.2887 -0.7077 -1.8071
 4481TIP3    H235079   1.530   0.268   0.537 -1.3475  2.1777 -1.8214
 4482TIP3   OH235080   5.439   0.493   2.111 -0.0162  0.5805 -0.3543
 4482TIP3    H135081   5.443   0.410   2.065  3.5855  1.5624 -2.1872
 4482TIP3    H235082   5.348   0.521   2.103 -0.8980 -2.2511 -1.3068
 4483TIP3   OH235083   4.942   1.466   2.614 -0.0527 -0.2514 -0.2238
 4483TIP3    H135084   4.950   1.411   2.692  4.1657  0.5337  0.1524
 4483TIP3    H235085   4.920   1.553   2.647  0.1041 -0.2665 -0.0807
 4484TIP3   OH235086   5.224   6.845   1.797 -0.1826 -0.0216  0.0050
 4484TIP3    H135087   5.279   6.771   1.824 -1.3187 -0.3758  1.5566
 4484TIP3    H235088   5.137   6.807   1.786 -0.7647  1.0533  0.6996
 4485TIP3   OH235089   2.142   4.580   1.458  0.4739 -0.2250 -0.1320
 4485TIP3    H135090   2.158   4.642   1.529 -0.0241 -1.8114  1.4413
 4485TIP3    H235091   2.066   4.529   1.487  0.5974 -1.2841 -1.5569
 4486TIP3   OH235092   3.750   0.849   1.717 -0.2775 -0.2685 -0.4475
 4486TIP3    H135093   3.734   0.755   1.713  2.6155 -0.9810  1.4211
 4486TIP3    H235094   3.777   0.873   1.628 -0.5908 -1.2788 -0.8298
 4487TIP3   OH235095   0.205   4.399   0.845  0.1650  0.4298  0.2389
 4487TIP3    H135096   0.297   4.377   0.833  0.2006 -0.2553  1.6320
 4487TIP3    H235097   0.193   4.479   0.793  1.3674  0.1722 -0.4862
 4488TIP3   OH235098   0.558   4.209   0.368  0.0625  0.2128 -0.1927
 4488TIP3    H135099   0.512   4.125   0.369 -0.0266  0.2441 -1.0362
 4488TIP3    H235100   0.503   4.266   0.314 -0.1705  0.9876  0.8342
 4489TIP3   OH235101   2.955   3.826   2.846  0.2129  0.4561 -0.5333
 4489TIP3    H135102   2.971   3.763   2.776  4.6866  1.2943 -0.5929
 4489TIP3    H235103   3.028   3.813   2.907 -1.6104  2.0757  2.2155
 4490TIP3   OH235104   1.809   3.773   0.323  0.5784 -0.3377  0.0656
 4490TIP3    H135105   1.764   3.693   0.296  0.9051 -0.5173  0.0450
 4490TIP3    H235106   1.764   3.801   0.403  0.0618 -0.1932 -0.2747
 4491TIP3   OH235107   0.942   5.169   8.001 -0.2666 -0.2097 -0.8829
 4491TIP3    H135108   0.911   5.189   7.912 -1.6379 -0.7875 -0.5592
 4491TIP3    H235109   0.869   5.195   8.058 -0.2347 -1.7612 -0.0903
 4492TIP3   OH235110   4.515   4.807   1.283  0.2522 -0.0969 -0.6643
 4492TIP3    H135111   4.428   4.774   1.302  0.0002 -0.1840 -1.8895
 4492TIP3    H235112   4.558   4.812   1.369 -0.5998 -1.0301 -0.1597
 4493TIP3   OH235113   5.591   6.371   7.292  0.2219  0.5677 -0.2516
 4493TIP3    H135114   5.522   6.438   7.293  1.1292  1.5658 -1.6022
 4493TIP3    H235115   5.671   6.419   7.276  0.9251 -0.8367 -1.1751
 4494TIP3   OH235116   1.695   4.475   2.412 -0.2528  0.1396 -0.4014
 4494TIP3    H135117   1.653   4.541   2.467 -1.2006  0.5046 -1.5160
 4494TIP3    H235118   1.709   4.519   2.329  1.5287 -0.2761 -0.3465
 4495TIP3   OH235119   5.838   3.139   2.686  0.2505 -0.5142  0.6380
 4495TIP3    H135120   5.748   3.171   2.679  0.9032  1.1250 -1.6166
 4495TIP3    H235121   5.891   3.219   2.692  1.6362 -1.3851  0.3551
 4496TIP3   OH235122   4.464   2.972   1.641 -0.7984  0.1727 -1.2117
 4496TIP3    H135123   4.556   2.964   1.667 -1.1741  0.0678  0.1461
 4496TIP3    H235124   4.418   2.998   1.721 -1.8135  1.2298 -2.1026
 4497TIP3   OH235125   2.122   4.694   8.367  0.3900 -0.3398  0.8055
 4497TIP3    H135126   2.172   4.696   8.285 -0.7944  0.0133  0.0635
 4497TIP3    H235127   2.188   4.703   8.435  1.3230  0.3254 -0.1455
 4498TIP3   OH235128   4.218   0.977   0.316  0.4600  0.1095 -0.6502
 4498TIP3    H135129   4.252   0.996   0.229  1.0667  0.5623 -0.3196
 4498TIP3    H235130   4.281   0.914   0.353 -0.0848 -0.5011 -0.7314
 4499TIP3   OH235131   2.429   1.747   0.068  0.2839  0.2331  0.2446
 4499TIP3    H135132   2.472   1.722  -0.014 -4.0042 -0.3851 -2.1209
 4499TIP3    H235133   2.466   1.833   0.088  1.9943  0.1150 -1.9154
 4500TIP3   OH235134   1.948   3.891   2.401  0.0180  0.2004 -0.6202
 4500TIP3    H135135   1.884   3.864   2.336  0.0519  0.7198 -0.8682
 4500TIP3    H235136   1.953   3.986   2.394  1.4697  0.1171 -1.2439
 4501TIP3   OH235137   4.112   5.401   2.375  0.4490  0.5851  0.5365
 4501TIP3    H135138   4.026   5.390   2.416  1.1488 -0.2751  1.8475
 4501TIP3    H235139   4.123   5.495   2.366 -0.5429  0.7059  0.5553
 4502TIP3   OH235140   2.882   4.076   0.022 -0.3638  0.1609  0.8401
 4502TIP3    H135141   2.895   3.982   0.014 -0.1168  0.2591 -0.0981
 4502TIP3    H235142   2.794   4.092  -0.013 -1.0173  0.1123  2.4008
 4503TIP3   OH235143   2.752   4.377   8.651 -0.7239 -0.0509 -0.1632
 4503TIP3    H135144   2.835   4.335   8.630 -0.7753 -0.4222  0.3432
 4503TIP3    H235145   2.738   4.441   8.581  0.5278  0.8162  0.3519
 4504TIP3   OH235146   3.836   5.607   2.875 -0.0719  0.5274  0.1124
 4504TIP3    H135147   3.811   5.568   2.959  1.6935 -0.5109  0.2223
 4504TIP3    H235148   3.932   5.598   2.873  0.2419  3.2550 -0.7019
 4505TIP3   OH235149   6.116   5.521   2.196  0.0388  0.7651  0.2265
 4505TIP3    H135150   6.170   5.443   2.190 -0.8871  0.0732  0.5899
 4505TIP3    H235151   6.150   5.568   2.272 -0.3617 -0.0757  0.9498
 4506TIP3   OH235152   4.694   1.570   0.670 -0.8020 -0.6406 -0.2025
 4506TIP3    H135153   4.652   1.487   0.644  0.2936 -1.1118 -0.5421
 4506TIP3    H235154   4.664   1.633   0.604 -0.2905 -1.1736 -0.9701
 4507TIP3   OH235155   3.922   3.878   7.121  0.0102 -0.0729  0.1900
 4507TIP3    H135156   3.844   3.841   7.080 -0.3853  2.3542 -1.5012
 4507TIP3    H235157   3.962   3.805   7.168 -1.4001 -2.2448 -1.7402
 4508TIP3   OH235158   0.925   3.513   0.026  0.0884 -0.0624 -1.1574
 4508TIP3    H135159   0.868   3.504   0.103  0.2680 -1.7657 -1.1920
 4508TIP3    H235160   0.895   3.593  -0.017 -1.7912 -0.5217 -0.7642
 4509TIP3   OH235161   1.933   2.260   3.258  0.2645 -0.1294  0.0033
 4509TIP3    H135162   1.997   2.213   3.312 -0.8802 -1.4111  0.3247
 4509TIP3    H235163   1.904   2.195   3.194  2.0764  1.5326 -2.6827
 4510TIP3   OH235164   0.052   0.738   2.345 -0.2085 -0.1025  0.2302
 4510TIP3    H135165  -0.039   0.764   2.357 -0.3605 -0.5254  0.0112
 4510TIP3    H235166   0.056   0.647   2.375 -0.0946 -0.4225 -0.6959
 4511TIP3   OH235167   2.332   0.869   1.365 -0.3793  0.4814 -0.0216
 4511TIP3    H135168   2.401   0.878   1.430 -1.2219  2.4760  0.6582
 4511TIP3    H235169   2.349   0.937   1.301 -0.7918 -0.0713 -0.7348
 4512TIP3   OH235170   4.553   6.430   8.499  0.2414  0.3245 -0.0297
 4512TIP3    H135171   4.501   6.375   8.558  0.6904 -0.5478 -0.4340
 4512TIP3    H235172   4.555   6.515   8.543 -0.7232  0.1206  0.4552
 4513TIP3   OH235173   4.352   5.150   1.454  0.0850  0.0577  0.5416
 4513TIP3    H135174   4.343   5.152   1.359  2.9685  0.2102  0.1887
 4513TIP3    H235175   4.294   5.220   1.486  0.5979  1.3692 -1.2722
 4514TIP3   OH235176   4.198   5.570   0.842  0.7790 -0.2284 -0.7301
 4514TIP3    H135177   4.105   5.581   0.859  0.8180 -0.8004 -0.0930
 4514TIP3    H235178   4.241   5.633   0.900  0.8703 -1.5464  0.7148
 4515TIP3   OH235179   0.139   2.556   1.814  0.4805 -0.0958 -0.2432
 4515TIP3    H135180   0.135   2.472   1.859  0.9874 -0.4546 -0.8480
 4515TIP3    H235181   0.205   2.543   1.746  0.3875  0.7184 -0.4946
 4516TIP3   OH235182   4.867   3.490   7.061  0.5066 -0.7595  0.2834
 4516TIP3    H135183   4.925   3.525   6.993  1.1779 -1.7285  0.3471
 4516TIP3    H235184   4.920   3.491   7.141  0.0103 -0.4703  0.6168
 4517TIP3   OH235185   1.215   5.937   1.216 -0.1133 -0.4299 -0.1560
 4517TIP3    H135186   1.211   5.879   1.140 -0.2711 -1.8935  0.9239
 4517TIP3    H235187   1.309   5.950   1.231  0.0352 -2.4293  1.0166
 4518TIP3   OH235188   6.548   6.283   7.182  0.4079 -0.0850 -0.4270
 4518TIP3    H135189   6.564   6.197   7.144  0.4723 -0.0749 -0.4218
 4518TIP3    H235190   6.602   6.286   7.261 -0.3256 -0.4129  0.1012
 4519TIP3   OH235191   4.226   3.600   2.132 -0.6802  0.1875  0.6281
 4519TIP3    H135192   4.312   3.637   2.109 -1.1300  0.7620 -0.1428
 4519TIP3    H235193   4.235   3.577   2.225  0.4430 -0.1394  0.4549
 4520TIP3   OH235194   5.009   1.545   1.091  0.5325  0.0803 -0.3485
 4520TIP3    H135195   4.995   1.633   1.055  0.9967 -0.1886 -1.2110
 4520TIP3    H235196   5.065   1.558   1.167 -0.4716  0.6622  0.3144
 4521TIP3   OH235197   4.847   1.164   0.813 -0.1359 -0.3733 -0.4494
 4521TIP3    H135198   4.856   1.101   0.885  0.6636  2.2789  1.9514
 4521TIP3    H235199   4.937   1.183   0.787 -0.3603  0.0119 -0.9500
 4522TIP3   OH235200   1.474   1.380   7.878 -0.2747  0.4751 -0.2400
 4522TIP3    H135201   1.462   1.426   7.795  0.2634  0.9799 -0.0480
 4522TIP3    H235202   1.405   1.415   7.935 -0.2837  0.5537 -0.2984
 4523TIP3   OH235203   3.838   1.235   1.642  0.0742  0.5335 -0.2495
 4523TIP3    H135204   3.897   1.306   1.666 -1.3360  1.5602  0.3307
 4523TIP3    H235205   3.866   1.160   1.695 -0.3886  1.5765  1.5297
 4524TIP3   OH235206   3.389   5.570   7.373 -0.7313  0.0382  1.0125
 4524TIP3    H135207   3.461   5.586   7.434  0.4432 -0.9365 -0.0624
 4524TIP3    H235208   3.386   5.649   7.319  0.4606 -0.4439  0.1912
 4525TIP3   OH235209   4.925   1.592   8.413 -0.3339 -0.4187 -0.5919
 4525TIP3    H135210   4.962   1.670   8.371 -0.6343 -0.5173 -1.0491
 4525TIP3    H235211   4.860   1.560   8.350 -0.1794 -1.0655 -0.4209
 4526TIP3   OH235212   2.517   1.776   1.885  0.3088  0.7631 -0.1794
 4526TIP3    H135213   2.467   1.698   1.863  1.4717 -0.4095  1.1690
 4526TIP3    H235214   2.453   1.838   1.918 -0.8092  0.8849 -2.3748
 4527TIP3   OH235215   1.155   1.796   7.777  0.1926  0.7374  0.4720
 4527TIP3    H135216   1.187   1.783   7.688 -0.6353 -1.0495  0.4019
 4527TIP3    H235217   1.132   1.709   7.808 -1.1484  1.5141  1.8261
 4528TIP3   OH235218   0.292   5.882   1.907  0.3953  0.0171 -0.0643
 4528TIP3    H135219   0.206   5.904   1.871  0.1920  0.1655  0.5182
 4528TIP3    H235220   0.351   5.889   1.831  0.1083  1.1670 -0.2000
 4529TIP3   OH235221   0.634   5.573   3.048 -0.4543  0.0856 -0.3593
 4529TIP3    H135222   0.541   5.590   3.061 -0.0999  0.2867  2.7067
 4529TIP3    H235223   0.678   5.623   3.117  2.0165  0.5157 -2.1021
 4530TIP3   OH235224   3.359   0.479   0.591  0.4409 -0.2568  0.2138
 4530TIP3    H135225   3.372   0.555   0.534 -0.3112  1.0030  1.6557
 4530TIP3    H235226   3.401   0.504   0.674  2.0893 -2.2983  0.0796
 4531TIP3   OH235227   0.945   4.247   7.150  0.0282  0.0581  0.3576
 4531TIP3    H135228   0.932   4.309   7.078 -0.2877 -0.8336 -0.3658
 4531TIP3    H235229   0.858   4.216   7.172  0.4118 -2.9358 -1.8296
 4532TIP3   OH235230   4.140   0.730   6.844  0.2184  0.1151 -0.6760
 4532TIP3    H135231   4.098   0.756   6.926  0.2324  2.0516 -1.2303
 4532TIP3    H235232   4.068   0.702   6.788  0.0105  0.4364 -0.5743
 4533TIP3   OH235233   6.853   0.277   2.772  0.6936  0.4996 -0.2580
 4533TIP3    H135234   6.911   0.312   2.704 -1.8253  0.2102 -2.7507
 4533TIP3    H235235   6.807   0.205   2.729 -1.3704  0.5843  1.6269
 4534TIP3   OH235236   4.912   3.583   0.235  0.3915 -0.0674 -0.7701
 4534TIP3    H135237   4.881   3.497   0.207 -1.8499  0.8471 -1.3624
 4534TIP3    H235238   4.887   3.642   0.163  0.6220  1.2819  0.2116
 4535TIP3   OH235239   0.706   2.706   2.201 -0.4107  0.0427  0.1830
 4535TIP3    H135240   0.644   2.657   2.147  0.5416 -0.7374 -0.2285
 4535TIP3    H235241   0.711   2.656   2.283 -1.0647  0.6562  0.6149
 4536TIP3   OH235242   2.658   1.770   0.993 -0.2565 -0.3224  0.3290
 4536TIP3    H135243   2.701   1.735   0.916 -0.6561  0.3087 -0.1964
 4536TIP3    H235244   2.715   1.842   1.022 -1.9557  2.0362 -1.7020
 4537TIP3   OH235245   0.405   6.155   7.662 -0.3884 -0.8520 -0.2626
 4537TIP3    H135246   0.473   6.099   7.625 -1.4532 -2.0598 -0.4899
 4537TIP3    H235247   0.330   6.144   7.602 -1.1275 -0.3860  0.5486
 4538TIP3   OH235248   5.152   5.476   0.519  0.6604  0.2275  0.6539
 4538TIP3    H135249   5.221   5.410   0.513  0.3665  0.0589 -1.6706
 4538TIP3    H235250   5.076   5.428   0.551  0.4819 -0.5733 -0.8960
 4539TIP3   OH235251   3.831   0.351   0.811 -0.0322 -0.9219 -0.0985
 4539TIP3    H135252   3.880   0.296   0.750  1.6098  1.9313 -1.5500
 4539TIP3    H235253   3.897   0.385   0.871 -0.9549 -0.3358  0.6208
 4540TIP3   OH235254   5.290   6.170   0.616  0.3234  0.9009 -0.2919
 4540TIP3    H135255   5.377   6.184   0.654  0.2617  0.0900  0.1733
 4540TIP3    H235256   5.307   6.119   0.537  0.3284  1.3890 -0.6116
 4541TIP3   OH235257   6.587   3.952   0.424 -0.2930  0.4251  0.3526
 4541TIP3    H135258   6.638   4.025   0.390  0.2508 -0.6411 -1.2643
 4541TIP3    H235259   6.653   3.891   0.459 -0.7270  0.5996  1.5432
 4542TIP3   OH235260   1.651   4.431   2.847 -0.0179 -0.6574  0.6331
 4542TIP3    H135261   1.664   4.526   2.844  0.5573 -0.7322  0.6462
 4542TIP3    H235262   1.685   4.405   2.932 -1.4154 -0.7005  1.1917
 4543TIP3   OH235263   5.335   4.901   8.224  0.0819 -0.1530 -0.5104
 4543TIP3    H135264   5.266   4.952   8.267 -1.1043 -2.1521  0.1008
 4543TIP3    H235265   5.289   4.847   8.161  1.4258  0.2156 -1.8770
 4544TIP3   OH235266   4.984   5.934   0.356  0.3010 -0.2551  0.4217
 4544TIP3    H135267   5.070   5.903   0.328  1.8384  2.0273  2.2695
 4544TIP3    H235268   4.979   5.910   0.448 -0.5746  0.5665  0.6035
 4545TIP3   OH235269   3.700   6.658   1.762  0.2937  0.3646 -0.6923
 4545TIP3    H135270   3.759   6.606   1.708 -0.1684  0.3595 -1.1937
 4545TIP3    H235271   3.758   6.719   1.809  0.7824 -0.2625 -0.4755
 4546TIP3   OH235272   3.427   1.800   2.518  0.1646 -0.1811  0.3111
 4546TIP3    H135273   3.413   1.838   2.604 -1.8258 -0.4995  0.1637
 4546TIP3    H235274   3.491   1.858   2.477 -1.1803  1.8139  0.8782
 4547TIP3   OH235275   3.113   0.032   7.056 -0.1874 -0.0945  0.7417
 4547TIP3    H135276   3.018   0.015   7.058  0.0685 -1.6125  1.0024
 4547TIP3    H235277   3.151  -0.052   7.030  0.9614  1.0931 -1.6169
 4548TIP3   OH235278   0.133   1.298   8.088 -0.5922  0.7645  0.0465
 4548TIP3    H135279   0.089   1.265   8.009  0.4758  0.8568 -0.6014
 4548TIP3    H235280   0.186   1.225   8.119 -0.6435  0.8795  0.4120
 4549TIP3   OH235281   3.994   2.331   1.885  0.0895  0.6887  0.1404
 4549TIP3    H135282   3.946   2.385   1.821 -0.5498  1.6264  1.3781
 4549TIP3    H235283   4.086   2.354   1.870  0.0085  0.4609 -0.8204
 4550TIP3   OH235284   0.740   3.491   2.703  0.2831 -0.1520 -0.4094
 4550TIP3    H135285   0.671   3.445   2.751 -0.1908  0.5741 -0.3824
 4550TIP3    H235286   0.821   3.452   2.735  0.0345  0.8490  1.6109
 4551TIP3   OH235287   0.026   3.909   7.435  0.3351 -0.6647  0.7199
 4551TIP3    H135288  -0.032   3.853   7.487 -0.3503 -0.8315 -0.1838
 4551TIP3    H235289   0.020   3.872   7.346 -0.9899  1.4545 -0.1521
 4552TIP3   OH235290   0.297   4.851   3.118 -0.1652 -0.3232  0.2275
 4552TIP3    H135291   0.376   4.867   3.170  0.3848 -0.5013 -0.5286
 4552TIP3    H235292   0.268   4.939   3.092  0.4729 -0.3031 -0.4703
 4553TIP3   OH235293   0.641   1.794   1.081  1.0040  0.1361 -0.4571
 4553TIP3    H135294   0.557   1.838   1.094  1.8356  1.6864 -0.0959
 4553TIP3    H235295   0.620   1.717   1.029 -1.1246 -1.2482  2.1692
 4554TIP3   OH235296   2.985   6.694   8.070  0.7647 -0.1023  0.2013
 4554TIP3    H135297   2.911   6.647   8.030 -0.0190  1.1348  0.1615
 4554TIP3    H235298   3.053   6.692   8.003  0.2817 -0.0555 -0.2980
 4555TIP3   OH235299   1.180   5.540   7.580  0.3825  0.6364  0.0369
 4555TIP3    H135300   1.163   5.634   7.584  0.7240  0.8158 -1.9504
 4555TIP3    H235301   1.197   5.522   7.488 -0.2522 -1.4959  0.2843
 4556TIP3   OH235302   5.390   1.166   2.131 -0.3858 -0.3967  0.2874
 4556TIP3    H135303   5.339   1.145   2.209 -1.5267  0.1072 -0.3099
 4556TIP3    H235304   5.332   1.220   2.078  1.2550  1.4184  0.2253
 4557TIP3   OH235305   0.876   6.267   7.584 -0.0992 -0.4471 -0.2368
 4557TIP3    H135306   0.809   6.286   7.519 -0.0119 -3.4855 -1.3877
 4557TIP3    H235307   0.908   6.180   7.560  1.1478 -0.9695  2.8749
 4558TIP3   OH235308   3.121   6.314   0.504  0.1820 -0.6815 -0.1869
 4558TIP3    H135309   3.183   6.387   0.507  1.8026 -2.0369  1.2395
 4558TIP3    H235310   3.035   6.355   0.519  0.8637  1.0690 -0.8083
 4559TIP3   OH235311   1.072   0.501   2.015  0.0663  1.2156 -0.1566
 4559TIP3    H135312   1.151   0.455   2.043  0.1942  2.3978  1.6143
 4559TIP3    H235313   1.102   0.567   1.954  0.0788  0.0647 -1.4568
 4560TIP3   OH235314   6.109   2.463   8.403 -0.7810  0.0312 -0.2823
 4560TIP3    H135315   6.079   2.554   8.411  1.6253  0.7622  1.8602
 4560TIP3    H235316   6.175   2.466   8.334 -1.3144 -0.2922 -0.8119
 4561TIP3   OH235317   1.916   4.501   2.152  0.5732 -0.2009 -0.0538
 4561TIP3    H135318   1.880   4.418   2.121  2.9155 -2.6674  3.0961
 4561TIP3    H235319   2.011   4.489   2.148  0.9914  2.5042  0.1630
 4562TIP3   OH235320   5.271   6.375   0.909  0.0390  0.0259 -0.0043
 4562TIP3    H135321   5.317   6.361   0.991 -0.1315 -0.7695 -0.0310
 4562TIP3    H235322   5.283   6.293   0.860 -1.0064 -0.0355 -0.1987
 4563TIP3   OH235323   4.566   1.547   0.240  0.1466 -0.0781 -0.0621
 4563TIP3    H135324   4.642   1.538   0.183 -0.3422 -1.3587 -0.5557
 4563TIP3    H235325   4.598   1.525   0.327  0.3285 -0.7753 -0.2948
 4564TIP3   OH235326   3.796   0.832   8.202  0.3740 -0.3774  0.1205
 4564TIP3    H135327   3.768   0.917   8.234 -1.8122 -0.7508 -0.5480
 4564TIP3    H235328   3.842   0.850   8.120  2.0507  0.2721  1.1649
 4565TIP3   OH235329   2.348   5.827   1.815 -0.4861  0.4002  0.1528
 4565TIP3    H135330   2.278   5.796   1.873 -1.3533  2.3739  0.2420
 4565TIP3    H235331   2.359   5.919   1.838  0.8416  0.6081 -1.1874
 4566TIP3   OH235332   1.770   4.652   6.913  0.2618 -0.1993 -0.0560
 4566TIP3    H135333   1.736   4.622   6.828 -0.2397 -1.7508  0.6630
 4566TIP3    H235334   1.793   4.744   6.898  0.0514 -0.4008 -1.8302
 4567TIP3   OH235335   0.418   5.495   8.367  0.2248 -0.1067  0.7138
 4567TIP3    H135336   0.368   5.566   8.327 -0.2703  0.1142  1.7206
 4567TIP3    H235337   0.494   5.484   8.309  0.1330  1.0145  0.3671
 4568TIP3   OH235338   3.974   0.182   0.224 -0.6792  0.4530 -0.1665
 4568TIP3    H135339   3.968   0.264   0.273 -1.9886  1.5520 -2.0634
 4568TIP3    H235340   4.018   0.206   0.142  1.1097 -1.2550  0.2170
 4569TIP3   OH235341   6.438   3.453   0.500 -0.1053  0.0860 -0.2409
 4569TIP3    H135342   6.459   3.538   0.461  0.1552  0.9066  1.5674
 4569TIP3    H235343   6.383   3.409   0.435  1.9796  0.4691 -2.4234
 4570TIP3   OH235344   0.492   3.329   2.803 -0.0563 -0.5175  0.0008
 4570TIP3    H135345   0.497   3.269   2.728 -0.0500 -1.2857  0.6047
 4570TIP3    H235346   0.418   3.297   2.854 -0.8989  0.8043 -0.3469
 4571TIP3   OH235347   1.250   0.113   1.522 -0.1583  0.0231 -0.3141
 4571TIP3    H135348   1.179   0.055   1.494 -1.1617  0.5018  1.1019
 4571TIP3    H235349   1.226   0.199   1.487  0.1481  0.0190 -0.5287
 4572TIP3   OH235350   1.225   3.044   1.720 -0.5262  0.0520  0.6108
 4572TIP3    H135351   1.241   3.138   1.714 -0.1538 -0.0596 -0.2789
 4572TIP3    H235352   1.311   3.007   1.737 -0.2254 -0.3283 -1.5352
 4573TIP3   OH235353   0.083   0.711   1.367  0.6979 -0.6722  0.9317
 4573TIP3    H135354  -0.012   0.710   1.357  0.6676  2.4173 -0.2356
 4573TIP3    H235355   0.106   0.804   1.372  3.9791 -0.9091 -3.4842
 4574TIP3   OH235356   5.125   2.312   8.681  0.2812  0.1557  0.2031
 4574TIP3    H135357   5.192   2.262   8.728  0.5247  0.1382 -0.1588
 4574TIP3    H235358   5.173   2.386   8.644  0.0366  0.3211  0.2171
 4575TIP3   OH235359   2.059   0.936   8.603 -0.0169 -0.0591 -0.2045
 4575TIP3    H135360   2.018   0.897   8.526  0.6368 -1.2093  0.0067
 4575TIP3    H235361   1.986   0.971   8.654 -0.6358 -1.1085 -0.3578
 4576TIP3   OH235362   5.319   1.146   8.680 -0.4774 -0.1027 -0.1367
 4576TIP3    H135363   5.253   1.112   8.620  0.1453  0.0280 -0.9110
 4576TIP3    H235364   5.398   1.095   8.660 -0.0076  0.5997 -0.0968
 4577TIP3   OH235365   6.284   0.005   7.583  0.5455 -0.3255  0.3405
 4577TIP3    H135366   6.244   0.092   7.579  1.5625  0.1355 -0.1244
 4577TIP3    H235367   6.299  -0.019   7.492  2.7442  0.2033  0.5094
 4578TIP3   OH235368   6.451   4.135   0.585  0.2613  0.4656 -0.0425
 4578TIP3    H135369   6.357   4.141   0.567  0.4155  0.9068 -0.7112
 4578TIP3    H235370   6.472   4.043   0.570  0.3157  0.7330 -1.8719
 4579TIP3   OH235371   1.753   0.043   1.595  0.9603  0.2051 -0.0313
 4579TIP3    H135372   1.685   0.108   1.608  0.2063 -0.8708  1.8624
 4579TIP3    H235373   1.772   0.046   1.501  0.3804  2.5280 -0.1306
 4580TIP3   OH235374   4.512   0.721   2.102 -0.7159  0.2124 -0.8553
 4580TIP3    H135375   4.552   0.803   2.131 -2.7705  1.2669 -0.8116
 4580TIP3    H235376   4.426   0.720   2.145 -1.8889 -0.5583 -3.0510
 4581TIP3   OH235377   3.021   6.154   0.205  0.3708  0.2082 -0.1037
 4581TIP3    H135378   2.955   6.196   0.151  0.2282 -1.0344 -0.9445
 4581TIP3    H235379   2.988   6.162   0.294 -0.2916  0.6902 -0.3829
 4582TIP3   OH235380   2.759   2.841   0.606  0.3954 -0.2316  0.3565
 4582TIP3    H135381   2.705   2.806   0.535  0.9705 -0.8495  0.2093
 4582TIP3    H235382   2.832   2.884   0.562  1.5155 -1.8461  0.5588
 4583TIP3   OH235383   2.307   4.461   0.777 -0.6569  0.8384 -0.1567
 4583TIP3    H135384   2.255   4.541   0.778 -1.7026  0.1605  0.9810
 4583TIP3    H235385   2.281   4.413   0.855  2.1375  0.7532  0.8506
 4584TIP3   OH235386   1.310   5.352   8.453  0.2247  0.7420  0.1279
 4584TIP3    H135387   1.241   5.303   8.409  0.7038  1.6895 -1.7993
 4584TIP3    H235388   1.279   5.361   8.544 -2.9020  2.3308 -0.9346
 4585TIP3   OH235389   4.671   5.042   2.351  0.5517 -0.4026 -0.1504
 4585TIP3    H135390   4.642   5.132   2.369  2.6773  0.2815  0.1147
 4585TIP3    H235391   4.733   5.022   2.421  0.5183 -1.9044 -0.5143
 4586TIP3   OH235392   6.746   6.570   0.909  0.0861  0.5528  0.0433
 4586TIP3    H135393   6.768   6.486   0.868  0.3042  0.0332  1.2024
 4586TIP3    H235394   6.715   6.547   0.996 -0.4077  1.6455  0.1726
 4587TIP3   OH235395   1.850   6.207   7.830 -0.3327  0.1356  0.3155
 4587TIP3    H135396   1.823   6.298   7.838  0.1699  0.4544 -1.2138
 4587TIP3    H235397   1.778   6.165   7.782 -0.1413 -0.0495  0.1875
 4588TIP3   OH235398   3.660   3.777   7.084  0.4378 -0.4089  0.0376
 4588TIP3    H135399   3.603   3.847   7.118  0.6594 -0.1265 -0.1714
 4588TIP3    H235400   3.673   3.719   7.159 -1.3437 -1.2941 -0.2818
 4589TIP3   OH235401   6.020   1.428   6.915  0.3438 -0.0790 -0.4434
 4589TIP3    H135402   5.928   1.403   6.923  0.0090  1.6285  3.8871
 4589TIP3    H235403   6.018   1.523   6.905  1.6492 -0.0880 -0.9144
 4590TIP3   OH235404   1.399   4.893   1.450 -0.1509 -0.0439  0.0475
 4590TIP3    H135405   1.422   4.821   1.391  2.7962  1.5748 -1.0112
 4590TIP3    H235406   1.423   4.861   1.537  1.2939 -0.3706 -0.4348
 4591TIP3   OH235407   2.933   3.504   7.808  0.3196 -0.1512  0.0174
 4591TIP3    H135408   2.990   3.434   7.838  0.6988  0.1439 -0.0136
 4591TIP3    H235409   2.891   3.537   7.887 -0.5638 -1.0100 -0.0593
 4592TIP3   OH235410   0.373   1.146   0.045 -0.0718  0.4812  0.3431
 4592TIP3    H135411   0.291   1.184   0.014 -1.7471 -4.1178 -1.6927
 4592TIP3    H235412   0.364   1.143   0.140 -2.0436  0.5792  0.1899
 4593TIP3   OH235413   6.208   0.998   2.233  0.1510 -0.2986  0.1788
 4593TIP3    H135414   6.202   0.904   2.213 -0.5873 -0.3118  0.4342
 4593TIP3    H235415   6.244   1.001   2.322  1.5528 -0.2884 -0.3579
 4594TIP3   OH235416   2.516   2.449   7.248 -0.2493  0.1547 -0.3533
 4594TIP3    H135417   2.441   2.407   7.207  0.1437 -2.2916  1.2101
 4594TIP3    H235418   2.588   2.436   7.186 -0.5718  0.3356 -0.7689
 4595TIP3   OH235419   3.494   0.935   2.354  0.1487  0.1148 -0.2721
 4595TIP3    H135420   3.427   0.866   2.354  0.3928 -0.1757  1.5877
 4595TIP3    H235421   3.445   1.015   2.337 -0.8762  0.0327  1.9620
 4596TIP3   OH235422   1.277   5.204   0.472 -0.4018  0.2677 -0.3957
 4596TIP3    H135423   1.194   5.163   0.450 -0.9794  0.8647  0.6041
 4596TIP3    H235424   1.342   5.135   0.458 -1.2769 -0.8064  0.6241
 4597TIP3   OH235425   0.729   1.947   3.108  0.3196 -0.1034 -0.4517
 4597TIP3    H135426   0.649   1.999   3.095  1.2647  1.7046  0.5486
 4597TIP3    H235427   0.713   1.900   3.190  0.1363 -0.0446 -0.4524
 4598TIP3   OH235428   1.916   0.243   1.916  0.1279  0.1773  0.5609
 4598TIP3    H135429   1.830   0.212   1.942 -0.6754  2.9740  1.5947
 4598TIP3    H235430   1.908   0.260   1.822 -0.6981  1.0392  0.7720
 4599TIP3   OH235431   6.846   5.829   7.508 -0.1781 -0.6716 -0.5398
 4599TIP3    H135432   6.813   5.744   7.538  0.7005 -1.2919 -1.2768
 4599TIP3    H235433   6.871   5.814   7.417 -2.9803  1.2087 -1.7563
 4600TIP3   OH235434   2.921   3.845   7.772 -0.9206 -0.2384  0.0449
 4600TIP3    H135435   2.835   3.874   7.801 -0.9700  0.4427 -0.7271
 4600TIP3    H235436   2.970   3.926   7.758 -0.5070 -0.5802 -0.5364
 4601TIP3   OH235437   2.607   2.192   1.017  0.3263  0.4724 -0.4962
 4601TIP3    H135438   2.692   2.235   1.012 -0.4059  1.8905 -1.1124
 4601TIP3    H235439   2.616   2.130   1.090  1.4296  1.6420  0.3977
 4602TIP3   OH235440   2.939   1.390   0.726  0.5341  0.6779  0.7628
 4602TIP3    H135441   2.983   1.441   0.794  0.0769 -0.8575  2.3064
 4602TIP3    H235442   2.856   1.363   0.767  0.3732 -0.5364 -0.3044
 4603TIP3   OH235443   2.167   4.049   0.088 -0.6153  0.2592 -0.0536
 4603TIP3    H135444   2.177   3.963   0.046  0.2720  0.4096 -0.1578
 4603TIP3    H235445   2.074   4.069   0.077 -0.6118 -0.1783 -1.0332
 4604TIP3   OH235446   2.222   6.053   0.589 -0.2935 -0.0073  0.7890
 4604TIP3    H135447   2.270   6.096   0.659 -0.3493 -1.6145  1.8744
 4604TIP3    H235448   2.281   6.056   0.514  0.7644 -0.3264  1.5772
 4605TIP3   OH235449   5.487   1.677   2.770 -0.4890 -0.1372  0.2491
 4605TIP3    H135450   5.426   1.604   2.764 -0.0316 -0.5515  0.4603
 4605TIP3    H235451   5.441   1.743   2.822 -1.5081  0.3769 -1.2500
 4606TIP3   OH235452   2.121   0.087   1.449 -0.1481 -0.0048 -0.4999
 4606TIP3    H135453   2.061   0.059   1.518 -0.1486  0.7036 -0.2096
 4606TIP3    H235454   2.164   0.006   1.421  0.0349 -0.2670  0.4968
 4607TIP3   OH235455   5.681   0.592   7.107  0.5817 -0.2295  0.2582
 4607TIP3    H135456   5.756   0.560   7.157  1.8984 -2.4294 -2.7762
 4607TIP3    H235457   5.706   0.680   7.078  0.7809  0.1195  1.4450
 4608TIP3   OH235458   3.412   6.201   1.025 -0.0165 -0.0144 -0.3567
 4608TIP3    H135459   3.412   6.137   0.953 -0.1011  1.0983 -1.3851
 4608TIP3    H235460   3.321   6.231   1.030  0.2913  1.0662 -0.8789
 4609TIP3   OH235461   5.213   0.649   8.048  0.4760 -0.3260  0.1386
 4609TIP3    H135462   5.208   0.568   8.098  0.5386 -0.1922  0.3613
 4609TIP3    H235463   5.123   0.665   8.019  0.3939 -0.2741  0.4174
 4610TIP3   OH235464   3.754   5.856   1.939 -0.2393  0.0791 -0.1268
 4610TIP3    H135465   3.723   5.890   2.023  2.6467  0.8483  0.7635
 4610TIP3    H235466   3.780   5.934   1.890  1.6639 -0.4996 -0.1324
 4611TIP3   OH235467   2.480   1.284   2.196  0.0591  0.2612  0.3387
 4611TIP3    H135468   2.476   1.353   2.262 -1.2178 -0.7402  1.3659
 4611TIP3    H235469   2.517   1.209   2.243  3.9090  0.8079 -1.3659
 4612TIP3   OH235470   4.700   3.768   1.421  0.1730 -0.0339 -0.3055
 4612TIP3    H135471   4.700   3.864   1.418 -0.6695  0.0020  0.4265
 4612TIP3    H235472   4.644   3.742   1.348  0.6963  0.0123 -0.7296
 4613TIP3   OH235473   1.434   5.742   2.812 -0.2348 -0.0348  0.4608
 4613TIP3    H135474   1.410   5.656   2.847 -0.3288  0.6945  2.3491
 4613TIP3    H235475   1.356   5.772   2.766 -1.0551 -0.0299  1.7794
 4614TIP3   OH235476   2.040   3.976   7.625  0.4383 -0.0514  0.1288
 4614TIP3    H135477   2.038   4.042   7.695 -0.6001  0.9739 -0.8278
 4614TIP3    H235478   2.096   4.015   7.558  1.1777 -0.8972  0.2370
 4615TIP3   OH235479   1.649   0.414   8.040 -0.0103  0.2385  0.4570
 4615TIP3    H135480   1.661   0.434   8.133  0.2930 -1.0720  0.7105
 4615TIP3    H235481   1.714   0.470   7.996 -0.3795  1.1130  0.9875
 4616TIP3   OH235482   5.328   2.017   7.123  0.1371  0.3736 -0.2008
 4616TIP3    H135483   5.376   1.979   7.049 -0.4586  4.7801 -3.2595
 4616TIP3    H235484   5.237   1.990   7.109  0.3457 -0.6033  0.2705
 4617TIP3   OH235485   5.033   3.161   1.513  0.1705  0.0207  0.0737
 4617TIP3    H135486   5.098   3.167   1.584 -1.8778  0.8367  1.9893
 4617TIP3    H235487   4.992   3.076   1.525 -1.2843  0.8123  0.9312
 4618TIP3   OH235488   0.811   4.747   1.603 -0.0777  0.1753 -0.3292
 4618TIP3    H135489   0.794   4.811   1.672  0.6691  0.5530 -0.4934
 4618TIP3    H235490   0.888   4.780   1.557  1.4697 -1.7844  0.7424
 4619TIP3   OH235491   3.789   1.187   7.946 -0.0251  0.4292 -0.0229
 4619TIP3    H135492   3.795   1.175   8.040 -0.6027  2.6741  0.3659
 4619TIP3    H235493   3.704   1.150   7.922 -0.4173  0.9287  0.5632
 4620TIP3   OH235494   3.030   5.641   2.217 -0.2106 -0.0351  0.0156
 4620TIP3    H135495   3.088   5.601   2.153 -2.2770 -0.2854 -1.8311
 4620TIP3    H235496   3.002   5.723   2.176  0.4897  1.1710  1.8139
 4621TIP3   OH235497   0.118   1.563   7.827  0.1819 -0.0459 -0.8642
 4621TIP3    H135498   0.148   1.571   7.736 -0.9625 -1.4477 -1.4037
 4621TIP3    H235499   0.092   1.472   7.835  0.2291  0.0742  0.8864
 4622TIP3   OH235500   0.575   4.692   0.207 -0.3164 -0.1019  0.0140
 4622TIP3    H135501   0.549   4.732   0.125  1.8864 -0.5856 -0.9989
 4622TIP3    H235502   0.620   4.761   0.255 -1.8284  0.2554  0.9849
 4623TIP3   OH235503   1.202   4.474   7.027 -0.4572  0.2308  0.2830
 4623TIP3    H135504   1.163   4.440   7.107 -0.7278  1.9146  0.8987
 4623TIP3    H235505   1.134   4.529   6.988 -0.7224 -1.3458 -1.6905
 4624TIP3   OH235506   5.869   0.404   7.291 -0.0978  0.2422  0.5975
 4624TIP3    H135507   5.911   0.490   7.278  0.5740 -0.0978  0.4871
 4624TIP3    H235508   5.941   0.341   7.283 -0.8883 -0.4855 -1.3369
 4625TIP3   OH235509   5.115   0.003   7.035  0.1266  0.4103 -0.1699
 4625TIP3    H135510   5.076  -0.080   7.006  0.0759 -0.3904  2.0230
 4625TIP3    H235511   5.040   0.057   7.062  0.1254  1.3855 -1.9588
 4626TIP3   OH235512   4.505   2.099   7.469 -0.1915  0.0979 -0.3934
 4626TIP3    H135513   4.487   2.149   7.389 -0.3086 -0.6585 -0.8434
 4626TIP3    H235514   4.490   2.162   7.540 -4.2044 -0.2409 -0.6907
 4627TIP3   OH235515   3.346   1.100   1.352 -0.6553 -0.0798  1.0359
 4627TIP3    H135516   3.414   1.076   1.414  1.6210 -0.7108 -1.4806
 4627TIP3    H235517   3.370   1.189   1.324 -1.1306 -0.1321  0.4415
 4628TIP3   OH235518   3.187   4.056   0.578 -0.2310  0.0816  0.3721
 4628TIP3    H135519   3.092   4.056   0.564 -0.2492 -0.6615  0.4859
 4628TIP3    H235520   3.211   4.149   0.579 -0.7442  0.2550 -1.0867
 4629TIP3   OH235521   1.453   5.097   7.071  0.2526 -0.0153  0.6614
 4629TIP3    H135522   1.378   5.151   7.046 -0.1484 -0.3565  1.1329
 4629TIP3    H235523   1.524   5.160   7.082  0.5578  0.1454 -1.6575
 4630TIP3   OH235524   2.872   4.625   2.749  0.4048 -0.2388  0.0234
 4630TIP3    H135525   2.961   4.649   2.723  0.3123 -0.5158 -0.5503
 4630TIP3    H235526   2.844   4.697   2.806  0.9224 -0.0560  0.0540
 4631TIP3   OH235527   5.377   0.642   1.429  0.4815  0.0683 -0.1021
 4631TIP3    H135528   5.400   0.590   1.352 -0.6144  0.5519 -0.7860
 4631TIP3    H235529   5.295   0.603   1.460  0.1094  0.8297 -0.1050
 4632TIP3   OH235530   3.899   3.422   1.661  0.3009  1.0503 -0.2173
 4632TIP3    H135531   3.824   3.406   1.603 -1.1654  3.3721  0.8717
 4632TIP3    H235532   3.898   3.348   1.722 -0.2925  0.3845 -1.0138
 4633TIP3   OH235533   2.040   6.841   7.539  0.1867 -0.2523 -0.5261
 4633TIP3    H135534   2.094   6.827   7.616  0.2701  0.9438 -0.3587
 4633TIP3    H235535   2.102   6.840   7.466  0.5282  1.5788 -0.2937
 4634TIP3   OH235536   0.958   4.280   1.225  0.3851  0.3864 -0.5152
 4634TIP3    H135537   1.020   4.216   1.259 -1.8028 -1.5888  0.0900
 4634TIP3    H235538   0.953   4.347   1.293  0.8440 -0.1473  0.0579
 4635TIP3   OH235539   2.184   0.373   7.609 -0.2403 -0.0106  0.4383
 4635TIP3    H135540   2.142   0.348   7.691  0.7478 -1.1599  0.6187
 4635TIP3    H235541   2.112   0.384   7.548 -0.8602 -1.3206  0.9029
 4636TIP3   OH235542   4.643   3.182   3.110 -0.6517  0.3631 -0.1584
 4636TIP3    H135543   4.690   3.261   3.137 -0.1489 -0.6895  2.2781
 4636TIP3    H235544   4.568   3.176   3.169  0.7599 -2.2999  1.5825
 4637TIP3   OH235545   4.541   4.414   8.440  0.5677 -0.3335 -0.8447
 4637TIP3    H135546   4.571   4.502   8.466 -0.6550 -0.5110  1.4791
 4637TIP3    H235547   4.614   4.356   8.462  0.5232 -0.1525 -0.2021
 4638TIP3   OH235548   6.086   0.686   6.763 -0.2821  0.1036  0.3006
 4638TIP3    H135549   5.997   0.690   6.729 -1.1081 -0.4987  2.3023
 4638TIP3    H235550   6.120   0.775   6.751 -0.9560  0.2215 -0.9154
 4639TIP3   OH235551   2.175   1.141   2.552 -0.4397 -0.1973  0.4426
 4639TIP3    H135552   2.203   1.218   2.601  2.7079 -0.6652 -0.4165
 4639TIP3    H235553   2.215   1.067   2.598  2.0926 -0.6997 -2.2476
 4640TIP3   OH235554   4.142   0.301   0.577  0.0695 -0.4938  0.5584
 4640TIP3    H135555   4.159   0.336   0.664  0.6698 -0.0546  0.2771
 4640TIP3    H235556   4.149   0.206   0.587 -1.9193 -0.5985  1.4051
 4641TIP3   OH235557   6.114   2.772   7.865 -0.0681  0.4257 -0.1949
 4641TIP3    H135558   6.042   2.836   7.870 -0.3445  0.1747 -0.8716
 4641TIP3    H235559   6.072   2.691   7.836  0.6122  0.4958 -1.4633
 4642TIP3   OH235560   5.428   0.226   1.065 -0.1288 -0.5644  0.0717
 4642TIP3    H135561   5.494   0.254   1.001  0.7449 -0.4964  0.9713
 4642TIP3    H235562   5.426   0.131   1.056 -0.2118 -0.5336 -0.2494
 4643TIP3   OH235563   5.579   0.889   1.150 -0.2413  0.2598 -0.1181
 4643TIP3    H135564   5.547   0.808   1.110  2.0532 -2.0693  2.3044
 4643TIP3    H235565   5.515   0.908   1.219 -1.1019  0.9440 -1.0664
 4644TIP3   OH235566   5.005   5.540   0.899  0.3298  0.5431 -0.5448
 4644TIP3    H135567   4.949   5.572   0.827  0.6232 -1.4854 -1.7738
 4644TIP3    H235568   4.990   5.602   0.970 -2.6114  0.7562 -1.2014
 4645TIP3   OH235569   4.209   3.901   2.086 -0.1366  0.0914  0.2086
 4645TIP3    H135570   4.298   3.899   2.123  0.8331  2.4380 -1.7333
 4645TIP3    H235571   4.220   3.937   1.998 -2.9124 -0.6201 -0.5275
 4646TIP3   OH235572   6.060   1.051   1.649  0.2949  0.4797  0.3796
 4646TIP3    H135573   6.052   1.124   1.710 -1.3507 -0.2487  1.0970
 4646TIP3    H235574   6.154   1.048   1.629  0.3821  2.9028  0.1189
 4647TIP3   OH235575   1.048   4.301   7.858  0.1197 -0.7498 -0.2194
 4647TIP3    H135576   1.006   4.234   7.911 -0.6377 -2.1568 -2.4341
 4647TIP3    H235577   0.976   4.349   7.818  0.6605  1.2396  1.0549
 4648TIP3   OH235578   0.691   6.524   0.161 -0.5934  0.1727 -0.2468
 4648TIP3    H135579   0.685   6.477   0.078 -1.3237  0.4738 -0.3715
 4648TIP3    H235580   0.637   6.602   0.148 -0.5495  0.3211  0.4432
 4649TIP3   OH235581   0.621   5.839   1.935 -0.5060 -0.0495  0.0173
 4649TIP3    H135582   0.676   5.781   1.882 -1.2359  0.0835 -0.9154
 4649TIP3    H235583   0.560   5.878   1.872  0.1178  1.9328  0.5714
 4650TIP3   OH235584   5.636   3.679   0.417  0.5010 -0.2597  0.0767
 4650TIP3    H135585   5.629   3.750   0.480  1.4569  0.3601 -0.4940
 4650TIP3    H235586   5.698   3.618   0.457 -0.1094 -0.6566  0.4409
 4651TIP3   OH235587   2.175   0.348   1.382  0.0549 -0.2309  0.5434
 4651TIP3    H135588   2.180   0.267   1.431  0.4878  0.6578  2.0184
 4651TIP3    H235589   2.224   0.411   1.434 -1.4918  1.3415  0.2104
 4652TIP3   OH235590   0.249   4.009   2.134  0.1048 -0.4662  0.4522
 4652TIP3    H135591   0.171   4.058   2.107 -1.2368 -1.9265  1.4916
 4652TIP3    H235592   0.303   4.004   2.056 -1.1532  0.0469 -0.4798
 4653TIP3   OH235593   0.677   2.812   7.581  0.0764 -0.4302  0.3172
 4653TIP3    H135594   0.639   2.794   7.496  0.9640  0.3249 -0.2658
 4653TIP3    H235595   0.685   2.908   7.584 -0.5603 -0.3979  1.5257
 4654TIP3   OH235596   1.108   2.898   2.110  0.1305 -0.2533 -0.0163
 4654TIP3    H135597   1.040   2.895   2.177  0.5268 -1.6936  0.3475
 4654TIP3    H235598   1.118   2.807   2.081  3.1054 -0.4157  1.1741
 4655TIP3   OH235599   2.922   6.208   0.983 -0.4612 -0.1765 -0.3073
 4655TIP3    H135600   2.896   6.234   0.895 -2.1932 -0.0246  0.2186
 4655TIP3    H235601   2.842   6.214   1.035  0.4709 -0.4785  1.2385
 4656TIP3   OH235602   1.795   6.427   1.301  0.0048 -0.0892 -0.4541
 4656TIP3    H135603   1.764   6.515   1.325  0.4334 -0.0632  0.0287
 4656TIP3    H235604   1.862   6.443   1.235  0.2847 -0.0349 -0.1576
 4657TIP3   OH235605   6.404   5.759   8.679 -0.3227 -0.1387  1.4031
 4657TIP3    H135606   6.469   5.827   8.659  0.3255 -1.2100 -0.3523
 4657TIP3    H235607   6.337   5.769   8.611 -1.1286 -0.1498  2.1764
 4658TIP3   OH235608   5.239   1.367   0.537 -0.5249  0.4457  0.3990
 4658TIP3    H135609   5.151   1.331   0.549 -0.7863  0.4294 -1.3195
 4658TIP3    H235610   5.241   1.445   0.593 -2.2067  1.3361 -0.6967
 4659TIP3   OH235611   4.352   1.517   1.914  0.7103  0.4765  0.5205
 4659TIP3    H135612   4.444   1.537   1.898  0.7663  1.9335  2.3934
 4659TIP3    H235613   4.353   1.445   1.977  0.4740 -3.5405 -3.5378
 4660TIP3   OH235614   2.562   4.173   7.801 -0.5110  0.4669  0.1166
 4660TIP3    H135615   2.510   4.141   7.874 -0.3623  1.4605  0.6807
 4660TIP3    H235616   2.651   4.178   7.835  0.0732 -1.5262 -0.9352
 4661TIP3   OH235617   2.858   5.632   2.896 -0.2461  0.1226  0.4682
 4661TIP3    H135618   2.808   5.713   2.901  0.8335  0.7313  2.2197
 4661TIP3    H235619   2.946   5.659   2.873  0.4530 -0.3475  2.3577
 4662TIP3   OH235620   6.262   2.533   1.337  0.4200 -0.4226 -0.1551
 4662TIP3    H135621   6.280   2.441   1.359  2.5989  0.1379  0.6804
 4662TIP3    H235622   6.332   2.557   1.276 -2.0338 -0.1802 -3.0877
 4663TIP3   OH235623   0.777   6.789   0.913  0.1425  0.2297 -0.5176
 4663TIP3    H135624   0.835   6.721   0.879  1.3674  0.6127  0.7134
 4663TIP3    H235625   0.763   6.765   1.005  1.1639  1.9655  0.1485
 4664TIP3   OH235626   4.892   1.331   8.526 -0.4916  0.1358 -0.1764
 4664TIP3    H135627   4.858   1.290   8.446 -0.3476 -0.0385 -0.1502
 4664TIP3    H235628   4.898   1.424   8.505 -0.4691  0.0923 -0.3648
 4665TIP3   OH235629   5.964   6.294   0.924  0.0273  0.1863 -0.5299
 4665TIP3    H135630   5.938   6.345   0.848  0.1581  1.6886  0.3838
 4665TIP3    H235631   5.961   6.203   0.895 -1.4253  0.6210 -1.8676
 4666TIP3   OH235632   1.440   2.669   7.114  0.3616  0.0451  0.2546
 4666TIP3    H135633   1.488   2.745   7.081  0.5069  0.2277  0.8733
 4666TIP3    H235634   1.506   2.600   7.121  0.2062 -0.1798 -0.4195
 4667TIP3   OH235635   2.549   5.692   1.666  0.3720 -0.5306  0.2066
 4667TIP3    H135636   2.465   5.729   1.696  1.7358  2.8482  0.3504
 4667TIP3    H235637   2.528   5.651   1.582 -1.2342  1.7534 -0.6306
 4668TIP3   OH235638   4.572   4.329   0.821  0.1878  0.3733 -0.3859
 4668TIP3    H135639   4.648   4.274   0.801 -0.6319 -1.2227  0.7385
 4668TIP3    H235640   4.576   4.341   0.916 -1.0540  0.1231 -0.2932
 4669TIP3   OH235641   6.393   4.976   8.315  0.1914 -0.1578 -0.0291
 4669TIP3    H135642   6.405   4.922   8.393 -2.9856 -2.6941 -1.0860
 4669TIP3    H235643   6.436   4.927   8.245 -0.1183  0.2370 -0.5007
 4670TIP3   OH235644   2.108   1.984   0.797 -0.4104 -0.1319 -0.1162
 4670TIP3    H135645   2.142   2.070   0.821 -1.6554  0.4388 -0.2991
 4670TIP3    H235646   2.181   1.924   0.812  0.6547  1.0192 -0.4786
 4671TIP3   OH235647   0.950   0.229   1.133 -0.3147  0.2021 -0.2549
 4671TIP3    H135648   1.039   0.212   1.165 -0.6685  1.1957  1.4085
 4671TIP3    H235649   0.951   0.323   1.111 -1.4180  0.6839  1.5747
 4672TIP3   OH235650   6.780   0.946   2.504 -0.1765 -0.3070 -0.2006
 4672TIP3    H135651   6.871   0.973   2.494 -0.1681 -0.9606 -2.4482
 4672TIP3    H235652   6.730   1.027   2.495  0.1108 -0.2098 -1.0070
 4673TIP3   OH235653   0.685   6.687   8.367 -0.1064  0.9397  0.5337
 4673TIP3    H135654   0.769   6.651   8.397 -0.2307  0.1203 -0.0709
 4673TIP3    H235655   0.654   6.624   8.303 -1.7211  0.6535  1.5408
 4674TIP3   OH235656   0.968   1.386   7.925 -0.0622 -0.0671 -0.9412
 4674TIP3    H135657   0.924   1.302   7.916  1.0121 -0.7057 -0.4600
 4674TIP3    H235658   0.898   1.450   7.930 -1.0486 -1.2182  1.7840
 4675TIP3   OH235659   4.308   1.556   0.297 -0.1881  0.3132 -0.2930
 4675TIP3    H135660   4.386   1.573   0.245 -1.3375  1.4655 -1.7230
 4675TIP3    H235661   4.320   1.467   0.330  2.5084  1.0666  1.0003
 4676TIP3   OH235662   6.463   3.416   7.436 -0.5564 -0.5527  0.4989
 4676TIP3    H135663   6.390   3.456   7.483 -0.1240  1.8288 -0.7471
 4676TIP3    H235664   6.538   3.472   7.454  0.3916 -1.5037 -0.3162
 4677TIP3   OH235665   0.303   6.317   8.042  0.3300 -0.4598  0.3686
 4677TIP3    H135666   0.285   6.236   7.992 -2.6884 -0.7776  1.7392
 4677TIP3    H235667   0.267   6.387   7.987 -0.1337 -0.4494  0.6823
 4678TIP3   OH235668   6.791   4.534   1.487 -0.0823 -0.1502  0.7927
 4678TIP3    H135669   6.762   4.448   1.517  0.5962 -1.0893 -1.0620
 4678TIP3    H235670   6.882   4.540   1.515  0.0106 -0.2458  0.5151
 4679TIP3   OH235671   0.952   5.077   8.293 -0.6137 -0.3139 -0.7807
 4679TIP3    H135672   1.015   5.005   8.299 -0.7014 -0.3500 -0.2355
 4679TIP3    H235673   0.968   5.116   8.207 -0.1044 -0.5597 -0.8005
 4680TIP3   OH235674   6.180   2.220   1.157  0.1860 -0.8779  0.2438
 4680TIP3    H135675   6.211   2.260   1.238  1.2554 -1.7034  0.2581
 4680TIP3    H235676   6.197   2.286   1.090  0.4272 -0.6697  0.5046
 4681TIP3   OH235677   0.890   0.157   8.366 -0.2822 -0.0129 -0.6651
 4681TIP3    H135678   0.823   0.146   8.299  0.6610  0.8704 -1.7973
 4681TIP3    H235679   0.844   0.198   8.439 -1.4320 -1.4360 -0.5446
 4682TIP3   OH235680   0.504   6.714   0.879  0.3527 -0.0640 -0.0896
 4682TIP3    H135681   0.578   6.690   0.823  0.6697  2.1511 -0.6826
 4682TIP3    H235682   0.544   6.738   0.962  0.3203  1.0959 -0.3983
 4683TIP3   OH235683   1.608   2.490   1.341 -0.9630  0.0844 -0.4836
 4683TIP3    H135684   1.666   2.505   1.266 -1.4764 -0.7167 -1.0700
 4683TIP3    H235685   1.658   2.431   1.398 -1.2025 -0.6479 -1.0123
 4684TIP3   OH235686   3.860   5.583   3.200 -0.4236  0.3114  0.0169
 4684TIP3    H135687   3.846   5.490   3.181 -0.1964 -0.4142  2.8995
 4684TIP3    H235688   3.955   5.594   3.196 -0.4586  0.4495 -0.4374
 4685TIP3   OH235689   3.183   5.934   8.023  0.4406  0.1177 -0.0687
 4685TIP3    H135690   3.129   5.915   7.946 -1.1029 -2.0679  1.4193
 4685TIP3    H235691   3.226   5.850   8.043  1.1451  0.7465  1.1847
 4686TIP3   OH235692   6.556   3.960   2.413  0.1053  0.2239  0.2630
 4686TIP3    H135693   6.599   3.925   2.491 -1.7486 -0.6791  0.9196
 4686TIP3    H235694   6.560   3.890   2.349  0.6389  0.5720 -0.0985
 4687TIP3   OH235695   3.885   1.989   7.083  0.1646 -0.0654 -0.2887
 4687TIP3    H135696   3.971   1.949   7.077  0.1499 -0.0718 -0.4551
 4687TIP3    H235697   3.901   2.076   7.120  0.0747 -0.6449  1.1862
 4688TIP3   OH235698   5.128   4.969   0.150 -0.2692 -0.2738 -0.4144
 4688TIP3    H135699   5.035   4.950   0.136 -0.5525 -0.5845  1.6028
 4688TIP3    H235700   5.174   4.901   0.101 -1.1053 -0.3161 -1.1689
 4689TIP3   OH235701   1.734   0.911   0.386 -0.0934 -0.2691  0.3617
 4689TIP3    H135702   1.810   0.896   0.329 -0.7140 -2.8639  0.0774
 4689TIP3    H235703   1.742   0.845   0.455 -2.9082 -1.8461 -0.6525
 4690TIP3   OH235704   2.074   2.071   2.643  0.0265  0.0246 -0.3645
 4690TIP3    H135705   2.009   2.060   2.712 -1.0597  2.5199 -0.8685
 4690TIP3    H235706   2.037   2.138   2.585  3.1045  1.7728 -0.5537
 4691TIP3   OH235707   1.756   3.921   8.435  0.2117 -0.1639 -0.2680
 4691TIP3    H135708   1.712   3.982   8.375 -0.9464 -1.0791 -0.3836
 4691TIP3    H235709   1.755   3.837   8.389 -1.4278 -1.0850  1.3170
 4692TIP3   OH235710   1.105   5.152   2.152  0.0115 -0.1554  0.3575
 4692TIP3    H135711   1.178   5.123   2.205  0.7223 -2.1243 -1.5253
 4692TIP3    H235712   1.029   5.106   2.188  0.6517 -2.2712 -0.8221
 4693TIP3   OH235713   6.387   1.694   7.823 -0.4207  0.2033  0.2773
 4693TIP3    H135714   6.437   1.775   7.828 -0.1376  0.0009  0.8635
 4693TIP3    H235715   6.346   1.685   7.909  1.0063 -1.1754  0.8712
 4694TIP3   OH235716   2.723   6.087   1.383 -0.4688 -0.4037  0.2132
 4694TIP3    H135717   2.712   5.992   1.387 -0.6107 -0.4205 -0.4120
 4694TIP3    H235718   2.787   6.100   1.313  0.0000 -0.0666  0.6955
 4695TIP3   OH235719   2.486   3.861   8.587 -0.0065 -0.3727  0.2057
 4695TIP3    H135720   2.401   3.841   8.626 -0.0462 -0.8615 -0.1297
 4695TIP3    H235721   2.536   3.780   8.595  0.3427 -0.1644  0.1662
 4696TIP3   OH235722   6.588   4.626   0.087 -0.1969 -0.3224 -0.3290
 4696TIP3    H135723   6.632   4.562   0.144 -0.3128 -0.1254 -0.0192
 4696TIP3    H235724   6.533   4.677   0.146 -0.3408 -0.1370 -0.6239
 4697TIP3   OH235725   5.810   3.749   1.680 -0.5236  0.1645 -0.2337
 4697TIP3    H135726   5.852   3.710   1.757 -2.7756  0.6160  1.3210
 4697TIP3    H235727   5.817   3.844   1.695  0.0714  0.2837 -1.2080
 4698TIP3   OH235728   2.461   5.474   8.607 -0.0032  0.7342  0.0772
 4698TIP3    H135729   2.473   5.402   8.544  0.2894 -0.5824  1.5581
 4698TIP3    H235730   2.367   5.490   8.607 -0.4765 -1.4725  1.5275
 4699TIP3   OH235731   0.604   3.333   1.851  0.1029  0.1283 -0.5844
 4699TIP3    H135732   0.587   3.378   1.934 -0.6708  2.2777 -1.8241
 4699TIP3    H235733   0.680   3.378   1.814  0.7972 -1.1806 -0.8085
 4700TIP3   OH235734   5.413   6.025   0.427 -0.5417  0.4172  0.5013
 4700TIP3    H135735   5.485   6.009   0.488 -0.9662  1.1013  1.1936
 4700TIP3    H235736   5.447   6.093   0.369  0.5405 -1.4739 -1.2235
 4701TIP3   OH235737   6.427   4.986   2.000  0.2061  0.0941  0.1855
 4701TIP3    H135738   6.371   5.054   1.962  0.2708  0.3390  0.5242
 4701TIP3    H235739   6.407   4.988   2.094  1.7769  1.1317  0.5366
 4702TIP3   OH235740   1.516   5.454   8.670 -0.1034 -0.2176 -0.5798
 4702TIP3    H135741   1.605   5.476   8.643  0.6235  0.9269  2.4072
 4702TIP3    H235742   1.488   5.528   8.724 -3.3559 -0.0032 -2.2838
 4703TIP3   OH235743   3.827   4.434   1.045  0.0604 -0.0143  0.6936
 4703TIP3    H135744   3.864   4.517   1.013 -0.5817 -0.3496 -0.9961
 4703TIP3    H235745   3.745   4.424   0.996  0.0407 -1.5528  1.0110
 4704TIP3   OH235746   2.877   2.429   2.380 -0.0513 -0.3335  0.7309
 4704TIP3    H135747   2.850   2.376   2.455 -0.7966  0.5980  1.1469
 4704TIP3    H235748   2.962   2.393   2.355  1.7652  1.2180  3.9407
 4705TIP3   OH235749   4.028   3.350   1.966 -0.4418  0.3089  0.6871
 4705TIP3    H135750   4.111   3.325   2.007  1.0632  1.7370 -1.3050
 4705TIP3    H235751   3.998   3.425   2.016 -0.7671 -0.4453  1.6549
 4706TIP3   OH235752   2.548   6.684   0.055 -0.2015  0.1217  0.1420
 4706TIP3    H135753   2.590   6.691   0.141 -0.6804  0.1405  0.3778
 4706TIP3    H235754   2.510   6.770   0.039  0.4029  0.2966 -0.3632
 4707TIP3   OH235755   6.656   0.714   1.321 -0.1404 -0.0854 -0.0874
 4707TIP3    H135756   6.655   0.642   1.384 -2.3661 -1.2108 -1.2857
 4707TIP3    H235757   6.577   0.765   1.341  0.3149  0.8278 -0.5575
 4708TIP3   OH235758   6.473   2.531   8.434  0.0981  0.5759 -0.5599
 4708TIP3    H135759   6.423   2.542   8.353 -2.4218  1.5463  1.0280
 4708TIP3    H235760   6.426   2.463   8.482  0.9989  0.7011  0.5294
 4709TIP3   OH235761   5.875   1.303   8.548  0.3326  0.7592 -0.9655
 4709TIP3    H135762   5.798   1.360   8.550 -0.7109 -0.6195 -0.1458
 4709TIP3    H235763   5.947   1.362   8.527 -0.9859  2.0182 -2.2137
 4710TIP3   OH235764   1.952   1.320   0.965 -0.5401  0.1205  1.0886
 4710TIP3    H135765   1.989   1.408   0.955 -2.4787  0.8287 -0.4313
 4710TIP3    H235766   1.891   1.328   1.038 -0.4247 -0.0631  1.2035
 4711TIP3   OH235767   3.606   2.027   7.960  0.3435 -0.1073 -0.4206
 4711TIP3    H135768   3.641   1.957   8.015  1.8253  0.0727 -1.0965
 4711TIP3    H235769   3.586   1.985   7.877  0.3756  0.0869 -0.5271
 4712TIP3   OH235770   2.126   6.315   0.611  0.2147 -0.1571  0.1373
 4712TIP3    H135771   2.175   6.233   0.613 -0.8459 -0.7925  0.8586
 4712TIP3    H235772   2.047   6.297   0.661 -0.9100  0.7623 -1.2439
 4713TIP3   OH235773   1.923   2.349   8.109  0.0801 -0.5416 -0.2079
 4713TIP3    H135774   1.892   2.440   8.106 -2.5461 -1.3695 -0.9858
 4713TIP3    H235775   1.994   2.346   8.044  0.7354  1.0910  0.3706
 4714TIP3   OH235776   1.433   1.095   0.941  0.1534 -0.0590  0.0341
 4714TIP3    H135777   1.424   1.099   0.846 -1.5130  0.8819  0.1970
 4714TIP3    H235778   1.488   1.170   0.963  1.7875 -1.1118 -0.2714
 4715TIP3   OH235779   2.013   5.529   2.098 -0.5748  0.1636  0.1620
 4715TIP3    H135780   1.959   5.507   2.173 -0.4658  0.6966  0.4022
 4715TIP3    H235781   1.964   5.498   2.022 -1.2472  0.6901  0.3695
 4716TIP3   OH235782   0.238   0.166   0.444  0.2082  0.1181  0.9283
 4716TIP3    H135783   0.225   0.128   0.357  0.8221  1.2317  0.3266
 4716TIP3    H235784   0.199   0.102   0.504 -0.7907 -0.3757 -0.2011
 4717TIP3   OH235785   3.698   4.440   7.441  0.5929 -0.0247  0.0536
 4717TIP3    H135786   3.614   4.395   7.438  0.9116 -0.7088 -3.4642
 4717TIP3    H235787   3.719   4.457   7.349  3.0375  2.5890  0.9324
 4718TIP3   OH235788   0.757   2.349   1.191  0.3309 -0.6480  0.4903
 4718TIP3    H135789   0.712   2.299   1.123  0.3612  0.2021 -0.1730
 4718TIP3    H235790   0.775   2.434   1.151  1.3502 -0.5088  1.1956
 4719TIP3   OH235791   3.021   5.136   7.460 -0.6820  0.1868 -0.6252
 4719TIP3    H135792   2.972   5.145   7.379 -0.5601  1.2605 -0.5837
 4719TIP3    H235793   3.113   5.140   7.433 -0.6391  0.3710 -0.4505
 4720TIP3   OH235794   3.630   2.788   1.314 -0.4962 -0.7281 -0.0497
 4720TIP3    H135795   3.713   2.832   1.293 -0.9371 -1.0619 -2.8315
 4720TIP3    H235796   3.637   2.702   1.272 -2.7244 -0.2492 -1.5876
 4721TIP3   OH235797   0.248   2.722   7.853  0.1875 -0.2464  0.4046
 4721TIP3    H135798   0.180   2.671   7.897 -1.4359  1.1511 -0.3621
 4721TIP3    H235799   0.216   2.733   7.763  0.1821  2.4245  0.6275
 4722TIP3   OH235800   1.529   5.208   8.378  0.4402  0.4914  0.4629
 4722TIP3    H135801   1.443   5.230   8.414  1.4046  1.4559  2.3031
 4722TIP3    H235802   1.563   5.290   8.343  0.5229  0.0606 -0.5061
 4723TIP3   OH235803   1.756   2.560   8.166 -0.0704 -0.1152  0.3795
 4723TIP3    H135804   1.766   2.654   8.185  2.9662 -0.2315 -0.0888
 4723TIP3    H235805   1.687   2.530   8.226 -0.9736  2.3392  0.6883
 4724TIP3   OH235806   6.529   2.932   1.158 -0.1742 -0.4184 -0.0496
 4724TIP3    H135807   6.469   2.916   1.084  0.4603 -2.5106 -0.1643
 4724TIP3    H235808   6.495   2.876   1.228  0.6783 -0.3485  0.4207
 4725TIP3   OH235809   1.729   6.676   2.016  0.1972  0.4915 -0.0744
 4725TIP3    H135810   1.729   6.691   1.921  0.4497 -0.5830 -0.2578
 4725TIP3    H235811   1.755   6.760   2.053  1.9067  0.4345 -1.0564
 4726TIP3   OH235812   6.512   3.535   1.733 -0.2305  0.7615 -0.4848
 4726TIP3    H135813   6.518   3.469   1.803  0.9262  1.1458 -0.1973
 4726TIP3    H235814   6.590   3.588   1.744 -0.9452  1.9474 -0.9636
 4727TIP3   OH235815   0.335   6.556   1.607 -0.0083 -0.3329  0.1290
 4727TIP3    H135816   0.421   6.526   1.579 -0.2141  0.1827 -1.1245
 4727TIP3    H235817   0.273   6.509   1.550 -0.4044  1.2818 -0.8357
 4728TIP3   OH235818   3.606   3.220   3.454 -0.2385  0.1535  0.2953
 4728TIP3    H135819   3.659   3.229   3.534 -1.7006  0.8762  1.2297
 4728TIP3    H235820   3.532   3.165   3.480 -2.9921  3.6853  0.7645
 4729TIP3   OH235821   5.541   2.941   0.581 -0.0647  0.1768  0.3846
 4729TIP3    H135822   5.589   2.957   0.662 -1.6598  1.2578  1.1629
 4729TIP3    H235823   5.609   2.929   0.515  1.2651 -0.1412  1.7509
 4730TIP3   OH235824   6.273   1.823   0.756  0.2685  0.4043 -0.3600
 4730TIP3    H135825   6.266   1.859   0.844 -1.6459  0.3612 -0.4495
 4730TIP3    H235826   6.248   1.732   0.764 -0.4618  0.5306 -1.0124
 4731TIP3   OH235827   5.874   0.302   0.699 -0.2008 -0.4594 -0.0608
 4731TIP3    H135828   5.781   0.317   0.680 -0.1329  0.6736  0.4331
 4731TIP3    H235829   5.902   0.381   0.745  0.5788 -1.4961  1.3368
 4732TIP3   OH235830   1.384   6.032   1.969 -0.6382  0.4384  0.0562
 4732TIP3    H135831   1.463   5.993   1.931 -0.0257  0.2313  1.5025
 4732TIP3    H235832   1.314   6.008   1.908  0.5590  1.6871 -1.9609
 4733TIP3   OH235833   4.251   0.728   0.964  0.6543  0.7747  0.8670
 4733TIP3    H135834   4.337   0.707   0.929  0.6089  2.1066 -0.0993
 4733TIP3    H235835   4.232   0.815   0.931 -2.0753 -0.3805 -0.9346
 4734TIP3   OH235836   0.778   4.220   7.987 -0.1573  0.5483  0.1659
 4734TIP3    H135837   0.703   4.195   8.041 -0.4368 -0.2786 -0.5827
 4734TIP3    H235838   0.745   4.219   7.897  0.7152  0.2777 -0.1684
 4735TIP3   OH235839   1.838   4.219   0.667  0.2720 -0.2968 -0.5198
 4735TIP3    H135840   1.928   4.196   0.644 -0.0897 -0.9636 -1.3279
 4735TIP3    H235841   1.847   4.287   0.734  1.3859  0.6591 -1.5847
 4736TIP3   OH235842   1.248   2.913   2.486  0.4082 -0.3996  0.3812
 4736TIP3    H135843   1.156   2.910   2.511  0.4237 -0.6166  0.4170
 4736TIP3    H235844   1.290   2.964   2.555  0.2976 -0.2112  0.3092
 4737TIP3   OH235845   2.004   3.025   0.221  0.2479 -0.3173 -0.7155
 4737TIP3    H135846   1.931   3.063   0.171 -0.8719 -1.6956 -0.2015
 4737TIP3    H235847   2.082   3.064   0.182 -0.7418  1.2562 -1.2595
 4738TIP3   OH235848   5.027   5.635   2.907 -0.2102  0.3628 -0.1205
 4738TIP3    H135849   5.064   5.586   2.980 -1.3286 -0.4653 -0.0898
 4738TIP3    H235850   4.939   5.660   2.936 -0.9580 -0.6088 -1.4145
 4739TIP3   OH235851   3.209   3.896   2.298  0.1342 -1.1351  0.3127
 4739TIP3    H135852   3.260   3.876   2.376  4.0492  1.2262 -1.3589
 4739TIP3    H235853   3.214   3.992   2.290 -2.3848 -1.0544 -1.4536
 4740TIP3   OH235854   0.914   4.136   3.226  0.2181 -0.2029  0.0935
 4740TIP3    H135855   0.906   4.217   3.175  1.8665 -0.7283 -1.1053
 4740TIP3    H235856   0.823   4.110   3.243 -0.3611  1.9893  0.7295
 4741TIP3   OH235857   5.956   2.510   7.087  0.6581 -0.0631 -0.2920
 4741TIP3    H135858   5.865   2.536   7.096  0.3362 -1.1576 -0.2185
 4741TIP3    H235859   5.952   2.427   7.039  1.5979 -0.2377 -0.0805
 4742TIP3   OH235860   2.623   2.592   0.936 -0.2175 -0.0124 -0.5932
 4742TIP3    H135861   2.590   2.673   0.899  1.9676  1.0865 -0.3101
 4742TIP3    H235862   2.623   2.606   1.031  2.3747  0.6934 -0.6110
 4743TIP3   OH235863   3.830   3.495   0.206  0.0593 -0.2073 -0.0917
 4743TIP3    H135864   3.774   3.452   0.270  0.5119 -1.1383 -0.3098
 4743TIP3    H235865   3.827   3.439   0.129  1.3201 -0.3001 -0.1006
 4744TIP3   OH235866   0.650   5.358   2.480 -0.3902  0.3659  0.1827
 4744TIP3    H135867   0.581   5.409   2.438 -0.0531  0.8062  0.1611
 4744TIP3    H235868   0.604   5.305   2.546 -0.4997  2.5655  2.0159
 4745TIP3   OH235869   5.756   3.298   7.281  0.3245  0.1207 -0.3163
 4745TIP3    H135870   5.819   3.368   7.296  0.8102 -0.2726 -0.4662
 4745TIP3    H235871   5.675   3.342   7.259  0.8970  0.6211 -1.4695
 4746TIP3   OH235872   6.717   3.824   7.607 -0.0973 -0.2753  0.4427
 4746TIP3    H135873   6.683   3.888   7.669 -0.6338 -0.3143  0.1949
 4746TIP3    H235874   6.642   3.803   7.550  0.8865  1.3437 -1.5857
 4747TIP3   OH235875   4.785   6.070   1.224  0.3524 -0.6943  0.0818
 4747TIP3    H135876   4.838   6.140   1.185  0.4204 -1.0974 -0.5668
 4747TIP3    H235877   4.766   6.101   1.312 -0.4336  0.5873 -0.5078
 4748TIP3   OH235878   0.610   2.999   8.541 -0.3563 -0.5881  0.4362
 4748TIP3    H135879   0.636   3.090   8.532 -0.4417 -0.6809 -1.2304
 4748TIP3    H235880   0.556   2.996   8.619  0.7052  0.5270  1.2440
 4749TIP3   OH235881   5.618   5.389   2.125 -0.0763 -0.3362  0.3377
 4749TIP3    H135882   5.706   5.356   2.110  0.8790  1.9989  0.4555
 4749TIP3    H235883   5.600   5.368   2.217  0.2451 -0.9932  0.2590
 4750TIP3   OH235884   1.895   4.098   8.574 -0.2229 -0.1104 -0.3129
 4750TIP3    H135885   1.834   4.052   8.516  0.8933 -3.6262  1.0643
 4750TIP3    H235886   1.868   4.073   8.662  1.9284 -0.1090  0.4016
 4751TIP3   OH235887   2.896   6.295   2.044  0.1984 -0.2479  0.1568
 4751TIP3    H135888   2.975   6.289   2.098 -0.5477  4.7799  2.2957
 4751TIP3    H235889   2.825   6.312   2.107 -1.8859 -0.4201 -2.0117
 4752TIP3   OH235890   3.313   3.940   0.796  0.0954 -0.0815  0.0042
 4752TIP3    H135891   3.282   3.982   0.716 -0.0541  1.0303  0.6242
 4752TIP3    H235892   3.403   3.914   0.776 -0.7219 -2.1354 -1.3607
 4753TIP3   OH235893   2.899   2.893   7.915 -0.0304 -0.0831 -0.3336
 4753TIP3    H135894   2.807   2.913   7.899 -0.0670 -1.2268 -1.8006
 4753TIP3    H235895   2.904   2.798   7.905  0.8005 -0.4452  2.6161
 4754TIP3   OH235896   0.080   1.306   8.668 -0.1264  0.2404  1.0197
 4754TIP3    H135897   0.028   1.240   8.623  1.7571 -0.2589 -0.5577
 4754TIP3    H235898   0.042   1.311   8.756 -2.7498 -0.1096 -0.0091
 4755TIP3   OH235899   0.082   2.013   7.775 -0.1296 -0.0393 -0.0892
 4755TIP3    H135900   0.163   1.986   7.730 -0.1064 -0.2095  0.0546
 4755TIP3    H235901   0.048   1.932   7.813 -0.9962 -0.2004 -1.1364
 4756TIP3   OH235902   5.505   5.325   8.066  0.5793 -0.1155  0.4511
 4756TIP3    H135903   5.498   5.253   8.004  1.7894 -0.7854  1.0426
 4756TIP3    H235904   5.599   5.346   8.068  0.3165  1.1339  0.6818
 4757TIP3   OH235905   4.762   0.032   0.118  0.3766  0.1509  0.4353
 4757TIP3    H135906   4.743   0.113   0.165  3.2637  0.4282  1.3564
 4757TIP3    H235907   4.752  -0.036   0.184  0.4686  0.0672  0.3634
 4758TIP3   OH235908   3.613   1.769   3.004  0.4175 -0.3730 -0.2275
 4758TIP3    H135909   3.604   1.735   3.093 -2.4865 -1.1850 -0.7329
 4758TIP3    H235910   3.652   1.856   3.015  0.4086 -0.5746  1.7949
 4759TIP3   OH235911   6.140   3.483   8.301 -0.6395 -0.0359 -0.2590
 4759TIP3    H135912   6.120   3.566   8.345  0.4292 -0.7896  1.7777
 4759TIP3    H235913   6.201   3.439   8.359  1.4536 -0.8479 -2.8617
 4760TIP3   OH235914   1.753   5.691   6.484 -0.1474  0.2964 -0.6407
 4760TIP3    H135915   1.789   5.778   6.501  1.3196 -0.6241  1.3577
 4760TIP3    H235916   1.762   5.645   6.568 -2.9841 -1.0830 -0.9747
 4761TIP3   OH235917   6.300   6.412   7.182 -0.1019  0.3078  0.2426
 4761TIP3    H135918   6.362   6.341   7.166  0.0407  0.4743  0.0566
 4761TIP3    H235919   6.354   6.491   7.184 -0.1528  0.3361  1.1851
 4762TIP3   OH235920   3.954   4.182   1.049 -0.2926 -0.2443  0.7502
 4762TIP3    H135921   3.904   4.260   1.023  0.9839 -0.6172 -3.8005
 4762TIP3    H235922   4.025   4.216   1.104 -0.8675  1.5284  0.4567
 4763TIP3   OH235923   0.709   6.462   0.801  0.0939  0.1818  0.1220
 4763TIP3    H135924   0.804   6.453   0.792 -0.0755 -1.0370 -0.6657
 4763TIP3    H235925   0.685   6.520   0.729  0.2130  0.3660  0.2273
 4764TIP3   OH235926   2.316   6.090   0.900 -0.6294 -0.5306 -0.0243
 4764TIP3    H135927   2.353   6.171   0.865  1.3787 -1.5926 -0.5257
 4764TIP3    H235928   2.382   6.059   0.962  0.3335 -3.4480 -2.2639
 4765TIP3   OH235929   5.819   0.850   2.249 -0.0748 -0.5660  0.0841
 4765TIP3    H135930   5.850   0.763   2.273  2.3714  0.4906  1.1263
 4765TIP3    H235931   5.728   0.852   2.279  0.1146 -2.4131  0.9356
 4766TIP3   OH235932   3.846   1.178   2.097  0.3455 -1.1351 -0.5295
 4766TIP3    H135933   3.798   1.116   2.041 -0.4743  0.1522 -1.3074
 4766TIP3    H235934   3.819   1.264   2.066  1.0981 -0.3698  0.8339
 4767TIP3   OH235935   6.313   0.408   7.737 -0.0744 -0.1602  0.1885
 4767TIP3    H135936   6.333   0.452   7.820  0.1040  0.5048 -0.1946
 4767TIP3    H235937   6.223   0.433   7.718 -0.0959 -0.2637  0.1539
 4768TIP3   OH235938   5.810   3.549   0.581 -0.3285  0.0002 -0.4579
 4768TIP3    H135939   5.841   3.490   0.513  2.2509  1.4582 -0.6997
 4768TIP3    H235940   5.887   3.566   0.635 -1.1845  2.3098  0.1858
 4769TIP3   OH235941   5.101   6.654   2.263 -0.3116 -0.6058 -0.3656
 4769TIP3    H135942   5.076   6.670   2.172  1.1434  0.4233 -0.6228
 4769TIP3    H235943   5.176   6.595   2.257  1.2080  1.1940 -0.0015
 4770TIP3   OH235944   5.606   0.247   2.915 -0.6356  0.3929  0.3688
 4770TIP3    H135945   5.520   0.206   2.927 -0.5293 -0.1844 -0.7119
 4770TIP3    H235946   5.661   0.205   2.981 -1.3152  1.2223  1.4940
 4771TIP3   OH235947   5.799   1.589   1.634 -0.0058  0.1457  0.5636
 4771TIP3    H135948   5.738   1.576   1.707 -1.4281 -1.8636 -0.8661
 4771TIP3    H235949   5.867   1.523   1.648 -0.8971 -1.0467 -0.4518
 4772TIP3   OH235950   6.340   2.443   8.211 -0.0165 -0.0214  0.7158
 4772TIP3    H135951   6.348   2.357   8.172  0.0143  0.2537  0.1006
 4772TIP3    H235952   6.390   2.501   8.154 -1.5207  0.7150  0.0656
 4773TIP3   OH235953   4.545   3.928   7.213 -0.4480 -0.1754 -0.2916
 4773TIP3    H135954   4.471   3.988   7.225 -1.4816 -1.1105 -1.6885
 4773TIP3    H235955   4.506   3.841   7.216  0.5449 -0.6786 -1.2791
 4774TIP3   OH235956   3.819   0.025   1.866 -0.4156 -0.3868  0.4834
 4774TIP3    H135957   3.887   0.071   1.915  1.0382 -1.6760 -0.2546
 4774TIP3    H235958   3.745   0.085   1.867  0.9126  1.3344  0.7800
 4775TIP3   OH235959   0.080   6.123   0.021 -0.1898  0.2193 -0.0451
 4775TIP3    H135960   0.031   6.188  -0.030  1.2738  1.0768 -0.4222
 4775TIP3    H235961   0.171   6.139  -0.002  0.3861 -0.4539  1.6429
 4776TIP3   OH235962   6.740   6.589   2.050 -0.0679  0.4151  0.3998
 4776TIP3    H135963   6.795   6.532   2.104 -0.3843  1.0616  1.4417
 4776TIP3    H235964   6.772   6.677   2.068 -1.8821  0.8815  1.6330
 4777TIP3   OH235965   2.864   4.441   1.747 -0.6199 -0.0761 -0.1975
 4777TIP3    H135966   2.915   4.516   1.777 -0.7875 -0.6749  1.6533
 4777TIP3    H235967   2.811   4.415   1.822 -1.4826 -1.2959 -1.1822
 4778TIP3   OH235968   4.442   3.969   0.142  0.2944 -0.2898  0.0826
 4778TIP3    H135969   4.359   3.967   0.190  0.4026 -0.2373  0.2722
 4778TIP3    H235970   4.427   4.029   0.070  0.8876  1.5579  1.4326
 4779TIP3   OH235971   1.795   0.820   0.964  0.2626  0.1696 -0.0159
 4779TIP3    H135972   1.771   0.864   1.045 -1.0419  1.6981 -1.1657
 4779TIP3    H235973   1.861   0.878   0.924 -0.3854  0.3503 -0.8529
 4780TIP3   OH235974   0.791   4.601   1.283  0.1477  0.3336  0.2971
 4780TIP3    H135975   0.818   4.686   1.250 -1.4511  0.0789 -1.9448
 4780TIP3    H235976   0.695   4.607   1.291 -0.1729 -1.6233 -1.2464
 4781TIP3   OH235977   4.077   4.766   7.146  0.6166  0.2017  0.1141
 4781TIP3    H135978   4.093   4.675   7.171 -2.8237  0.0519  2.4739
 4781TIP3    H235979   4.118   4.818   7.216  0.0485  0.3048  0.3751
 4782TIP3   OH235980   3.342   4.940   0.828  0.1504 -0.2051  0.2346
 4782TIP3    H135981   3.331   4.877   0.899  0.0908  0.7380  1.0873
 4782TIP3    H235982   3.272   4.920   0.767  0.1117 -0.9429  0.5085
 4783TIP3   OH235983   3.307   5.862   8.465 -0.6253  0.5767 -0.3210
 4783TIP3    H135984   3.262   5.944   8.484  1.3827  1.0222  3.3624
 4783TIP3    H235985   3.393   5.888   8.432 -0.4035 -0.0696 -0.2739
 4784TIP3   OH235986   4.383   5.076   0.243 -0.1336 -0.3673 -0.1980
 4784TIP3    H135987   4.401   5.139   0.313 -0.3364  0.6723 -1.0570
 4784TIP3    H235988   4.324   5.122   0.184  0.0371 -1.2287 -1.0556
 4785TIP3   OH235989   4.099   4.088   7.139 -0.2755 -0.1592 -0.0967
 4785TIP3    H135990   4.044   4.009   7.139  0.8550 -1.0624  2.3988
 4785TIP3    H235991   4.037   4.160   7.152 -1.0462 -1.0810  1.8584
 4786TIP3   OH235992   2.340   5.442   0.640 -0.0520 -0.1402  0.2504
 4786TIP3    H135993   2.380   5.492   0.569 -1.2577 -0.1260 -0.4372
 4786TIP3    H235994   2.252   5.478   0.648 -0.4080 -1.0936  0.8058
 4787TIP3   OH235995   2.358   5.082   7.985  0.4185 -0.0083  0.7227
 4787TIP3    H135996   2.446   5.055   7.959  0.5667  1.1581 -0.0932
 4787TIP3    H235997   2.341   5.162   7.934 -1.2893 -0.4484  0.5166
 4788TIP3   OH235998   4.089   0.422   8.157  0.5419  0.1257 -0.0882
 4788TIP3    H135999   4.014   0.455   8.108  0.3979 -0.0781 -0.0061
 4788TIP3    H236000   4.061   0.336   8.189  1.2142 -0.4740 -1.0540
 4789TIP3   OH236001   2.613   5.106   0.030 -0.2125  0.0568 -0.7079
 4789TIP3    H136002   2.637   5.195   0.056  1.7349  0.0420 -2.1689
 4789TIP3    H236003   2.523   5.094   0.062  0.4559  1.5037  1.9558
 4790TIP3   OH236004   4.195   1.260   2.142  0.4723  0.4217  0.3559
 4790TIP3    H136005   4.131   1.228   2.205 -1.0840 -2.2152 -2.2638
 4790TIP3    H236006   4.162   1.346   2.116 -0.9768 -0.0779  0.4548
 4791TIP3   OH236007   3.044   4.515   8.330 -0.2047 -0.1102  0.2572
 4791TIP3    H136008   2.982   4.480   8.394  0.5468  0.5526  1.3560
 4791TIP3    H236009   2.998   4.590   8.291 -0.9121 -0.8934 -0.4794
 4792TIP3   OH236010   5.479   1.827   1.680  0.2078  0.5469  0.3522
 4792TIP3    H136011   5.521   1.903   1.719 -1.3842  1.6775 -0.0458
 4792TIP3    H236012   5.511   1.826   1.590 -0.2599  1.1549  0.1708
 4793TIP3   OH236013   1.853   5.204   0.896  0.5265 -0.5830 -0.0224
 4793TIP3    H136014   1.914   5.252   0.841  1.2133  0.4087  1.5486
 4793TIP3    H236015   1.817   5.137   0.838  1.0651  0.5196 -1.7212
 4794TIP3   OH236016   0.058   3.201   0.539 -0.3248 -0.4318 -0.0124
 4794TIP3    H136017   0.001   3.265   0.495  0.1331 -0.1372 -0.1788
 4794TIP3    H236018   0.004   3.122   0.546 -1.1070  0.1503  0.7338
 4795TIP3   OH236019   4.923   3.489   1.883 -0.3994 -0.1776  0.2067
 4795TIP3    H136020   4.885   3.575   1.898  0.3321  0.3993 -1.0564
 4795TIP3    H236021   4.902   3.468   1.792  1.7499 -0.0690 -0.3767
 4796TIP3   OH236022   5.716   5.114   0.430  0.4736 -0.0981  0.3861
 4796TIP3    H136023   5.730   5.022   0.406  0.5821 -0.5038  1.8526
 4796TIP3    H236024   5.802   5.144   0.460  1.0861  1.3051 -2.4116
 4797TIP3   OH236025   1.798   4.732   2.861  0.4887 -0.0044 -0.1856
 4797TIP3    H136026   1.713   4.767   2.888  1.1515  1.1065  0.5544
 4797TIP3    H236027   1.840   4.708   2.943  0.2086 -2.2960 -0.6432
 4798TIP3   OH236028   0.377   0.886   0.943 -0.4323  0.2593 -0.5243
 4798TIP3    H136029   0.315   0.945   0.985 -2.2057 -1.2550 -0.8692
 4798TIP3    H236030   0.425   0.846   1.015 -0.4106  0.8853 -0.1947
 4799TIP3   OH236031   1.742   4.429   8.490  0.0611  0.1893  0.2811
 4799TIP3    H136032   1.710   4.506   8.442  0.2687 -0.2312 -0.5324
 4799TIP3    H236033   1.671   4.409   8.551 -0.1901  0.7495  0.1847
 4800TIP3   OH236034   2.998   5.340   2.908  0.3360  0.6473 -0.2592
 4800TIP3    H136035   2.911   5.318   2.941  0.5716 -0.3564 -0.2897
 4800TIP3    H236036   3.046   5.369   2.985  0.4036 -0.1591 -0.0004
 4801TIP3   OH236037   1.201   5.016   8.536  0.5545 -0.1436 -0.4883
 4801TIP3    H136038   1.124   4.976   8.495  0.6567 -0.4131 -0.4237
 4801TIP3    H236039   1.270   4.950   8.525  0.5270 -0.3179  0.3116
 4802TIP3   OH236040   0.528   6.797   7.232  0.2017 -0.1106 -0.4196
 4802TIP3    H136041   0.507   6.734   7.163 -0.4231  0.1486 -0.4629
 4802TIP3    H236042   0.444   6.823   7.268  0.4036  1.1933 -0.8302
 4803TIP3   OH236043   3.298   5.325   1.034  0.0783 -0.4270  0.4303
 4803TIP3    H136044   3.339   5.286   0.956  1.8317  1.0890  0.5191
 4803TIP3    H236045   3.340   5.282   1.108 -0.1705 -0.4850  0.5396
 4804TIP3   OH236046   0.023   2.275   1.571 -0.4880  0.1143 -0.1815
 4804TIP3    H136047   0.060   2.204   1.622  1.3488 -0.4408 -2.1154
 4804TIP3    H236048   0.099   2.324   1.539 -1.5950  1.3328 -1.0999
 4805TIP3   OH236049   5.887   0.753   1.194 -0.4663  0.4177 -0.0893
 4805TIP3    H136050   5.899   0.792   1.107 -1.6401  0.0861 -0.4221
 4805TIP3    H236051   5.792   0.750   1.206 -0.4730 -2.4280 -0.1688
 4806TIP3   OH236052   1.977   3.792   8.626  0.2844 -1.0659  0.4953
 4806TIP3    H136053   1.943   3.858   8.564 -0.3854  0.6758  2.5836
 4806TIP3    H236054   1.931   3.711   8.601 -0.7541 -0.1861 -0.6241
 4807TIP3   OH236055   1.720   3.973   0.567 -0.0453 -0.3195  0.8217
 4807TIP3    H136056   1.643   3.933   0.609 -1.7630  1.7658 -0.1176
 4807TIP3    H236057   1.756   4.031   0.634 -1.7297  1.6752  0.0930
 4808TIP3   OH236058   0.321   3.217   0.534 -0.5745 -0.2151 -0.1164
 4808TIP3    H136059   0.329   3.219   0.439 -1.1818 -0.6455 -0.1803
 4808TIP3    H236060   0.229   3.195   0.551 -0.5434  0.1422  0.5688
 4809TIP3   OH236061   0.880   1.546   7.578  0.0081 -0.3015 -0.6540
 4809TIP3    H136062   0.968   1.519   7.607 -0.8905 -1.1902  1.4294
 4809TIP3    H236063   0.884   1.538   7.483  1.6391 -2.1534 -0.5200
 4810TIP3   OH236064   2.355   5.126   1.192 -0.6715  0.3937  0.2890
 4810TIP3    H136065   2.395   5.136   1.278 -1.5597  1.8296  0.5725
 4810TIP3    H236066   2.318   5.212   1.173 -0.7297  0.0295 -1.4188
 4811TIP3   OH236067   5.218   1.720   8.300  0.4000  0.1994 -0.1199
 4811TIP3    H136068   5.152   1.772   8.255 -0.7058  0.0779  1.2926
 4811TIP3    H236069   5.297   1.729   8.246  0.0644  2.7410 -0.3102
 4812TIP3   OH236070   2.109   4.500   1.060  0.2826 -0.0952  0.0669
 4812TIP3    H136071   2.126   4.548   0.979 -0.4710  0.1479  0.0437
 4812TIP3    H236072   2.152   4.552   1.128 -1.8630  1.5894  0.2814
 4813TIP3   OH236073   5.034   1.294   7.346  0.3393 -0.8828  0.1081
 4813TIP3    H136074   5.123   1.325   7.360  0.1584 -0.7342  0.9331
 4813TIP3    H236075   4.978   1.368   7.368  0.0108 -0.9167 -0.5766
 4814TIP3   OH236076   2.792   0.262   0.783  0.1300  0.4488  0.0757
 4814TIP3    H136077   2.756   0.258   0.872  0.9970 -1.0849  0.3901
 4814TIP3    H236078   2.837   0.346   0.779 -1.9344  1.6264  0.2579
 4815TIP3   OH236079   4.324   1.527   0.945  0.4135 -0.6462  0.4431
 4815TIP3    H136080   4.356   1.437   0.941  2.5070 -0.0683  2.4115
 4815TIP3    H236081   4.360   1.569   0.866 -0.1734 -1.3699 -0.2269
 4816TIP3   OH236082   1.225   3.483   1.801 -0.1632  0.1570 -0.4726
 4816TIP3    H136083   1.157   3.510   1.863  0.2154 -0.0357  0.0291
 4816TIP3    H236084   1.193   3.513   1.716 -0.5857  0.6096 -0.1574
 4817TIP3   OH236085   2.015   0.688   0.727 -0.1052 -0.0233  0.0250
 4817TIP3    H136086   1.951   0.639   0.778 -1.4316  2.7171  1.2173
 4817TIP3    H236087   2.100   0.656   0.759 -0.8428 -2.4314 -0.2691
 4818TIP3   OH236088   6.112   6.214   0.218 -0.5071 -0.4911  0.5346
 4818TIP3    H136089   6.081   6.124   0.210  0.8762 -1.0053  0.7631
 4818TIP3    H236090   6.116   6.246   0.128 -0.9985 -0.6582  0.4524
 4819TIP3   OH236091   2.797   4.753   0.493  0.2618 -0.2396  0.1907
 4819TIP3    H136092   2.815   4.847   0.491  2.2677 -0.5839  0.4926
 4819TIP3    H236093   2.809   4.725   0.403 -3.1067  0.1786 -0.5371
 4820TIP3   OH236094   5.322   4.367   1.812  0.4964 -0.4992  0.0117
 4820TIP3    H136095   5.377   4.379   1.889  1.1080  0.4741 -0.5473
 4820TIP3    H236096   5.232   4.376   1.845  0.7004 -1.2020  0.7845
 4821TIP3   OH236097   1.532   2.845   8.546  0.0059  0.4643 -0.1790
 4821TIP3    H136098   1.511   2.927   8.589 -1.4573 -2.6086  6.0299
 4821TIP3    H236099   1.625   2.830   8.564  0.0214  0.2712 -0.3977
 4822TIP3   OH236100   0.218   0.960   2.309  0.0598  0.0529  0.8357
 4822TIP3    H136101   0.302   0.927   2.340  0.5699 -0.9299 -1.4426
 4822TIP3    H236102   0.166   0.881   2.293 -0.3258  0.5275 -0.3505
 4823TIP3   OH236103   5.025   5.360   2.780 -0.2162 -0.1303  0.3521
 4823TIP3    H136104   5.098   5.311   2.817  0.9255  0.8206 -0.5552
 4823TIP3    H236105   5.032   5.447   2.818 -2.2979 -0.6188  2.0345
 4824TIP3   OH236106   3.496   5.450   8.592  0.3601  0.1977  0.2341
 4824TIP3    H136107   3.435   5.401   8.537  1.3153 -1.8987  0.9342
 4824TIP3    H236108   3.489   5.410   8.678  1.2750  1.2476  0.8350
 4825TIP3   OH236109   1.729   4.080   1.632  0.1254  0.4030  0.0174
 4825TIP3    H136110   1.669   4.049   1.700  0.1416 -0.1395 -0.2123
 4825TIP3    H236111   1.814   4.045   1.658  0.4319  1.4580  0.5325
 4826TIP3   OH236112   2.438   5.114   1.702 -0.2767  1.0239 -0.3844
 4826TIP3    H136113   2.474   5.202   1.713  2.0690  0.8237 -4.4510
 4826TIP3    H236114   2.398   5.115   1.615 -1.5560 -1.5548  0.0773
 4827TIP3   OH236115   4.978   1.667   1.732  0.3900 -0.2812  0.3671
 4827TIP3    H136116   4.954   1.617   1.654  1.7592 -1.5819  0.7400
 4827TIP3    H236117   4.896   1.706   1.762 -0.2578 -0.2225 -1.3907
 4828TIP3   OH236118   5.422   2.667   7.757 -0.5972 -0.1402  0.5988
 4828TIP3    H136119   5.473   2.694   7.680 -0.7437 -2.1535 -0.2795
 4828TIP3    H236120   5.419   2.745   7.812  0.6908  0.9760 -0.8008
 4829TIP3   OH236121   3.516   6.729   8.273 -0.0639  0.5070  0.2539
 4829TIP3    H136122   3.489   6.776   8.194  0.4066  1.7236  0.7997
 4829TIP3    H236123   3.538   6.797   8.336 -0.8360 -0.4256  1.6005
 4830TIP3   OH236124   2.186   1.295   7.113 -0.1144  0.1082  0.4615
 4830TIP3    H136125   2.098   1.329   7.127 -1.0204 -0.2676 -3.3976
 4830TIP3    H236126   2.182   1.205   7.145 -0.9798  0.2210  0.7059
 4831TIP3   OH236127   1.969   2.839   1.984 -0.1742  0.0254  0.3437
 4831TIP3    H136128   2.002   2.911   1.932  0.9347  0.3975  1.5189
 4831TIP3    H236129   1.892   2.874   2.028 -0.5047  0.0203 -0.2152
 4832TIP3   OH236130   4.372   5.012   8.003  0.6366  0.0048  0.4914
 4832TIP3    H136131   4.298   5.013   7.943  0.6097  0.2861  0.5263
 4832TIP3    H236132   4.341   4.963   8.080  0.3122  0.5640  0.7230
 4833TIP3   OH236133   0.697   4.513   0.436  0.5066  0.0300  0.0830
 4833TIP3    H136134   0.742   4.522   0.351  1.4743  0.4906  0.6227
 4833TIP3    H236135   0.702   4.420   0.456  0.0677 -0.1148 -0.4787
 4834TIP3   OH236136   4.069   4.395   1.563 -0.2297  0.0274  0.1864
 4834TIP3    H136137   3.981   4.365   1.583 -0.3289 -0.1881 -0.5596
 4834TIP3    H236138   4.063   4.434   1.476  0.9883 -2.7159 -1.2470
 4835TIP3   OH236139   0.612   0.283   0.286  0.0969 -0.7425 -0.3591
 4835TIP3    H136140   0.588   0.242   0.369 -2.0038  0.6553 -0.1866
 4835TIP3    H236141   0.687   0.339   0.307  2.3284 -3.5178 -0.3871
 4836TIP3   OH236142   1.023   6.641   2.296  0.7589  0.2990 -0.2342
 4836TIP3    H136143   1.093   6.706   2.295  0.8934  0.1796  0.6978
 4836TIP3    H236144   1.041   6.587   2.373 -1.9693  2.0853  1.8382
 4837TIP3   OH236145   0.987   2.352   1.355 -0.1086  0.1516  0.6748
 4837TIP3    H136146   1.044   2.323   1.284  1.3698  1.4800  1.2449
 4837TIP3    H236147   0.924   2.411   1.312  0.8615  1.0579  0.4405
 4838TIP3   OH236148   1.652   2.113   8.648 -0.9275  0.1407 -0.3550
 4838TIP3    H136149   1.699   2.091   8.567 -1.0279 -0.3204 -0.2895
 4838TIP3    H236150   1.579   2.168   8.620 -0.2845  0.9731 -0.4473
 4839TIP3   OH236151   5.115   1.050   0.687 -0.0374  0.0410  0.1313
 4839TIP3    H136152   5.106   0.996   0.765 -0.3922  0.3581  0.3098
 4839TIP3    H236153   5.126   1.139   0.720  0.4522  0.0943 -0.1653
 4840TIP3   OH236154   5.202   1.565   0.711 -0.0716  0.1709 -0.1411
 4840TIP3    H136155   5.117   1.608   0.703 -1.4606 -1.8932  2.0421
 4840TIP3    H236156   5.231   1.585   0.800 -0.0147 -1.9752  0.3795
 4841TIP3   OH236157   0.871   2.912   8.590  0.4182 -0.3403 -0.1120
 4841TIP3    H136158   0.883   2.984   8.528 -0.4445 -0.7286 -0.7498
 4841TIP3    H236159   0.777   2.911   8.607  0.6864  0.0432  1.5606
 4842TIP3   OH236160   4.274   5.012   8.362 -0.6332  0.0107 -0.4809
 4842TIP3    H136161   4.247   5.002   8.453  0.0243 -0.0248 -0.2844
 4842TIP3    H236162   4.320   4.930   8.342 -0.6962  0.0563 -0.8161
 4843TIP3   OH236163   3.835   1.292   0.105 -0.3824 -0.2496  0.3875
 4843TIP3    H136164   3.761   1.309   0.164  0.2686  0.0919  1.1236
 4843TIP3    H236165   3.811   1.337   0.024 -1.2228 -0.5925  0.4310
 4844TIP3   OH236166   6.419   1.483   2.592 -0.2581 -0.1854  0.1487
 4844TIP3    H136167   6.495   1.458   2.644 -0.1400 -2.3983 -0.9764
 4844TIP3    H236168   6.345   1.438   2.633 -0.6460  0.3996  0.1019
 4845TIP3   OH236169   2.962   2.956   1.291 -0.4424  0.4902  0.4529
 4845TIP3    H136170   2.942   2.897   1.218 -0.3657  1.2496 -0.1957
 4845TIP3    H236171   2.972   3.042   1.250  0.1385  0.8332  1.2978
 4846TIP3   OH236172   6.412   5.954   0.229 -0.7192 -0.0764 -0.0735
 4846TIP3    H136173   6.438   5.930   0.140  2.2876  0.2143  0.5891
 4846TIP3    H236174   6.491   5.938   0.281 -1.1148  3.3227  1.8560
 4847TIP3   OH236175   6.255   5.441   0.706 -0.0060 -0.0946  0.3528
 4847TIP3    H136176   6.169   5.482   0.709  0.2864  0.5885 -0.4038
 4847TIP3    H236177   6.238   5.348   0.689 -0.6162 -0.1113  1.0021
 4848TIP3   OH236178   1.575   1.748   8.431  0.1232  0.2884  0.3857
 4848TIP3    H136179   1.655   1.696   8.440 -1.5857 -2.6577 -0.1976
 4848TIP3    H236180   1.522   1.699   8.369 -1.8694  2.5321  0.2049
 4849TIP3   OH236181   0.421   5.397   1.200  0.0123  0.1814 -0.1064
 4849TIP3    H136182   0.361   5.355   1.138 -0.7997 -0.1584  0.8797
 4849TIP3    H236183   0.399   5.359   1.284  1.0582  0.6818  0.4129
 4850TIP3   OH236184   5.672   3.082   8.303  0.6877  0.2875 -0.1806
 4850TIP3    H136185   5.660   2.987   8.307  0.3560  0.2961 -0.8732
 4850TIP3    H236186   5.708   3.105   8.389 -2.0955 -0.0540  1.1884
 4851TIP3   OH236187   0.715   6.869   0.264  0.5107  0.1407 -0.1089
 4851TIP3    H136188   0.770   6.944   0.287  0.5327 -0.5161  2.2382
 4851TIP3    H236189   0.769   6.793   0.282  0.3706 -0.5118 -2.1543
 4852TIP3   OH236190   6.866   5.772   1.668 -0.2145  0.2814  0.0733
 4852TIP3    H136191   6.953   5.740   1.694  0.2632 -0.5396 -2.2498
 4852TIP3    H236192   6.873   5.867   1.674  0.4524  0.1882  1.0416
 4853TIP3   OH236193   3.783   1.994   0.540  0.0999  0.3260  0.0231
 4853TIP3    H136194   3.746   1.927   0.484  2.9434 -0.8008 -0.7094
 4853TIP3    H236195   3.869   2.013   0.502  0.6266  2.2313  1.9061
 4854TIP3   OH236196   4.877   5.383   1.377 -0.0468  0.1465 -0.2541
 4854TIP3    H136197   4.887   5.358   1.469 -0.7677 -0.2848 -0.2871
 4854TIP3    H236198   4.865   5.300   1.331  0.3540  0.3571 -0.7471
 4855TIP3   OH236199   3.934   2.064   1.922  0.5058 -0.1172  0.2707
 4855TIP3    H136200   3.995   2.031   1.856 -0.1055  0.4040 -0.5604
 4855TIP3    H236201   3.957   2.156   1.932  0.9368 -0.3013  1.1884
 4856TIP3   OH236202   0.059   5.223   2.036  0.3564 -0.2280 -0.4747
 4856TIP3    H136203   0.064   5.146   1.979  2.4663 -0.6276  0.2003
 4856TIP3    H236204   0.021   5.190   2.117 -0.4593 -0.1409 -0.8063
 4857TIP3   OH236205   0.392   2.124   1.548  0.6615  0.2169  0.2999
 4857TIP3    H136206   0.455   2.058   1.520  0.0921 -0.3194  0.2445
 4857TIP3    H236207   0.312   2.074   1.567 -0.0472  0.9771 -0.5649
 4858TIP3   OH236208   0.951   6.162   1.667 -0.9395  0.1402 -0.0260
 4858TIP3    H136209   0.972   6.215   1.590 -0.2587  0.3637  0.3070
 4858TIP3    H236210   0.860   6.136   1.654 -1.5881  2.1086  0.2196
 4859TIP3   OH236211   5.445   4.666   0.041 -0.5676  0.5949 -0.0681
 4859TIP3    H136212   5.495   4.719  -0.021  0.2900  0.0101  0.1084
 4859TIP3    H236213   5.462   4.707   0.126 -1.1514  0.9603 -0.1290
 4860TIP3   OH236214   1.816   1.202   1.267 -0.2267  0.2243  0.2528
 4860TIP3    H136215   1.723   1.186   1.284  0.2881 -1.1794  1.9987
 4860TIP3    H236216   1.861   1.172   1.346  1.6954  1.3097 -0.3603
 4861TIP3   OH236217   6.832   6.478   0.559 -0.1480 -0.0285 -0.2265
 4861TIP3    H136218   6.866   6.556   0.515 -1.6199 -0.0928 -1.6067
 4861TIP3    H236219   6.904   6.447   0.614  0.8294  1.6748 -0.4835
 4862TIP3   OH236220   4.925   4.412   0.362  0.2470  0.7059 -0.6941
 4862TIP3    H136221   4.980   4.487   0.387  1.3205 -0.6013  1.0878
 4862TIP3    H236222   4.985   4.348   0.326  0.0848 -0.9606  1.7670
 4863TIP3   OH236223   3.405   4.044   2.078 -0.3637 -0.2074 -0.0581
 4863TIP3    H136224   3.319   4.034   2.037 -0.3662 -1.8833  0.2866
 4863TIP3    H236225   3.444   3.956   2.074 -0.7895 -0.8286  4.3791
 4864TIP3   OH236226   5.087   1.607   7.967  0.4457  0.2325 -0.5253
 4864TIP3    H136227   5.106   1.700   7.981  1.0673  0.4749 -2.6425
 4864TIP3    H236228   5.163   1.574   7.919 -0.4453 -1.0094 -1.1275
 4865TIP3   OH236229   3.015   1.647   8.488  0.2594  0.1792  0.0820
 4865TIP3    H136230   3.023   1.558   8.522 -1.8677  0.0949  0.4620
 4865TIP3    H236231   2.955   1.640   8.414  1.3267  1.0754 -0.9050
 4866TIP3   OH236232   4.898   2.289   8.504  0.2757  0.1268 -0.2983
 4866TIP3    H136233   4.960   2.302   8.576 -0.5893 -1.0958  0.7338
 4866TIP3    H236234   4.932   2.341   8.432  2.1112  0.0287  0.4589
 4867TIP3   OH236235   1.694   1.413   1.547 -0.3803  0.3236 -0.2542
 4867TIP3    H136236   1.599   1.400   1.557 -0.3449 -0.8462 -1.2343
 4867TIP3    H236237   1.733   1.364   1.619 -0.4930  0.2467 -0.2455
 4868TIP3   OH236238   5.051   3.674   2.561  0.3409  0.4919 -0.1723
 4868TIP3    H136239   5.100   3.696   2.482 -1.1473  0.1249 -1.2465
 4868TIP3    H236240   5.117   3.664   2.629  1.7374 -0.0295 -1.5627
 4869TIP3   OH236241   4.872   4.911   0.125  0.1799  0.2057  0.3723
 4869TIP3    H136242   4.799   4.973   0.116  2.3354  2.9119  0.2537
 4869TIP3    H236243   4.858   4.871   0.211  0.2607  3.1523  1.8614
 4870TIP3   OH236244   1.174   0.816   7.016 -0.2517 -0.0524  0.2455
 4870TIP3    H136245   1.096   0.817   6.960 -1.0475  1.6850  1.2716
 4870TIP3    H236246   1.224   0.893   6.989  0.5673 -0.5485  0.3280
 4871TIP3   OH236247   6.684   3.839   2.605 -0.1327 -0.6878 -0.1853
 4871TIP3    H136248   6.697   3.796   2.689  0.0764  2.7823  1.7087
 4871TIP3    H236249   6.769   3.832   2.561  0.2162 -1.1920  0.5576
 4872TIP3   OH236250   6.648   1.718   1.889  0.6946 -0.0048 -0.1555
 4872TIP3    H136251   6.600   1.664   1.951  1.7464 -1.3947 -0.4872
 4872TIP3    H236252   6.715   1.762   1.942  0.8313 -0.2640 -0.1098
 4873TIP3   OH236253   6.244   2.849   6.968  0.5968 -0.0130  0.6937
 4873TIP3    H136254   6.307   2.882   7.033  1.0323  0.3140  0.1178
 4873TIP3    H236255   6.297   2.797   6.907  0.5007  1.0964 -0.3783
 4874TIP3   OH236256   0.971   2.274   0.778 -0.0254 -0.2977 -0.4128
 4874TIP3    H136257   0.968   2.202   0.841 -0.9203 -0.2020 -0.3428
 4874TIP3    H236258   0.976   2.353   0.832 -0.2452 -0.2457 -0.4669
 4875TIP3   OH236259   5.308   5.896   7.309  0.0240  0.4883 -0.2122
 4875TIP3    H136260   5.263   5.867   7.388 -0.4075  1.5681 -0.0435
 4875TIP3    H236261   5.308   5.819   7.251  0.0659 -0.2173  0.7008
 4876TIP3   OH236262   2.556   3.402   7.748  0.1769  0.0521  0.2790
 4876TIP3    H136263   2.650   3.389   7.738  0.2145  0.2778  0.3423
 4876TIP3    H236264   2.535   3.363   7.833  1.0143  3.9585  2.5431
 4877TIP3   OH236265   3.017   4.276   8.567  0.2174 -0.2989  0.3881
 4877TIP3    H136266   2.990   4.218   8.639  3.2962 -2.7998 -0.2948
 4877TIP3    H236267   3.112   4.272   8.567  0.3763  0.5461 -3.1096
 4878TIP3   OH236268   3.798   2.070   0.858  0.1567 -0.2179  0.2883
 4878TIP3    H136269   3.791   1.976   0.844 -0.8785 -0.1503  0.2879
 4878TIP3    H236270   3.721   2.107   0.814  0.1867  0.5645  0.8667
 4879TIP3   OH236271   2.960   5.417   0.495 -0.1516 -0.3135 -0.5180
 4879TIP3    H136272   2.881   5.374   0.462 -0.8380 -0.6370  1.4070
 4879TIP3    H236273   3.021   5.415   0.422 -1.6847 -0.6536 -1.8515
 4880TIP3   OH236274   0.730   3.158   0.461  0.2062 -0.4290 -0.4731
 4880TIP3    H136275   0.726   3.203   0.545 -0.5063  1.2031 -1.3252
 4880TIP3    H236276   0.661   3.093   0.464  0.0947 -0.2831  0.1562
 4881TIP3   OH236277   5.110   5.232   0.236 -0.4610  0.5948 -0.5730
 4881TIP3    H136278   5.133   5.143   0.207 -0.6538  0.3620 -0.0203
 4881TIP3    H236279   5.185   5.260   0.288 -0.1493  0.9827 -1.2224
 4882TIP3   OH236280   2.424   1.343   0.868  0.5129  0.1916  0.3892
 4882TIP3    H136281   2.373   1.423   0.881  1.1164  0.7325 -0.4297
 4882TIP3    H236282   2.368   1.288   0.813  0.3792  0.3364  0.3795
 4883TIP3   OH236283   5.605   0.625   0.764 -0.1470  0.1423 -0.4522
 4883TIP3    H136284   5.565   0.671   0.838 -0.3161 -0.7493  0.0414
 4883TIP3    H236285   5.696   0.656   0.762 -0.1362  0.1651  0.1548
 4884TIP3   OH236286   4.701   6.085   7.284 -0.7702  0.3371 -0.1116
 4884TIP3    H136287   4.629   6.141   7.316 -2.2933 -0.9588 -1.1235
 4884TIP3    H236288   4.657   6.008   7.248  1.2455 -1.3089  0.7862
 4885TIP3   OH236289   1.064   1.877   1.917  0.1111 -0.5592  0.2786
 4885TIP3    H136290   1.158   1.860   1.910 -0.0585 -0.9570 -1.7172
 4885TIP3    H236291   1.058   1.971   1.936  0.8999 -0.7596  1.6655
 4886TIP3   OH236292   5.174   1.919   1.670 -0.9086 -0.4688 -0.5636
 4886TIP3    H136293   5.115   1.879   1.606 -0.6183  1.0739 -1.8402
 4886TIP3    H236294   5.262   1.899   1.638 -0.6546 -2.3743  1.0950
 4887TIP3   OH236295   6.595   2.051   6.613 -0.2273 -0.3704 -0.7163
 4887TIP3    H136296   6.677   2.032   6.568 -0.5604 -4.0146 -0.0564
 4887TIP3    H236297   6.618   2.117   6.678  2.2827 -1.4696 -0.3838
 4888TIP3   OH236298   1.907   1.634   1.061  0.5181 -0.4131  0.7719
 4888TIP3    H136299   1.877   1.710   1.011  0.0980 -0.6358  0.6869
 4888TIP3    H236300   1.834   1.572   1.058  0.2193 -0.1748  2.2035
 4889TIP3   OH236301   1.079   4.911   7.489  0.1711  0.7500  0.2499
 4889TIP3    H136302   1.106   4.849   7.422  1.2508  0.9079  0.5209
 4889TIP3    H236303   1.070   4.994   7.443 -0.3057  0.6027  0.0734
 4890TIP3   OH236304   6.617   1.167   2.414  0.3659 -0.4406 -0.3190
 4890TIP3    H136305   6.559   1.236   2.383 -2.1432 -3.3748 -2.7123
 4890TIP3    H236306   6.616   1.176   2.510 -2.2871  1.0221 -0.3927
 4891TIP3   OH236307   2.690   6.401   1.708  0.4246 -0.3756 -0.0673
 4891TIP3    H136308   2.600   6.397   1.740  0.6024 -1.3944  0.3450
 4891TIP3    H236309   2.737   6.456   1.771  0.6680 -1.9816  1.2261
 4892TIP3   OH236310   5.098   1.012   8.246  0.5660  0.4128 -0.2101
 4892TIP3    H136311   5.117   1.092   8.293  1.3425  0.0870  0.0392
 4892TIP3    H236312   5.011   0.985   8.278  1.6864 -0.6192  2.2085
 4893TIP3   OH236313   2.369   3.598   0.838  0.4270  0.3952 -0.5431
 4893TIP3    H136314   2.365   3.530   0.771 -2.7675 -2.0636  1.8493
 4893TIP3    H236315   2.280   3.632   0.844  0.3227 -0.1111  2.9127
 4894TIP3   OH236316   1.754   2.958   2.085 -0.4616 -1.0093  0.2614
 4894TIP3    H136317   1.749   3.037   2.032  2.7452  0.3643  1.7580
 4894TIP3    H236318   1.722   2.985   2.171  0.1461 -1.4930  0.6430
 4895TIP3   OH236319   0.312   1.796   0.911  0.2096 -0.9884 -0.4622
 4895TIP3    H136320   0.325   1.882   0.950 -1.4243  0.4526 -2.8397
 4895TIP3    H236321   0.366   1.797   0.831 -1.1089 -1.4998 -1.3908
 4896TIP3   OH236322   5.456   5.564   1.928  0.2177  0.0874 -0.5528
 4896TIP3    H136323   5.475   5.492   1.988 -1.4409  0.7633  0.8761
 4896TIP3    H236324   5.360   5.570   1.927  0.2946  1.9114 -1.0580
 4897TIP3   OH236325   4.878   0.168   7.090 -0.3367  0.1399 -0.2052
 4897TIP3    H136326   4.845   0.208   7.010  1.3469  2.1691  0.0319
 4897TIP3    H236327   4.833   0.214   7.161  0.2845  0.3758  0.0480
 4898TIP3   OH236328   2.236   4.228   0.284  0.9169  0.1093  0.2789
 4898TIP3    H136329   2.208   4.156   0.227 -0.0613  0.4828  0.2625
 4898TIP3    H236330   2.330   4.215   0.295  0.4315 -2.6334  2.2929
 4899TIP3   OH236331   2.466   2.367   2.453 -0.7042  0.1762  0.0842
 4899TIP3    H136332   2.508   2.349   2.369 -0.6209  0.9784 -0.0594
 4899TIP3    H236333   2.505   2.304   2.514  1.0431  1.1632  0.0534
 4900TIP3   OH236334   3.558   2.576   7.995 -0.5383  0.6376  0.7734
 4900TIP3    H136335   3.566   2.671   7.998  1.2061  0.5189  0.9952
 4900TIP3    H236336   3.509   2.558   7.915 -1.6598  1.7400  1.1813
 4901TIP3   OH236337   2.221   2.101   1.196  0.3836 -1.2609 -0.6185
 4901TIP3    H136338   2.200   2.138   1.111 -4.0217  0.7323  1.0122
 4901TIP3    H236339   2.200   2.008   1.188 -0.3823 -1.0188 -1.6134
 4902TIP3   OH236340   6.469   2.889   0.273 -0.2704 -0.0571  0.7285
 4902TIP3    H136341   6.528   2.901   0.347 -1.8873 -0.0863  2.0935
 4902TIP3    H236342   6.448   2.978   0.243  0.6679 -0.0554  0.0458
 4903TIP3   OH236343   3.401   6.313   0.036 -0.0613  0.1958  0.0383
 4903TIP3    H136344   3.388   6.291   0.128  1.5395  0.3651  0.3298
 4903TIP3    H236345   3.317   6.349   0.008 -0.4835  0.4186  1.5157
 4904TIP3   OH236346   4.966   4.550   7.499  0.2554 -0.9457 -0.1160
 4904TIP3    H136347   4.995   4.481   7.439  3.0304 -0.6852  0.8155
 4904TIP3    H236348   4.949   4.625   7.441  2.3263 -0.8688 -0.7116
 4905TIP3   OH236349   0.148   3.521   7.616  0.1251  0.3614  0.5444
 4905TIP3    H136350   0.219   3.568   7.659 -0.0096  2.0017 -0.9060
 4905TIP3    H236351   0.142   3.437   7.663  2.8910  0.2337  0.8047
 4906TIP3   OH236352   4.829   1.397   7.589 -0.4001  0.0741  0.9325
 4906TIP3    H136353   4.915   1.421   7.623  0.3858  0.1248 -0.9720
 4906TIP3    H236354   4.815   1.455   7.514 -1.2588 -1.1888  0.0708
 4907TIP3   OH236355   3.957   2.234   1.041 -0.3878 -0.1829 -1.0429
 4907TIP3    H136356   3.907   2.189   0.973  0.6664 -1.6721 -0.8842
 4907TIP3    H236357   3.919   2.204   1.124 -0.3546  0.0491 -0.9405
 4908TIP3   OH236358   3.864   2.373   8.331  0.7375 -0.2873 -0.0449
 4908TIP3    H136359   3.792   2.420   8.372  0.5036 -1.3068  0.7494
 4908TIP3    H236360   3.869   2.408   8.242 -0.9898 -0.4786 -0.2366
 4909TIP3   OH236361   3.662   5.845   2.916  0.3487  0.4443 -0.0290
 4909TIP3    H136362   3.588   5.788   2.936 -0.2441  1.0344 -0.4950
 4909TIP3    H236363   3.728   5.788   2.877  0.0064 -0.0251  0.0805
 4910TIP3   OH236364   1.925   6.530   1.671  0.2590 -0.2347 -0.1499
 4910TIP3    H136365   1.842   6.577   1.681  0.6428  0.4029  0.1326
 4910TIP3    H236366   1.901   6.438   1.673 -0.2323 -0.1010  1.8904
 4911TIP3   OH236367   6.097   4.669   0.883  0.0190 -0.3626 -0.2685
 4911TIP3    H136368   6.105   4.687   0.977  0.7881 -1.6065 -0.0739
 4911TIP3    H236369   6.158   4.731   0.842  0.3464 -0.4200  0.1223
 4912TIP3   OH236370   3.880   6.038   8.035  0.2414 -0.1777 -0.0973
 4912TIP3    H136371   3.952   6.000   8.086  2.4228  2.1245 -1.1990
 4912TIP3    H236372   3.887   5.996   7.949  1.5064  1.2524 -0.7525
 4913TIP3   OH236373   4.856   3.382   8.006 -0.5366 -0.4668  0.3137
 4913TIP3    H136374   4.845   3.416   8.095 -0.8996  0.2068  0.0139
 4913TIP3    H236375   4.836   3.288   8.014 -2.2034 -0.1195  0.6412
 4914TIP3   OH236376   0.630   0.124   8.215 -0.1778  0.0612 -0.4986
 4914TIP3    H136377   0.623   0.048   8.157 -0.6538 -0.5456  0.3206
 4914TIP3    H236378   0.546   0.126   8.261  0.4081  0.1431  0.6047
 4915TIP3   OH236379   2.795   2.325   1.228  0.2521 -0.4946 -0.1740
 4915TIP3    H136380   2.860   2.318   1.299 -0.5541 -1.5066  0.4949
 4915TIP3    H236381   2.727   2.262   1.252 -0.6734  0.0956 -1.1938
 4916TIP3   OH236382   3.282   2.695   1.072  0.1461 -0.8248 -0.2011
 4916TIP3    H136383   3.322   2.763   1.126  1.6150 -2.4712  0.9271
 4916TIP3    H236384   3.211   2.659   1.127  0.1968 -1.0209 -0.2613
 4917TIP3   OH236385   3.932   6.277   1.220 -0.3795 -0.3814 -0.1068
 4917TIP3    H136386   3.900   6.314   1.138  0.3210 -0.4358 -0.4131
 4917TIP3    H236387   4.006   6.221   1.194 -2.5779 -3.6527  0.0730
 4918TIP3   OH236388   4.022   6.775   2.176 -0.4385  0.1588 -0.0500
 4918TIP3    H136389   3.983   6.826   2.106 -0.1583  0.4633  0.0165
 4918TIP3    H236390   4.011   6.829   2.255 -0.4333 -0.0229  0.0763
 4919TIP3   OH236391   0.579   1.063   7.621  0.2869  0.0877 -0.7018
 4919TIP3    H136392   0.539   1.103   7.544  0.8149  2.4133  0.1605
 4919TIP3    H236393   0.514   1.075   7.691  0.2125 -1.1369 -0.5393
 4920TIP3   OH236394   0.879   3.963   7.140  0.1865 -0.3287 -0.3499
 4920TIP3    H136395   0.821   4.034   7.164  1.9445  0.7404  1.0132
 4920TIP3    H236396   0.943   4.003   7.080  0.1970 -1.1870 -0.9319
 4921TIP3   OH236397   5.259   5.580   1.020  0.3887  0.0526 -0.1100
 4921TIP3    H136398   5.282   5.654   1.076  2.3913  1.0198 -2.0115
 4921TIP3    H236399   5.196   5.616   0.958 -2.0171 -1.0773  1.5532
 4922TIP3   OH236400   2.361   5.430   1.861  0.8556  0.4254 -0.7498
 4922TIP3    H136401   2.425   5.445   1.791 -0.7920 -0.1601 -2.4847
 4922TIP3    H236402   2.276   5.449   1.820 -0.2687 -1.0717  0.7372
 4923TIP3   OH236403   2.922   3.571   1.932  0.2162 -0.0409 -0.7937
 4923TIP3    H136404   2.842   3.522   1.948  0.1486  0.2589 -0.1747
 4923TIP3    H236405   2.984   3.537   1.996  0.2815  0.4104 -0.6105
 4924TIP3   OH236406   0.529   0.555   7.234 -0.2973 -0.2507  0.2910
 4924TIP3    H136407   0.595   0.506   7.186  0.3171  0.5022  0.3413
 4924TIP3    H236408   0.535   0.644   7.198 -1.2593 -0.1599  0.3179
 4925TIP3   OH236409   0.896   2.885   2.314  0.1427  0.5048  0.2859
 4925TIP3    H136410   0.835   2.828   2.267  0.5993 -0.5228  0.9346
 4925TIP3    H236411   0.839   2.941   2.367 -0.2602 -0.3447  0.7716
 4926TIP3   OH236412   2.268   4.270   1.838  0.4201  0.6019  0.6823
 4926TIP3    H136413   2.336   4.214   1.873  0.0084 -2.3044 -2.6186
 4926TIP3    H236414   2.315   4.334   1.784  0.6879  0.3820  0.6525
 4927TIP3   OH236415   1.747   3.390   1.337 -0.7804  0.4240 -0.3498
 4927TIP3    H136416   1.772   3.463   1.394  1.5579 -1.6201  1.5029
 4927TIP3    H236417   1.692   3.334   1.392 -2.5425  0.7058 -1.7380
 4928TIP3   OH236418   1.201   0.204   1.212 -0.1148  0.6084 -0.0078
 4928TIP3    H136419   1.205   0.112   1.238  0.0659  0.4730 -0.5056
 4928TIP3    H236420   1.271   0.214   1.147 -0.8433  0.8317 -0.7799
 4929TIP3   OH236421   2.843   3.746   2.379 -0.4625 -0.2616 -0.0957
 4929TIP3    H136422   2.833   3.666   2.429 -0.6730 -0.5557 -0.5936
 4929TIP3    H236423   2.764   3.797   2.398 -0.6255 -0.4497 -0.2563
 4930TIP3   OH236424   2.898   2.194   1.844  0.6317  0.0305 -0.0670
 4930TIP3    H136425   2.982   2.208   1.799  0.1151 -2.1837 -1.9132
 4930TIP3    H236426   2.836   2.179   1.773 -0.6994 -1.4715  1.3533
 4931TIP3   OH236427   5.150   1.995   7.746 -0.2291 -0.0224  0.3853
 4931TIP3    H136428   5.079   2.048   7.708  0.7011  0.3069 -1.0002
 4931TIP3    H236429   5.193   2.054   7.808  0.4931  0.7270 -0.7852
 4932TIP3   OH236430   6.230   6.509   8.509  0.4487  0.3275 -0.3673
 4932TIP3    H136431   6.217   6.462   8.427  0.8381  0.5163 -0.5407
 4932TIP3    H236432   6.236   6.601   8.483  2.0442  0.2755 -0.3136
 4933TIP3   OH236433   0.420   5.976   8.296  0.3096  0.4849  0.2198
 4933TIP3    H136434   0.390   5.932   8.217  1.0351 -0.1692  0.2954
 4933TIP3    H236435   0.506   5.938   8.314  0.3545  0.9480  1.0683
 4934TIP3   OH236436   5.390   0.707   2.486 -0.3310 -0.5615 -0.3289
 4934TIP3    H136437   5.443   0.770   2.437 -0.1439 -0.4448  0.0180
 4934TIP3    H236438   5.316   0.759   2.518  0.0663 -0.4068  0.3531
 4935TIP3   OH236439   6.356   0.741   2.442  0.5228  0.2780 -0.6557
 4935TIP3    H136440   6.275   0.738   2.392 -0.3062 -3.1716  0.6083
 4935TIP3    H236441   6.346   0.816   2.501 -3.1079 -1.5395  1.3662
 4936TIP3   OH236442   3.782   0.757   2.029 -0.2463  0.7413  0.4391
 4936TIP3    H136443   3.734   0.839   2.022  0.0140  0.8595  0.0159
 4936TIP3    H236444   3.725   0.693   1.986  0.6802  1.1865 -1.5838
 4937TIP3   OH236445   2.591   3.644   1.898 -0.1798 -0.1489  0.1859
 4937TIP3    H136446   2.619   3.714   1.957  3.6468 -0.9473 -0.4105
 4937TIP3    H236447   2.514   3.606   1.941 -0.7313  2.6086  1.8962
 4938TIP3   OH236448   5.502   4.649   0.933  0.2286 -0.0194  0.1593
 4938TIP3    H136449   5.536   4.738   0.927  1.4965 -0.4628  0.3213
 4938TIP3    H236450   5.579   4.596   0.957 -0.6530 -1.0432  0.8260
 4939TIP3   OH236451   2.390   6.470   1.714  0.4973  0.0003 -0.3113
 4939TIP3    H136452   2.311   6.514   1.745  1.2597  0.6803  0.7417
 4939TIP3    H236453   2.378   6.462   1.619 -0.0146  1.8070 -0.4265
 4940TIP3   OH236454   2.985   3.545   3.216 -0.3922 -0.4264  0.4372
 4940TIP3    H136455   2.926   3.549   3.141  0.1630 -2.2369 -0.1499
 4940TIP3    H236456   2.944   3.601   3.282 -1.3384  0.5211 -0.8935
 4941TIP3   OH236457   1.042   1.251   2.231  0.3041  0.0841  0.1627
 4941TIP3    H136458   0.978   1.250   2.302 -0.1546 -0.0169 -0.2442
 4941TIP3    H236459   0.991   1.231   2.152  0.8254  0.0662 -0.1780
 4942TIP3   OH236460   0.455   1.253   2.298 -0.1687 -0.1548 -0.1079
 4942TIP3    H136461   0.382   1.214   2.250 -0.4199 -1.7687  1.4666
 4942TIP3    H236462   0.446   1.218   2.387  3.5467 -1.8826 -0.2571
 4943TIP3   OH236463   6.192   3.764   1.324  0.3701 -0.5108  0.2995
 4943TIP3    H136464   6.140   3.692   1.359 -0.1915 -0.1956  0.1273
 4943TIP3    H236465   6.189   3.831   1.392  0.8878 -0.6428  0.4577
 4944TIP3   OH236466   6.831   3.622   7.901 -0.1062 -0.0931  0.1465
 4944TIP3    H136467   6.737   3.633   7.912  0.1482  0.8439  1.4729
 4944TIP3    H236468   6.840   3.531   7.871 -1.3847 -0.3860  0.5683
 4945TIP3   OH236469   4.760   0.337   1.526  0.2217 -0.5607  0.3577
 4945TIP3    H136470   4.667   0.325   1.506 -0.6828  1.2345  2.8484
 4945TIP3    H236471   4.764   0.330   1.621  2.6753 -0.6797  0.2938
 4946TIP3   OH236472   4.659   3.897   1.844 -0.1631  0.2279 -0.6006
 4946TIP3    H136473   4.615   3.974   1.880  1.5066  0.8272  0.2610
 4946TIP3    H236474   4.610   3.876   1.765 -1.6772  1.1408  0.0572
 4947TIP3   OH236475   5.976   4.341   0.507  0.0330 -0.3470 -0.5348
 4947TIP3    H136476   5.915   4.377   0.572 -0.8896 -2.0624 -0.4009
 4947TIP3    H236477   5.924   4.335   0.427  1.4391  2.7279 -1.8436
 4948TIP3   OH236478   5.652   2.686   1.582  0.0133 -1.0129  0.4218
 4948TIP3    H136479   5.728   2.648   1.538  1.1020  0.7392  0.7294
 4948TIP3    H236480   5.683   2.707   1.669 -1.1297 -1.1728  0.8819
 4949TIP3   OH236481   4.485   3.258   2.239 -0.5223  0.4445 -0.3782
 4949TIP3    H136482   4.495   3.344   2.279 -1.1964  0.6752 -0.6922
 4949TIP3    H236483   4.567   3.212   2.260 -0.2202  1.1028 -0.0844
 4950TIP3   OH236484   2.834   4.209   7.267 -0.6538  0.2304 -0.0096
 4950TIP3    H136485   2.890   4.252   7.202 -0.3644  1.0357  0.7542
 4950TIP3    H236486   2.856   4.116   7.259  0.3936  0.4679 -0.1353
 4951TIP3   OH236487   2.451   4.275   8.621  0.0851 -0.3609  0.1948
 4951TIP3    H136488   2.485   4.226   8.696  0.9272  0.2508  0.2369
 4951TIP3    H236489   2.461   4.216   8.547 -0.4162 -0.8376  0.5021
 4952TIP3   OH236490   5.295   0.251   7.891  0.3617 -0.2279 -0.0359
 4952TIP3    H136491   5.364   0.264   7.826  0.3676 -1.4551 -0.3021
 4952TIP3    H236492   5.334   0.280   7.974 -0.3973  3.5568 -0.8363
 4953TIP3   OH236493   4.378   2.967   1.398 -0.0481 -0.0579 -0.3366
 4953TIP3    H136494   4.394   2.957   1.491 -0.7844  1.1258 -0.0692
 4953TIP3    H236495   4.327   3.047   1.390 -1.1747 -0.8576 -1.6317
 4954TIP3   OH236496   5.843   4.290   8.148 -0.8654 -0.7327 -0.4423
 4954TIP3    H136497   5.858   4.259   8.058 -0.3915 -0.8517 -0.3252
 4954TIP3    H236498   5.760   4.249   8.173 -1.5514  0.1573 -1.2020
 4955TIP3   OH236499   5.169   5.160   2.897  0.6432  0.2452  0.0262
 4955TIP3    H136500   5.114   5.125   2.967  0.2271  1.1633  0.1690
 4955TIP3    H236501   5.171   5.090   2.832 -1.4512  0.4976 -0.3960
 4956TIP3   OH236502   4.197   5.226   0.087 -0.4775  0.0537  0.1033
 4956TIP3    H136503   4.260   5.296   0.104  0.1713 -0.8906  1.9431
 4956TIP3    H236504   4.117   5.271   0.062  0.5437  1.3348 -1.0311
 4957TIP3   OH236505   3.436   5.652   0.620 -0.3631 -0.2917  0.4743
 4957TIP3    H136506   3.368   5.599   0.580 -2.1498  1.0888  1.5271
 4957TIP3    H236507   3.389   5.722   0.666  1.7884  1.0901  0.7575
 4958TIP3   OH236508   5.225   0.142   8.483  0.1457  0.7563 -0.9394
 4958TIP3    H136509   5.150   0.099   8.443  0.7121 -0.5174 -0.6808
 4958TIP3    H236510   5.301   0.091   8.454  0.7611  1.0728  0.0567
 4959TIP3   OH236511   0.392   0.819   0.400 -0.2487  0.0971  0.0108
 4959TIP3    H136512   0.362   0.820   0.310 -0.5092  1.3458  0.0934
 4959TIP3    H236513   0.398   0.911   0.425  0.8052 -0.1984  0.9444
 4960TIP3   OH236514   0.884   5.305   1.081 -0.3817 -0.1979  0.1247
 4960TIP3    H136515   0.946   5.289   1.010  0.3750  0.6953  0.5685
 4960TIP3    H236516   0.825   5.229   1.079 -0.4361 -0.1281 -1.5053
 4961TIP3   OH236517   2.846   0.353   1.800  0.6293  0.3885  0.0840
 4961TIP3    H136518   2.923   0.322   1.752 -0.9306  0.6635 -2.8059
 4961TIP3    H236519   2.777   0.291   1.776 -0.6560  1.5986  0.5683
 4962TIP3   OH236520   2.337   1.756   7.579 -0.0718  0.1340 -0.1145
 4962TIP3    H136521   2.377   1.738   7.665 -0.0665 -2.1221 -0.5236
 4962TIP3    H236522   2.385   1.700   7.518  0.4536  2.2845 -1.7763
 4963TIP3   OH236523   0.449   3.358   1.203 -0.4323  0.1924 -0.1480
 4963TIP3    H136524   0.393   3.291   1.241  0.3605  0.1871  1.0474
 4963TIP3    H236525   0.512   3.379   1.272  0.2110  1.1481 -1.0001
 4964TIP3   OH236526   3.472   5.123   2.485 -0.2039 -0.9696 -0.6449
 4964TIP3    H136527   3.510   5.068   2.417  2.2547 -0.5007  0.2686
 4964TIP3    H236528   3.516   5.096   2.565 -1.0302  0.3904  0.3036
 4965TIP3   OH236529   2.583   2.874   1.833 -0.0446  0.4948  0.2710
 4965TIP3    H136530   2.651   2.908   1.775 -0.6918  2.2935  0.4844
 4965TIP3    H236531   2.625   2.801   1.879  1.3417  0.7859 -0.4717
 4966TIP3   OH236532   3.334   3.779   7.985 -0.2879  0.1009 -0.1101
 4966TIP3    H136533   3.285   3.701   8.010  0.5196 -0.3400  0.1507
 4966TIP3    H236534   3.317   3.789   7.891  0.6204 -1.1580 -0.4420
 4967TIP3   OH236535   0.077   0.969   7.653  0.1921  0.0957  0.1763
 4967TIP3    H136536   0.016   0.991   7.723  0.5435  1.8128 -0.0097
 4967TIP3    H236537   0.154   0.934   7.699 -0.9219 -2.2311  0.3996
 4968TIP3   OH236538   3.896   3.734   1.344  0.1083  0.0934 -0.7478
 4968TIP3    H136539   3.938   3.792   1.281  3.5929 -2.1321 -0.7399
 4968TIP3    H236540   3.952   3.738   1.422 -2.2497  0.2686  1.0332
 4969TIP3   OH236541   2.355   6.323   1.961  0.0555  0.1598  0.0054
 4969TIP3    H136542   2.260   6.310   1.959  0.2163 -1.7112 -3.7780
 4969TIP3    H236543   2.371   6.396   1.901  1.0454 -0.2337 -0.2348
 4970TIP3   OH236544   1.014   4.732   2.541  0.5849 -0.2946 -0.7559
 4970TIP3    H136545   0.985   4.775   2.621  3.6694  1.3086 -0.3751
 4970TIP3    H236546   1.061   4.654   2.571  2.6317  0.8372 -0.8280
 4971TIP3   OH236547   5.535   6.271   1.411 -0.3014 -0.7077  0.4208
 4971TIP3    H136548   5.609   6.330   1.396 -0.3244 -0.8170 -0.1446
 4971TIP3    H236549   5.461   6.330   1.426 -0.8419 -0.4755 -2.4788
 4972TIP3   OH236550   3.422   3.976   0.445  0.0792 -0.1595  0.2999
 4972TIP3    H136551   3.445   3.886   0.468  0.3375 -0.0538  0.4598
 4972TIP3    H236552   3.343   3.994   0.495  1.6934  0.7331  2.7194
 4973TIP3   OH236553   2.314   5.359   8.289  0.3696 -0.3853  0.0449
 4973TIP3    H136554   2.399   5.317   8.290  0.8377  0.1224 -3.7424
 4973TIP3    H236555   2.253   5.292   8.318  1.8191 -1.4589  0.6897
 4974TIP3   OH236556   6.665   0.337   2.293  0.5761  0.2592  0.5019
 4974TIP3    H136557   6.724   0.407   2.263 -0.5410  1.4083  0.8951
 4974TIP3    H236558   6.581   0.381   2.307 -0.2157 -1.2116  0.5873
 4975TIP3   OH236559   2.977   4.985   1.836 -0.4579 -0.1314  0.7198
 4975TIP3    H136560   3.018   4.944   1.913 -0.4975  0.3454  0.9980
 4975TIP3    H236561   2.974   4.915   1.771  2.4332  0.2637  0.0517
 4976TIP3   OH236562   3.420   0.243   0.999  0.1892  0.1849  0.5987
 4976TIP3    H136563   3.390   0.215   1.085  0.6893 -0.4670  0.5651
 4976TIP3    H236564   3.397   0.170   0.941  0.8437  0.1515  0.3793
 4977TIP3   OH236565   2.989   5.825   8.342  0.4249 -0.1405  0.4751
 4977TIP3    H136566   3.016   5.917   8.347 -1.3836  0.3749  1.8699
 4977TIP3    H236567   2.921   5.824   8.274  0.4412 -0.4359  0.4612
 4978TIP3   OH236568   0.929   5.696   8.188 -0.2969 -0.5549 -0.2181
 4978TIP3    H136569   1.013   5.674   8.229  0.3159 -0.5124 -1.4010
 4978TIP3    H236570   0.914   5.626   8.125 -2.0246 -1.4815  1.1521
 4979TIP3   OH236571   6.036   5.670   0.464 -0.0951 -0.7380  0.1086
 4979TIP3    H136572   6.048   5.741   0.527  1.5789  0.1516 -1.0997
 4979TIP3    H236573   5.956   5.693   0.417  0.5301  0.5526 -0.4120
 4980TIP3   OH236574   0.506   6.749   2.342  0.1860 -0.2833  0.0599
 4980TIP3    H136575   0.573   6.794   2.392  0.1093 -1.2184  1.0341
 4980TIP3    H236576   0.470   6.816   2.284  0.6726  0.6800  0.8462
 4981TIP3   OH236577   4.391   4.222   8.647 -0.4591  0.3289  0.1468
 4981TIP3    H136578   4.313   4.246   8.598  0.1892  0.2085 -0.9817
 4981TIP3    H236579   4.459   4.209   8.580  0.7590  1.2999  1.1355
 4982TIP3   OH236580   5.730   0.666   2.686 -0.3016  0.0353 -0.4172
 4982TIP3    H136581   5.684   0.722   2.749  1.3116 -0.8255  1.6290
 4982TIP3    H236582   5.784   0.727   2.634 -1.3873  0.7152 -0.7972
 4983TIP3   OH236583   0.773   5.958   8.617  0.5177 -0.1478  0.3084
 4983TIP3    H136584   0.724   5.907   8.681  0.5038  0.8725  1.1235
 4983TIP3    H236585   0.755   6.049   8.639 -0.5079  0.2576 -1.9158
 4984TIP3   OH236586   3.830   6.602   0.725 -0.4319  0.9183 -0.3036
 4984TIP3    H136587   3.822   6.531   0.789 -0.9222  1.0173 -0.2582
 4984TIP3    H236588   3.745   6.645   0.724 -0.6543  0.5134 -1.4999
 4985TIP3   OH236589   4.277   5.343   8.375  0.0931  0.0757 -0.5403
 4985TIP3    H136590   4.291   5.324   8.283  0.6969  0.7017 -0.5872
 4985TIP3    H236591   4.328   5.276   8.421 -1.2969 -1.0804 -0.6226
 4986TIP3   OH236592   5.536   5.541   2.944  0.4313 -0.0876 -0.0619
 4986TIP3    H136593   5.465   5.477   2.941 -0.0509  0.4520 -0.4928
 4986TIP3    H236594   5.553   5.554   3.038  0.6788 -0.9910  0.0232
 4987TIP3   OH236595   6.647   3.194   1.221 -0.1294  0.4168  0.4363
 4987TIP3    H136596   6.637   3.240   1.305 -1.9507  0.9087 -0.0009
 4987TIP3    H236597   6.582   3.124   1.224  2.5060 -2.1784  1.0287
 4988TIP3   OH236598   2.279   3.124   0.850 -0.3774  0.2225 -0.6158
 4988TIP3    H136599   2.313   3.167   0.929 -0.9762 -0.0777 -0.1887
 4988TIP3    H236600   2.328   3.165   0.778  2.5242 -1.6769  0.0799
 4989TIP3   OH236601   3.331   0.855   0.187  0.1553  0.2901 -0.0951
 4989TIP3    H136602   3.390   0.882   0.116  0.3663  0.7260  0.2428
 4989TIP3    H236603   3.279   0.785   0.149  0.0047  0.7736 -0.8077
 4990TIP3   OH236604   2.158   1.450   1.555  0.1397  0.3011 -0.4839
 4990TIP3    H136605   2.064   1.466   1.545 -0.3464 -2.1335 -0.4166
 4990TIP3    H236606   2.178   1.480   1.643 -0.9436 -0.5066  0.0718
 4991TIP3   OH236607   6.196   6.391   2.928  0.1240  0.5921  0.2770
 4991TIP3    H136608   6.105   6.379   2.956  0.6756 -2.1693  1.1913
 4991TIP3    H236609   6.207   6.486   2.926 -2.9051  1.0521 -0.4017
 4992TIP3   OH236610   1.634   1.212   0.201 -1.1398  0.0557 -0.3736
 4992TIP3    H136611   1.714   1.163   0.185 -0.6896  0.9216 -0.8250
 4992TIP3    H236612   1.654   1.301   0.175 -2.0490  0.4243  0.1273
 4993TIP3   OH236613   0.092   2.368   1.005 -0.0511  0.3878  0.1827
 4993TIP3    H136614   0.168   2.363   0.948 -1.6701 -1.2135 -2.0553
 4993TIP3    H236615   0.126   2.352   1.093  2.1925 -0.0177 -0.6985
 4994TIP3   OH236616   0.834   5.785   0.426 -0.0183  1.0985 -0.3848
 4994TIP3    H136617   0.773   5.712   0.438 -0.6868  1.6056 -0.6059
 4994TIP3    H236618   0.877   5.795   0.510  1.9275 -1.1450 -1.0087
 4995TIP3   OH236619   3.971   4.145   7.904 -0.2939  0.5234  0.2121
 4995TIP3    H136620   3.967   4.056   7.870  0.5797  0.8021 -0.6388
 4995TIP3    H236621   3.900   4.149   7.969 -0.4867 -0.7102  0.0921
 4996TIP3   OH236622   6.152   0.531   1.977  0.2674 -0.3437  0.3482
 4996TIP3    H136623   6.109   0.616   1.970  0.8307 -0.1389 -0.7304
 4996TIP3    H236624   6.082   0.472   2.004 -0.4176  0.2232 -0.1423
 4997TIP3   OH236625   2.319   2.722   1.418 -0.2773  0.1723 -0.6161
 4997TIP3    H136626   2.346   2.712   1.509 -2.4801 -2.3192 -0.1048
 4997TIP3    H236627   2.230   2.758   1.423 -0.2085  0.5446 -1.7960
 4998TIP3   OH236628   4.503   4.082   1.561 -0.0312 -0.1334  0.5681
 4998TIP3    H136629   4.433   4.131   1.518  1.0188  0.9176  0.0376
 4998TIP3    H236630   4.482   4.087   1.654 -1.1272 -0.5889  0.3679
 4999TIP3   OH236631   4.956   3.254   3.222  0.1200 -0.0923  0.0425
 4999TIP3    H136632   4.910   3.171   3.238 -0.4377  0.4169  1.1538
 4999TIP3    H236633   4.890   3.321   3.238  0.7737  0.5943 -0.1266
 5000TIP3   OH236634   3.772   1.043   0.624  0.0417 -0.3998 -0.3031
 5000TIP3    H136635   3.777   0.991   0.704  0.1243 -0.2572 -0.2158
 5000TIP3    H236636   3.682   1.076   0.622  0.3825  0.6287  0.3812
 5001TIP3   OH236637   2.518   5.608   7.353  0.3138  0.0344  0.0739
 5001TIP3    H136638   2.599   5.577   7.395 -0.0551 -0.3975  0.4804
 5001TIP3    H236639   2.461   5.631   7.426  0.6539  1.9528 -0.2079
 5002TIP3   OH236640   0.797   0.456   0.400  0.4026 -0.0010 -0.1559
 5002TIP3    H136641   0.763   0.456   0.490 -0.6898 -0.6383 -0.5397
 5002TIP3    H236642   0.841   0.540   0.390 -1.0790  0.8773  0.4006
 5003TIP3   OH236643   5.719   0.181   1.219 -0.4511 -0.7266 -0.0123
 5003TIP3    H136644   5.737   0.246   1.151 -0.3916 -0.3311  0.3793
 5003TIP3    H236645   5.624   0.186   1.232 -0.2993  0.0756  0.8087
 5004TIP3   OH236646   3.516   4.507   1.421  0.3976  0.2344 -0.0722
 5004TIP3    H136647   3.548   4.544   1.338  0.2549 -2.2765 -1.3587
 5004TIP3    H236648   3.554   4.562   1.489  2.7683  0.7835 -1.7259
 5005TIP3   OH236649   1.930   1.557   1.734  0.0668 -0.7398 -0.4518
 5005TIP3    H136650   1.835   1.569   1.730  0.0903 -0.3431  0.1289
 5005TIP3    H236651   1.946   1.526   1.822  0.4534 -1.0760 -0.6395
 5006TIP3   OH236652   2.418   5.975   3.032 -0.4279 -0.0559 -0.0973
 5006TIP3    H136653   2.386   5.983   2.942  0.6363  0.1030 -0.4747
 5006TIP3    H236654   2.355   6.023   3.085 -2.1202 -1.7237 -0.4932
 5007TIP3   OH236655   0.751   1.440   1.294  0.0495 -0.4345  0.3978
 5007TIP3    H136656   0.692   1.515   1.289  1.0339  0.5031  1.9859
 5007TIP3    H236657   0.708   1.379   1.354 -0.5646 -0.9968 -0.5873
 5008TIP3   OH236658   6.530   2.583   0.007 -0.3297 -0.3144 -0.1574
 5008TIP3    H136659   6.608   2.636   0.018  0.1108 -1.2318  1.4106
 5008TIP3    H236660   6.526   2.565  -0.087  1.4096 -0.3385 -0.2588
 5009TIP3   OH236661   1.038   4.897   6.439 -0.0674 -0.0566  0.4692
 5009TIP3    H136662   1.131   4.918   6.431 -0.2732  0.5898 -0.3333
 5009TIP3    H236663   1.031   4.808   6.404  0.3021 -0.2275  0.8329
 5010TIP3   OH236664   6.499   6.325   1.249  0.2416 -0.6595  0.4406
 5010TIP3    H136665   6.433   6.302   1.314 -0.7542  0.8551  0.0181
 5010TIP3    H236666   6.578   6.278   1.277 -0.7324 -1.7158  1.5188
 5011TIP3   OH236667   3.751   0.909   0.865 -0.2152  0.4375 -0.5759
 5011TIP3    H136668   3.668   0.952   0.885 -0.3524 -0.1369  0.0986
 5011TIP3    H236669   3.796   0.904   0.949 -0.0693 -0.4722 -0.7061
 5012TIP3   OH236670   0.106   4.112   0.834  0.0391  0.6737  0.0597
 5012TIP3    H136671   0.071   4.078   0.917  0.0608  0.3549 -0.0591
 5012TIP3    H236672   0.192   4.147   0.856 -0.5637  1.9693  0.4659
 5013TIP3   OH236673   6.743   4.471   0.582 -0.6448  0.7132 -0.2387
 5013TIP3    H136674   6.818   4.431   0.627 -0.6496  0.5190 -0.3976
 5013TIP3    H236675   6.691   4.510   0.651 -2.2577 -2.1506  0.3377
 5014TIP3   OH236676   4.188   0.017   0.578 -0.6655  0.2919 -0.3632
 5014TIP3    H136677   4.189  -0.042   0.502  1.6873  1.2652 -1.1538
 5014TIP3    H236678   4.146  -0.035   0.647  0.3891 -1.9631 -1.3037
 5015TIP3   OH236679   4.019   5.215   1.204  0.3200 -0.4896 -0.2763
 5015TIP3    H136680   3.958   5.282   1.235  0.4254 -0.6875  0.3878
 5015TIP3    H236681   4.102   5.261   1.194  0.5367 -0.6337  0.7537
 5016TIP3   OH236682   5.965   6.354   1.478  0.0059  0.3235  0.3271
 5016TIP3    H136683   5.988   6.414   1.549 -1.1261 -0.5901  1.4996
 5016TIP3    H236684   5.880   6.385   1.447  0.3020  0.4647 -0.3793
 5017TIP3   OH236685   0.711   3.401   8.111 -0.1747 -0.7528 -0.8422
 5017TIP3    H136686   0.707   3.311   8.141 -0.5169 -0.3666  0.3559
 5017TIP3    H236687   0.692   3.453   8.190  1.5235  0.4174 -1.1533
 5018TIP3   OH236688   4.346   2.598   8.400  0.3594  0.5211  0.1155
 5018TIP3    H136689   4.260   2.602   8.360  0.0410  0.5722  0.7852
 5018TIP3    H236690   4.382   2.685   8.389 -0.3807  1.0112  1.3232
 5019TIP3   OH236691   6.868   6.846   2.124 -0.2883 -0.2116  0.0215
 5019TIP3    H136692   6.869   6.872   2.032  1.7283 -1.1724 -0.2907
 5019TIP3    H236693   6.812   6.911   2.167  0.9356  1.9119 -1.4176
 5020TIP3   OH236694   2.502   4.719   2.416 -0.0210 -0.1068  0.1967
 5020TIP3    H136695   2.539   4.795   2.460  0.6985  0.4328 -1.2766
 5020TIP3    H236696   2.544   4.644   2.458  1.2033  0.4197 -0.0447
 5021TIP3   OH236697   5.794   0.753   8.465  0.5023  0.8107  0.1874
 5021TIP3    H136698   5.721   0.748   8.403 -1.3824 -0.0457  2.3266
 5021TIP3    H236699   5.784   0.839   8.507  0.3117  0.4414  0.9214
 5022TIP3   OH236700   2.708   0.602   8.017 -0.2229 -0.5356  0.2248
 5022TIP3    H136701   2.796   0.578   7.987 -0.1880 -0.8674  0.5860
 5022TIP3    H236702   2.712   0.598   8.112 -0.8104 -1.2515  0.2352
 5023TIP3   OH236703   4.810   2.048   0.919 -0.5144  0.4548 -0.0778
 5023TIP3    H136704   4.819   2.142   0.933 -0.0887  0.5288 -0.8005
 5023TIP3    H236705   4.756   2.018   0.992  0.7689  0.9726  1.1180
 5024TIP3   OH236706   0.484   3.937   0.427  0.2445 -0.1725 -0.0830
 5024TIP3    H136707   0.444   3.931   0.513  0.1177  0.4348 -0.0930
 5024TIP3    H236708   0.561   3.881   0.432  0.0133 -0.4592  0.2944
 5025TIP3   OH236709   0.822   4.194   0.432  0.0716  0.4012 -0.8152
 5025TIP3    H136710   0.729   4.180   0.412  0.1769 -1.4694 -0.2061
 5025TIP3    H236711   0.868   4.157   0.357  0.3497 -2.2957  0.5394
 5026TIP3   OH236712   4.126   4.952   1.668 -0.5345 -0.2460 -0.6458
 5026TIP3    H136713   4.202   4.947   1.727 -0.5593 -0.9339 -0.6708
 5026TIP3    H236714   4.074   4.875   1.690 -1.0951  0.0784 -0.8199
 5027TIP3   OH236715   1.260   2.292   2.116 -0.1477  0.8360 -0.4456
 5027TIP3    H136716   1.229   2.380   2.091 -0.0858  0.8969 -0.3093
 5027TIP3    H236717   1.212   2.272   2.196 -0.2212  0.7102 -0.5203
 5028TIP3   OH236718   2.973   6.562   1.579  0.3124  0.0990 -0.2776
 5028TIP3    H136719   2.928   6.604   1.652  1.1715 -1.0767  0.9644
 5028TIP3    H236720   2.952   6.617   1.503 -1.5875  0.6630  0.6076
 5029TIP3   OH236721   5.027   5.062   0.995 -0.8164  0.5494 -0.2123
 5029TIP3    H136722   5.102   5.047   0.937 -0.9102  1.0931 -0.4806
 5029TIP3    H236723   4.953   5.023   0.948 -1.0080  1.5412 -0.7772
 5030TIP3   OH236724   1.159   1.676   6.998  0.1254  0.4170 -0.1548
 5030TIP3    H136725   1.242   1.688   6.952  0.8163  0.6696  1.1010
 5030TIP3    H236726   1.094   1.720   6.943  0.9881  1.0750 -0.6655
 5031TIP3   OH236727   2.839   5.495   8.565  0.3385 -0.4164  0.4161
 5031TIP3    H136728   2.789   5.575   8.547 -0.4011 -0.8185  0.6711
 5031TIP3    H236729   2.930   5.520   8.547  0.2800  0.8464  1.6808
 5032TIP3   OH236730   5.873   2.875   0.496  0.1739  0.1591 -0.2088
 5032TIP3    H136731   5.951   2.825   0.518  0.1056 -0.2688 -0.8772
 5032TIP3    H236732   5.831   2.823   0.427 -0.7617  0.3179  0.2242
 5033TIP3   OH236733   5.386   6.376   1.143  0.1760 -0.0873 -0.1855
 5033TIP3    H136734   5.383   6.309   1.211  1.2727  1.0008  0.9615
 5033TIP3    H236735   5.345   6.453   1.182 -2.2398 -0.3476 -1.9085
 5034TIP3   OH236736   3.178   1.010   1.532 -0.1685 -0.3327 -0.4722
 5034TIP3    H136737   3.232   1.040   1.459 -0.9742  1.6477 -0.3044
 5034TIP3    H236738   3.088   1.028   1.506 -0.4886  0.1574  0.8871
 5035TIP3   OH236739   2.207   5.347   8.648 -0.4457  0.8030 -0.0160
 5035TIP3    H136740   2.160   5.308   8.574 -1.0550 -0.0715  0.8150
 5035TIP3    H236741   2.139   5.365   8.713  0.1979  0.7669  0.6761
 5036TIP3   OH236742   5.381   2.660   0.400 -0.6285  0.2534  0.3413
 5036TIP3    H136743   5.443   2.598   0.439 -0.6543  0.1996  0.2963
 5036TIP3    H236744   5.363   2.722   0.471  0.5440  1.0860 -0.0500
 5037TIP3   OH236745   4.265   5.477   1.580 -0.1489 -0.3313  0.4354
 5037TIP3    H136746   4.235   5.399   1.626 -0.0756  0.6339  2.2109
 5037TIP3    H236747   4.352   5.455   1.548 -1.5937 -2.3058 -2.6139
 5038TIP3   OH236748   2.960   1.571   2.848  0.1921  0.0285 -0.3493
 5038TIP3    H136749   2.870   1.539   2.859 -0.2069  1.0705 -0.4623
 5038TIP3    H236750   2.975   1.569   2.754  0.3811 -0.3605 -0.3153
 5039TIP3   OH236751   5.539   3.144   2.002  0.2323 -0.4204 -0.4574
 5039TIP3    H136752   5.555   3.049   2.000  1.8247 -0.1667 -0.5636
 5039TIP3    H236753   5.575   3.176   1.919 -1.0129  0.1975 -0.7848
 5040TIP3   OH236754   6.239   2.382   0.399  0.0480  0.6211 -0.0309
 5040TIP3    H136755   6.215   2.300   0.356 -0.1291  0.3359  0.6045
 5040TIP3    H236756   6.290   2.430   0.333 -0.2683  0.2175 -0.5760
 5041TIP3   OH236757   0.911   3.121   8.345  0.1668  0.3102  0.5310
 5041TIP3    H136758   0.969   3.087   8.278 -0.5054 -1.6885  0.9030
 5041TIP3    H236759   0.956   3.199   8.378  3.1562 -1.6437  1.4542
 5042TIP3   OH236760   2.638   0.597   1.519  0.3945  0.0603  0.3134
 5042TIP3    H136761   2.623   0.507   1.549  0.8508 -0.1073  0.0471
 5042TIP3    H236762   2.590   0.651   1.582 -0.7069 -0.4146 -0.0976
 5043TIP3   OH236763   1.909   4.509   6.586 -0.3461  0.4607  0.8677
 5043TIP3    H136764   1.973   4.502   6.657 -1.7185 -1.3472  2.0323
 5043TIP3    H236765   1.830   4.542   6.629 -0.5633  1.5082 -0.2991
 5044TIP3   OH236766   1.824   3.216   0.082 -0.5050 -0.4594  0.0660
 5044TIP3    H136767   1.828   3.238  -0.011 -1.0977  0.8849  0.3414
 5044TIP3    H236768   1.743   3.257   0.114 -1.5158 -2.8167  0.7087
 5045TIP3   OH236769   6.403   1.831   0.527 -0.2987  0.6210  0.0703
 5045TIP3    H136770   6.345   1.787   0.465 -2.3723  2.8738  0.2677
 5045TIP3    H236771   6.350   1.844   0.606  1.7524 -0.7053  1.7930
 5046TIP3   OH236772   0.347   2.361   0.058 -0.3058  0.0098  0.0870
 5046TIP3    H136773   0.296   2.281   0.045  0.5692 -0.6587  0.6861
 5046TIP3    H236774   0.304   2.404   0.132  0.1402 -0.6793  0.7577
 5047TIP3   OH236775   1.408   1.401   1.235 -0.2695 -0.4286  0.3196
 5047TIP3    H136776   1.450   1.318   1.256  2.1513  0.5966 -0.0778
 5047TIP3    H236777   1.446   1.463   1.298 -1.9901  0.3935  0.5904
 5048TIP3   OH236778   0.673   5.105   1.910  0.2497  0.5870 -0.2531
 5048TIP3    H136779   0.657   5.079   2.001  2.1068 -0.7536 -0.2693
 5048TIP3    H236780   0.711   5.028   1.869  0.0612  1.3891 -2.0156
 5049TIP3   OH236781   4.738   4.311   8.632  0.8291  0.0292  0.0943
 5049TIP3    H136782   4.758   4.282   8.720 -0.3688  0.6622  0.6046
 5049TIP3    H236783   4.793   4.257   8.575  0.7721 -1.1846  1.1586
 5050TIP3   OH236784   3.139   5.428   8.224  0.4177  0.4962  0.0776
 5050TIP3    H136785   3.103   5.339   8.219  2.0462 -0.2914  1.1553
 5050TIP3    H236786   3.189   5.438   8.143 -0.7926  0.9347 -0.6282
 5051TIP3   OH236787   5.009   0.485   1.750  0.0764  0.7489  0.4887
 5051TIP3    H136788   5.084   0.546   1.754 -0.2161  1.6281 -3.3084
 5051TIP3    H236789   5.049   0.398   1.756  1.9015  1.0928 -3.3114
 5052TIP3   OH236790   1.805   2.346   0.914  1.1787 -0.3309 -0.0711
 5052TIP3    H136791   1.761   2.286   0.854  0.3615 -1.8710  1.9483
 5052TIP3    H236792   1.761   2.430   0.901 -1.8445 -1.5774  1.1845
 5053TIP3   OH236793   1.632   6.281   0.424  0.4685  0.1025  0.1018
 5053TIP3    H136794   1.547   6.324   0.427  0.8515  1.0826 -1.6299
 5053TIP3    H236795   1.630   6.218   0.495 -1.9318 -0.3186 -0.2729
 5054TIP3   OH236796   6.629   1.341   8.581 -0.1271  1.0227 -0.3785
 5054TIP3    H136797   6.715   1.382   8.571  0.6283 -0.0446  1.2968
 5054TIP3    H236798   6.567   1.413   8.575  1.0633  2.2015  0.9453
 5055TIP3   OH236799   3.789   4.380   1.559 -0.1581  0.5240 -0.2123
 5055TIP3    H136800   3.785   4.344   1.471  0.3388 -2.5722  0.9010
 5055TIP3    H236801   3.699   4.375   1.591 -0.0925  0.2743 -0.0637
 5056TIP3   OH236802   2.047   0.871   1.379  0.7198  0.6002  0.1061
 5056TIP3    H136803   2.062   0.912   1.295  1.1456 -0.3440 -0.2933
 5056TIP3    H236804   2.134   0.854   1.414  0.5881  2.4420  1.5067
 5057TIP3   OH236805   2.839   4.713   0.227  0.3687  0.4402  0.2971
 5057TIP3    H136806   2.853   4.788   0.170  0.2213 -0.0410 -0.3918
 5057TIP3    H236807   2.905   4.649   0.199 -0.5277 -0.2904 -0.2120
 5058TIP3   OH236808   5.424   5.584   8.030  0.1058  0.0023 -0.0579
 5058TIP3    H136809   5.466   5.500   8.050 -0.0569  0.3513  1.9881
 5058TIP3    H236810   5.498   5.644   8.018  0.2566  0.2008  1.6135
 5059TIP3   OH236811   3.216   6.198   0.737 -0.3866  0.0806 -0.3685
 5059TIP3    H136812   3.292   6.153   0.700 -0.0642 -0.1581  0.5462
 5059TIP3    H236813   3.164   6.225   0.661  1.4530  1.7675 -1.1232
 5060TIP3   OH236814   3.682   4.897   8.116 -0.4595 -0.4911  0.0374
 5060TIP3    H136815   3.767   4.925   8.149 -1.1879 -0.8034  2.3516
 5060TIP3    H236816   3.695   4.806   8.089  0.1037 -0.2829 -0.4429
 5061TIP3   OH236817   4.051   3.745   0.200 -0.4246 -0.2059 -0.0898
 5061TIP3    H136818   4.115   3.688   0.157 -0.0351  0.0693  0.1185
 5061TIP3    H236819   4.071   3.738   0.293 -0.5431  0.0629 -0.0419
 5062TIP3   OH236820   4.120   3.879   8.037  0.6417  0.3548 -0.6491
 5062TIP3    H136821   4.174   3.800   8.046  0.0964 -0.0330 -0.7200
 5062TIP3    H236822   4.094   3.900   8.127 -1.0630 -0.8752 -0.7961
 5063TIP3   OH236823   2.911   3.948   0.873  0.0839  0.3143  0.3441
 5063TIP3    H136824   2.828   3.919   0.911  0.8683 -1.7007  0.6059
 5063TIP3    H236825   2.900   3.935   0.779 -0.5164  1.8160  0.1665
 5064TIP3   OH236826   1.860   6.328   1.977  0.2519 -0.2412 -0.1745
 5064TIP3    H136827   1.944   6.298   1.944  0.7594  0.4645  0.4537
 5064TIP3    H236828   1.806   6.337   1.898  1.0088  0.0535 -0.6734
 5065TIP3   OH236829   3.376   0.429   8.263  0.0854  0.0187 -0.1406
 5065TIP3    H136830   3.378   0.365   8.335  0.4106 -0.6116 -0.7041
 5065TIP3    H236831   3.464   0.466   8.261 -0.1947  0.7444  0.4015
 5066TIP3   OH236832   3.035   4.093   7.605  0.2714  0.3301  0.1712
 5066TIP3    H136833   3.057   4.117   7.515 -1.2935 -0.4666 -0.4673
 5066TIP3    H236834   2.940   4.099   7.608  0.3636  1.9645  2.2776
 5067TIP3   OH236835   6.816   3.374   1.926 -0.2288  0.0205  0.2688
 5067TIP3    H136836   6.871   3.299   1.950  1.1545  0.8898 -0.0703
 5067TIP3    H236837   6.849   3.401   1.840  0.1148  1.7495  0.9006
 5068TIP3   OH236838   1.504   3.109   8.682 -0.3196  0.5254 -0.4189
 5068TIP3    H136839   1.500   3.114   8.777 -0.7342  0.4277 -0.4316
 5068TIP3    H236840   1.469   3.192   8.651  0.8001  1.0021 -0.4772
 5069TIP3   OH236841   2.882   1.832   2.108 -0.2834 -0.3850  0.6854
 5069TIP3    H136842   2.950   1.797   2.050 -0.2809  1.4079 -0.4862
 5069TIP3    H236843   2.885   1.776   2.185  3.1872  0.1282  1.1065
 5070TIP3   OH236844   2.617   5.295   2.415 -0.2881  0.0335  0.5013
 5070TIP3    H136845   2.552   5.238   2.456 -1.3422 -0.7854 -2.0557
 5070TIP3    H236846   2.682   5.234   2.379  1.7635  0.8213  2.6168
 5071TIP3   OH236847   5.467   0.364   1.816 -0.3558 -0.0136 -0.1377
 5071TIP3    H136848   5.513   0.418   1.752  0.2149  0.0559  0.3254
 5071TIP3    H236849   5.378   0.401   1.819  0.6789  2.6009  2.0432
 5072TIP3   OH236850   2.485   4.472   8.310 -0.3355  0.2569 -0.3846
 5072TIP3    H136851   2.418   4.404   8.303  2.3951 -3.1890  2.7110
 5072TIP3    H236852   2.501   4.500   8.220 -1.5571 -3.4136 -1.9051
 5073TIP3   OH236853   4.420   2.041   0.248  0.5434 -0.3039 -0.0556
 5073TIP3    H136854   4.455   1.989   0.320 -0.6808  1.0302  1.5592
 5073TIP3    H236855   4.421   1.981   0.173  1.0886 -1.9910  1.2410
 5074TIP3   OH236856   1.653   5.740   2.551  0.3203  0.2419  0.5853
 5074TIP3    H136857   1.743   5.772   2.543  0.0295  0.8224 -0.5462
 5074TIP3    H236858   1.643   5.722   2.645  1.6001  0.1941  0.7345
 5075TIP3   OH236859   6.884   3.051   7.632 -0.1825 -0.6849  0.2894
 5075TIP3    H136860   6.926   3.106   7.699 -0.1254 -1.8033  1.1949
 5075TIP3    H236861   6.813   3.106   7.597  1.6833  1.0897 -0.9621
 5076TIP3   OH236862   2.737   1.910   8.193 -0.3806  0.7011  0.4229
 5076TIP3    H136863   2.650   1.884   8.224 -0.4416  0.0886 -0.2513
 5076TIP3    H236864   2.744   1.873   8.106  0.5250  0.8416  0.4240
 5077TIP3   OH236865   4.795   0.037   0.745 -0.3979  0.5004  0.2908
 5077TIP3    H136866   4.889   0.027   0.759 -0.3171  2.2156  1.3009
 5077TIP3    H236867   4.763  -0.053   0.731  1.2965 -0.1670  0.4541
 5078TIP3   OH236868   2.756   0.590   1.926  0.4385  0.3126  0.4887
 5078TIP3    H136869   2.838   0.639   1.917  0.3202  0.4268  0.0363
 5078TIP3    H236870   2.774   0.507   1.882  0.5796  0.0149  1.0978
 5079TIP3   OH236871   4.948   2.610   0.627 -0.7427 -0.1521  0.2319
 5079TIP3    H136872   4.950   2.706   0.629 -0.3804 -0.1730  0.9329
 5079TIP3    H236873   5.037   2.584   0.650 -0.7224 -0.6600 -0.3874
 5080TIP3   OH236874   3.621   4.611   0.377 -0.3007 -0.7700 -0.0189
 5080TIP3    H136875   3.642   4.660   0.457  2.7460 -1.6674 -0.1553
 5080TIP3    H236876   3.614   4.678   0.309  0.8772 -0.2798  0.3273
 5081TIP3   OH236877   6.570   0.278   8.092 -0.9612  0.7041 -0.2443
 5081TIP3    H136878   6.534   0.293   8.179 -0.7031  2.2374 -0.3805
 5081TIP3    H236879   6.635   0.208   8.105 -2.7496 -0.9555  0.2884
 5082TIP3   OH236880   2.067   2.419   8.389  0.4296  0.0761  0.8260
 5082TIP3    H136881   2.154   2.401   8.354  0.3428  1.5304 -0.2320
 5082TIP3    H236882   2.007   2.378   8.327  0.3376  0.1796  0.8452
 5083TIP3   OH236883   0.661   1.692   2.929 -0.6943  0.3187 -0.1726
 5083TIP3    H136884   0.705   1.760   2.980 -1.4043  1.5469 -1.1543
 5083TIP3    H236885   0.577   1.679   2.973 -0.6760  0.2758 -0.1501
 5084TIP3   OH236886   3.175   4.772   0.593 -0.5733 -0.1742 -0.2231
 5084TIP3    H136887   3.101   4.792   0.651 -2.5852 -1.3071 -2.2599
 5084TIP3    H236888   3.215   4.694   0.631 -1.3756 -0.4498  0.0649
 5085TIP3   OH236889   1.866   5.103   0.412 -0.6540  0.0760  0.6720
 5085TIP3    H136890   1.844   5.054   0.333  0.6002  0.4801  0.0460
 5085TIP3    H236891   1.890   5.036   0.476 -0.7129 -0.2088  0.3985
 5086TIP3   OH236892   2.941   4.617   1.410 -0.2926 -0.4847  0.2582
 5086TIP3    H136893   2.876   4.572   1.357 -0.0520 -0.3845 -0.1255
 5086TIP3    H236894   3.005   4.550   1.433 -0.1471 -0.4274  0.0237
 5087TIP3   OH236895   6.637   3.178   0.729 -0.0268 -0.1585 -0.1330
 5087TIP3    H136896   6.556   3.221   0.757  0.5884 -0.0398  1.5578
 5087TIP3    H236897   6.688   3.249   0.688 -0.4771 -0.0912 -0.5998
 5088TIP3   OH236898   3.219   5.813   1.916 -0.0353  0.2319 -0.3201
 5088TIP3    H136899   3.277   5.748   1.876 -0.9641 -0.6378 -0.3173
 5088TIP3    H236900   3.185   5.863   1.842  1.0950  1.0985 -0.2800
 5089TIP3   OH236901   2.862   4.045   2.162  0.3759  0.0943  0.6673
 5089TIP3    H136902   2.924   3.975   2.144  0.5940  0.5724 -0.5220
 5089TIP3    H236903   2.902   4.124   2.124 -0.0254  0.8027  1.6665
 5090TIP3   OH236904   3.425   3.646   2.072 -0.4850  0.0967 -0.4041
 5090TIP3    H136905   3.335   3.665   2.045  0.1113  1.7295 -1.3744
 5090TIP3    H236906   3.475   3.723   2.045  0.9840 -0.1903  1.3212
 5091TIP3   OH236907   2.915   6.374   0.739 -0.1287  0.6286 -0.1595
 5091TIP3    H136908   2.834   6.331   0.713  0.1800  0.0524 -0.1890
 5091TIP3    H236909   2.893   6.467   0.743 -1.2354  0.3312  1.4416
 5092TIP3   OH236910   4.361   0.664   7.917 -0.6172 -0.3597  0.4822
 5092TIP3    H136911   4.333   0.574   7.930 -0.7128 -0.3889  0.0546
 5092TIP3    H236912   4.349   0.681   7.824  0.8429 -0.3958  0.2638
 5093TIP3   OH236913   3.010   5.874   2.077  0.4080 -0.5518  0.0635
 5093TIP3    H136914   3.078   5.849   2.014  0.0513 -1.3930  0.0015
 5093TIP3    H236915   2.956   5.937   2.030  0.0673 -1.2700 -0.5384
 5094TIP3   OH236916   2.476   0.363   8.513 -0.3299  0.0131  0.3250
 5094TIP3    H136917   2.471   0.317   8.597  0.9220 -0.7357  0.0128
 5094TIP3    H236918   2.387   0.359   8.478 -1.6274  2.7460  2.8276
 5095TIP3   OH236919   3.953   0.440   0.303 -0.3055 -0.0278  0.2081
 5095TIP3    H136920   3.970   0.468   0.393 -0.1510 -0.0105  0.1740
 5095TIP3    H236921   3.911   0.515   0.262  0.8001  0.4372 -0.0973
 5096TIP3   OH236922   2.492   5.523   0.839  0.1407  0.3522  0.0227
 5096TIP3    H136923   2.429   5.526   0.911 -0.1730  1.1121 -0.2767
 5096TIP3    H236924   2.442   5.491   0.764  0.0429  1.2036 -0.2783
 5097TIP3   OH236925   6.444   3.713   0.365 -0.0302  0.0952 -0.1080
 5097TIP3    H136926   6.529   3.757   0.355  0.8363 -1.8013 -1.6844
 5097TIP3    H236927   6.399   3.730   0.282 -0.0576 -1.1882 -0.3681
 5098TIP3   OH236928   4.115   6.248   3.008  0.1298  0.8344 -0.6184
 5098TIP3    H136929   4.050   6.308   3.044 -0.2336 -1.0497  2.1878
 5098TIP3    H236930   4.183   6.242   3.074  0.5198 -1.2187 -1.1152
 5099TIP3   OH236931   3.763   3.035   3.338  0.1148 -0.2275 -0.4611
 5099TIP3    H136932   3.697   3.086   3.385  0.9035 -1.6261  2.3802
 5099TIP3    H236933   3.840   3.091   3.338  0.1078 -0.2154 -0.0816
 5100TIP3   OH236934   3.494   0.669   2.468 -0.3313  0.3000  0.2625
 5100TIP3    H136935   3.447   0.590   2.493  2.3941 -0.9120  1.9196
 5100TIP3    H236936   3.525   0.651   2.379 -0.8845  0.0932  0.1077
 5101TIP3   OH236937   1.471   1.810   7.720 -0.1358  0.6069  0.1483
 5101TIP3    H136938   1.508   1.867   7.652  1.5858 -1.2027 -0.5204
 5101TIP3    H236939   1.481   1.860   7.801  0.8158  1.4777 -0.4843
 5102TIP3   OH236940   4.263   2.460   1.398  0.1909  0.3463 -0.0475
 5102TIP3    H136941   4.277   2.465   1.492 -0.8202  0.0971  0.1298
 5102TIP3    H236942   4.318   2.529   1.361  2.2800 -0.9088  0.5152
 5103TIP3   OH236943   4.333   4.760   7.567 -0.5576 -0.4686  0.5754
 5103TIP3    H136944   4.352   4.744   7.474 -1.1301 -1.0881  0.5501
 5103TIP3    H236945   4.241   4.786   7.568 -0.7759 -1.2210  1.0351
 5104TIP3   OH236946   0.183   6.575   1.146 -0.3043 -0.2490 -0.3432
 5104TIP3    H136947   0.110   6.560   1.207 -1.5145  2.2139 -1.0586
 5104TIP3    H236948   0.258   6.532   1.188 -1.7981 -1.5403  1.1839
 5105TIP3   OH236949   1.220   3.654   8.095 -0.1156 -0.4373  0.0975
 5105TIP3    H136950   1.133   3.694   8.089  0.3278  0.3281 -2.0270
 5105TIP3    H236951   1.216   3.579   8.034  0.6572 -0.4911  0.1063
 5106TIP3   OH236952   3.030   0.026   7.815  0.1097 -0.3533 -0.1932
 5106TIP3    H136953   2.972   0.083   7.865 -0.3212  0.8390 -1.9538
 5106TIP3    H236954   2.973  -0.018   7.752  0.8327 -0.6968 -0.6231
 5107TIP3   OH236955   6.001   2.882   1.695 -0.1343  0.8205  0.0170
 5107TIP3    H136956   5.988   2.852   1.605 -0.1259 -0.1475  0.3206
 5107TIP3    H236957   6.048   2.965   1.686 -0.6340  1.0232 -0.8829
 5108TIP3   OH236958   1.734   2.390   8.506 -0.0208  0.3118 -0.4125
 5108TIP3    H136959   1.643   2.414   8.492  0.6200  2.2661 -1.6368
 5108TIP3    H236960   1.773   2.391   8.418  1.7913  2.3846  0.3315
 5109TIP3   OH236961   0.970   1.139   0.211 -0.3212 -0.2220  0.5512
 5109TIP3    H136962   0.971   1.129   0.306 -1.5350  0.5112  0.6609
 5109TIP3    H236963   1.020   1.219   0.195  1.0143 -1.0473  0.4450
 5110TIP3   OH236964   1.919   4.612   7.480 -0.2875  0.8307  0.2009
 5110TIP3    H136965   1.981   4.544   7.506  1.6916  1.4161 -2.4928
 5110TIP3    H236966   1.858   4.567   7.422 -0.7291  0.8000  0.6857
 5111TIP3   OH236967   5.480   1.666   8.145 -0.1093 -0.0340 -0.6154
 5111TIP3    H136968   5.514   1.585   8.184  1.4763  0.7596 -0.2938
 5111TIP3    H236969   5.454   1.640   8.057 -1.8472 -1.4029  0.2162
 5112TIP3   OH236970   4.115   5.589   8.298  0.1248 -0.2244 -0.0163
 5112TIP3    H136971   4.159   5.526   8.355 -0.0360 -0.8351 -0.5483
 5112TIP3    H236972   4.147   5.568   8.210 -0.5995 -0.1353 -0.3085
 5113TIP3   OH236973   6.326   1.406   0.169  0.1364  0.1119  0.2056
 5113TIP3    H136974   6.311   1.342   0.099 -1.7834  0.4611  0.2567
 5113TIP3    H236975   6.269   1.480   0.147  3.2646  2.5074 -0.5980
 5114TIP3   OH236976   2.366   5.554   2.096 -0.0181 -0.0126 -0.3229
 5114TIP3    H136977   2.300   5.624   2.091  0.2739  0.2124 -1.1312
 5114TIP3    H236978   2.345   5.497   2.022  0.3724 -0.2248 -0.2679
 5115TIP3   OH236979   6.869   0.791   8.570  0.2206  0.3278 -0.2942
 5115TIP3    H136980   6.900   0.713   8.617  0.3354  0.3628 -0.3117
 5115TIP3    H236981   6.906   0.782   8.482 -0.3404  0.0463 -0.5066
 5116TIP3   OH236982   4.373   5.317   0.857 -0.3394  0.4411 -0.1966
 5116TIP3    H136983   4.346   5.407   0.839  1.8828  1.3220  0.5333
 5116TIP3    H236984   4.432   5.324   0.932  1.2191 -1.3823 -1.1592
 5117TIP3   OH236985   4.872   4.811   0.413  0.2033  0.7966  0.5837
 5117TIP3    H136986   4.778   4.804   0.399  0.1066  0.4824  1.3267
 5117TIP3    H236987   4.880   4.865   0.492  0.5965 -0.1567  1.2167
 5118TIP3   OH236988   3.896   2.831   1.768 -0.7187  0.0309 -0.6098
 5118TIP3    H136989   3.907   2.873   1.683 -0.8886  0.4581 -0.4219
 5118TIP3    H236990   3.923   2.897   1.831  0.8312 -0.7650 -0.3697
 5119TIP3   OH236991   1.679   2.763   2.374 -0.3429 -0.4001 -0.7758
 5119TIP3    H136992   1.701   2.835   2.433 -1.8223 -1.3488  1.0388
 5119TIP3    H236993   1.611   2.799   2.316 -0.0717  0.0651 -0.8065
 5120TIP3   OH236994   6.413   4.974   8.684  0.1849  0.1979 -0.0054
 5120TIP3    H136995   6.382   5.062   8.707 -0.7685 -0.1399  0.0331
 5120TIP3    H236996   6.375   4.917   8.752  0.3924 -0.3064 -0.3089
 5121TIP3   OH236997   3.508   2.080   0.883  0.3302 -0.0790 -0.0669
 5121TIP3    H136998   3.520   2.146   0.952  1.5451 -0.0640 -0.2649
 5121TIP3    H236999   3.537   1.999   0.924  1.3836 -0.0127 -0.6451
 5122TIP3   OH237000   6.653   5.388   0.796 -0.2302  0.0204 -0.2517
 5122TIP3    H137001   6.664   5.321   0.729  1.1288 -0.2288  0.2002
 5122TIP3    H237002   6.642   5.339   0.877  1.3308  0.3138  0.1649
 5123TIP3   OH237003   5.438   3.991   0.021  0.1063  0.8841  0.0796
 5123TIP3    H137004   5.448   4.025   0.110  1.1044  2.0712 -0.4607
 5123TIP3    H237005   5.402   3.903   0.033 -1.5812  1.7300  1.5658
 5124TIP3   OH237006   4.061   1.422   0.549 -0.4251 -0.1259 -0.0931
 5124TIP3    H137007   3.976   1.386   0.526 -1.7176  1.5458  1.7218
 5124TIP3    H237008   4.044   1.513   0.573  1.7644  0.1109  0.8818
 5125TIP3   OH237009   5.197   5.303   1.615  0.9724 -0.8817 -0.2618
 5125TIP3    H137010   5.191   5.323   1.708  0.5452 -0.3282 -0.3987
 5125TIP3    H237011   5.289   5.316   1.593  0.7986  0.5722 -0.2478
 5126TIP3   OH237012   1.564   0.625   8.252  0.0522  0.8728  0.0007
 5126TIP3    H137013   1.637   0.678   8.219 -0.0396 -0.5702 -2.8505
 5126TIP3    H237014   1.605   0.556   8.303  0.6746  0.5166 -0.9501
 5127TIP3   OH237015   3.042   5.386   0.235 -0.5785 -0.4406  0.2787
 5127TIP3    H137016   3.107   5.318   0.252 -1.6535 -1.5303  0.2299
 5127TIP3    H237017   3.076   5.435   0.161  0.9777  0.1035  1.2990
 5128TIP3   OH237018   6.781   5.391   0.390  0.3192 -0.3194  0.0617
 5128TIP3    H137019   6.797   5.328   0.319 -1.6383 -0.6104 -0.1870
 5128TIP3    H237020   6.703   5.357   0.434 -1.0247  2.0934 -0.3024
 5129TIP3   OH237021   6.246   4.032   1.501 -0.5263  1.0021  0.0055
 5129TIP3    H137022   6.207   4.026   1.588  0.7685 -2.9466  0.5007
 5129TIP3    H237023   6.322   4.088   1.512  0.9939 -1.2709  2.1509
 5130TIP3   OH237024   6.162   2.874   8.196 -0.1175 -0.6337  0.1587
 5130TIP3    H137025   6.163   2.870   8.100  0.9390  0.0043  0.1291
 5130TIP3    H237026   6.123   2.960   8.215 -2.4903 -1.6815  0.3717
 5131TIP3   OH237027   5.263   1.523   2.279  0.1013 -0.1989 -0.0925
 5131TIP3    H137028   5.245   1.521   2.185  1.2946 -0.9431 -0.3271
 5131TIP3    H237029   5.211   1.597   2.312  2.6084  2.6356 -1.9785
 5132TIP3   OH237030   1.046   4.639   6.415 -0.0336  0.0746  0.0726
 5132TIP3    H137031   1.045   4.593   6.499  0.1976  2.5444  1.5492
 5132TIP3    H237032   1.116   4.597   6.365 -0.0825 -1.3766  1.1496
 5133TIP3   OH237033   3.854   2.099   2.463 -0.4750 -0.1022 -0.0536
 5133TIP3    H137034   3.878   2.096   2.371  1.0820  2.0000  0.2159
 5133TIP3    H237035   3.932   2.068   2.510 -0.3722  1.1116  0.6183
 5134TIP3   OH237036   4.866   2.381   2.232 -0.0572 -0.8117 -0.9152
 5134TIP3    H137037   4.960   2.363   2.233 -0.0736 -1.3544 -3.0848
 5134TIP3    H237038   4.856   2.455   2.173 -0.9428 -0.2544 -0.0980
 5135TIP3   OH237039   6.749   6.774   0.726  0.1033 -0.0713 -0.0057
 5135TIP3    H137040   6.663   6.736   0.707 -0.2673  0.2331  0.9896
 5135TIP3    H237041   6.782   6.722   0.799  0.3843  0.3710  0.1797
 5136TIP3   OH237042   4.372   2.291   8.056 -0.1779  0.0737  0.0955
 5136TIP3    H137043   4.435   2.290   7.984 -0.1033 -1.0198  0.1568
 5136TIP3    H237044   4.303   2.230   8.029  0.9244 -2.0668  1.8568
 5137TIP3   OH237045   2.571   3.193   1.233  0.0846  0.0946  0.0114
 5137TIP3    H137046   2.559   3.104   1.267  0.2796 -0.2809 -0.8732
 5137TIP3    H237047   2.625   3.237   1.299 -0.0596 -0.4244  0.4828
 5138TIP3   OH237048   2.051   6.442   0.253 -0.6195  0.0530 -0.4970
 5138TIP3    H137049   2.042   6.479   0.165 -2.8005  0.7581 -0.0331
 5138TIP3    H237050   2.129   6.483   0.289  1.9202 -2.1683 -2.9418
 5139TIP3   OH237051   2.040   0.611   7.326  0.2752 -0.1533  0.7499
 5139TIP3    H137052   1.956   0.567   7.335 -0.4023  0.7609 -0.6770
 5139TIP3    H237053   2.095   0.549   7.278 -0.4329  0.2056 -0.5840
 5140TIP3   OH237054   6.601   5.105   2.487  0.0498  0.1657 -0.4779
 5140TIP3    H137055   6.655   5.123   2.410 -2.1557  3.4691 -1.4117
 5140TIP3    H237056   6.656   5.132   2.561  0.7773  0.5785 -1.1538
 5141TIP3   OH237057   5.344   3.800   1.656 -0.0538 -0.3400 -0.4277
 5141TIP3    H137058   5.429   3.794   1.698 -0.2990 -1.3969 -0.0464
 5141TIP3    H237059   5.298   3.868   1.704  0.6638  0.4498 -0.8288
 5142TIP3   OH237060   5.359   1.230   1.173 -0.1765  0.7043 -0.2877
 5142TIP3    H137061   5.391   1.268   1.254 -0.6444 -1.0471  0.7673
 5142TIP3    H237062   5.438   1.211   1.123  0.1010  2.1022 -0.4334
 5143TIP3   OH237063   0.945   1.364   3.315  0.5342  0.4305 -0.0692
 5143TIP3    H137064   1.029   1.377   3.270 -0.5775 -0.6334 -2.6763
 5143TIP3    H237065   0.888   1.431   3.279 -0.2143 -0.0082  0.2820
 5144TIP3   OH237066   0.879   3.968   6.473  0.3467 -0.0070 -0.1810
 5144TIP3    H137067   0.836   3.929   6.397 -0.0297  1.9826 -1.0509
 5144TIP3    H237068   0.846   3.918   6.547 -2.3875  0.4567 -0.9653
 5145TIP3   OH237069   3.339   1.915   3.264  0.3044  0.1728 -0.1191
 5145TIP3    H137070   3.262   1.971   3.269 -1.3429 -1.9806  0.3458
 5145TIP3    H237071   3.328   1.853   3.337  3.2722  0.6822  0.9062
 5146TIP3   OH237072   5.890   0.460   8.666 -0.3111 -0.4510  0.0126
 5146TIP3    H137073   5.878   0.394   8.735 -0.1267  0.2528  0.7235
 5146TIP3    H237074   5.820   0.442   8.604 -1.1449 -0.4245  0.9168
 5147TIP3   OH237075   0.482   5.578   0.483 -0.2580  0.2772  0.6676
 5147TIP3    H137076   0.497   5.574   0.389  1.6236  0.9750  0.8870
 5147TIP3    H237077   0.496   5.670   0.506  0.1740 -0.0382  1.7527
 5148TIP3   OH237078   2.238   2.162   1.849  0.1530  0.2552  0.5574
 5148TIP3    H137079   2.149   2.156   1.815  0.0747  1.1060  0.5968
 5148TIP3    H237080   2.289   2.197   1.776  0.4770 -0.2892  0.5137
 5149TIP3   OH237081   1.328   5.111   7.478 -0.1363 -0.1059  0.5613
 5149TIP3    H137082   1.410   5.159   7.475  0.1178 -0.5631 -0.1319
 5149TIP3    H237083   1.353   5.019   7.487 -0.6283 -0.1061  2.3581
 5150TIP3   OH237084   6.721   0.859   7.448  0.2656  0.3279 -0.3059
 5150TIP3    H137085   6.753   0.932   7.501 -0.4800  0.8481 -0.5566
 5150TIP3    H237086   6.725   0.890   7.358  1.4996 -0.5462 -0.5855
 5151TIP3   OH237087   0.569   5.523   1.707 -0.0164  0.1963 -0.3095
 5151TIP3    H137088   0.609   5.461   1.768 -1.5622 -1.0795 -0.5465
 5151TIP3    H237089   0.595   5.491   1.620  0.9991  1.1880 -0.4009
 5152TIP3   OH237090   3.181   6.466   0.789  0.0413  0.2843 -0.7005
 5152TIP3    H137091   3.092   6.464   0.755 -0.2423 -0.2110  0.0344
 5152TIP3    H237092   3.216   6.379   0.771 -0.6929 -0.5961  1.6835
 5153TIP3   OH237093   3.533   5.588   0.968  0.9361  0.8988  0.1338
 5153TIP3    H137094   3.438   5.579   0.958  0.8331  0.9076  1.0074
 5153TIP3    H237095   3.558   5.654   0.904  0.3653  0.8076 -0.1851
 5154TIP3   OH237096   5.610   5.968   0.592 -0.2640  0.0009 -0.3301
 5154TIP3    H137097   5.637   6.018   0.669 -0.7918 -0.0063 -0.1432
 5154TIP3    H237098   5.606   5.877   0.622 -2.6731  0.2448  0.2482
 5155TIP3   OH237099   1.451   1.014   8.300  0.2499  0.1355 -0.3004
 5155TIP3    H137100   1.393   0.943   8.273  0.2980  0.3835 -1.0976
 5155TIP3    H237101   1.418   1.091   8.254 -0.5064  0.8986  1.4451
 5156TIP3   OH237102   5.647   2.647   8.432  0.0396 -0.0501  0.0377
 5156TIP3    H137103   5.598   2.585   8.378  0.6694  0.7670 -1.5167
 5156TIP3    H237104   5.710   2.687   8.372 -0.5225  2.3040  0.9164
 5157TIP3   OH237105   6.742   0.237   1.073 -0.0013  0.1445  0.2160
 5157TIP3    H137106   6.672   0.225   1.137  1.9170  1.3112  2.6875
 5157TIP3    H237107   6.702   0.211   0.990 -2.6377 -1.4110  1.8156
 5158TIP3   OH237108   3.992   2.169   1.579  0.6349  0.0764  0.0204
 5158TIP3    H137109   4.079   2.208   1.586  0.3035  1.0424 -0.8845
 5158TIP3    H237110   3.936   2.227   1.631  0.4024 -0.0763 -0.0594
 5159TIP3   OH237111   0.268   0.056   0.975  0.5010  0.1832  0.0682
 5159TIP3    H137112   0.293   0.062   1.067  2.8764  2.1274 -0.6086
 5159TIP3    H237113   0.280  -0.037   0.954  2.3903  0.1227  1.1298
 5160TIP3   OH237114   6.085   6.525   2.581  0.2571  0.1893 -0.1718
 5160TIP3    H137115   6.180   6.540   2.588  0.9862 -2.5859 -2.3698
 5160TIP3    H237116   6.049   6.612   2.562  2.0190  1.6956  2.5996
 5161TIP3   OH237117   5.327   0.733   0.636 -0.1229 -0.5930 -0.6820
 5161TIP3    H137118   5.233   0.747   0.650 -0.3254 -1.9749 -0.5094
 5161TIP3    H237119   5.369   0.784   0.705 -0.6962  0.7284 -1.2831
 5162TIP3   OH237120   0.562   1.923   7.985  0.0011  0.1078 -0.2141
 5162TIP3    H137121   0.554   1.898   7.893  1.2345 -0.8888 -0.0744
 5162TIP3    H237122   0.509   1.859   8.033 -0.6026  0.5982 -0.2007
 5163TIP3   OH237123   1.351   5.297   0.148 -0.1981  0.3972 -0.0581
 5163TIP3    H137124   1.265   5.337   0.131  0.2408  2.1729  1.5367
 5163TIP3    H237125   1.411   5.343   0.089 -0.2107 -0.3737 -0.6896
 5164TIP3   OH237126   3.930   4.751   1.755 -0.3392 -0.4114 -0.7273
 5164TIP3    H137127   3.856   4.767   1.696  0.1489 -0.2762 -1.3102
 5164TIP3    H237128   3.913   4.664   1.791 -0.5339 -0.5881 -1.2340
 5165TIP3   OH237129   2.069   3.681   0.308 -0.2043 -0.0131 -0.5884
 5165TIP3    H137130   2.036   3.617   0.245 -2.1418  1.0607 -0.7422
 5165TIP3    H237131   1.992   3.732   0.332  0.4455 -0.3768  2.6963
 5166TIP3   OH237132   1.564   1.972   7.516  0.2219  0.4162 -0.2681
 5166TIP3    H137133   1.519   1.962   7.431 -1.6490  2.4680  0.3687
 5166TIP3    H237134   1.655   1.947   7.498 -0.4153 -0.5462 -2.5286
 5167TIP3   OH237135   1.178   6.534   1.509  0.6805 -0.1328  0.5972
 5167TIP3    H137136   1.249   6.590   1.476 -0.5280  1.8418  1.1918
 5167TIP3    H237137   1.127   6.512   1.431 -0.4837  2.0823  0.6512
 5168TIP3   OH237138   5.873   1.245   0.329 -0.2686  0.6202 -0.2798
 5168TIP3    H137139   5.823   1.176   0.286  0.1759  1.0556 -1.5507
 5168TIP3    H237140   5.817   1.275   0.400 -1.6469  0.8299 -1.4105
 5169TIP3   OH237141   5.609   5.641   7.104  0.2654 -0.2544 -0.2096
 5169TIP3    H137142   5.629   5.547   7.096  0.3055 -0.1526 -1.6421
 5169TIP3    H237143   5.685   5.678   7.148  1.3764 -0.5453 -1.7758
 5170TIP3   OH237144   3.799   1.640   1.177  0.2783 -0.2567 -0.7491
 5170TIP3    H137145   3.881   1.648   1.129  0.4569 -0.7329 -0.5270
 5170TIP3    H237146   3.756   1.564   1.139  1.2657 -1.8002  1.0656
 5171TIP3   OH237147   6.562   2.808   1.835  0.1507 -0.8881 -0.1303
 5171TIP3    H137148   6.561   2.732   1.892 -1.5888 -0.9849 -0.2537
 5171TIP3    H237149   6.578   2.882   1.894  0.9959 -1.2329  0.0972
 5172TIP3   OH237150   1.770   6.482   7.846 -0.1130 -0.1183  0.7756
 5172TIP3    H137151   1.747   6.460   7.756  0.3471 -0.3633  0.7190
 5172TIP3    H237152   1.779   6.578   7.846  1.1308 -0.2292  0.2731
 5173TIP3   OH237153   0.326   4.921   0.263 -0.7474  0.1723  0.1749
 5173TIP3    H137154   0.254   4.931   0.201  1.3790  0.8718 -2.3870
 5173TIP3    H237155   0.373   4.843   0.232 -0.3078 -0.2032  1.7044
 5174TIP3   OH237156   5.058   5.585   1.339 -0.2418  0.6101  0.0249
 5174TIP3    H137157   5.072   5.601   1.245  2.9736  0.1336  0.2907
 5174TIP3    H237158   5.009   5.504   1.343 -0.2516  0.5327 -1.2714
 5175TIP3   OH237159   5.415   6.862   0.945 -0.2607 -0.0344 -0.1932
 5175TIP3    H137160   5.475   6.810   0.999 -0.9609 -0.9398 -0.2666
 5175TIP3    H237161   5.328   6.839   0.977 -0.5616  2.0203  0.5846
 5176TIP3   OH237162   5.968   0.547   8.185  0.0282  0.2281  0.0440
 5176TIP3    H137163   5.993   0.519   8.273 -0.0592  1.7985  0.6118
 5176TIP3    H237164   5.993   0.475   8.128  1.8740 -0.0412  1.1266
 5177TIP3   OH237165   3.376   1.591   7.566 -0.0903  0.0535 -0.0429
 5177TIP3    H137166   3.306   1.656   7.566 -0.6041 -0.4731 -0.9825
 5177TIP3    H237167   3.378   1.558   7.476  0.1200 -1.2691  0.4321
 5178TIP3   OH237168   1.347   6.599   8.025 -0.0291 -0.3208 -0.1369
 5178TIP3    H137169   1.327   6.551   8.106  3.7008 -1.6704  0.2150
 5178TIP3    H237170   1.319   6.540   7.955  1.3606 -1.5777  0.2948
 5179TIP3   OH237171   6.200   1.351   2.683  0.4603 -0.0069 -0.0646
 5179TIP3    H137172   6.245   1.347   2.767 -0.6201 -2.0812  0.4831
 5179TIP3    H237173   6.120   1.300   2.695 -0.7596  1.3473 -1.7772
 5180TIP3   OH237174   6.584   1.868   0.906  0.4936  0.6275  0.2886
 5180TIP3    H137175   6.607   1.918   0.827 -0.3490 -1.8681 -1.6758
 5180TIP3    H237176   6.489   1.861   0.904  0.6090 -2.2102 -0.4180
 5181TIP3   OH237177   6.778   0.493   8.646  0.2742  0.0477  0.0114
 5181TIP3    H137178   6.698   0.536   8.679  1.5139  1.2206  1.6622
 5181TIP3    H237179   6.746   0.414   8.603 -1.8129  0.6357  0.3475
 5182TIP3   OH237180   5.925   4.657   1.842 -0.4144 -0.1362 -0.2028
 5182TIP3    H137181   5.994   4.631   1.781  0.7735  3.8161 -0.8310
 5182TIP3    H237182   5.864   4.708   1.789 -1.7933 -0.3355  1.1074
 5183TIP3   OH237183   5.336   6.637   1.906  0.0466  0.0277 -0.4725
 5183TIP3    H137184   5.319   6.566   1.843  1.3279 -0.5180 -0.2430
 5183TIP3    H237185   5.336   6.593   1.991  1.2659  0.2027 -0.3640
 5184TIP3   OH237186   2.489   0.351   1.253  0.6105  0.6225  0.1866
 5184TIP3    H137187   2.560   0.309   1.207 -1.2085 -1.3182 -1.0011
 5184TIP3    H237188   2.497   0.444   1.230  0.9394  0.0072 -2.4461
 5185TIP3   OH237189   0.471   2.612   7.126  0.5387  0.0040  0.1528
 5185TIP3    H137190   0.379   2.592   7.112  0.3970  0.7863 -0.1362
 5185TIP3    H237191   0.516   2.570   7.053  0.6520 -1.9365  1.2827
 5186TIP3   OH237192   5.771   6.087   8.342  0.4037 -0.0236  0.0410
 5186TIP3    H137193   5.716   6.161   8.318  1.0466  0.2918 -0.4776
 5186TIP3    H237194   5.715   6.010   8.331 -1.4711  0.5227  3.9508
 5187TIP3   OH237195   0.463   2.781   0.888 -0.4755  0.5822  0.0472
 5187TIP3    H137196   0.378   2.802   0.927 -0.5465  1.3915 -0.5145
 5187TIP3    H237197   0.506   2.866   0.878 -1.0335  0.6279 -2.9677
 5188TIP3   OH237198   0.826   3.791   3.318 -0.0635  0.2882  0.0738
 5188TIP3    H137199   0.826   3.853   3.391  0.0772 -0.5744  0.8211
 5188TIP3    H237200   0.742   3.806   3.274  0.3424  1.6185 -0.3108
 5189TIP3   OH237201   3.665   5.866   0.055 -0.0847 -0.1401  0.3849
 5189TIP3    H137202   3.607   5.941   0.039 -0.4263 -0.5976 -0.6352
 5189TIP3    H237203   3.639   5.833   0.140 -0.8789  0.0702  0.2324
 5190TIP3   OH237204   4.460   2.378   2.334  0.3729 -0.3637 -0.1556
 5190TIP3    H137205   4.481   2.296   2.378  0.3568 -0.5060 -0.4121
 5190TIP3    H237206   4.365   2.388   2.346  0.3597 -0.4300 -0.2061
 5191TIP3   OH237207   5.129   1.459   7.614  0.8671 -0.1278  0.3890
 5191TIP3    H137208   5.171   1.440   7.530  0.7480 -0.0702  0.3165
 5191TIP3    H237209   5.200   1.454   7.678  0.6207 -2.2549  0.5836
 5192TIP3   OH237210   6.282   3.227   0.001  0.1071  0.0492 -0.0019
 5192TIP3    H137211   6.273   3.134   0.022 -0.2451  0.0916  0.0308
 5192TIP3    H237212   6.302   3.269   0.085  0.0431  0.0330  0.0212
 5193TIP3   OH237213   6.778   2.179   7.714 -0.2221  0.4151 -0.6522
 5193TIP3    H137214   6.737   2.202   7.798  0.8072  1.0053 -0.2901
 5193TIP3    H237215   6.853   2.124   7.738 -1.5359 -1.7979 -1.3962
 5194TIP3   OH237216   1.951   6.716   2.357 -0.5655  0.5878  0.1167
 5194TIP3    H137217   1.973   6.650   2.291 -2.3585  0.1605 -0.0920
 5194TIP3    H237218   1.931   6.665   2.435 -0.9519  0.9319  0.2444
 5195TIP3   OH237219   6.647   4.742   1.614 -0.0344  0.5788  0.2013
 5195TIP3    H137220   6.679   4.655   1.592  1.3986  1.3712 -1.0515
 5195TIP3    H237221   6.568   4.753   1.561 -0.2948  0.0010  0.4689
 5196TIP3   OH237222   5.235   6.119   2.494 -0.1156 -0.1288  0.5477
 5196TIP3    H137223   5.227   6.137   2.587  0.6174 -0.4597  0.6807
 5196TIP3    H237224   5.321   6.153   2.470  0.3908 -1.4760  0.3496
 5197TIP3   OH237225   0.575   3.693   6.999 -0.1577 -0.3161  0.3953
 5197TIP3    H137226   0.493   3.662   6.960  0.0202 -0.1410 -0.1251
 5197TIP3    H237227   0.627   3.724   6.925 -0.0814  0.6532  0.8409
 5198TIP3   OH237228   4.448   1.268   2.050 -0.0934  0.8136  0.0434
 5198TIP3    H137229   4.528   1.272   2.101 -0.2628  2.1905  0.2399
 5198TIP3    H237230   4.377   1.266   2.115 -0.2313 -1.2536 -0.1112
 5199TIP3   OH237231   4.161   6.175   1.135 -0.1670 -0.2049 -0.0372
 5199TIP3    H137232   4.131   6.134   1.053 -0.8669 -0.6781  0.4397
 5199TIP3    H237233   4.246   6.212   1.113  0.0752 -1.1262 -0.7434
 5200TIP3   OH237234   2.741   3.638   8.405 -0.4112 -0.0497 -0.2580
 5200TIP3    H137235   2.754   3.544   8.411 -0.9800 -0.0572  3.4312
 5200TIP3    H237236   2.827   3.676   8.428 -0.8063  0.2461  0.7941
 5201TIP3   OH237237   5.467   4.106   0.261  0.1845 -0.3527  0.2052
 5201TIP3    H137238   5.415   4.115   0.341 -1.5279 -0.9706 -0.7977
 5201TIP3    H237239   5.553   4.141   0.285 -0.4063 -0.1134  2.1776
 5202TIP3   OH237240   5.519   5.385   0.208  0.8269  0.0506 -0.1326
 5202TIP3    H137241   5.507   5.478   0.187 -1.0523 -0.5089 -1.8160
 5202TIP3    H237242   5.547   5.384   0.300  1.6157  2.2898 -0.2942
 5203TIP3   OH237243   4.510   2.144   2.499 -0.1154 -0.2238 -0.1573
 5203TIP3    H137244   4.458   2.162   2.578  0.9695 -1.8750  1.0197
 5203TIP3    H237245   4.601   2.147   2.530  0.5782  2.3988 -2.1041
 5204TIP3   OH237246   5.500   6.503   1.590  0.3069 -0.2292  0.1836
 5204TIP3    H137247   5.467   6.587   1.558  1.7330  0.1949 -0.2706
 5204TIP3    H237248   5.594   6.518   1.603  0.1402 -0.9474  2.7676
 5205TIP3   OH237249   4.014   6.203   7.251 -0.9901 -0.5319 -0.7057
 5205TIP3    H137250   4.084   6.195   7.316 -0.0105 -0.3028 -1.7073
 5205TIP3    H237251   4.035   6.137   7.185  0.0808  1.5948 -2.6257
 5206TIP3   OH237252   2.149   6.699   8.477  0.3199 -0.0636  0.4202
 5206TIP3    H137253   2.123   6.694   8.569 -0.6640  1.3728  0.2741
 5206TIP3    H237254   2.071   6.733   8.432  0.7780 -0.7334 -0.9438
 5207TIP3   OH237255   0.697   4.328   1.977  0.1853 -0.0474 -0.8244
 5207TIP3    H137256   0.627   4.367   2.029  1.5844 -0.7675  1.7446
 5207TIP3    H237257   0.657   4.251   1.936 -0.5713 -0.3574  0.4592
 5208TIP3   OH237258   6.556   5.990   2.779 -0.8331 -0.1082  0.0426
 5208TIP3    H137259   6.617   5.980   2.852 -0.9446 -0.3570  0.1025
 5208TIP3    H237260   6.532   5.900   2.756  2.8463 -0.4981 -3.4045
 5209TIP3   OH237261   5.293   3.221   2.082  0.0169 -0.4799 -0.1736
 5209TIP3    H137262   5.269   3.296   2.028  1.1768 -0.4428 -0.6617
 5209TIP3    H237263   5.383   3.201   2.057 -0.0233 -1.5722  0.4846
 5210TIP3   OH237264   4.507   2.232   6.943 -0.3383  0.2881  0.3067
 5210TIP3    H137265   4.538   2.155   6.896 -0.2409 -0.0383  0.8999
 5210TIP3    H237266   4.420   2.207   6.976 -0.4511  0.5496  0.2095
 5211TIP3   OH237267   4.653   2.355   7.124 -0.1183 -0.2485 -0.8764
 5211TIP3    H137268   4.735   2.394   7.095  1.4086 -3.6881 -1.7826
 5211TIP3    H237269   4.604   2.338   7.044 -0.7192 -0.2190 -0.5239
 5212TIP3   OH237270   4.767   6.018   2.610  0.3745  0.0988  0.4821
 5212TIP3    H137271   4.828   6.071   2.661 -0.0048 -0.0327  1.0783
 5212TIP3    H237272   4.788   6.038   2.519  0.2052  1.3062  0.6948
 5213TIP3   OH237273   0.956   2.152   0.121  0.4698 -0.1197  0.3856
 5213TIP3    H137274   0.910   2.232   0.097 -0.0666 -0.8066 -0.9248
 5213TIP3    H237275   0.921   2.130   0.207 -1.3342 -0.3790 -0.3796
 5214TIP3   OH237276   6.186   6.260   7.757  0.1562 -0.1861 -0.1962
 5214TIP3    H137277   6.124   6.203   7.713 -0.1227  0.5424 -0.7834
 5214TIP3    H237278   6.256   6.272   7.694 -0.5605  1.3995 -0.7416
 5215TIP3   OH237279   3.803   5.113   2.925  0.1660  0.5830  0.1715
 5215TIP3    H137280   3.737   5.084   2.988  0.2739  0.0025  0.0210
 5215TIP3    H237281   3.843   5.033   2.893 -1.0516  0.7446 -1.9307
 5216TIP3   OH237282   3.146   3.018   1.509 -0.7627 -0.2211 -0.0792
 5216TIP3    H137283   3.073   3.023   1.448 -0.9513 -1.6767  0.0055
 5216TIP3    H237284   3.217   2.977   1.459 -0.5352 -0.3157  0.3151
 5217TIP3   OH237285   1.103   0.902   0.041  0.2211  0.0497  0.2586
 5217TIP3    H137286   1.077   0.979   0.090  2.0341 -0.0067  1.4130
 5217TIP3    H237287   1.127   0.838   0.108  0.8562 -0.7347 -0.6814
 5218TIP3   OH237288   4.160   6.731   1.490 -0.5720  0.8740  0.2964
 5218TIP3    H137289   4.095   6.660   1.481  1.1940 -0.6442 -1.5361
 5218TIP3    H237290   4.108   6.808   1.514 -3.0367 -0.2972 -0.8476
 5219TIP3   OH237291   0.490   4.460   2.102 -0.9607  0.1186 -0.7672
 5219TIP3    H137292   0.396   4.478   2.114 -1.4788 -2.6069  0.2228
 5219TIP3    H237293   0.526   4.460   2.190 -0.6923 -1.6061 -0.8299
 5220TIP3   OH237294   0.407   2.069   3.286 -0.0190 -0.2527 -0.0052
 5220TIP3    H137295   0.429   2.107   3.201 -2.7777  1.3882 -0.1205
 5220TIP3    H237296   0.425   2.138   3.349 -0.3517 -0.5580  0.4279
 5221TIP3   OH237297   2.287   6.783   2.379 -0.2771 -0.5738  0.2294
 5221TIP3    H137298   2.225   6.823   2.319  1.6367 -0.7610 -2.0217
 5221TIP3    H237299   2.301   6.695   2.345  0.2682 -0.9751  1.4242
 5222TIP3   OH237300   2.170   0.404   8.462  0.2792  0.2864  0.3689
 5222TIP3    H137301   2.215   0.398   8.377  0.7999 -0.6608  0.6902
 5222TIP3    H237302   2.083   0.367   8.445  0.2166  0.5312  0.1433
 5223TIP3   OH237303   0.980   6.016   1.327 -0.5931 -0.3697 -0.2993
 5223TIP3    H137304   1.002   6.100   1.366  0.9489 -1.1620  0.6736
 5223TIP3    H237305   1.053   5.997   1.268 -1.2046 -0.7585 -0.9443
 5224TIP3   OH237306   1.585   5.969   8.224 -0.0590  0.0682  0.1322
 5224TIP3    H137307   1.644   6.011   8.286 -0.1780  1.0503 -0.4051
 5224TIP3    H237308   1.629   5.976   8.140 -2.1323  3.5213 -0.8726
 5225TIP3   OH237309   5.672   1.079   1.798 -0.6944  0.2006 -0.0926
 5225TIP3    H137310   5.648   1.171   1.789 -0.5684  0.2262 -0.1777
 5225TIP3    H237311   5.717   1.075   1.883 -2.1998 -0.1104  0.7143
 5226TIP3   OH237312   6.320   4.146   7.464  0.0824 -0.3022 -0.2678
 5226TIP3    H137313   6.335   4.089   7.540 -0.7678 -1.2136 -0.7530
 5226TIP3    H237314   6.398   4.134   7.410 -0.6206 -2.0733 -0.9846
 5227TIP3   OH237315   2.373   3.863   7.289 -0.4094 -0.0408  0.1186
 5227TIP3    H137316   2.464   3.888   7.276 -0.5418  0.5082  0.2155
 5227TIP3    H237317   2.323   3.939   7.258 -0.9611 -1.4966 -2.9745
 5228TIP3   OH237318   5.101   2.449   0.262 -0.1873 -0.9396  0.2730
 5228TIP3    H137319   5.063   2.371   0.222 -0.6246 -0.9775  0.7461
 5228TIP3    H237320   5.188   2.456   0.223 -1.1036 -0.1532 -1.7609
 5229TIP3   OH237321   3.591   2.907   3.145  0.1208  0.1640  0.1261
 5229TIP3    H137322   3.612   2.863   3.228  0.1093 -1.1127 -0.5243
 5229TIP3    H237323   3.558   2.993   3.172  0.6912  0.0151  1.4150
 5230TIP3   OH237324   4.542   3.526   2.441  0.3457  0.3413  0.0984
 5230TIP3    H137325   4.636   3.538   2.426  0.2228  1.8727  0.3785
 5230TIP3    H237326   4.525   3.570   2.524 -0.2067 -2.1272  1.3743
 5231TIP3   OH237327   1.905   4.648   1.259  0.2307  0.1311 -0.0036
 5231TIP3    H137328   1.893   4.685   1.346  2.9493  0.5973  0.2601
 5231TIP3    H237329   1.999   4.654   1.243  0.2277 -2.6039 -1.8052
 5232TIP3   OH237330   0.761   1.675   0.801 -0.1106 -0.0858  0.0354
 5232TIP3    H137331   0.842   1.706   0.843  0.3556 -0.4918 -0.5434
 5232TIP3    H237332   0.759   1.582   0.820 -1.5771  0.2517  1.8781
 5233TIP3   OH237333   6.178   6.250   1.923  0.5085  0.3514 -0.1799
 5233TIP3    H137334   6.228   6.218   1.997  0.1731  0.7017  0.2048
 5233TIP3    H237335   6.229   6.226   1.846  0.6270 -0.4323  0.1398
 5234TIP3   OH237336   6.408   5.386   1.077 -0.2767 -0.0883  0.5621
 5234TIP3    H137337   6.318   5.413   1.058 -0.0063  1.9200  1.8408
 5234TIP3    H237338   6.449   5.464   1.114  1.4751 -1.4830  1.7097
 5235TIP3   OH237339   1.861   5.449   7.795  0.6347  0.2829  0.5761
 5235TIP3    H137340   1.845   5.531   7.842  1.1491  1.1581 -0.7035
 5235TIP3    H237341   1.875   5.384   7.863  0.5839  1.3370  1.6217
 5236TIP3   OH237342   0.375   3.535   0.221  0.1500 -0.7345 -0.0623
 5236TIP3    H137343   0.435   3.568   0.287 -1.6961 -1.8509  2.3045
 5236TIP3    H237344   0.338   3.614   0.181  0.5073 -0.0039  1.0086
 5237TIP3   OH237345   6.577   0.430   1.877  0.1885 -0.3002 -0.2020
 5237TIP3    H137346   6.663   0.393   1.858 -0.4854 -1.1695 -1.6915
 5237TIP3    H237347   6.521   0.402   1.805 -1.1053  1.1460  0.1637
 5238TIP3   OH237348   4.721   1.887   8.585 -0.6041 -0.2233 -0.0855
 5238TIP3    H137349   4.806   1.852   8.612 -0.7934 -0.2651  0.4640
 5238TIP3    H237350   4.689   1.824   8.521 -0.8290 -0.9327  0.7096
 5239TIP3   OH237351   3.909   3.230   0.971  0.2058  0.4336  0.0487
 5239TIP3    H137352   3.993   3.276   0.967  1.1674 -1.2449 -0.0214
 5239TIP3    H237353   3.930   3.145   1.010 -1.7278  0.4992  1.3778
 5240TIP3   OH237354   4.515   0.500   1.406 -0.0318 -0.3412  0.1345
 5240TIP3    H137355   4.573   0.569   1.438 -0.9650 -0.2205  1.6528
 5240TIP3    H237356   4.497   0.446   1.483  1.2724 -2.7517 -1.1736
 5241TIP3   OH237357   5.568   0.499   7.650  0.8758  0.1442  0.5059
 5241TIP3    H137358   5.548   0.592   7.660 -3.3448 -0.5657  0.8818
 5241TIP3    H237359   5.615   0.493   7.568 -1.4718  2.4538 -1.1776
 5242TIP3   OH237360   4.301   1.721   7.427  0.0466  0.0710 -0.0152
 5242TIP3    H137361   4.255   1.760   7.501  1.0114  0.5560  0.3550
 5242TIP3    H237362   4.232   1.695   7.366 -0.7520 -0.1663  0.9696
 5243TIP3   OH237363   4.072   3.129   7.695 -0.0777  0.2066  0.1378
 5243TIP3    H137364   4.152   3.152   7.647 -1.2601  1.7707 -1.2192
 5243TIP3    H237365   4.036   3.214   7.723 -1.6359 -0.3980  0.0630
 5244TIP3   OH237366   0.309   0.722   6.457 -0.7562  0.4428 -0.2505
 5244TIP3    H137367   0.292   0.737   6.551 -1.0897 -0.1660 -0.2081
 5244TIP3    H237368   0.224   0.735   6.416 -1.4146 -2.5502 -0.0514
 5245TIP3   OH237369   3.988   4.483   0.529  0.0620  0.0628  0.6002
 5245TIP3    H137370   4.055   4.414   0.530 -1.7383 -1.8360  2.6375
 5245TIP3    H237371   3.926   4.454   0.462 -0.0879  0.3584  0.6112
 5246TIP3   OH237372   1.881   2.958   1.145  0.0137  0.0874  0.7878
 5246TIP3    H137373   1.896   2.864   1.139 -2.5305 -0.2944 -1.0592
 5246TIP3    H237374   1.945   2.996   1.084 -0.9623 -0.7726 -0.8535
 5247TIP3   OH237375   1.034   2.932   8.110 -0.0691  0.1720 -0.0714
 5247TIP3    H137376   0.962   2.873   8.088 -0.9901  0.4718  1.8877
 5247TIP3    H237377   1.101   2.875   8.148 -0.6995  0.2623  1.2346
 5248TIP3   OH237378   4.346   1.798   1.890 -0.2326 -0.0619 -0.8528
 5248TIP3    H137379   4.416   1.825   1.949 -0.2458 -0.0726 -0.8327
 5248TIP3    H237380   4.338   1.704   1.902  0.6251 -0.2767 -1.7942
 5249TIP3   OH237381   2.081   5.584   3.003 -0.0606  0.1139  0.3117
 5249TIP3    H137382   2.122   5.497   2.995  0.5752  0.3016  1.3844
 5249TIP3    H237383   2.151   5.641   3.034 -0.7811  0.7537  0.8084
 5250TIP3   OH237384   1.230   3.176   0.661 -0.1986 -0.9233 -0.3697
 5250TIP3    H137385   1.307   3.215   0.704 -0.8910 -1.1279  1.1277
 5250TIP3    H237386   1.264   3.138   0.580  1.2561 -0.9108  0.2129
 5251TIP3   OH237387   2.077   0.354   1.122  0.4694  0.0479 -0.3464
 5251TIP3    H137388   2.130   0.367   1.201  0.0951  0.9023 -0.2278
 5251TIP3    H237389   2.011   0.423   1.125 -1.9533 -2.1146  0.5737
 5252TIP3   OH237390   1.265   4.053   6.857 -0.5306 -0.3511 -0.5001
 5252TIP3    H137391   1.322   3.977   6.864  0.4410  0.5141  2.2849
 5252TIP3    H237392   1.250   4.063   6.763 -0.2867 -3.6035 -1.0087
 5253TIP3   OH237393   0.357   1.799   0.587 -0.0389 -0.4288  0.3679
 5253TIP3    H137394   0.373   1.893   0.581 -2.2290  0.0116  0.6528
 5253TIP3    H237395   0.419   1.760   0.525 -0.1366  1.3413 -0.9185
 5254TIP3   OH237396   1.258   5.884   7.070  0.0423 -0.2687 -0.0876
 5254TIP3    H137397   1.336   5.938   7.061 -0.4126  1.2398  3.2095
 5254TIP3    H237398   1.189   5.933   7.026  0.0986  0.7675  0.9303
 5255TIP3   OH237399   3.758   0.063   0.069 -0.8198 -0.1400  0.4105
 5255TIP3    H137400   3.836   0.101   0.110  0.9444 -2.8381 -0.1924
 5255TIP3    H237401   3.735   0.125   0.001  0.0570  1.3261  1.3876
 5256TIP3   OH237402   1.003   2.996   7.645  0.6771  0.1498  0.1353
 5256TIP3    H137403   0.955   3.041   7.715  0.4482 -1.4320  1.0371
 5256TIP3    H237404   0.975   3.040   7.564 -0.0096  1.1842  0.9143
 5257TIP3   OH237405   2.664   5.711   8.554  0.2580  0.0248 -0.3492
 5257TIP3    H137406   2.677   5.804   8.535  0.6320  0.5359  2.0498
 5257TIP3    H237407   2.578   5.707   8.596  0.8687 -0.4395  0.9119
 5258TIP3   OH237408   1.484   0.854   7.888 -0.1233  0.0580  0.3991
 5258TIP3    H137409   1.463   0.879   7.977  3.3023  2.7888  0.6834
 5258TIP3    H237410   1.442   0.920   7.833 -1.9582 -1.4309 -0.0972
 5259TIP3   OH237411   3.680   0.315   1.800 -0.0806 -0.1888 -0.0700
 5259TIP3    H137412   3.649   0.368   1.873 -0.2108 -0.8070  0.3330
 5259TIP3    H237413   3.765   0.353   1.777  0.0637 -0.1187  0.5529
 5260TIP3   OH237414   4.417   1.310   0.399 -0.6345 -0.2283  0.1942
 5260TIP3    H137415   4.469   1.288   0.321 -1.5283 -0.2443 -0.4112
 5260TIP3    H237416   4.435   1.240   0.461 -2.0813 -1.7871 -1.0461
 5261TIP3   OH237417   2.530   5.379   1.614 -0.1710  0.1063 -0.4455
 5261TIP3    H137418   2.611   5.421   1.645 -0.0905  0.6411 -1.3305
 5261TIP3    H237419   2.487   5.447   1.563 -1.3358 -0.0860  0.2463
 5262TIP3   OH237420   3.561   4.471   8.576 -0.2014 -0.4571 -0.3359
 5262TIP3    H137421   3.549   4.519   8.494  0.6175 -0.1589 -0.2895
 5262TIP3    H237422   3.540   4.534   8.645  2.3155  0.3809 -0.2141
 5263TIP3   OH237423   3.815   4.382   8.549  0.3888 -0.0645  0.0052
 5263TIP3    H137424   3.726   4.416   8.547  0.5890  0.4499 -2.0396
 5263TIP3    H237425   3.807   4.298   8.593 -1.2817 -0.4756 -0.9969
 5264TIP3   OH237426   0.964   4.488   2.772 -0.0380 -0.6461  0.0428
 5264TIP3    H137427   1.041   4.480   2.715 -0.4181 -1.3646 -0.3811
 5264TIP3    H237428   0.948   4.582   2.778  0.4075 -0.5347 -0.4998
 5265TIP3   OH237429   0.299   2.811   8.638  0.6615 -0.4462  0.6965
 5265TIP3    H137430   0.213   2.818   8.680  1.2729 -0.3708  1.9522
 5265TIP3    H237431   0.357   2.865   8.691  1.2449  0.5139 -0.8662
 5266TIP3   OH237432   6.286   5.938   0.687 -0.2374 -0.0139  0.3522
 5266TIP3    H137433   6.318   6.005   0.748 -0.5027  0.1336  0.3329
 5266TIP3    H237434   6.260   5.987   0.609 -1.4269 -0.0124  0.7326
 5267TIP3   OH237435   6.269   4.523   1.233 -0.1033 -0.5913 -0.6446
 5267TIP3    H137436   6.308   4.435   1.232 -1.5679 -1.2761 -0.5065
 5267TIP3    H237437   6.224   4.529   1.317  1.4728  1.0253  0.1491
 5268TIP3   OH237438   6.213   4.501   7.883  0.1100  0.4607 -0.5958
 5268TIP3    H137439   6.230   4.491   7.789 -2.3578  0.4148 -1.1129
 5268TIP3    H237440   6.210   4.595   7.897  0.0886  0.4686 -0.6543
 5269TIP3   OH237441   5.438   1.329   8.126 -0.7654  0.2435 -0.4300
 5269TIP3    H137442   5.451   1.295   8.215  0.3377 -0.1029 -0.7088
 5269TIP3    H237443   5.389   1.260   8.081  2.6486 -1.7812 -1.4034
 5270TIP3   OH237444   1.993   2.728   7.890 -0.4687  0.5119 -0.2660
 5270TIP3    H137445   2.032   2.809   7.857  1.8645  0.0675  1.1506
 5270TIP3    H237446   2.050   2.658   7.856 -0.3519 -0.2297  1.3528
 5271TIP3   OH237447   6.765   0.808   0.626 -0.8393 -0.2797 -0.1170
 5271TIP3    H137448   6.781   0.857   0.706 -0.5833  0.2821 -0.5037
 5271TIP3    H237449   6.848   0.763   0.608 -0.1884  1.2972 -1.2130
 5272TIP3   OH237450   3.213   1.344   1.923 -0.3958  0.2270 -0.1043
 5272TIP3    H137451   3.140   1.405   1.910 -0.2550  0.2176 -0.9460
 5272TIP3    H237452   3.223   1.299   1.839  1.7578  1.5142 -0.6070
 5273TIP3   OH237453   1.250   3.650   1.181 -0.3080  0.2300  0.7462
 5273TIP3    H137454   1.270   3.712   1.252  2.5456  2.6172 -1.8263
 5273TIP3    H237455   1.309   3.577   1.197 -0.6042  0.1407  1.4924
 5274TIP3   OH237456   1.253   2.099   1.934  0.1096 -0.5031  0.3335
 5274TIP3    H137457   1.345   2.108   1.911  0.8233 -2.0443  2.2497
 5274TIP3    H237458   1.237   2.168   1.998  0.4405 -1.2254  1.2288
 5275TIP3   OH237459   3.695   3.290   8.438 -0.1292 -0.1385  0.6738
 5275TIP3    H137460   3.642   3.227   8.487 -0.1643  0.4366  1.4063
 5275TIP3    H237461   3.633   3.359   8.414 -0.3403 -0.8804 -1.1124
 5276TIP3   OH237462   3.151   6.731   2.672 -0.7172 -0.2757  0.0484
 5276TIP3    H137463   3.058   6.734   2.695 -0.5704 -0.3804  0.6844
 5276TIP3    H237464   3.166   6.642   2.643 -1.1416  0.1388 -1.5301
 5277TIP3   OH237465   3.279   4.549   0.709  0.5430 -0.3668  0.0239
 5277TIP3    H137466   3.196   4.523   0.749  0.4899 -0.3900 -0.0989
 5277TIP3    H237467   3.296   4.482   0.642 -0.5336  0.8725 -1.5744
 5278TIP3   OH237468   5.761   5.502   8.422  0.4434 -0.1337  0.7337
 5278TIP3    H137469   5.699   5.460   8.482  1.2486 -0.0392  1.6606
 5278TIP3    H237470   5.794   5.431   8.367 -0.4894 -0.1786  0.2249
 5279TIP3   OH237471   2.905   5.051   0.521 -0.1540  0.5169 -0.6396
 5279TIP3    H137472   2.986   5.061   0.572 -0.1066  0.5984 -0.7309
 5279TIP3    H237473   2.928   5.079   0.433 -0.2524  0.4314 -0.6933
 5280TIP3   OH237474   2.770   3.689   1.438 -0.1472  0.2648  0.0073
 5280TIP3    H137475   2.710   3.723   1.372 -0.6947  1.4460  1.0596
 5280TIP3    H237476   2.713   3.656   1.508  0.3978  0.5992  0.6296
 5281TIP3   OH237477   1.777   4.950   7.804 -0.3008  0.1955  0.3507
 5281TIP3    H137478   1.703   5.008   7.821  0.0825  1.6072 -2.3194
 5281TIP3    H237479   1.854   5.003   7.827  0.0144  0.4080 -1.1269
 5282TIP3   OH237480   3.551   4.223   1.012  0.1915 -0.1242  0.1758
 5282TIP3    H137481   3.500   4.299   1.038 -0.3909 -0.4150 -0.1135
 5282TIP3    H237482   3.543   4.161   1.085  0.0579 -0.2065  0.0912
 5283TIP3   OH237483   6.569   2.352   0.138  0.6028 -0.0580 -0.0299
 5283TIP3    H137484   6.650   2.342   0.190  1.2897  0.7674 -0.9196
 5283TIP3    H237485   6.577   2.438   0.097  0.7254 -1.1818 -2.5624
 5284TIP3   OH237486   2.945   6.215   6.864 -0.1391 -0.3145 -0.3512
 5284TIP3    H137487   2.855   6.193   6.838 -0.2888 -0.0720 -0.0516
 5284TIP3    H237488   3.000   6.175   6.797 -0.5047  0.1612 -0.9405
 5285TIP3   OH237489   1.070   1.909   8.679 -0.3117 -1.2020 -0.2555
 5285TIP3    H137490   1.074   1.846   8.751  0.6931  0.9555  1.7151
 5285TIP3    H237491   1.016   1.981   8.713 -1.1090 -0.7877 -2.2660
 5286TIP3   OH237492   4.105   4.934   1.324 -0.1873 -0.0268 -0.4348
 5286TIP3    H137493   4.119   4.980   1.406 -3.8437  0.1116  0.2546
 5286TIP3    H237494   4.152   4.986   1.259  0.1659  1.6624  1.0987
 5287TIP3   OH237495   3.166   3.290   8.583 -0.2743 -0.4282 -0.5440
 5287TIP3    H137496   3.136   3.209   8.541  2.1016 -0.6741 -1.9796
 5287TIP3    H237497   3.260   3.278   8.593  0.4893  2.7401 -2.3462
 5288TIP3   OH237498   2.247   4.818   0.364 -0.3965  0.1598 -0.1774
 5288TIP3    H137499   2.196   4.852   0.291 -0.2154 -1.1096 -0.9267
 5288TIP3    H237500   2.280   4.734   0.333 -0.4828 -0.5099  1.4440
 5289TIP3   OH237501   3.436   3.300   8.647  0.1395  0.2647 -0.2276
 5289TIP3    H137502   3.455   3.221   8.697 -1.2173  1.4261  2.2680
 5289TIP3    H237503   3.449   3.372   8.709  0.3157  1.9589 -2.1267
 5290TIP3   OH237504   6.158   6.776   0.609  0.2157 -0.2342  0.3496
 5290TIP3    H137505   6.223   6.832   0.566 -0.2583 -0.3756 -0.5792
 5290TIP3    H237506   6.084   6.834   0.625  0.6561  0.0010  1.6810
 5291TIP3   OH237507   5.115   4.355   0.998 -0.1631 -0.3355 -0.0965
 5291TIP3    H137508   5.187   4.301   0.964 -0.4772 -0.7310 -0.1310
 5291TIP3    H237509   5.152   4.444   1.000  0.9536 -0.7819  1.6257
 5292TIP3   OH237510   2.687   5.984   8.409 -0.4270 -0.0769 -0.4231
 5292TIP3    H137511   2.722   5.948   8.327  0.0534 -0.3704 -0.0941
 5292TIP3    H237512   2.592   5.986   8.395 -0.3454 -0.0364 -1.0217
 5293TIP3   OH237513   3.687   1.825   8.535  0.4938 -0.3037  0.1409
 5293TIP3    H137514   3.735   1.760   8.586  0.9956  1.0494  1.4845
 5293TIP3    H237515   3.733   1.908   8.552 -0.0700  0.4111 -1.5700
 5294TIP3   OH237516   6.787   2.315   0.273 -0.5033  0.1006  0.2153
 5294TIP3    H137517   6.839   2.235   0.264 -2.2144 -1.0852  0.2696
 5294TIP3    H237518   6.741   2.304   0.357  0.5772  2.0085  1.1230
 5295TIP3   OH237519   4.517   1.387   1.204  0.7057  0.2047 -0.0283
 5295TIP3    H137520   4.582   1.353   1.266  0.7777  0.5215  0.0724
 5295TIP3    H237521   4.538   1.481   1.197 -1.4910  0.9923  2.2195
 5296TIP3   OH237522   1.975   5.344   0.468  0.1166 -0.2000 -0.0203
 5296TIP3    H137523   2.050   5.324   0.524 -1.6931  0.5514  2.8696
 5296TIP3    H237524   1.920   5.266   0.473 -1.3683  0.8865  1.6362
 5297TIP3   OH237525   5.487   0.672   1.019  0.1258  0.1690 -0.1598
 5297TIP3    H137526   5.533   0.601   1.064  0.3301  0.2629 -0.2216
 5297TIP3    H237527   5.405   0.632   0.990 -0.5272  0.4013  1.2873
 5298TIP3   OH237528   0.297   5.075   1.521 -0.2966 -0.6800 -0.0242
 5298TIP3    H137529   0.274   5.164   1.496  0.6683 -0.7397 -1.2161
 5298TIP3    H237530   0.376   5.056   1.471  1.3367 -1.0974  2.5783
 5299TIP3   OH237531   5.206   2.174   0.823 -0.6700 -0.2624 -0.6366
 5299TIP3    H137532   5.126   2.225   0.819 -0.8989 -0.5543  0.0826
 5299TIP3    H237533   5.276   2.238   0.806 -1.0548 -0.0213 -1.3121
 5300TIP3   OH237534   2.199   6.085   1.689  0.0970 -0.1536 -0.6215
 5300TIP3    H137535   2.150   6.125   1.617 -1.6453 -0.8806  0.1020
 5300TIP3    H237536   2.279   6.053   1.649  0.7582  2.4462 -1.5596
 5301TIP3   OH237537   6.844   4.150   2.451  0.2414 -0.6594  0.0884
 5301TIP3    H137538   6.781   4.167   2.381 -1.4527 -1.3815  1.3621
 5301TIP3    H237539   6.841   4.227   2.506  1.5480 -0.1080 -0.5541
 5302TIP3   OH237540   5.394   6.223   8.514  0.0311 -0.2870  0.3219
 5302TIP3    H137541   5.362   6.243   8.426 -0.5627  1.7424  0.9577
 5302TIP3    H237542   5.459   6.290   8.532  1.3838 -1.6637  0.8474
 5303TIP3   OH237543   0.783   5.645   1.822 -0.9630  0.3838  0.7286
 5303TIP3    H137544   0.854   5.614   1.765 -0.4453  4.0046 -0.8649
 5303TIP3    H237545   0.703   5.616   1.778 -0.5281 -0.2065  0.3086
 5304TIP3   OH237546   2.266   0.552   0.765 -0.1719  0.2420  0.5792
 5304TIP3    H137547   2.359   0.554   0.742 -0.0771 -1.1354  0.7645
 5304TIP3    H237548   2.224   0.512   0.689 -0.1396 -2.3266  1.8227
 5305TIP3   OH237549   4.396   0.965   2.515  0.3540 -0.0899  0.2253
 5305TIP3    H137550   4.352   0.915   2.584 -1.2094 -2.1285 -2.0827
 5305TIP3    H237551   4.343   1.044   2.504  1.4008  0.9682  2.1719
 5306TIP3   OH237552   1.034   6.839   2.012 -0.3121  0.3076  0.2632
 5306TIP3    H137553   1.065   6.902   1.947 -1.9636  0.5157 -0.3776
 5306TIP3    H237554   0.987   6.892   2.077 -2.3863 -0.2777 -0.6885
 5307TIP3   OH237555   1.073   5.240   0.901  0.4287 -0.0811 -0.5532
 5307TIP3    H137556   1.031   5.234   0.816 -1.3101  0.1008  0.2398
 5307TIP3    H237557   1.079   5.149   0.931 -2.9793  0.0168  0.8982
 5308TIP3   OH237558   1.159   2.747   7.078 -0.3905 -0.3570 -0.2183
 5308TIP3    H137559   1.241   2.699   7.082 -0.5173 -0.6749 -1.1470
 5308TIP3    H237560   1.184   2.838   7.064 -0.2076 -0.5556 -1.2067
 5309TIP3   OH237561   3.449   3.031   7.779  0.3788 -0.0148 -0.3141
 5309TIP3    H137562   3.357   3.005   7.783 -0.5403  2.1751 -3.3079
 5309TIP3    H237563   3.452   3.113   7.828  0.8880 -0.4259  0.3418
 5310TIP3   OH237564   0.355   3.250   0.271 -0.0648 -0.3091 -0.0984
 5310TIP3    H137565   0.389   3.333   0.236 -0.1671 -0.5863 -0.8889
 5310TIP3    H237566   0.347   3.193   0.194  0.3843 -1.1909  0.4915
 5311TIP3   OH237567   1.963   4.657   1.922  0.1822 -0.4720 -0.0231
 5311TIP3    H137568   1.939   4.603   1.997 -1.3647  0.1863  0.0050
 5311TIP3    H237569   2.003   4.735   1.959 -0.6181 -0.1289  0.1436
 5312TIP3   OH237570   2.710   6.698   3.084  0.4746  0.3665  0.0874
 5312TIP3    H137571   2.787   6.651   3.116 -0.7634 -1.7726  0.0573
 5312TIP3    H237572   2.715   6.689   2.989 -0.6633 -1.2853  0.1461
 5313TIP3   OH237573   1.362   5.355   7.680  0.0404  0.4902 -0.0509
 5313TIP3    H137574   1.440   5.398   7.645 -0.2070 -0.2233 -1.5574
 5313TIP3    H237575   1.291   5.418   7.665  0.0907  0.5680  0.0374
 5314TIP3   OH237576   1.357   3.198   1.025 -0.0601 -0.1269  0.4092
 5314TIP3    H137577   1.373   3.106   1.044 -0.4184  0.1199  2.0880
 5314TIP3    H237578   1.435   3.226   0.976  0.4627 -1.1012  0.6546
 5315TIP3   OH237579   2.625   4.213   2.207 -0.6448 -0.1075  0.1494
 5315TIP3    H137580   2.547   4.208   2.151 -0.7232 -2.4549  0.3740
 5315TIP3    H237581   2.698   4.218   2.146 -0.8758  0.4271 -0.0898
 5316TIP3   OH237582   1.942   0.073   0.891  0.5403  0.2900  0.1608
 5316TIP3    H137583   1.963   0.061   0.983  1.5501  0.8999  0.0212
 5316TIP3    H237584   2.018   0.117   0.854  0.9059 -1.4536 -1.3399
 5317TIP3   OH237585   6.478   4.472   1.657 -0.4415  0.0528 -0.1475
 5317TIP3    H137586   6.418   4.398   1.670 -0.1686 -0.3303 -0.9908
 5317TIP3    H237587   6.423   4.549   1.668 -1.0242 -0.2910 -0.5617
 5318TIP3   OH237588   1.781   3.495   1.086  0.0739 -0.4690  0.7894
 5318TIP3    H137589   1.774   3.583   1.124 -0.7114 -0.4811  0.6868
 5318TIP3    H237590   1.777   3.436   1.162  2.0813 -0.3996  1.0149
 5319TIP3   OH237591   4.291   6.747   0.248 -0.1256  0.1697 -0.4457
 5319TIP3    H137592   4.330   6.831   0.270 -1.4439  0.3438  1.4808
 5319TIP3    H237593   4.197   6.765   0.242 -0.3866 -1.0774 -0.4125
 5320TIP3   OH237594   3.861   6.173   7.671 -0.4160  0.6842  0.3844
 5320TIP3    H137595   3.878   6.097   7.615 -2.6488 -0.4732  1.1457
 5320TIP3    H237596   3.933   6.174   7.734 -0.1293 -0.5749  0.0920
 5321TIP3   OH237597   6.281   0.270   1.477 -0.2617 -0.6824  0.2786
 5321TIP3    H137598   6.320   0.188   1.447 -1.5108 -1.8946  1.7045
 5321TIP3    H237599   6.187   0.257   1.463 -0.4838  0.4523  0.6446
 5322TIP3   OH237600   5.548   4.633   1.853  0.6407 -0.1609 -0.0760
 5322TIP3    H137601   5.516   4.570   1.918 -1.1395  1.4782  0.7426
 5322TIP3    H237602   5.469   4.679   1.823  1.7421  0.8870 -1.5004
 5323TIP3   OH237603   6.072   2.117   8.675  0.0047  0.2027  0.3674
 5323TIP3    H137604   6.069   2.088   8.583 -0.0357  2.2231 -0.3267
 5323TIP3    H237605   6.006   2.186   8.680  1.8923  2.0684  1.1598
 5324TIP3   OH237606   2.480   2.959   1.376 -0.4355  0.2104  0.0707
 5324TIP3    H137607   2.411   2.942   1.312  0.4451  0.7131 -1.0534
 5324TIP3    H237608   2.505   2.873   1.409 -0.6089 -0.0983 -0.5913
 5325TIP3   OH237609   5.161   6.352   7.265 -1.0603  0.0484 -0.4104
 5325TIP3    H137610   5.209   6.304   7.197 -1.9571  0.2635 -1.2240
 5325TIP3    H237611   5.112   6.284   7.312  0.1842 -0.2017  0.5804
 5326TIP3   OH237612   3.635   6.779   0.673 -0.9008 -0.0652 -0.5180
 5326TIP3    H137613   3.552   6.824   0.663 -0.3072  1.0164 -0.6771
 5326TIP3    H237614   3.694   6.844   0.711  0.0091 -0.6614 -0.8637
 5327TIP3   OH237615   3.386   0.222   8.085  0.0707 -0.5332  0.0229
 5327TIP3    H137616   3.353   0.238   7.997 -1.5008  0.9944  0.8298
 5327TIP3    H237617   3.370   0.304   8.132  2.6905 -0.6146  1.2257
 5328TIP3   OH237618   6.161   5.030   1.095 -0.7295  0.6049 -0.2777
 5328TIP3    H137619   6.235   5.058   1.041 -1.6528  0.7330 -1.5182
 5328TIP3    H237620   6.088   5.022   1.034 -1.8884  1.0022  0.9983
 5329TIP3   OH237621   0.337   6.428   1.932 -0.0799  0.3635  0.0768
 5329TIP3    H137622   0.312   6.511   1.891 -0.7045 -0.5761 -1.5754
 5329TIP3    H237623   0.354   6.450   2.023  1.3664  2.5836 -0.6588
 5330TIP3   OH237624   0.689   4.198   1.427  0.0270  0.3199  0.4203
 5330TIP3    H137625   0.765   4.251   1.401  0.7606  0.4545  2.6502
 5330TIP3    H237626   0.619   4.262   1.441 -0.8183  0.1450 -2.3199
 5331TIP3   OH237627   5.284   2.566   1.357 -0.3966  0.0861  0.1206
 5331TIP3    H137628   5.242   2.518   1.286 -1.1837 -0.0904  0.6934
 5331TIP3    H237629   5.371   2.587   1.324 -0.0042 -1.7923 -0.1155
 5332TIP3   OH237630   4.503   5.755   0.160  0.2816  0.4258 -0.0318
 5332TIP3    H137631   4.553   5.815   0.105 -0.8579 -0.7867 -2.5358
 5332TIP3    H237632   4.418   5.749   0.118 -0.2589 -1.4805  1.2227
 5333TIP3   OH237633   0.989   1.510   0.625  0.3866 -0.5763  0.0146
 5333TIP3    H137634   0.909   1.458   0.611  0.0990 -0.3305  0.7094
 5333TIP3    H237635   1.050   1.448   0.665 -0.2053 -0.2140  1.5356
 5334TIP3   OH237636   5.159   5.431   2.408 -0.2567  0.0914  0.5957
 5334TIP3    H137637   5.079   5.477   2.382 -0.9170 -0.9045  0.7583
 5334TIP3    H237638   5.127   5.352   2.452  0.8253 -0.3548  0.6165
 5335TIP3   OH237639   3.642   6.375   1.021 -1.1951  0.2080 -0.1680
 5335TIP3    H137640   3.573   6.336   0.967 -0.7177  0.9862 -1.3659
 5335TIP3    H237641   3.720   6.373   0.966 -0.5852  0.6012  0.6661
 5336TIP3   OH237642   3.207   3.485   1.760 -0.5453 -0.0110  0.1256
 5336TIP3    H137643   3.274   3.425   1.729  0.1016 -0.0782  1.5743
 5336TIP3    H237644   3.153   3.503   1.683  0.1482 -1.2482 -0.6812
 5337TIP3   OH237645   6.082   0.915   0.984 -0.2360  0.6129 -0.1594
 5337TIP3    H137646   6.136   0.880   0.913 -0.4252  1.0478 -0.5248
 5337TIP3    H237647   6.027   0.981   0.941  0.1605  1.3938  0.5310
 5338TIP3   OH237648   4.414   0.694   8.611  0.2807 -0.5214  0.2491
 5338TIP3    H137649   4.320   0.676   8.620  0.3966 -2.6011 -1.8068
 5338TIP3    H237650   4.456   0.644   8.680  0.0020 -1.1882 -0.0628
 5339TIP3   OH237651   6.630   6.253   7.781  0.1590  0.2411  0.2732
 5339TIP3    H137652   6.606   6.184   7.719  2.4240 -0.3215 -0.0706
 5339TIP3    H237653   6.694   6.306   7.735  0.3360  1.0646  1.4129
 5340TIP3   OH237654   1.551   5.639   0.275 -0.0359 -0.5974 -0.5267
 5340TIP3    H137655   1.529   5.702   0.207  0.7934  2.7876  2.0941
 5340TIP3    H237656   1.468   5.594   0.294 -0.9748  0.5903 -1.6228
 5341TIP3   OH237657   1.891   4.655   8.205 -0.3969  0.3489 -0.5594
 5341TIP3    H137658   1.853   4.729   8.158  0.7110  0.7981 -0.7724
 5341TIP3    H237659   1.975   4.687   8.237 -0.4101 -0.4665  0.3286
 5342TIP3   OH237660   4.880   4.193   8.367 -0.2893  0.0354  0.0008
 5342TIP3    H137661   4.810   4.244   8.328 -0.0664 -0.5705 -1.2572
 5342TIP3    H237662   4.909   4.134   8.296 -0.4710 -1.7412  1.3362
 5343TIP3   OH237663   2.068   3.172   0.560  0.2821 -0.0385  0.6134
 5343TIP3    H137664   2.157   3.143   0.541  0.3977  0.6738  0.0346
 5343TIP3    H237665   2.072   3.267   0.553  0.0378  0.2207  2.9328
 5344TIP3   OH237666   0.683   3.947   2.625  0.1064  0.2151 -0.0750
 5344TIP3    H137667   0.773   3.967   2.651  0.2036 -1.8304  1.3628
 5344TIP3    H237668   0.681   3.964   2.531  1.9772  0.3469 -0.1276
 5345TIP3   OH237669   2.412   5.747   2.735 -0.0969  0.2863 -0.7735
 5345TIP3    H137670   2.411   5.843   2.733  1.1630  0.3612 -4.0533
 5345TIP3    H237671   2.474   5.726   2.805 -0.8158  1.8028  0.3858
 5346TIP3   OH237672   5.167   2.499   2.558 -0.3465 -0.0937  0.1382
 5346TIP3    H137673   5.103   2.556   2.601 -1.1006 -0.3163 -0.6758
 5346TIP3    H237674   5.169   2.528   2.467  1.2212  0.3539  0.2765
 5347TIP3   OH237675   0.783   1.023   0.976  0.3755  0.3635 -0.1071
 5347TIP3    H137676   0.754   1.074   0.900  0.6966 -0.8179 -1.0595
 5347TIP3    H237677   0.735   1.061   1.050  0.4966  1.9291 -0.7838
 5348TIP3   OH237678   3.229   1.939   0.902  0.3370  0.1917  0.8456
 5348TIP3    H137679   3.225   1.966   0.994  1.6481  0.9937  0.6866
 5348TIP3    H237680   3.321   1.920   0.886 -0.1054 -1.4813  0.0989
 5349TIP3   OH237681   0.739   1.006   1.641  0.8930  0.2714 -0.1835
 5349TIP3    H137682   0.830   1.026   1.662  0.8616 -0.6316  0.9056
 5349TIP3    H237683   0.690   1.085   1.665  1.1640  0.0869  1.0295
 5350TIP3   OH237684   1.881   3.709   7.234  0.0858 -0.2737  0.0771
 5350TIP3    H137685   1.851   3.688   7.146 -0.8780 -0.5859  0.4660
 5350TIP3    H237686   1.967   3.668   7.241 -0.3380 -1.2638 -0.3222
 5351TIP3   OH237687   3.843   5.887   0.559  0.2709  0.2382 -0.3988
 5351TIP3    H137688   3.897   5.845   0.492 -0.2803 -0.3030 -0.5099
 5351TIP3    H237689   3.877   5.976   0.565 -0.2762  0.5858 -2.0549
 5352TIP3   OH237690   6.657   4.124   0.761 -0.1120  0.2976 -0.6175
 5352TIP3    H137691   6.677   4.209   0.799 -2.5935 -0.3860  2.6175
 5352TIP3    H237692   6.578   4.138   0.709  1.1288  0.4635 -2.5439
 5353TIP3   OH237693   4.453   4.775   2.000  0.5489  0.1634 -0.0303
 5353TIP3    H137694   4.408   4.858   1.985  2.2474  1.5824  2.0737
 5353TIP3    H237695   4.495   4.786   2.085  1.6046 -2.5355 -0.1130
 5354TIP3   OH237696   4.057   2.949   2.677  0.2780 -0.0188  0.2297
 5354TIP3    H137697   3.989   2.945   2.744 -1.2715  0.3090 -1.2407
 5354TIP3    H237698   4.055   2.863   2.635  1.2263 -0.2195  0.5752
 5355TIP3   OH237699   4.817   4.483   1.338  0.4532 -0.6036  0.2123
 5355TIP3    H137700   4.737   4.536   1.337  1.1124  0.4199 -0.4579
 5355TIP3    H237701   4.794   4.404   1.289  0.2773  0.3904 -1.3828
 5356TIP3   OH237702   2.903   1.432   8.148 -0.3949 -0.3375  0.6468
 5356TIP3    H137703   2.975   1.495   8.155  1.3465 -2.0661 -0.3820
 5356TIP3    H237704   2.929   1.360   8.205 -0.5940 -1.5946 -0.7884
 5357TIP3   OH237705   0.370   4.716   1.735 -0.1884  0.3815 -0.0312
 5357TIP3    H137706   0.309   4.675   1.796 -0.2771  0.4791 -0.0547
 5357TIP3    H237707   0.361   4.810   1.750  1.6602  0.3656  1.6307
 5358TIP3   OH237708   6.675   2.678   0.724 -0.3021 -0.1288  0.0469
 5358TIP3    H137709   6.766   2.682   0.753  0.1997  2.8701 -1.5578
 5358TIP3    H237710   6.623   2.673   0.804  1.1997 -1.7696  0.9908
 5359TIP3   OH237711   3.853   3.182   1.273  0.1777 -0.2982 -0.2115
 5359TIP3    H137712   3.818   3.114   1.215  2.6017 -1.1121 -0.8719
 5359TIP3    H237713   3.817   3.264   1.239  1.5129 -0.7389 -2.9646
 5360TIP3   OH237714   5.808   1.853   1.576  0.1904  0.2145 -0.2539
 5360TIP3    H137715   5.895   1.848   1.616  0.5565  1.3068 -0.8419
 5360TIP3    H237716   5.780   1.762   1.566  2.2518 -0.3237 -2.1215
 5361TIP3   OH237717   6.160   1.645   0.074  0.2688  0.1123  0.3450
 5361TIP3    H137718   6.232   1.696   0.036 -0.9283  1.0494 -0.7454
 5361TIP3    H237719   6.120   1.601  -0.001 -1.0363  0.5529  0.7634
 5362TIP3   OH237720   4.668   2.796   2.042  0.1432  0.2290  0.0832
 5362TIP3    H137721   4.625   2.879   2.020 -1.7318 -0.7017  0.0536
 5362TIP3    H237722   4.609   2.729   2.008  1.2680 -1.1439  0.7465
 5363TIP3   OH237723   1.497   3.316   0.505 -0.0761 -0.7447 -0.3213
 5363TIP3    H137724   1.577   3.265   0.488  0.3815 -0.0290 -0.3295
 5363TIP3    H237725   1.495   3.327   0.600  1.1992  1.3641 -0.4666
 5364TIP3   OH237726   3.105   0.477   0.493 -0.2929  0.8527 -0.1720
 5364TIP3    H137727   3.193   0.489   0.529 -0.0455 -1.1525  0.0142
 5364TIP3    H237728   3.047   0.484   0.569  0.0170 -0.8893  0.2727
 5365TIP3   OH237729   5.600   0.424   7.399 -0.0124 -0.7367 -0.2340
 5365TIP3    H137730   5.584   0.332   7.423  1.3903 -0.6829  1.0832
 5365TIP3    H237731   5.695   0.430   7.393 -0.1429  0.2547 -2.0520
 5366TIP3   OH237732   4.549   5.172   2.959 -0.9088 -0.2665 -0.6106
 5366TIP3    H137733   4.474   5.143   3.011 -0.1104 -0.2000  0.6181
 5366TIP3    H237734   4.559   5.264   2.982 -2.8412  0.8640 -3.7653
 5367TIP3   OH237735   1.025   2.202   8.126  0.1810 -0.5195  0.2239
 5367TIP3    H137736   0.935   2.201   8.095  0.0781  0.6632  0.4595
 5367TIP3    H237737   1.063   2.120   8.092 -0.5249 -0.2889 -1.1987
 5368TIP3   OH237738   2.772   6.393   2.293  0.0624  0.8309  0.2898
 5368TIP3    H137739   2.782   6.480   2.330 -0.8516  0.9565  0.2615
 5368TIP3    H237740   2.710   6.404   2.221 -0.0455  0.1695  0.2678
 5369TIP3   OH237741   1.715   2.910   0.902  0.7645 -0.5474 -0.1512
 5369TIP3    H137742   1.750   2.916   0.991  2.2247 -0.7766 -0.6680
 5369TIP3    H237743   1.746   2.990   0.859 -1.3441  0.3876 -0.0193
 5370TIP3   OH237744   0.903   1.871   1.107  0.3799  0.2578  0.0034
 5370TIP3    H137745   0.808   1.871   1.114  0.4025  1.2164  0.5338
 5370TIP3    H237746   0.924   1.957   1.069  1.0801  0.4507  0.7891
 5371TIP3   OH237747   0.112   1.674   0.631  0.0216  0.3786  0.0737
 5371TIP3    H137748   0.086   1.676   0.723  0.9389 -1.1382  0.3994
 5371TIP3    H237749   0.207   1.688   0.633  0.2448 -0.8962 -0.5198
 5372TIP3   OH237750   0.932   3.962   8.445 -0.2017  0.5280  0.1100
 5372TIP3    H137751   0.903   3.961   8.536 -1.8542  2.4815 -0.3242
 5372TIP3    H237752   0.856   3.995   8.396  1.2156  1.2067 -1.7453
 5373TIP3   OH237753   1.117   4.459   7.290  0.2625 -0.1884  0.4030
 5373TIP3    H137754   1.166   4.536   7.261 -2.3024  1.3699 -0.0805
 5373TIP3    H237755   1.041   4.494   7.336 -0.9981 -2.4242  0.2125
 5374TIP3   OH237756   6.221   6.644   0.280  0.2328 -0.0730 -0.0778
 5374TIP3    H137757   6.290   6.708   0.295  1.8148 -2.1127  2.1524
 5374TIP3    H237758   6.253   6.590   0.208  0.1126  0.0730 -0.2411
 5375TIP3   OH237759   6.347   1.922   1.811 -0.1424 -0.7899  0.1612
 5375TIP3    H137760   6.373   1.832   1.792  2.3358 -0.0993 -0.0120
 5375TIP3    H237761   6.252   1.923   1.796 -0.2631 -3.3824  0.3260
 5376TIP3   OH237762   6.362   2.613   7.477 -0.0210 -0.5821  0.0132
 5376TIP3    H137763   6.303   2.667   7.529  1.0588  0.3401  0.3282
 5376TIP3    H237764   6.306   2.572   7.411 -0.8169  1.3271 -0.5667
 5377TIP3   OH237765   1.045   6.730   6.584  0.2066  0.1346 -0.5838
 5377TIP3    H137766   1.131   6.701   6.553  0.2198 -0.3812 -0.0863
 5377TIP3    H237767   1.018   6.663   6.647 -0.7065  0.1162 -0.9695
 5378TIP3   OH237768   5.176   3.893   7.673 -0.2088 -0.3858  0.4230
 5378TIP3    H137769   5.188   3.956   7.602 -1.0982  1.4470  1.7843
 5378TIP3    H237770   5.178   3.807   7.631  2.1296  0.4463 -1.3902
 5379TIP3   OH237771   4.639   4.681   3.266  0.0323  0.3849 -1.0386
 5379TIP3    H137772   4.572   4.707   3.203 -1.5305 -0.5258  0.1739
 5379TIP3    H237773   4.634   4.586   3.268 -1.4188  0.4347  1.8954
 5380TIP3   OH237774   1.041   3.195   7.993 -0.3694 -0.1830 -0.4492
 5380TIP3    H137775   1.029   3.109   8.034 -2.1306 -0.1217 -0.7429
 5380TIP3    H237776   1.136   3.208   7.993 -0.1846 -0.3108  3.3056
 5381TIP3   OH237777   6.033   6.144   8.242  0.0275  0.5644 -0.6956
 5381TIP3    H137778   6.060   6.134   8.151  0.5376 -0.3039 -0.4513
 5381TIP3    H237779   5.940   6.120   8.242  0.2983 -0.5170 -0.7999
 5382TIP3   OH237780   1.025   1.195   0.775 -0.3831  0.1825  0.3889
 5382TIP3    H137781   0.960   1.127   0.754 -1.2573  1.1185 -0.0290
 5382TIP3    H237782   1.018   1.205   0.870  1.5237 -2.0167  0.8635
 5383TIP3   OH237783   0.004   4.849   7.517 -0.4768 -0.1704  0.4441
 5383TIP3    H137784  -0.078   4.830   7.471  0.2294  1.0165 -1.3687
 5383TIP3    H237785  -0.013   4.931   7.563  0.2090  1.0809 -1.4242
 5384TIP3   OH237786   1.295   2.525   2.347  0.2213 -0.4659 -0.3369
 5384TIP3    H137787   1.239   2.562   2.279  1.5733 -0.2279 -1.3642
 5384TIP3    H237788   1.252   2.549   2.429  0.5636  2.6858 -0.9646
 5385TIP3   OH237789   2.316   5.091   2.923 -0.5636  0.0898 -0.2729
 5385TIP3    H137790   2.371   5.037   2.866 -0.2927  0.3665 -0.2749
 5385TIP3    H237791   2.375   5.156   2.959 -0.2338 -1.4209  2.0956
 5386TIP3   OH237792   6.734   1.441   2.417 -0.4190  0.2760  0.6712
 5386TIP3    H137793   6.734   1.471   2.508 -0.9314  2.6663 -0.0319
 5386TIP3    H237794   6.803   1.375   2.413 -0.1436  0.3773  2.7026
 5387TIP3   OH237795   4.698   1.404   3.004 -0.4114 -0.2242  0.3612
 5387TIP3    H137796   4.683   1.421   2.911 -0.6538 -0.2174  0.4002
 5387TIP3    H237797   4.612   1.379   3.038 -0.0589 -1.6659  0.2743
 5388TIP3   OH237798   4.582   0.299   2.118 -0.1130  0.3141  0.2891
 5388TIP3    H137799   4.669   0.279   2.085  0.1136  0.8808  0.5279
 5388TIP3    H237800   4.559   0.224   2.173 -0.6251 -0.8031 -1.3406
 5389TIP3   OH237801   1.572   0.490   1.657  0.0254 -0.4848 -0.2380
 5389TIP3    H137802   1.514   0.423   1.695  1.6382 -1.1281  1.2422
 5389TIP3    H237803   1.640   0.439   1.614 -0.1830  0.2581 -1.4726
 5390TIP3   OH237804   0.839   3.107   7.853  0.0959  0.6955  0.0035
 5390TIP3    H137805   0.900   3.145   7.916 -0.5748  1.7488  0.0479
 5390TIP3    H237806   0.813   3.181   7.798 -2.3314  0.6566  0.9749
 5391TIP3   OH237807   5.337   4.789   1.810  0.2315 -0.3114  0.4100
 5391TIP3    H137808   5.320   4.851   1.739 -0.1893 -0.2524  0.5578
 5391TIP3    H237809   5.253   4.780   1.855  0.2925 -0.9739  0.4038
 5392TIP3   OH237810   4.438   3.296   2.957  0.5775 -0.4327  0.7561
 5392TIP3    H137811   4.499   3.254   3.017 -0.4539 -1.4714  1.1182
 5392TIP3    H237812   4.493   3.339   2.892  1.7140  0.2512  2.1226
 5393TIP3   OH237813   4.761   4.337   7.592 -0.1026 -0.1041 -0.5252
 5393TIP3    H137814   4.674   4.303   7.571 -0.7784  1.5298 -0.5324
 5393TIP3    H237815   4.800   4.358   7.507  0.3684 -0.9181 -0.5286
 5394TIP3   OH237816   5.110   1.882   8.036 -0.2661  0.3257 -0.0711
 5394TIP3    H137817   5.133   1.973   8.017 -0.5387  0.6330  0.9700
 5394TIP3    H237818   5.027   1.888   8.083 -0.8227 -0.5426 -0.9223
 5395TIP3   OH237819   6.478   0.238   1.202  0.7521 -0.5007  0.1341
 5395TIP3    H137820   6.413   0.205   1.140  0.7923  1.6300 -1.1358
 5395TIP3    H237821   6.456   0.196   1.285 -0.2177 -2.2981 -0.9743
 5396TIP3   OH237822   5.783   0.082   7.498  0.0650 -0.3054 -0.5413
 5396TIP3    H137823   5.703   0.131   7.478  0.0961 -0.2064 -0.4212
 5396TIP3    H237824   5.799   0.030   7.419  0.9741  1.1310 -1.3668
 5397TIP3   OH237825   1.927   4.871   0.551  0.3247  0.3689 -0.1227
 5397TIP3    H137826   1.931   4.776   0.560 -2.2736  0.3485  2.0879
 5397TIP3    H237827   2.001   4.904   0.602  1.0650 -0.4018 -0.6696
 5398TIP3   OH237828   4.679   0.448   8.079 -0.3818 -0.0585 -0.1995
 5398TIP3    H137829   4.600   0.398   8.101 -1.0103  1.1302  0.3149
 5398TIP3    H237830   4.722   0.464   8.163 -0.0777  0.0883 -0.3818
 5399TIP3   OH237831   3.453   1.593   2.776 -0.0038  0.4254  0.2619
 5399TIP3    H137832   3.443   1.594   2.871  1.0630 -0.2238  0.3977
 5399TIP3    H237833   3.364   1.603   2.742 -0.8056 -2.3564  1.3333
 5400TIP3   OH237834   3.010   1.402   8.642 -0.1596 -0.2206 -0.3115
 5400TIP3    H137835   2.965   1.458   8.705  0.8940  0.3062 -0.0182
 5400TIP3    H237836   3.036   1.325   8.692 -1.2761 -0.8344 -0.6306
 5401TIP3   OH237837   0.903   6.384   0.290 -0.1604 -0.4039 -0.4953
 5401TIP3    H137838   0.832   6.320   0.289 -1.4090  0.8643  0.9653
 5401TIP3    H237839   0.909   6.415   0.200 -1.2712 -0.7454 -0.6986
 5402TIP3   OH237840   5.816   0.820   7.011  0.3034 -0.1686 -0.4345
 5402TIP3    H137841   5.889   0.861   7.059 -1.4316  0.9553  1.4435
 5402TIP3    H237842   5.826   0.851   6.921  3.5647 -2.1487 -0.9005
 5403TIP3   OH237843   4.519   4.516   1.898 -0.1568  0.4850  0.7955
 5403TIP3    H137844   4.603   4.490   1.858 -0.6248  0.9075 -0.5068
 5403TIP3    H237845   4.528   4.610   1.913 -1.3152  1.1231 -1.8603
 5404TIP3   OH237846   1.456   3.308   0.768  0.0435 -0.1852  0.1899
 5404TIP3    H137847   1.447   3.387   0.822  0.1940 -0.7727  1.0770
 5404TIP3    H237848   1.524   3.257   0.811  0.0180 -0.7618 -0.4461
 5405TIP3   OH237849   5.470   4.886   2.872 -0.6042  0.1352 -0.0371
 5405TIP3    H137850   5.467   4.790   2.875  3.8513 -0.1949  0.3770
 5405TIP3    H237851   5.472   4.913   2.964  1.6848  0.2533 -0.0668
 5406TIP3   OH237852   0.175   2.005   3.146  0.6180  0.0956  0.2336
 5406TIP3    H137853   0.239   2.040   3.208 -0.4764  0.9223  0.9435
 5406TIP3    H237854   0.115   1.955   3.201  0.1370  0.0869 -0.2914
 5407TIP3   OH237855   2.707   6.333   0.544 -0.2950 -0.1145  0.1345
 5407TIP3    H137856   2.771   6.271   0.509 -1.1799 -0.4007 -1.0429
 5407TIP3    H237857   2.752   6.418   0.541 -0.2466 -0.1526 -1.5707
 5408TIP3   OH237858   1.519   6.722   0.882 -0.3592  0.4751  0.2575
 5408TIP3    H137859   1.589   6.713   0.946 -0.6196 -0.6225  0.4168
 5408TIP3    H237860   1.535   6.806   0.839  1.0274  0.2648  0.3250
 5409TIP3   OH237861   0.551   5.841   0.373 -0.0555 -0.3944  0.1876
 5409TIP3    H137862   0.478   5.892   0.338 -0.4217 -0.9379  0.1583
 5409TIP3    H237863   0.566   5.878   0.460  0.4704  0.5628 -0.2955
 5410TIP3   OH237864   4.401   6.459   0.512  0.3711  0.0770 -0.7477
 5410TIP3    H137865   4.415   6.366   0.495 -0.2708 -0.2136  0.2676
 5410TIP3    H237866   4.345   6.489   0.441 -1.2377 -0.8301  0.1041
 5411TIP3   OH237867   3.845   4.112   8.232 -0.0084  0.2566 -0.1619
 5411TIP3    H137868   3.807   4.075   8.152 -0.0828 -1.0724  0.4668
 5411TIP3    H237869   3.773   4.113   8.295 -0.3199  2.5714 -0.4643
 5412TIP3   OH237870   6.886   3.262   7.359  0.4558  0.1749  0.9908
 5412TIP3    H137871   6.958   3.325   7.365  0.5283  0.0397  1.6420
 5412TIP3    H237872   6.928   3.177   7.354  0.4369  0.2256 -2.1887
 5413TIP3   OH237873   5.546   3.212   2.665 -0.2723  0.2407 -0.2344
 5413TIP3    H137874   5.494   3.271   2.720  0.4395  1.2462 -0.5866
 5413TIP3    H237875   5.495   3.132   2.659  0.3469 -0.5788  3.2855
 5414TIP3   OH237876   4.318   6.256   3.219 -0.1508 -0.3610 -0.6476
 5414TIP3    H137877   4.379   6.279   3.148  0.2844 -0.5124 -0.3265
 5414TIP3    H237878   4.331   6.324   3.285  0.9030 -1.3074  0.1595
 5415TIP3   OH237879   1.783   0.929   8.664 -0.6089  0.2694  0.5052
 5415TIP3    H137880   1.738   0.972   8.591  0.9317 -1.8326 -1.8538
 5415TIP3    H237881   1.717   0.874   8.705 -1.1159  0.2117 -0.3738
 5416TIP3   OH237882   1.216   0.784   0.841 -1.2794  0.0056 -0.2624
 5416TIP3    H137883   1.288   0.846   0.829 -1.0913 -0.4848 -1.9951
 5416TIP3    H237884   1.243   0.730   0.915 -0.3565  0.5043 -0.2176
 5417TIP3   OH237885   0.387   3.937   1.891  0.4692  0.1088 -0.1024
 5417TIP3    H137886   0.314   3.912   1.834  1.1051 -1.7810 -0.1363
 5417TIP3    H237887   0.397   4.031   1.877  0.1936 -0.1711 -2.6733
 5418TIP3   OH237888   5.720   4.981   8.417 -0.4108 -0.9008 -0.8532
 5418TIP3    H137889   5.745   4.989   8.325  3.3092 -1.4215 -0.0454
 5418TIP3    H237890   5.658   4.908   8.419 -2.9849  1.0300 -3.2041
 5419TIP3   OH237891   0.078   2.747   7.641  0.0308  0.1921  0.1940
 5419TIP3    H137892   0.110   2.753   7.551  0.6656  0.7156  0.4451
 5419TIP3    H237893   0.027   2.827   7.654  1.5774  1.1031  0.9086
 5420TIP3   OH237894   5.251   6.357   1.451  0.3216 -0.0816 -0.7741
 5420TIP3    H137895   5.201   6.361   1.533 -0.1890 -0.2373 -1.0758
 5420TIP3    H237896   5.240   6.443   1.411  2.1188  0.6667  0.2056
 5421TIP3   OH237897   1.074   6.830   8.072 -0.4210  0.0183 -0.5237
 5421TIP3    H137898   1.069   6.847   8.166 -2.7116  0.4838 -0.6600
 5421TIP3    H237899   1.165   6.849   8.048  0.1234  0.1512  1.5349
 5422TIP3   OH237900   2.901   1.068   7.328  0.1062 -0.0469 -0.1117
 5422TIP3    H137901   2.816   1.107   7.349 -0.0173  0.2652 -1.1578
 5422TIP3    H237902   2.931   1.116   7.251  0.4745 -1.2450 -0.7376
 5423TIP3   OH237903   2.389   5.446   2.364  0.3861 -0.1238  0.5226
 5423TIP3    H137904   2.381   5.469   2.271  0.1291 -0.6125  0.4236
 5423TIP3    H237905   2.478   5.415   2.374  0.5282  0.2716  0.5180
 5424TIP3   OH237906   3.293   1.510   8.530  0.0361 -0.2724 -0.5101
 5424TIP3    H137907   3.337   1.553   8.457 -0.8815  0.5312 -0.6113
 5424TIP3    H237908   3.249   1.581   8.577 -1.1214 -1.0457 -0.4014
 5425TIP3   OH237909   2.445   5.330   7.473  0.2179 -0.0738  0.0152
 5425TIP3    H137910   2.507   5.275   7.425  0.8121 -0.5843  1.3373
 5425TIP3    H237911   2.398   5.378   7.404  1.0270 -0.7915 -1.0732
 5426TIP3   OH237912   4.664   3.491   7.254 -0.4032 -0.0993  0.5428
 5426TIP3    H137913   4.586   3.543   7.273 -0.8660 -1.1612  1.7336
 5426TIP3    H237914   4.691   3.519   7.167 -3.0182 -0.7619 -0.5799
 5427TIP3   OH237915   1.336   4.644   2.159 -0.6959 -0.8475  0.1175
 5427TIP3    H137916   1.311   4.565   2.205  0.8336 -1.6820 -0.3960
 5427TIP3    H237917   1.367   4.703   2.227 -0.9836 -1.0338  0.4124
 5428TIP3   OH237918   2.125   3.610   7.643 -0.1230  0.0696  0.1696
 5428TIP3    H137919   2.112   3.696   7.604  0.5392 -0.6464 -1.7350
 5428TIP3    H237920   2.069   3.610   7.721 -1.8795  1.4273 -1.0112
 5429TIP3   OH237921   5.167   0.551   2.377  0.5646  0.1098  0.2287
 5429TIP3    H137922   5.125   0.475   2.419 -0.3478  0.3411 -0.2372
 5429TIP3    H237923   5.239   0.574   2.435  0.5837 -0.8476  0.6021
 5430TIP3   OH237924   5.837   3.759   0.250 -0.1506 -0.5120 -0.1190
 5430TIP3    H137925   5.751   3.741   0.288 -0.4798 -0.9854 -1.0617
 5430TIP3    H237926   5.869   3.836   0.298 -0.4866 -1.1659  1.1932
 5431TIP3   OH237927   6.883   3.565   1.039 -0.4493  0.2599  0.1362
 5431TIP3    H137928   6.822   3.617   1.091  0.6221  1.6852  0.0339
 5431TIP3    H237929   6.830   3.494   1.002 -1.7012  0.5803  1.2592
 5432TIP3   OH237930   3.641   5.875   1.625 -0.4374  0.0957  0.0821
 5432TIP3    H137931   3.596   5.959   1.638 -2.3201 -0.9286  0.7140
 5432TIP3    H237932   3.595   5.814   1.684  1.4076 -1.2139  0.2699
 5433TIP3   OH237933   5.407   6.303   1.934  0.0192  0.4635 -0.3638
 5433TIP3    H137934   5.424   6.365   2.005 -0.0360  0.2810 -0.1904
 5433TIP3    H237935   5.489   6.254   1.924 -0.4454 -0.5391  0.5928
 5434TIP3   OH237936   1.489   0.064   2.170  0.1169 -0.0148 -0.6763
 5434TIP3    H137937   1.559   0.057   2.236  0.1728 -1.3516 -0.8499
 5434TIP3    H237938   1.412   0.089   2.220 -0.4821 -3.4887  0.4490
 5435TIP3   OH237939   3.221   2.278   1.950 -0.4438 -0.0163 -0.3576
 5435TIP3    H137940   3.306   2.321   1.964 -1.0604  1.5532 -1.2355
 5435TIP3    H237941   3.158   2.350   1.949 -1.6130 -1.0279 -1.1894
 5436TIP3   OH237942   5.128   5.460   8.337 -0.5837  0.4267  0.4821
 5436TIP3    H137943   5.222   5.440   8.334 -0.8379 -1.1955  1.8753
 5436TIP3    H237944   5.124   5.553   8.358  0.6884  0.7172 -0.3700
 5437TIP3   OH237945   6.226   2.844   7.276  0.5955 -0.1071  0.0123
 5437TIP3    H137946   6.312   2.865   7.239  0.7745 -1.9499 -0.6942
 5437TIP3    H237947   6.239   2.850   7.371  1.1555  0.8759 -0.1154
 5438TIP3   OH237948   0.958   3.846   1.128 -0.7848  0.0296 -0.3073
 5438TIP3    H137949   0.994   3.760   1.107 -1.2482 -0.0221 -0.9166
 5438TIP3    H237950   0.877   3.851   1.078 -2.0316 -0.1449  1.5824
 5439TIP3   OH237951   3.440   4.397   0.395  0.2013 -0.2729 -0.1738
 5439TIP3    H137952   3.518   4.452   0.392 -0.1879  0.2724 -0.3454
 5439TIP3    H237953   3.474   4.308   0.401  0.8329  0.0032  0.4293
 5440TIP3   OH237954   0.209   4.514   2.601 -0.3971 -0.1184 -0.2461
 5440TIP3    H137955   0.201   4.418   2.601 -1.0688 -0.0760  0.4278
 5440TIP3    H237956   0.131   4.544   2.648  0.2025  0.7276  0.2271
 5441TIP3   OH237957   2.043   5.392   7.215 -0.1127 -0.2999 -0.2513
 5441TIP3    H137958   2.122   5.403   7.162  0.0759  0.0917  0.1017
 5441TIP3    H237959   1.987   5.465   7.190 -0.0398 -0.1362  0.0559
 5442TIP3   OH237960   5.086   6.626   8.070 -0.0052  0.2031 -0.2454
 5442TIP3    H137961   5.056   6.696   8.013  0.2929  0.0901 -0.5402
 5442TIP3    H237962   5.007   6.596   8.115 -0.1358  0.7157 -0.1281
 5443TIP3   OH237963   3.437   2.690   8.426 -0.0986 -0.4343 -0.4447
 5443TIP3    H137964   3.394   2.752   8.367 -0.4057 -1.2202 -1.0643
 5443TIP3    H237965   3.464   2.618   8.369  0.6450 -0.6733  0.1954
 5444TIP3   OH237966   6.698   4.880   0.329  0.1623  0.3190  0.1307
 5444TIP3    H137967   6.786   4.849   0.350 -0.0178 -0.4572 -0.2148
 5444TIP3    H237968   6.650   4.801   0.303 -0.5281  0.7863 -0.0566
 5445TIP3   OH237969   0.666   0.809   0.799 -0.0776  0.9306 -0.7172
 5445TIP3    H137970   0.762   0.812   0.796  0.0916 -1.5305  0.3912
 5445TIP3    H237971   0.645   0.803   0.892 -1.2671  0.3786 -1.0073
 5446TIP3   OH237972   2.686   6.814   2.156 -0.5378  0.3748 -0.1782
 5446TIP3    H137973   2.590   6.812   2.148 -0.5972  1.6046  0.0533
 5446TIP3    H237974   2.702   6.855   2.241  0.2063 -1.8246  0.8139
 5447TIP3   OH237975   3.269   1.296   1.034 -0.5398  0.3970  0.2235
 5447TIP3    H137976   3.225   1.368   1.079 -1.4301 -0.3842  0.6390
 5447TIP3    H237977   3.357   1.294   1.072 -0.6347  1.0272  0.4756
 5448TIP3   OH237978   5.086   6.626   7.246 -0.1366 -0.3138 -0.3990
 5448TIP3    H137979   5.115   6.646   7.157 -0.1186 -1.5557 -0.6941
 5448TIP3    H237980   5.123   6.539   7.264 -1.6312 -0.8668  0.1478
 5449TIP3   OH237981   2.460   4.472   1.764  0.1400 -0.0453 -0.1972
 5449TIP3    H137982   2.395   4.506   1.826 -1.0216 -1.3594 -0.6539
 5449TIP3    H237983   2.544   4.488   1.807 -0.4145  2.0217  0.2478
 5450TIP3   OH237984   4.008   5.626   0.118  0.4933  0.1395  0.4178
 5450TIP3    H137985   3.978   5.574   0.044  0.5070  0.0141  0.5017
 5450TIP3    H237986   4.021   5.714   0.081  4.3366 -0.7422 -0.6820
 5451TIP3   OH237987   0.372   3.887   0.667 -0.4088 -0.1191  0.1937
 5451TIP3    H137988   0.412   3.802   0.687 -2.0086 -1.2417 -1.1270
 5451TIP3    H237989   0.279   3.875   0.689 -0.6018  1.4056  0.2831
 5452TIP3   OH237990   2.101   4.321   0.523 -0.0829 -0.5724  0.5563
 5452TIP3    H137991   2.128   4.267   0.597  0.0838 -0.8200  0.3159
 5452TIP3    H237992   2.166   4.304   0.455  1.5340  1.9150  1.3348
 5453TIP3   OH237993   1.275   3.405   6.779  0.0284 -0.5660 -0.0517
 5453TIP3    H137994   1.339   3.473   6.761 -0.6148  0.3796  1.1008
 5453TIP3    H237995   1.268   3.356   6.697  1.7650 -0.3307 -0.3821
 5454TIP3   OH237996   6.598   1.117   0.058  0.3905 -0.3690 -0.5065
 5454TIP3    H137997   6.657   1.120   0.133  1.8750 -3.1192 -1.4277
 5454TIP3    H237998   6.617   1.196   0.008  1.3606  0.1115  0.6024
 5455TIP3   OH237999   6.228   3.288   0.310  0.1217 -0.2336 -0.3751
 5455TIP3    H138000   6.187   3.375   0.310 -0.1106 -0.3295  0.4125
 5455TIP3    H238001   6.160   3.230   0.345  0.7817 -0.4589  0.5887
 5456TIP3   OH238002   4.257   2.798   0.160 -0.5453 -0.4702  0.7346
 5456TIP3    H138003   4.291   2.711   0.138 -2.3231 -0.8631 -0.6403
 5456TIP3    H238004   4.285   2.854   0.087 -0.9679 -0.3021  0.7031
 5457TIP3   OH238005   2.377   5.793   8.003  0.8224 -0.1580 -0.3419
 5457TIP3    H138006   2.387   5.881   8.038  2.6792  0.4775 -2.2709
 5457TIP3    H238007   2.439   5.740   8.053  1.1712  0.0686 -0.5318
 5458TIP3   OH238008   2.045   3.453   1.003  0.0173  0.2399  0.5360
 5458TIP3    H138009   1.955   3.471   0.975  0.2244  0.2507 -0.1334
 5458TIP3    H238010   2.042   3.365   1.041  0.5115 -1.6467 -3.3575
 5459TIP3   OH238011   2.901   2.306   8.562  0.3908  0.2874  0.1743
 5459TIP3    H138012   2.911   2.374   8.495 -1.3886 -0.1004 -0.5350
 5459TIP3    H238013   2.950   2.232   8.527  2.4625  1.1720  1.0187
 5460TIP3   OH238014   3.067   0.146   1.949  0.6989  0.3487 -0.0481
 5460TIP3    H138015   3.005   0.078   1.924 -0.4503  0.9856  0.9459
 5460TIP3    H238016   3.060   0.211   1.879  0.1817  0.4440  0.0862
 5461TIP3   OH238017   3.194   3.718   1.461  0.0959 -0.5226  0.0951
 5461TIP3    H138018   3.139   3.755   1.392 -0.5079  0.6808  1.1768
 5461TIP3    H238019   3.133   3.701   1.533  0.9248 -0.4654  0.8231
 5462TIP3   OH238020   0.772   0.131   6.767  0.0475  0.2216 -0.6547
 5462TIP3    H138021   0.705   0.173   6.713 -1.1371  1.2981  1.5149
 5462TIP3    H238022   0.839   0.102   6.704 -1.6915  0.4899 -2.7501
 5463TIP3   OH238023   6.848   6.637   8.606  0.0686  0.5462  0.1838
 5463TIP3    H138024   6.895   6.716   8.631  3.3649 -0.9331 -0.8274
 5463TIP3    H238025   6.866   6.627   8.512 -0.2767 -1.3601  0.2822
 5464TIP3   OH238026   1.530   2.064   7.821 -0.3901  0.4313  0.6822
 5464TIP3    H138027   1.517   2.158   7.834 -0.4088  0.5925 -0.4180
 5464TIP3    H238028   1.576   2.057   7.737  1.1037 -0.4607  1.5215
 5465TIP3   OH238029   5.697   0.407   8.495  0.2577 -0.0184  0.3004
 5465TIP3    H138030   5.669   0.454   8.417  0.3204 -0.2533  0.1352
 5465TIP3    H238031   5.621   0.354   8.520  0.5396 -0.6434 -0.1388
 5466TIP3   OH238032   6.850   4.787   2.899  0.2253  0.6671 -0.4344
 5466TIP3    H138033   6.842   4.692   2.905  1.0671  0.5504 -0.9185
 5466TIP3    H238034   6.899   4.812   2.977 -0.1052  0.7203 -0.2432
 5467TIP3   OH238035   6.529   5.868   8.349 -0.3833  0.0889  0.5607
 5467TIP3    H138036   6.595   5.798   8.352  0.1509  0.4859 -0.8338
 5467TIP3    H238037   6.531   5.906   8.436  1.6279  0.4100  0.4329
 5468TIP3   OH238038   1.226   1.893   2.228  0.2590 -0.6812  0.3815
 5468TIP3    H138039   1.222   1.987   2.213  0.1236 -0.7572 -0.0719
 5468TIP3    H238040   1.218   1.854   2.141  0.1973 -1.1151  0.5778
 5469TIP3   OH238041   6.880   5.032   1.831  0.6250 -0.2784 -0.4097
 5469TIP3    H138042   6.788   5.003   1.831  0.9510 -1.3440 -0.6704
 5469TIP3    H238043   6.927   4.963   1.784  1.5949  0.1623 -0.1047
 5470TIP3   OH238044   2.516   5.807   0.787  0.4519  0.0708 -0.5445
 5470TIP3    H138045   2.430   5.848   0.788  0.9422  1.2520 -2.1634
 5470TIP3    H238046   2.498   5.714   0.799 -0.7164  0.5883  3.0852
 5471TIP3   OH238047   2.308   4.524   7.912  0.4084  0.2389 -0.4226
 5471TIP3    H138048   2.288   4.454   7.850 -2.9732  2.1847 -1.8482
 5471TIP3    H238049   2.373   4.579   7.868  0.6935 -0.3000 -0.6723
 5472TIP3   OH238050   6.641   2.559   0.480  0.4109  0.7006 -0.0543
 5472TIP3    H138051   6.647   2.597   0.568  0.4571  1.2456 -0.2925
 5472TIP3    H238052   6.590   2.479   0.493 -1.3007  1.7690  0.1773
 5473TIP3   OH238053   2.810   4.967   8.482 -0.1038  0.0688 -0.5215
 5473TIP3    H138054   2.861   5.045   8.504 -0.2616  0.3869 -1.2678
 5473TIP3    H238055   2.786   4.930   8.567  0.6142  0.4098 -0.1628
 5474TIP3   OH238056   2.358   4.375   2.248  0.3216 -0.0861 -0.2332
 5474TIP3    H138057   2.281   4.373   2.305  0.9931  2.4122  0.8958
 5474TIP3    H238058   2.426   4.329   2.297  0.6340  1.2511  0.6533
 5475TIP3   OH238059   4.718   4.847   7.630  0.3577  1.0346 -0.5641
 5475TIP3    H138060   4.683   4.761   7.651  0.5966  0.9965 -0.3191
 5475TIP3    H238061   4.647   4.891   7.583  0.0864  0.8555 -0.3225
 5476TIP3   OH238062   5.499   0.248   8.578 -0.1219 -0.1799 -0.0526
 5476TIP3    H138063   5.464   0.294   8.654 -1.4721 -0.2424 -0.6038
 5476TIP3    H238064   5.434   0.180   8.560  0.3696 -0.4019 -1.0340
 5477TIP3   OH238065   2.431   4.832   0.661  0.1865  0.6296  0.2574
 5477TIP3    H138066   2.397   4.746   0.635  0.7548  0.0446  1.3997
 5477TIP3    H238067   2.486   4.814   0.737 -1.4520  2.2956  1.9167
 5478TIP3   OH238068   1.058   3.758   2.487 -0.0847 -0.4962  0.1970
 5478TIP3    H138069   1.109   3.774   2.567 -1.7047 -0.7850  1.3343
 5478TIP3    H238070   1.077   3.833   2.431  2.8273 -1.3310 -0.1563
 5479TIP3   OH238071   1.905   5.883   2.609 -0.2751  0.0928  0.2084
 5479TIP3    H138072   1.901   5.831   2.689 -0.3351  2.2600  1.6989
 5479TIP3    H238073   1.990   5.928   2.614  0.1606 -0.4831 -1.4646
 5480TIP3   OH238074   4.877   4.136   2.792  0.0820 -0.5546 -0.0151
 5480TIP3    H138075   4.967   4.115   2.816  0.5691  1.9023  0.5819
 5480TIP3    H238076   4.825   4.110   2.868  0.7698  1.0303  1.0611
 5481TIP3   OH238077   3.482   2.559   0.682  0.5394  0.4344 -0.2553
 5481TIP3    H138078   3.448   2.470   0.695  0.1107  0.5795 -0.3703
 5481TIP3    H238079   3.573   2.546   0.655  0.6303  0.0475  0.2292
 5482TIP3   OH238080   0.536   0.582   7.501 -0.3609 -0.4299  0.0231
 5482TIP3    H138081   0.626   0.614   7.506 -1.3443  2.7568 -0.3071
 5482TIP3    H238082   0.525   0.553   7.411 -0.0658  0.5550 -0.3331
 5483TIP3   OH238083   2.864   2.714   0.808  0.4848 -0.8314 -0.5230
 5483TIP3    H138084   2.794   2.651   0.827 -0.3478 -0.4850 -2.2107
 5483TIP3    H238085   2.833   2.762   0.731  1.3600  1.2721  0.3727
 5484TIP3   OH238086   6.509   0.567   0.582  0.4600  0.3917  0.4591
 5484TIP3    H138087   6.421   0.572   0.619  0.0177 -1.6204 -0.1744
 5484TIP3    H238088   6.506   0.625   0.506 -0.8055 -0.7286 -0.3922
 5485TIP3   OH238089   5.449   4.452   2.044  0.2682  0.0531  0.0473
 5485TIP3    H138090   5.501   4.382   2.083  1.4524  0.7630 -0.2035
 5485TIP3    H238091   5.441   4.517   2.113 -1.2379 -0.5024  0.4361
 5486TIP3   OH238092   4.956   6.604   2.027  0.0206 -0.0839  0.2697
 5486TIP3    H138093   5.028   6.542   2.016  0.9440  1.0860 -0.5012
 5486TIP3    H238094   4.878   6.557   1.996  0.9587 -0.3541 -1.8265
 5487TIP3   OH238095   4.588   5.458   1.668  0.6569  0.2865 -0.7183
 5487TIP3    H138096   4.531   5.446   1.744  1.8991  2.0258  0.5893
 5487TIP3    H238097   4.650   5.386   1.673 -0.4496 -0.7222 -1.2426
 5488TIP3   OH238098   4.946   4.935   0.654 -0.4048 -0.6182  0.1006
 5488TIP3    H138099   4.989   4.873   0.712  0.5535  0.2019  0.2907
 5488TIP3    H238100   4.868   4.962   0.702  0.8789  0.7960  1.5037
 5489TIP3   OH238101   1.335   6.007   2.851  0.4956 -0.5753  0.2840
 5489TIP3    H138102   1.242   5.984   2.852  0.4340 -0.4579 -0.9677
 5489TIP3    H238103   1.380   5.922   2.854  0.3137 -0.7133 -0.5245
 5490TIP3   OH238104   0.265   4.589   2.213 -0.0165 -0.0007  0.3972
 5490TIP3    H138105   0.207   4.523   2.251 -1.1880  0.2834 -0.8455
 5490TIP3    H238106   0.231   4.672   2.247  0.3680  0.0968  0.5482
 5491TIP3   OH238107   1.854   4.462   8.008  0.5940 -0.0486  0.0722
 5491TIP3    H138108   1.835   4.513   7.930  0.4622  0.8631  0.6905
 5491TIP3    H238109   1.888   4.525   8.071 -2.6590 -0.0312  2.0232
 5492TIP3   OH238110   6.532   1.248   1.019 -0.4302 -0.3832 -0.4375
 5492TIP3    H138111   6.540   1.314   1.088  1.1175 -0.9429 -0.0242
 5492TIP3    H238112   6.472   1.286   0.955  1.7160  2.2149 -1.0784
 5493TIP3   OH238113   5.931   4.184   8.664  0.1946 -0.2620 -0.2116
 5493TIP3    H138114   5.920   4.216   8.574  1.9363 -0.3010 -0.4818
 5493TIP3    H238115   5.842   4.167   8.695 -0.4560  0.0401 -1.8178
 5494TIP3   OH238116   2.968   6.462   6.950  0.2751  0.3692  0.4586
 5494TIP3    H138117   2.931   6.461   7.039 -1.9407  0.1345 -0.4065
 5494TIP3    H238118   2.941   6.378   6.913  1.6184  0.2509 -0.2948
 5495TIP3   OH238119   0.272   2.901   1.834  0.2589  0.2164  0.5867
 5495TIP3    H138120   0.295   2.990   1.808 -1.0676  0.4929  0.2860
 5495TIP3    H238121   0.196   2.879   1.779  1.1293 -1.4586 -0.0404
 5496TIP3   OH238122   4.561   5.162   7.811 -0.2925 -0.0737  0.4708
 5496TIP3    H138123   4.543   5.093   7.747  3.7643 -0.6042 -0.3829
 5496TIP3    H238124   4.562   5.116   7.895  1.4611 -0.9946  0.0099
 5497TIP3   OH238125   6.754   6.187   2.076 -0.3389  0.4243  0.4985
 5497TIP3    H138126   6.803   6.118   2.121 -1.1222  0.5003  1.5138
 5497TIP3    H238127   6.713   6.142   2.001  1.0174  0.3056 -0.1891
 5498TIP3   OH238128   3.671   4.513   3.480  0.7912 -0.0955 -0.1748
 5498TIP3    H138129   3.671   4.604   3.511  0.6222  0.5444 -1.9079
 5498TIP3    H238130   3.734   4.513   3.408  0.1794 -1.1469 -0.7322
 5499TIP3   OH238131   1.971   4.334   7.510  0.2612  0.1225 -0.2888
 5499TIP3    H138132   2.058   4.322   7.472 -0.2929 -2.3615 -0.9379
 5499TIP3    H238133   1.911   4.329   7.436 -0.5364  0.0033  0.3524
 5500TIP3   OH238134   6.129   5.013   8.284 -0.7636  0.4754  0.1108
 5500TIP3    H138135   6.138   5.104   8.257  0.9539  1.0805  2.3607
 5500TIP3    H238136   6.219   4.982   8.295 -1.3192 -0.8838  1.2082
 5501TIP3   OH238137   0.351   2.421   0.331  0.3982  0.0642 -0.3387
 5501TIP3    H138138   0.418   2.415   0.399  0.5028  0.3175 -0.4190
 5501TIP3    H238139   0.275   2.376   0.368 -0.4503  2.4552  1.0379
 5502TIP3   OH238140   4.254   3.240   8.574  0.8654 -0.8907 -0.1707
 5502TIP3    H138141   4.227   3.215   8.662 -1.3258  3.7894  0.8044
 5502TIP3    H238142   4.336   3.288   8.586  0.2279  0.3214 -0.5315
 5503TIP3   OH238143   0.431   0.135   1.778  0.2061  0.4023  0.1794
 5503TIP3    H138144   0.521   0.169   1.774  0.2736  0.7076  2.5882
 5503TIP3    H238145   0.442   0.040   1.779  0.3569  0.3822 -1.2320
 5504TIP3   OH238146   1.513   2.484   2.016  0.2534  0.1325 -0.4076
 5504TIP3    H138147   1.532   2.575   2.041 -0.8351 -0.0462  1.1758
 5504TIP3    H238148   1.465   2.492   1.933  1.5718  0.8901 -1.1391
 5505TIP3   OH238149   1.507   4.969   8.529 -0.2501 -0.6125  0.4021
 5505TIP3    H138150   1.506   5.045   8.471  0.7795 -0.3906  0.6601
 5505TIP3    H238151   1.523   5.006   8.616  1.5435 -1.2137  0.3553
 5506TIP3   OH238152   2.297   5.212   2.002  0.5255 -0.7382  0.0326
 5506TIP3    H138153   2.268   5.159   1.927 -1.2811 -1.4864  1.1809
 5506TIP3    H238154   2.318   5.297   1.963 -1.4038 -0.7559 -1.2483
 5507TIP3   OH238155   2.349   2.454   7.988  0.2396  0.5725  0.1776
 5507TIP3    H138156   2.275   2.397   7.968 -0.7725  1.5828  0.8730
 5507TIP3    H238157   2.414   2.435   7.921 -0.9358  0.1362 -0.8571
 5508TIP3   OH238158   0.013   4.478   2.331 -0.3331  0.4686 -0.0726
 5508TIP3    H138159  -0.075   4.444   2.346 -0.9880  1.9068 -0.5380
 5508TIP3    H238160   0.023   4.549   2.395 -0.2011  1.4889 -1.2006
 5509TIP3   OH238161   0.611   2.368   0.942 -0.2162 -0.2099  0.0368
 5509TIP3    H138162   0.692   2.417   0.924 -0.7752  0.3322 -1.1173
 5509TIP3    H238163   0.544   2.415   0.893 -0.4367 -3.4131 -3.1589
 5510TIP3   OH238164   0.508   5.651   1.158 -0.5612  0.0351 -0.2250
 5510TIP3    H138165   0.447   5.577   1.165  0.8620 -1.1432  0.4853
 5510TIP3    H238166   0.594   5.610   1.159  0.2605  1.6015 -1.8214
 5511TIP3   OH238167   3.450   4.512   3.315 -0.4253 -0.6442 -0.4634
 5511TIP3    H138168   3.514   4.534   3.383 -2.4308 -0.3969  1.4804
 5511TIP3    H238169   3.478   4.427   3.282  0.9983 -0.4623  0.1852
 5512TIP3   OH238170   0.203   2.066   8.419  0.0970 -0.1276  0.5567
 5512TIP3    H138171   0.156   2.062   8.336 -0.6984  2.3614  0.7921
 5512TIP3    H238172   0.275   2.128   8.403  0.0214  0.2678  1.6525
 5513TIP3   OH238173   5.271   2.171   0.172  0.2805  0.3832  0.4515
 5513TIP3    H138174   5.290   2.078   0.165 -3.1507 -0.4973  0.8444
 5513TIP3    H238175   5.310   2.199   0.254  2.0804 -0.4597 -0.0858
 5514TIP3   OH238176   1.909   0.340   1.420  0.3978 -0.5555 -0.0505
 5514TIP3    H138177   1.879   0.429   1.401 -1.0567 -1.3243 -1.6319
 5514TIP3    H238178   2.001   0.340   1.395  0.4605  0.5254  0.1121
 5515TIP3   OH238179   1.829   2.590   1.962 -0.0299 -0.7192  0.4271
 5515TIP3    H138180   1.785   2.604   1.878  0.7019 -0.6306  0.0518
 5515TIP3    H238181   1.879   2.670   1.976 -1.0718 -0.2314  1.5346
 5516TIP3   OH238182   2.627   1.126   7.388 -0.0051  0.4575 -0.6158
 5516TIP3    H138183   2.606   1.219   7.382  1.5296  0.8118 -1.1241
 5516TIP3    H238184   2.542   1.082   7.388 -0.7510  1.8274 -0.8664
 5517TIP3   OH238185   0.128   2.039   6.713 -0.0089  0.3247  0.3810
 5517TIP3    H138186   0.100   2.122   6.752 -0.9800  0.2738 -0.2025
 5517TIP3    H238187   0.221   2.053   6.692  0.3644  0.5883  2.0619
 5518TIP3   OH238188   5.070   4.099   1.953 -0.2512 -0.6184  0.1190
 5518TIP3    H138189   5.134   4.063   2.014  0.4362  2.1450  1.1875
 5518TIP3    H238190   4.985   4.069   1.987  0.2908 -1.7856  0.4851
 5519TIP3   OH238191   5.268   2.279   8.279 -0.3833  0.3889 -0.3223
 5519TIP3    H138192   5.353   2.307   8.313  0.1553 -2.5373  1.0225
 5519TIP3    H238193   5.207   2.346   8.309  1.1045  1.3509  0.6914
 5520TIP3   OH238194   1.675   1.660   1.722  0.3474  0.6554  0.4509
 5520TIP3    H138195   1.672   1.748   1.684  0.5203  0.9278  1.0528
 5520TIP3    H238196   1.601   1.614   1.683 -0.8711  1.6383  1.4930
 5521TIP3   OH238197   5.255   3.588   8.291  0.0718  0.2559  0.0814
 5521TIP3    H138198   5.297   3.502   8.285 -0.5266 -0.1147  0.9103
 5521TIP3    H238199   5.258   3.609   8.385 -0.3789  0.8324 -0.0274
 5522TIP3   OH238200   3.963   5.755   2.210  0.1736 -0.4344 -0.0878
 5522TIP3    H138201   3.982   5.840   2.171  1.8531  0.1709  1.8626
 5522TIP3    H238202   3.947   5.697   2.136  0.1933  1.2898 -1.5044
 5523TIP3   OH238203   4.800   6.781   1.166 -0.0626 -0.1309 -0.3179
 5523TIP3    H138204   4.780   6.707   1.223  2.0365 -1.0999 -0.7140
 5523TIP3    H238205   4.813   6.742   1.080 -0.2245  0.8864 -0.8183
 5524TIP3   OH238206   3.240   4.312   7.619 -0.1488  0.4849 -0.0891
 5524TIP3    H138207   3.189   4.236   7.590  0.5737 -0.2764  0.5932
 5524TIP3    H238208   3.192   4.346   7.694  0.0176  0.1313  0.1809
 5525TIP3   OH238209   0.605   2.979   7.939  0.7335 -0.2974  0.2937
 5525TIP3    H138210   0.562   3.064   7.955  0.3476 -0.5530  0.6423
 5525TIP3    H238211   0.677   3.000   7.880  0.0452  0.1214 -0.4196
 5526TIP3   OH238212   1.000   2.317   0.372  0.2602 -0.2069  0.3056
 5526TIP3    H138213   1.018   2.351   0.284 -0.8998  0.6025  0.3590
 5526TIP3    H238214   0.905   2.316   0.378  0.3197  0.5025  1.8264
 5527TIP3   OH238215   5.200   1.299   1.950 -0.3066  0.1973  0.5869
 5527TIP3    H138216   5.219   1.391   1.968 -1.4351  0.3893  0.8664
 5527TIP3    H238217   5.233   1.284   1.862 -0.9868  1.1462  0.1516
 5528TIP3   OH238218   4.552   1.915   2.037 -0.3998 -0.3731 -0.3664
 5528TIP3    H138219   4.588   1.987   2.089  1.8954 -0.4034 -1.7844
 5528TIP3    H238220   4.612   1.842   2.052  0.2790 -0.4166 -2.8889
 5529TIP3   OH238221   4.552   1.304   1.514 -0.4564 -0.3530 -0.2824
 5529TIP3    H138222   4.532   1.327   1.605 -0.5145 -0.2082 -0.3323
 5529TIP3    H238223   4.612   1.373   1.484 -1.6948  0.5149 -0.8616
 5530TIP3   OH238224   2.865   3.091   2.562 -0.3219  0.4626 -0.0691
 5530TIP3    H138225   2.784   3.120   2.604 -0.2999  1.0681 -0.4245
 5530TIP3    H238226   2.888   3.163   2.503  0.3674  0.2105 -0.1184
 5531TIP3   OH238227   1.190   4.340   1.043  0.2043 -0.5906  0.6737
 5531TIP3    H138228   1.227   4.256   1.071  1.0311  0.1865  1.9788
 5531TIP3    H238229   1.143   4.372   1.120 -0.5468 -0.0793  0.0185
 5532TIP3   OH238230   2.708   3.161   0.053  0.0151  0.0816  0.0314
 5532TIP3    H138231   2.784   3.217   0.040  0.6369 -0.7455  0.0466
 5532TIP3    H238232   2.698   3.156   0.148 -0.6348  0.9353  0.0226
 5533TIP3   OH238233   0.253   5.949   7.535 -0.3247 -0.6424 -0.3017
 5533TIP3    H138234   0.240   6.032   7.490 -0.4621 -0.4710  0.0460
 5533TIP3    H238235   0.184   5.892   7.500 -1.3129 -0.0961  0.6680
 5534TIP3   OH238236   1.243   0.808   0.230 -0.2820  0.4092 -0.0942
 5534TIP3    H138237   1.334   0.827   0.254  0.3893  0.3429 -2.3655
 5534TIP3    H238238   1.234   0.713   0.244  0.5023  0.1369 -1.2889
 5535TIP3   OH238239   5.845   4.614   1.471  0.5402  0.8268  0.1484
 5535TIP3    H138240   5.810   4.571   1.550  3.3447  2.0994  2.2779
 5535TIP3    H238241   5.768   4.651   1.428 -1.0601  1.1426  2.9802
 5536TIP3   OH238242   3.798   6.060   2.834 -0.0096 -0.5816  0.2371
 5536TIP3    H138243   3.736   5.988   2.833 -1.1312  0.3654 -0.2229
 5536TIP3    H238244   3.753   6.130   2.880  0.2558  0.5054 -1.0947
 5537TIP3   OH238245   3.238   4.664   8.572  0.2838  0.7551 -0.2670
 5537TIP3    H138246   3.263   4.603   8.502 -0.1102 -1.5278  1.4540
 5537TIP3    H238247   3.320   4.683   8.618  0.0773 -0.4736  0.6549
 5538TIP3   OH238248   0.441   4.531   7.779  0.5206 -0.5974  0.3844
 5538TIP3    H138249   0.421   4.608   7.726  0.9292 -1.2780 -0.8019
 5538TIP3    H238250   0.520   4.494   7.740  0.6261 -1.3378  1.2465
 5539TIP3   OH238251   1.804   3.402   0.420 -0.0362 -0.0895  0.3048
 5539TIP3    H138252   1.809   3.307   0.411  0.6003  0.0552 -1.0748
 5539TIP3    H238253   1.762   3.432   0.339  1.8211  0.9661 -0.3217
 5540TIP3   OH238254   4.737   4.913   8.241  0.2480  0.1369 -0.0714
 5540TIP3    H138255   4.788   4.931   8.320 -1.2399 -0.3212  1.0243
 5540TIP3    H238256   4.790   4.950   8.170  2.3982 -0.8462  0.9210
 5541TIP3   OH238257   6.302   5.917   8.235  0.1990 -0.0389  0.4347
 5541TIP3    H138258   6.383   5.909   8.285  1.4406  3.2339 -0.8031
 5541TIP3    H238259   6.234   5.933   8.301  0.9743 -0.3403  1.3267
 5542TIP3   OH238260   2.001   0.898   0.343 -0.3347  0.1191 -0.3808
 5542TIP3    H138261   2.062   0.920   0.414 -1.6997 -1.1528  1.2552
 5542TIP3    H238262   2.007   0.803   0.335 -2.7023 -0.1750  0.4724
 5543TIP3   OH238263   5.978   4.126   0.747  0.0554  0.0134 -0.4713
 5543TIP3    H138264   5.925   4.204   0.765 -0.2314 -0.5377  1.2691
 5543TIP3    H238265   5.914   4.055   0.744  0.5738 -0.5465  0.8790
 5544TIP3   OH238266   4.694   3.778   2.226 -0.2412 -0.3675 -0.1056
 5544TIP3    H138267   4.781   3.797   2.191  0.4878 -0.5508  1.5178
 5544TIP3    H238268   4.709   3.714   2.295 -1.4889  0.5857  1.1035
 5545TIP3   OH238269   1.234   5.980   2.245 -0.1074 -0.3238  0.0175
 5545TIP3    H138270   1.197   5.947   2.163 -1.1515 -0.0720  0.3698
 5545TIP3    H238271   1.328   5.979   2.231 -0.2418 -0.9433 -0.9334
 5546TIP3   OH238272   0.144   3.018   7.944  0.0338  0.6118 -0.1115
 5546TIP3    H138273   0.209   2.963   7.901  0.2631  0.8155 -0.0308
 5546TIP3    H238274   0.112   2.964   8.016 -2.5306 -0.9093 -2.2373
 5547TIP3   OH238275   3.662   1.751   1.874  0.1251 -0.4885 -0.1100
 5547TIP3    H138276   3.636   1.661   1.891 -1.3807  0.0198  0.4099
 5547TIP3    H238277   3.758   1.747   1.866  0.3809 -1.7038  2.5527
 5548TIP3   OH238278   0.341   4.594   1.328  0.0331  0.1869 -0.1507
 5548TIP3    H138279   0.403   4.577   1.399 -0.8832 -0.5816  0.4903
 5548TIP3    H238280   0.260   4.620   1.372 -0.0470  1.4212 -0.9832
 5549TIP3   OH238281   5.724   5.761   8.334  0.1783  0.3153  0.8365
 5549TIP3    H138282   5.741   5.675   8.372  1.4203  0.0066 -0.3294
 5549TIP3    H238283   5.696   5.815   8.407  2.4259 -0.2546  2.2204
 5550TIP3   OH238284   2.554   5.023   0.352  0.3574  0.6260 -0.3778
 5550TIP3    H138285   2.630   5.082   0.355 -0.1598  1.2631  0.6583
 5550TIP3    H238286   2.590   4.939   0.322  1.4340  0.9722 -0.0941
 5551TIP3   OH238287   2.328   4.649   8.522  0.5826  0.0619 -0.5630
 5551TIP3    H138288   2.388   4.608   8.461 -0.0553 -0.8610 -0.5832
 5551TIP3    H238289   2.348   4.610   8.607  0.9014  0.7285 -0.3201
 5552TIP3   OH238290   2.935   2.118   2.109  0.3856  0.1163 -0.2023
 5552TIP3    H138291   2.924   2.130   2.014 -0.4633  0.9792 -0.0184
 5552TIP3    H238292   2.916   2.026   2.124  2.3447 -0.4903 -1.0958
 5553TIP3   OH238293   6.738   0.778   1.019  0.0976 -0.1452  0.0264
 5553TIP3    H138294   6.831   0.756   1.015  0.5140  1.4632  0.4020
 5553TIP3    H238295   6.701   0.713   1.079  0.8850 -1.0205 -0.4019
 5554TIP3   OH238296   4.354   2.561   1.628 -0.5806  0.0139  0.6335
 5554TIP3    H138297   4.424   2.577   1.565  0.9815 -1.0000  2.0109
 5554TIP3    H238298   4.300   2.640   1.625  1.6498  1.6364  0.7789
 5555TIP3   OH238299   3.319   2.337   8.661 -0.3551  0.0049  0.3093
 5555TIP3    H138300   3.289   2.348   8.571  1.2682  1.2893 -0.1333
 5555TIP3    H238301   3.412   2.362   8.658  0.7278 -3.2318  1.6412
 5556TIP3   OH238302   3.236   2.869   7.888  0.4567  0.4859  0.3636
 5556TIP3    H138303   3.222   2.785   7.932 -0.7703  0.8487  0.7098
 5556TIP3    H238304   3.236   2.933   7.960  0.2806  0.8977 -0.0027
 5557TIP3   OH238305   6.234   0.458   7.139  0.5295  0.7342  0.5232
 5557TIP3    H138306   6.314   0.454   7.192  0.9856  3.5109  0.1898
 5557TIP3    H238307   6.182   0.384   7.169  2.6831 -0.4219  1.6416
 5558TIP3   OH238308   5.570   2.089   7.675  0.6707  0.3887 -0.5581
 5558TIP3    H138309   5.657   2.072   7.637  0.3459  0.6361 -1.4444
 5558TIP3    H238310   5.521   2.008   7.660  0.9211  0.0248  0.4908
 5559TIP3   OH238311   0.045   5.190   0.565  0.2434 -0.2197 -0.4524
 5559TIP3    H138312  -0.044   5.196   0.600  0.1962  0.0371 -0.6116
 5559TIP3    H238313   0.055   5.098   0.540 -0.2950 -0.0780 -1.2427
 5560TIP3   OH238314   1.779   5.697   7.911  0.2971 -0.6139  0.0471
 5560TIP3    H138315   1.685   5.689   7.929  0.2939 -1.4867 -0.3232
 5560TIP3    H238316   1.801   5.787   7.937 -0.2033 -1.0443  2.1424
 5561TIP3   OH238317   0.391   0.204   8.331 -0.2064 -0.5354  0.4637
 5561TIP3    H138318   0.411   0.280   8.386  1.9208  0.8294 -1.9758
 5561TIP3    H238319   0.297   0.191   8.342 -0.8429  2.9798  0.4599
 5562TIP3   OH238320   2.773   5.594   0.607 -0.2620  0.0570  0.2259
 5562TIP3    H138321   2.749   5.653   0.536 -0.6987 -0.6428 -0.2265
 5562TIP3    H238322   2.848   5.545   0.573 -1.7628 -1.7856 -0.6464
 5563TIP3   OH238323   0.865   3.541   1.030 -0.0844  0.3047  0.4705
 5563TIP3    H138324   0.793   3.498   0.983 -1.1530  0.8957  1.5084
 5563TIP3    H238325   0.881   3.485   1.106  2.1173 -1.0252 -0.8886
 5564TIP3   OH238326   4.331   4.030   3.310 -0.0484  0.0450 -0.2267
 5564TIP3    H138327   4.388   4.105   3.293  0.6122 -0.5048 -0.4498
 5564TIP3    H238328   4.329   4.023   3.405 -0.1460  0.3594 -0.2012
 5565TIP3   OH238329   0.494   0.209   7.243 -0.0806 -0.0535 -0.1947
 5565TIP3    H138330   0.552   0.247   7.309 -0.2697 -0.9783  0.5296
 5565TIP3    H238331   0.413   0.191   7.291 -0.0021 -1.3221 -0.5130
 5566TIP3   OH238332   4.984   0.313   8.503  0.1741 -0.1186 -0.5726
 5566TIP3    H138333   4.929   0.247   8.546 -2.1084  1.1527 -1.3690
 5566TIP3    H238334   5.049   0.338   8.569  1.3009 -3.2451 -0.3053
 5567TIP3   OH238335   1.409   6.772   2.397  0.5253  0.1972 -0.1983
 5567TIP3    H138336   1.348   6.797   2.328  1.1394 -0.3597 -0.9578
 5567TIP3    H238337   1.370   6.694   2.437  0.5703  0.0407 -0.4600
 5568TIP3   OH238338   5.420   1.839   2.040  0.1000 -0.3201 -0.2308
 5568TIP3    H138339   5.337   1.884   2.023 -0.1160 -1.0888 -1.3052
 5568TIP3    H238340   5.484   1.883   1.984  0.1918 -0.4546 -0.2309
 5569TIP3   OH238341   2.893   1.033   1.494 -0.1565 -0.6590  0.1791
 5569TIP3    H138342   2.921   1.107   1.439  0.0021 -1.6647 -1.1434
 5569TIP3    H238343   2.805   1.013   1.464  0.5614 -2.3217 -0.9850
 5570TIP3   OH238344   0.453   1.798   0.090  0.0043  0.2119  0.0063
 5570TIP3    H138345   0.431   1.858   0.018  0.5028  1.3902  0.8204
 5570TIP3    H238346   0.480   1.717   0.046 -2.0579  0.0467 -1.0999
 5571TIP3   OH238347   5.017   3.799   0.348 -0.4765 -0.3083 -0.2468
 5571TIP3    H138348   5.005   3.706   0.326  1.6987 -0.3557 -1.6295
 5571TIP3    H238349   4.966   3.846   0.283 -0.0664 -0.5468 -0.7536
 5572TIP3   OH238350   3.563   6.117   1.260 -0.0580  0.2267  0.2745
 5572TIP3    H138351   3.617   6.187   1.297 -0.5695 -0.0458  1.5630
 5572TIP3    H238352   3.516   6.159   1.187  0.4858  0.9273  0.3183
 5573TIP3   OH238353   1.815   0.540   0.849  0.3167 -0.3606  0.0027
 5573TIP3    H138354   1.824   0.517   0.942 -1.7086 -0.8069  0.1404
 5573TIP3    H238355   1.721   0.534   0.833  0.5703  0.3965 -1.9205
 5574TIP3   OH238356   1.192   4.159   2.555  0.3863  0.3092 -0.0777
 5574TIP3    H138357   1.232   4.170   2.641 -0.0768  0.1079  0.1673
 5574TIP3    H238358   1.224   4.233   2.504 -0.3371  1.1477  0.6436
 5575TIP3   OH238359   1.810   1.342   7.496  0.3511 -0.1080 -0.0208
 5575TIP3    H138360   1.761   1.399   7.555  0.2557  0.8598 -0.9817
 5575TIP3    H238361   1.748   1.274   7.471 -0.6867  1.2966 -1.4948
 5576TIP3   OH238362   6.411   3.125   8.338  0.3944  0.3798  0.4510
 5576TIP3    H138363   6.414   3.064   8.412  1.8047  0.6793  0.6677
 5576TIP3    H238364   6.482   3.096   8.280  0.3453  1.1289  0.0018
 5577TIP3   OH238365   0.370   1.452   2.967  0.5319 -0.2649 -0.1211
 5577TIP3    H138366   0.341   1.402   2.890 -1.7438  0.6665  0.0522
 5577TIP3    H238367   0.406   1.386   3.026 -3.7608 -2.1310  0.7640
 5578TIP3   OH238368   2.477   1.835   8.294 -0.3633 -0.1564 -0.1202
 5578TIP3    H138369   2.407   1.786   8.251 -0.6543 -1.5827  1.8186
 5578TIP3    H238370   2.437   1.918   8.319 -0.3348  0.4634 -2.0256
 5579TIP3   OH238371   4.818   1.218   1.684 -0.2741 -0.1349  0.4986
 5579TIP3    H138372   4.736   1.268   1.685  0.3931  1.0070  1.4231
 5579TIP3    H238373   4.881   1.276   1.728  1.1954 -0.6999 -0.7832
 5580TIP3   OH238374   1.169   6.175   1.023  0.4981  0.3909 -0.2854
 5580TIP3    H138375   1.159   6.103   1.086 -0.2605  1.1438  0.4759
 5580TIP3    H238376   1.170   6.254   1.077  1.7561  0.9450 -1.0727
 5581TIP3   OH238377   2.122   1.515   0.797  0.0949  0.2946  0.6914
 5581TIP3    H138378   2.163   1.576   0.736 -1.9999  1.2165  0.1255
 5581TIP3    H238379   2.167   1.530   0.880  0.5940  1.5821  0.2141
 5582TIP3   OH238380   6.567   1.123   0.433 -0.5188 -0.4186  0.6553
 5582TIP3    H138381   6.479   1.162   0.428 -0.6219 -0.7810 -0.9583
 5582TIP3    H238382   6.602   1.154   0.516 -1.5026  1.1926  0.5179
 5583TIP3   OH238383   4.830   3.264   7.379  0.6506 -0.7792  0.6892
 5583TIP3    H138384   4.773   3.322   7.328  0.0870 -3.1475 -1.5727
 5583TIP3    H238385   4.919   3.292   7.358  0.3890 -0.4125  0.0524
 5584TIP3   OH238386   2.622   0.264   8.276 -0.0410 -0.4612 -0.1964
 5584TIP3    H138387   2.606   0.303   8.191  2.0284  1.0005 -0.0039
 5584TIP3    H238388   2.588   0.328   8.339  0.4677 -0.4517  0.0819
 5585TIP3   OH238389   5.582   4.330   7.767 -0.2144 -0.1779 -0.2326
 5585TIP3    H138390   5.621   4.329   7.679 -0.7657 -1.1744 -0.4890
 5585TIP3    H238391   5.500   4.281   7.757 -0.5561  0.1749  0.7239
 5586TIP3   OH238392   4.414   2.845   8.268  0.0074  0.0524 -0.3172
 5586TIP3    H138393   4.385   2.868   8.180  0.2532 -1.0255 -0.6829
 5586TIP3    H238394   4.402   2.926   8.318  0.2790  0.8055 -1.4323
 5587TIP3   OH238395   1.441   3.554   0.885 -0.5261  0.1523 -0.7902
 5587TIP3    H138396   1.453   3.614   0.958  0.9887 -0.3187 -0.6159
 5587TIP3    H238397   1.348   3.532   0.887 -0.5958  0.4821  0.7351
 5588TIP3   OH238398   1.881   4.125   2.110  0.3567  0.3318  0.5489
 5588TIP3    H138399   1.856   4.187   2.042 -0.8957  0.1298  0.7979
 5588TIP3    H238400   1.809   4.130   2.174  1.5962  0.6695  1.9641
 5589TIP3   OH238401   4.187   1.570   2.380 -0.7036 -0.1073 -0.4766
 5589TIP3    H138402   4.132   1.647   2.369  0.2515  0.4985 -1.1983
 5589TIP3    H238403   4.179   1.547   2.472 -0.6855  1.1115 -0.1593
 5590TIP3   OH238404   1.892   4.303   6.184 -0.5535 -0.3722  0.7439
 5590TIP3    H138405   1.845   4.314   6.101 -0.4863 -1.1500  0.5919
 5590TIP3    H238406   1.886   4.209   6.203  2.6893 -0.9226 -0.3334
 5591TIP3   OH238407   4.817   4.218   0.744 -0.1021  0.8330  0.0857
 5591TIP3    H138408   4.841   4.154   0.811 -0.2460  2.2039  1.4927
 5591TIP3    H238409   4.828   4.171   0.661  0.3025 -0.8335  1.0432
 5592TIP3   OH238410   0.066   2.701   0.785 -0.0071 -0.3423 -0.1469
 5592TIP3    H138411   0.112   2.725   0.704 -1.4058  0.2012 -0.8075
 5592TIP3    H238412   0.038   2.784   0.822 -1.3355 -0.7129 -0.2945
 5593TIP3   OH238413   4.834   3.467   8.261 -0.1891  0.0988  0.1528
 5593TIP3    H138414   4.869   3.443   8.347  1.6894 -0.6489 -0.7812
 5593TIP3    H238415   4.834   3.563   8.261  2.2805  0.1587  0.0749
 5594TIP3   OH238416   5.039   0.880   3.072  0.0243 -0.0980  0.3359
 5594TIP3    H138417   5.007   0.964   3.103  1.2742  0.6479 -0.3373
 5594TIP3    H238418   5.029   0.883   2.977 -1.7297 -1.5074  0.4084
 5595TIP3   OH238419   6.568   4.410   2.405 -0.1021 -0.1687 -0.0843
 5595TIP3    H138420   6.619   4.454   2.473 -0.6075 -2.6027  2.0378
 5595TIP3    H238421   6.520   4.480   2.361  0.0729  1.5101  2.2217
 5596TIP3   OH238422   3.906   1.652   2.741  0.3345 -0.2126  0.7501
 5596TIP3    H138423   3.828   1.707   2.741  0.8183  0.5567 -1.3465
 5596TIP3    H238424   3.871   1.562   2.739 -0.6406  0.1154 -2.5209
 5597TIP3   OH238425   3.327   0.846   0.852  0.3652 -0.1668 -0.3160
 5597TIP3    H138426   3.357   0.923   0.805  2.2338 -0.5641  0.1432
 5597TIP3    H238427   3.314   0.876   0.942 -1.4037  0.1599 -0.6380
 5598TIP3   OH238428   1.545   2.187   1.964 -1.2946 -0.0109 -0.0142
 5598TIP3    H138429   1.638   2.207   1.952 -0.9457 -0.8701  1.0747
 5598TIP3    H238430   1.513   2.254   2.025 -1.2896  0.0494 -0.0783
 5599TIP3   OH238431   3.625   4.128   8.405 -0.2897  0.1116  0.2877
 5599TIP3    H138432   3.552   4.151   8.348 -1.0926 -2.7684 -0.0324
 5599TIP3    H238433   3.597   4.154   8.492 -1.7269 -0.8668  0.1531
 5600TIP3   OH238434   5.533   6.026   2.273 -0.2484  0.6394  0.1639
 5600TIP3    H138435   5.529   5.934   2.246  1.3547  1.0660 -1.7852
 5600TIP3    H238436   5.449   6.063   2.247 -0.1174  0.1775 -0.9738
 5601TIP3   OH238437   5.012   1.535   1.479 -0.1130 -0.7505  0.1810
 5601TIP3    H138438   4.975   1.448   1.464 -0.3306 -0.8878  1.3986
 5601TIP3    H238439   5.090   1.538   1.425 -0.9904 -1.0776 -1.1567
 5602TIP3   OH238440   2.917   5.324   7.627  0.4155 -0.2483 -0.4766
 5602TIP3    H138441   2.868   5.284   7.699  2.7629 -1.1403  0.7392
 5602TIP3    H238442   2.934   5.251   7.567 -0.1786  0.1559 -1.1368
 5603TIP3   OH238443   5.285   0.824   3.209 -0.5957  0.1053  0.7155
 5603TIP3    H138444   5.198   0.828   3.169 -0.9977 -0.5900  1.4859
 5603TIP3    H238445   5.326   0.908   3.186 -0.2556 -0.7467 -2.3233
 5604TIP3   OH238446   6.014   3.285   0.076  0.1606  0.0819 -0.7286
 5604TIP3    H138447   6.002   3.234   0.156  0.3939  0.4999 -0.4188
 5604TIP3    H238448   6.086   3.241   0.031  0.5625  0.3068 -0.3178
 5605TIP3   OH238449   0.368   6.456   0.857  0.1452 -0.1104 -0.3179
 5605TIP3    H138450   0.386   6.544   0.823  1.1714  0.0906  0.6880
 5605TIP3    H238451   0.422   6.449   0.936 -0.2136 -1.5081 -0.1670
 5606TIP3   OH238452   2.010   4.311   0.147 -0.4440 -0.0646  0.0948
 5606TIP3    H138453   2.081   4.290   0.207 -0.8917  0.7375  0.9441
 5606TIP3    H238454   1.996   4.405   0.160 -2.9988 -0.5396  1.4956
 5607TIP3   OH238455   1.552   0.419   2.255  0.0301 -0.3610 -0.3407
 5607TIP3    H138456   1.631   0.417   2.202 -0.7435 -0.2595 -1.5342
 5607TIP3    H238457   1.545   0.510   2.283 -0.6614  0.0726 -1.8255
 5608TIP3   OH238458   3.106   2.236   2.301  0.3775 -0.4149 -0.2392
 5608TIP3    H138459   3.077   2.181   2.375 -0.4240  1.5468  1.0027
 5608TIP3    H238460   3.058   2.202   2.226 -1.6456 -0.2116  0.8886
 5609TIP3   OH238461   4.766   6.626   1.409 -0.4618 -0.3728 -0.3136
 5609TIP3    H138462   4.686   6.577   1.430 -1.9340  0.7751 -2.7306
 5609TIP3    H238463   4.766   6.699   1.470 -0.3484 -1.2621  0.7783
 5610TIP3   OH238464   4.567   0.977   8.223 -0.5023 -0.2335 -0.5965
 5610TIP3    H138465   4.547   1.045   8.159 -1.5532  0.7465  0.7233
 5610TIP3    H238466   4.498   0.911   8.210  0.4057 -1.0017 -1.7457
 5611TIP3   OH238467   6.177   4.447   1.479  0.4919 -0.1462 -0.3823
 5611TIP3    H138468   6.248   4.396   1.518  0.2266 -0.0025  0.3054
 5611TIP3    H238469   6.098   4.397   1.499  0.3262  0.0589 -0.5199
 5612TIP3   OH238470   2.834   6.634   0.783  0.4948 -0.0258 -0.2586
 5612TIP3    H138471   2.866   6.720   0.810  0.6448  0.0178 -0.5682
 5612TIP3    H238472   2.784   6.602   0.858 -0.6786  0.9016 -0.6087
 5613TIP3   OH238473   5.606   1.315   7.842 -0.4729 -0.2194 -0.5071
 5613TIP3    H138474   5.513   1.292   7.832 -0.7054  1.2804 -2.3967
 5613TIP3    H238475   5.610   1.407   7.819  1.7008 -0.5969 -1.8456
 5614TIP3   OH238476   2.752   2.704   1.978 -0.4750 -0.4910 -0.4085
 5614TIP3    H138477   2.780   2.792   2.001  0.0632 -0.4360 -1.2470
 5614TIP3    H238478   2.799   2.684   1.898  0.8403 -2.2551  0.7213
 5615TIP3   OH238479   1.884   0.529   1.168 -0.3061 -0.5680  0.2509
 5615TIP3    H138480   1.912   0.617   1.142  0.9940 -0.5412  1.6564
 5615TIP3    H238481   1.831   0.543   1.246  0.1086 -1.0467  0.6202
 5616TIP3   OH238482   5.963   2.555   0.814 -0.3003  0.8051 -0.3114
 5616TIP3    H138483   5.870   2.556   0.833  0.0195 -0.6314  1.6364
 5616TIP3    H238484   5.981   2.466   0.784  1.0139 -0.1752  2.9868
 5617TIP3   OH238485   1.138   3.610   0.247  0.0880  0.2650  0.0461
 5617TIP3    H138486   1.076   3.619   0.320 -1.3063 -3.1403 -0.5053
 5617TIP3    H238487   1.102   3.666   0.178 -1.6553 -0.5657  0.2280
 5618TIP3   OH238488   1.224   1.861   0.448  0.1431  0.0001  0.1678
 5618TIP3    H138489   1.287   1.921   0.408  0.3780  0.0235  0.5662
 5618TIP3    H238490   1.152   1.917   0.478 -0.7251 -0.1673 -1.4973
 5619TIP3   OH238491   3.936   6.321   8.288 -0.6623  0.3428 -0.8464
 5619TIP3    H138492   3.977   6.299   8.372  1.2154 -0.2320 -1.8667
 5619TIP3    H238493   3.885   6.400   8.307  0.4813  0.7805  0.6270
 5620TIP3   OH238494   6.501   6.491   0.381 -0.2717 -0.2762  0.0629
 5620TIP3    H138495   6.469   6.401   0.374  0.9998 -0.6844 -1.2394
 5620TIP3    H238496   6.522   6.515   0.290 -0.8247  1.4433  0.3525
 5621TIP3   OH238497   3.036   4.565   0.081  0.3862  0.0443 -0.8740
 5621TIP3    H138498   3.086   4.593   0.005  0.8799 -1.4716 -1.1353
 5621TIP3    H238499   3.076   4.482   0.107 -0.7670 -0.2322  0.0961
 5622TIP3   OH238500   4.967   1.807   8.664  0.1644 -0.6320 -0.3506
 5622TIP3    H138501   4.966   1.888   8.716 -0.8119 -0.3684 -0.7608
 5622TIP3    H238502   5.037   1.821   8.600 -1.9261  1.2402 -2.4316
 5623TIP3   OH238503   0.205   0.196   1.632  0.6360 -0.2213  0.3180
 5623TIP3    H138504   0.230   0.169   1.720  0.9554 -0.1862  0.2420
 5623TIP3    H238505   0.286   0.234   1.595  0.8860 -1.4777 -0.4741
 5624TIP3   OH238506   4.248   0.432   7.929  0.5834 -0.7266  0.2295
 5624TIP3    H138507   4.198   0.458   8.007 -1.0030  2.1318 -1.5860
 5624TIP3    H238508   4.187   0.378   7.879  0.3445  0.2396 -0.5559
 5625TIP3   OH238509   6.557   1.589   0.762  0.6174  0.1439  0.0911
 5625TIP3    H138510   6.569   1.655   0.694 -2.3572  1.5152  0.7681
 5625TIP3    H238511   6.530   1.638   0.839  0.1290 -1.7229  1.1804
 5626TIP3   OH238512   3.802   2.706   2.000  0.2646 -0.2990  0.4063
 5626TIP3    H138513   3.817   2.741   1.912 -0.4480 -1.8660 -0.3680
 5626TIP3    H238514   3.890   2.703   2.039  0.7019 -0.3674 -0.5474
 5627TIP3   OH238515   1.431   4.507   0.062 -0.4354 -0.0705  0.4434
 5627TIP3    H138516   1.479   4.435   0.020  1.8908  0.9922  1.0978
 5627TIP3    H238517   1.412   4.475   0.150  1.1721  0.2767  0.9549
 5628TIP3   OH238518   3.115   5.624   8.437 -0.3790 -0.5924 -0.6121
 5628TIP3    H138519   3.071   5.700   8.398  0.2515 -0.5705 -1.3091
 5628TIP3    H238520   3.133   5.567   8.363  1.4720 -0.2389 -0.4733
 5629TIP3   OH238521   0.702   5.097   3.172  0.1739  0.8462 -0.4900
 5629TIP3    H138522   0.790   5.092   3.134 -0.4541 -0.0664 -1.9697
 5629TIP3    H238523   0.656   5.162   3.118 -0.9873 -1.0768 -1.9891
 5630TIP3   OH238524   6.188   0.572   0.791  0.0137  0.2845  0.2249
 5630TIP3    H138525   6.250   0.643   0.809  2.1079 -1.5693  0.7383
 5630TIP3    H238526   6.193   0.558   0.697 -2.2624  2.3212 -0.3147
 5631TIP3   OH238527   2.781   3.235   1.540 -0.4169  0.1971  0.2410
 5631TIP3    H138528   2.860   3.253   1.591 -1.3917  2.2437  1.1379
 5631TIP3    H238529   2.798   3.274   1.455  0.3387 -1.2707 -0.3180
 5632TIP3   OH238530   1.143   3.618   7.475 -0.5970  0.2633 -0.3328
 5632TIP3    H138531   1.144   3.523   7.483  0.5271  0.2784 -0.1667
 5632TIP3    H238532   1.138   3.650   7.566  1.4549  0.3550 -0.2019
 5633TIP3   OH238533   2.460   0.344   1.903 -0.0831  0.2243  0.3320
 5633TIP3    H138534   2.407   0.364   1.827 -0.9706 -2.7850  0.0429
 5633TIP3    H238535   2.469   0.249   1.903  2.9432  0.3504  1.9921
 5634TIP3   OH238536   6.104   0.842   7.754 -0.5792 -0.6057 -0.0309
 5634TIP3    H138537   6.015   0.847   7.789 -1.0500 -1.4939 -1.0263
 5634TIP3    H238538   6.159   0.829   7.830 -1.2352  0.5244  0.6599
 5635TIP3   OH238539   1.505   1.413   0.422  0.6387 -0.2921  0.0358
 5635TIP3    H138540   1.531   1.505   0.434  0.0412  0.3818 -3.0498
 5635TIP3    H238541   1.565   1.380   0.356  0.6698 -2.1091  0.9170
 5636TIP3   OH238542   3.691   4.954   2.605 -0.0802  0.5915 -0.3345
 5636TIP3    H138543   3.669   4.877   2.553  0.8692 -0.9403  1.4206
 5636TIP3    H238544   3.636   4.946   2.683  0.5821  1.2733  0.2116
 5637TIP3   OH238545   5.262   2.109   7.394 -0.1790 -0.3957  0.4118
 5637TIP3    H138546   5.199   2.158   7.341 -0.5800 -2.2682 -0.9566
 5637TIP3    H238547   5.284   2.033   7.340  0.2090 -1.8558  2.5032
 5638TIP3   OH238548   0.640   2.369   8.223 -0.3350 -0.6164  0.7078
 5638TIP3    H138549   0.714   2.384   8.282  0.4829 -1.7448  0.0037
 5638TIP3    H238550   0.612   2.457   8.197  0.9553 -0.1690  0.7611
 5639TIP3   OH238551   3.450   1.986   2.720  0.6663  0.2244 -0.3201
 5639TIP3    H138552   3.417   2.057   2.664  0.9123  0.1971 -0.5009
 5639TIP3    H238553   3.384   1.977   2.789  0.4057  0.3224 -0.5543
 5640TIP3   OH238554   0.538   6.031   7.963  0.2521  0.1480 -0.5920
 5640TIP3    H138555   0.532   5.945   8.004  0.0780 -0.5046 -1.9406
 5640TIP3    H238556   0.447   6.053   7.942  0.3032  0.6437 -0.3138
 5641TIP3   OH238557   6.070   5.119   1.342 -0.4753 -0.6874 -0.0999
 5641TIP3    H138558   6.088   5.062   1.417 -1.0043 -1.3231 -0.4476
 5641TIP3    H238559   6.117   5.078   1.269  1.0651  0.5955  0.1148
 5642TIP3   OH238560   5.940   6.846   8.355 -0.3263  0.1709 -0.3878
 5642TIP3    H138561   5.885   6.899   8.414  2.6664  2.6811  0.3997
 5642TIP3    H238562   6.001   6.801   8.413 -0.6546 -1.5627 -1.3227
 5643TIP3   OH238563   3.156   0.440   2.930 -0.0244 -0.1260 -0.4915
 5643TIP3    H138564   3.083   0.442   2.869 -0.4653 -2.0574 -0.1017
 5643TIP3    H238565   3.231   0.413   2.877 -0.0654 -0.2855 -0.4671
 5644TIP3   OH238566   4.413   0.436   1.979  0.8801  0.1396  0.2976
 5644TIP3    H138567   4.470   0.391   2.041  0.8809  0.3710  0.4687
 5644TIP3    H238568   4.465   0.512   1.950  0.5284  0.5433  0.7197
 5645TIP3   OH238569   4.916   6.664   7.476  0.6120 -0.0097 -0.3123
 5645TIP3    H138570   4.879   6.613   7.404  0.2553  1.1636 -0.9941
 5645TIP3    H238571   5.007   6.681   7.450  0.6191  0.0209 -0.2681
 5646TIP3   OH238572   0.446   1.439   8.592  0.1602  0.0977 -0.2327
 5646TIP3    H138573   0.486   1.360   8.628  2.6641  1.6324  0.5839
 5646TIP3    H238574   0.367   1.452   8.645  0.9522 -0.6069  1.1725
 5647TIP3   OH238575   0.584   1.964   1.449 -0.0221 -0.3314  0.2829
 5647TIP3    H138576   0.645   2.011   1.392  0.4337 -0.2550  0.8235
 5647TIP3    H238577   0.630   1.883   1.471  0.2567  0.1133  1.3957
 5648TIP3   OH238578   0.365   1.760   6.656  0.2112  0.1753 -0.0957
 5648TIP3    H138579   0.452   1.798   6.670  1.2459 -2.1447  0.2406
 5648TIP3    H238580   0.365   1.680   6.708 -0.9335 -1.6047 -2.6278
 5649TIP3   OH238581   3.963   6.196   2.315  0.3071 -0.3771  0.3857
 5649TIP3    H138582   3.979   6.142   2.393  1.9995 -0.4966 -0.0016
 5649TIP3    H238583   3.980   6.285   2.344  1.1633 -0.4434  0.1233
 5650TIP3   OH238584   3.357   5.247   2.832 -0.4016 -0.1791  0.0223
 5650TIP3    H138585   3.356   5.287   2.920 -0.4966 -0.1894  0.0254
 5650TIP3    H238586   3.387   5.318   2.775 -0.5060 -0.1215  0.0380
 5651TIP3   OH238587   2.723   1.757   2.955  0.4105  0.1175  0.3047
 5651TIP3    H138588   2.653   1.715   3.005  1.7509 -1.3789  1.0253
 5651TIP3    H238589   2.683   1.776   2.870 -0.4233 -2.3590  0.0498
 5652TIP3   OH238590   6.839   1.962   0.979 -0.1674 -0.0629 -0.5489
 5652TIP3    H138591   6.751   1.942   0.949 -1.0157  0.2629  1.5695
 5652TIP3    H238592   6.868   1.883   1.024 -0.7086  0.9040  1.6012
 5653TIP3   OH238593   0.269   2.901   2.124 -0.2182  0.4842 -0.4075
 5653TIP3    H138594   0.357   2.917   2.158  0.2353 -1.0570 -0.8050
 5653TIP3    H238595   0.280   2.897   2.029 -0.8251  0.8608 -0.4996
 5654TIP3   OH238596   2.055   3.449   0.528  0.1265 -0.6682 -0.7742
 5654TIP3    H138597   2.053   3.507   0.605 -0.7051 -0.7872 -0.6956
 5654TIP3    H238598   1.968   3.458   0.490  1.2373  1.2294 -3.0933
 5655TIP3   OH238599   6.106   2.461   0.003  0.4507 -0.0399 -0.1070
 5655TIP3    H138600   6.106   2.493  -0.087 -0.4912  0.7096  0.1450
 5655TIP3    H238601   6.164   2.385   0.001 -1.8011 -1.8720 -1.9934
 5656TIP3   OH238602   5.203   5.227   8.059 -0.0945  0.3097 -0.3207
 5656TIP3    H138603   5.196   5.286   7.983 -0.8410  1.9795  0.9901
 5656TIP3    H238604   5.297   5.212   8.069  0.4474  3.6783  0.9884
 5657TIP3   OH238605   4.038   1.001   1.456  0.2518 -0.3825 -0.0165
 5657TIP3    H138606   4.065   0.974   1.544  2.1188 -1.3200 -0.8450
 5657TIP3    H238607   4.094   0.952   1.397 -0.4094  0.8435 -1.7414
 5658TIP3   OH238608   0.572   6.233   8.131  0.3942 -0.2589  0.1809
 5658TIP3    H138609   0.483   6.261   8.151  0.2825 -0.5457  0.0871
 5658TIP3    H238610   0.563   6.173   8.057  0.6152 -0.6659  0.4794
 5659TIP3   OH238611   2.582   1.007   3.391 -0.4226  0.4663 -0.7238
 5659TIP3    H138612   2.629   1.083   3.425 -2.1294  1.2644 -0.0397
 5659TIP3    H238613   2.651   0.941   3.376  0.8861  1.5491  0.2586
 5660TIP3   OH238614   4.957   2.597   8.608 -0.4412  0.0743  0.2677
 5660TIP3    H138615   4.916   2.555   8.532  0.1153 -1.6787  0.8866
 5660TIP3    H238616   5.051   2.586   8.593 -0.3151  0.2170  0.9477
 5661TIP3   OH238617   2.999   1.078   1.967 -0.0196  0.3924  0.2364
 5661TIP3    H138618   2.953   1.158   1.945 -0.6527 -0.5367 -2.0722
 5661TIP3    H238619   3.084   1.087   1.924  0.5416  0.4823  1.3254
 5662TIP3   OH238620   6.505   2.214   1.114  0.5929  0.3711  0.1765
 5662TIP3    H138621   6.597   2.228   1.092  0.5821  1.1107  0.5481
 5662TIP3    H238622   6.490   2.270   1.190 -0.0919  0.0341  0.2981
 5663TIP3   OH238623   2.465   5.896   1.128  0.5153  0.2724  0.5923
 5663TIP3    H138624   2.404   5.827   1.100  0.0558  1.0378 -0.3639
 5663TIP3    H238625   2.551   5.854   1.123  0.2692 -0.1802 -0.2124
 5664TIP3   OH238626   6.524   0.527   7.147  0.4877 -0.1110 -0.3841
 5664TIP3    H138627   6.564   0.539   7.234  1.6871  0.6671 -1.0161
 5664TIP3    H238628   6.501   0.616   7.119 -0.7628 -0.4560 -0.4710
 5665TIP3   OH238629   2.093   2.707   8.310  0.3341  0.2631  0.1620
 5665TIP3    H138630   2.154   2.634   8.298 -2.0956 -1.7298 -1.1527
 5665TIP3    H238631   2.043   2.682   8.388  1.3327  2.0387  1.4360
 5666TIP3   OH238632   1.618   0.497   0.110 -0.4320 -0.2039  0.5920
 5666TIP3    H138633   1.666   0.569   0.070  1.6422 -0.9503  1.5704
 5666TIP3    H238634   1.654   0.489   0.198 -1.4979 -1.6315  0.9508
 5667TIP3   OH238635   5.934   2.957   2.505 -0.1149  0.2507 -0.6014
 5667TIP3    H138636   5.888   3.003   2.575 -0.2119  0.3956 -0.7588
 5667TIP3    H238637   5.959   2.873   2.544  3.0028  1.6562  0.7502
 5668TIP3   OH238638   4.703   5.952   0.972  0.9056 -0.0621 -0.2911
 5668TIP3    H138639   4.609   5.967   0.963  1.2132  0.9499 -2.5235
 5668TIP3    H238640   4.725   5.988   1.058 -0.5931  0.5552 -0.1333
 5669TIP3   OH238641   6.365   4.955   3.076 -0.7816 -0.1444  0.1718
 5669TIP3    H138642   6.378   5.043   3.042 -1.3547 -0.1837 -0.1600
 5669TIP3    H238643   6.453   4.916   3.075 -0.6353  0.1861 -0.3349
 5670TIP3   OH238644   0.959   5.126   2.573 -0.3746  0.0570  0.2769
 5670TIP3    H138645   0.908   5.206   2.579  0.0060  0.3241  0.0147
 5670TIP3    H238646   1.049   5.153   2.594 -0.3266 -0.3883  0.6510
 5671TIP3   OH238647   0.607   6.523   8.160  0.5770 -0.0176 -0.1295
 5671TIP3    H138648   0.631   6.430   8.158 -1.2033 -0.5282  0.2893
 5671TIP3    H238649   0.633   6.556   8.074 -2.5949 -1.9936 -2.0499
 5672TIP3   OH238650   2.891   6.639   2.867 -0.3790  0.3468  0.0141
 5672TIP3    H138651   2.910   6.601   2.953 -1.3617 -0.0962  0.0408
 5672TIP3    H238652   2.925   6.575   2.804  0.3361  0.6693  0.0641
 5673TIP3   OH238653   2.517   0.197   0.060  0.4984  0.3403  0.2012
 5673TIP3    H138654   2.553   0.242   0.136  1.7109 -1.6182  0.8584
 5673TIP3    H238655   2.588   0.140   0.030 -0.3886  0.1141 -1.6294
 5674TIP3   OH238656   6.609   5.000   1.790  0.1812 -0.1172  0.4680
 5674TIP3    H138657   6.549   5.052   1.736  0.1522 -0.1760  0.4426
 5674TIP3    H238658   6.558   4.977   1.867 -0.1157 -0.8938  0.0547
 5675TIP3   OH238659   4.473   3.144   0.286 -0.2714 -0.4238 -0.1488
 5675TIP3    H138660   4.504   3.194   0.210  2.5766 -1.4814  0.1961
 5675TIP3    H238661   4.542   3.154   0.351 -0.6246 -2.9727  0.7347
 5676TIP3   OH238662   3.898   4.788   1.212  0.3201  0.1457  0.2989
 5676TIP3    H138663   3.966   4.832   1.263  1.2791 -0.4764 -0.3954
 5676TIP3    H238664   3.939   4.773   1.126 -0.9308  0.3527 -0.3566
 5677TIP3   OH238665   2.424   1.284   0.028 -0.0348  0.0318 -0.2295
 5677TIP3    H138666   2.362   1.213   0.044 -0.9343  0.8015 -0.1995
 5677TIP3    H238667   2.370   1.362   0.023  1.0699  1.0154  1.6613
 5678TIP3   OH238668   4.151   1.525   2.634 -0.4269 -0.2785 -0.8029
 5678TIP3    H138669   4.155   1.444   2.685 -0.0049 -0.1357 -0.6084
 5678TIP3    H238670   4.073   1.571   2.668 -0.3188 -0.3214 -0.4912
 5679TIP3   OH238671   0.872   2.489   2.136 -0.2373 -0.2813  0.0168
 5679TIP3    H138672   0.875   2.471   2.230 -1.1078  0.9758  0.3180
 5679TIP3    H238673   0.819   2.418   2.100 -2.6304  0.8680  0.9947
 5680TIP3   OH238674   4.835   3.600   2.435  0.0865  0.2167 -0.0868
 5680TIP3    H138675   4.906   3.624   2.494 -0.1114 -0.7823  0.5813
 5680TIP3    H238676   4.879   3.580   2.352  0.8803 -2.4810  0.8980
 5681TIP3   OH238677   4.699   6.535   1.953  0.5532 -0.1230 -0.3669
 5681TIP3    H138678   4.680   6.583   2.034 -2.4911 -0.4473 -0.7783
 5681TIP3    H238679   4.654   6.585   1.884  0.2820 -1.6312 -1.3275
 5682TIP3   OH238680   1.609   2.038   1.665 -0.1565  0.1546  0.3599
 5682TIP3    H138681   1.616   2.028   1.760  1.4103  2.3961  0.5376
 5682TIP3    H238682   1.697   2.064   1.636 -0.8937  0.7322 -1.5451
 5683TIP3   OH238683   5.894   4.256   2.798 -0.3453  0.1721  0.0561
 5683TIP3    H138684   5.912   4.288   2.887 -0.5088 -0.4500  0.3177
 5683TIP3    H238685   5.809   4.293   2.775 -0.7598 -0.4624  0.5479
 5684TIP3   OH238686   3.423   1.437   0.548 -0.5825  0.0011 -0.1270
 5684TIP3    H138687   3.404   1.526   0.577 -0.1525 -0.4013  1.5111
 5684TIP3    H238688   3.347   1.412   0.497 -1.9766  0.3748  1.6622
 5685TIP3   OH238689   6.676   1.367   1.906 -0.1328 -0.0295 -0.0557
 5685TIP3    H138690   6.694   1.430   1.976 -0.7388  0.2094 -0.1026
 5685TIP3    H238691   6.740   1.297   1.919  0.1386  0.2931  0.3814
 5686TIP3   OH238692   1.358   5.137   1.995  0.8587  0.2354  0.2603
 5686TIP3    H138693   1.403   5.139   2.080  0.2981  1.2143  0.5508
 5686TIP3    H238694   1.265   5.140   2.017  0.6823 -0.3585 -0.3789
 5687TIP3   OH238695   4.934   6.808   1.804  0.2378 -0.4028 -0.8305
 5687TIP3    H138696   4.936   6.757   1.884 -1.3010 -0.6318 -0.9051
 5687TIP3    H238697   4.860   6.773   1.755 -0.1451  1.1158 -1.4007
 5688TIP3   OH238698   5.543   2.617   1.294 -0.7126  0.1564 -0.3624
 5688TIP3    H138699   5.588   2.637   1.376 -1.8572  0.4212  0.2289
 5688TIP3    H238700   5.589   2.670   1.228  0.1713 -0.0019  0.1109
 5689TIP3   OH238701   2.150   1.244   8.410  0.1124 -0.6548 -0.8842
 5689TIP3    H138702   2.063   1.225   8.444  0.2480  1.5340  0.9575
 5689TIP3    H238703   2.200   1.163   8.421 -1.0624 -1.2504  0.2042
 5690TIP3   OH238704   3.001   1.526   2.564 -0.6639  0.3536  0.2636
 5690TIP3    H138705   2.982   1.436   2.539 -1.8869  0.6345  0.1183
 5690TIP3    H238706   3.096   1.533   2.561 -0.5836 -0.8257 -0.0786
 5691TIP3   OH238707   4.594   2.128   1.672  0.0248  0.1657  0.2567
 5691TIP3    H138708   4.664   2.190   1.650 -1.5965  1.9343 -0.1573
 5691TIP3    H238709   4.533   2.178   1.726 -2.7582 -0.1380 -2.3488
 5692TIP3   OH238710   4.954   2.059   0.101 -0.3831  0.2687 -0.3213
 5692TIP3    H138711   5.011   2.078   0.176 -0.4079 -2.2917  0.4764
 5692TIP3    H238712   4.868   2.092   0.127 -0.1100  0.5436  0.2389
 5693TIP3   OH238713   4.746   5.733   2.141  0.1454 -0.1492  0.6197
 5693TIP3    H138714   4.672   5.748   2.200  0.4577 -1.0135  1.2340
 5693TIP3    H238715   4.773   5.643   2.158 -0.3224 -0.7372 -1.4832
 5694TIP3   OH238716   1.524   4.242   7.935 -0.6842  0.1295  0.0518
 5694TIP3    H138717   1.510   4.149   7.952  0.4007  0.2248  1.7139
 5694TIP3    H238718   1.606   4.245   7.885  0.8638  0.2685  2.4286
 5695TIP3   OH238719   3.943   6.459   2.346 -0.7918 -0.0894  0.4943
 5695TIP3    H138720   4.010   6.472   2.413  0.8554  2.0922 -1.3997
 5695TIP3    H238721   3.871   6.516   2.373  0.4615  1.9473 -0.2223
 5696TIP3   OH238722   4.049   2.884   0.468 -0.4637  0.6446  0.2139
 5696TIP3    H138723   4.140   2.911   0.455 -0.2275  2.1369  3.8632
 5696TIP3    H238724   4.047   2.792   0.442  2.7545 -0.1557  2.2606
 5697TIP3   OH238725   3.021   6.135   8.413  0.3898  0.0530  0.3673
 5697TIP3    H138726   3.033   6.167   8.502  0.2007  0.8436  0.1084
 5697TIP3    H238727   2.944   6.181   8.380  0.4500 -0.2433 -0.1997
 5698TIP3   OH238728   6.317   5.968   1.446  0.5050 -0.3662  0.0500
 5698TIP3    H138729   6.234   5.964   1.495  0.8711  2.0177  1.0300
 5698TIP3    H238730   6.296   5.933   1.360 -1.6595  0.4911  0.1648
 5699TIP3   OH238731   4.240   2.452   2.917  0.0595 -0.1371  0.0363
 5699TIP3    H138732   4.212   2.482   3.003 -1.0652  1.4021 -0.8197
 5699TIP3    H238733   4.178   2.381   2.896 -1.5943  1.4287 -0.6795
 5700TIP3   OH238734   0.868   3.056   1.641  0.3572  0.0770  0.6344
 5700TIP3    H138735   0.898   3.064   1.732 -1.7841 -0.4020  1.4397
 5700TIP3    H238736   0.875   2.962   1.623  0.3929  0.1166  0.4466
 5701TIP3   OH238737   0.762   4.873   1.835 -0.0782  0.8097 -0.5698
 5701TIP3    H138738   0.833   4.843   1.892 -1.5211  0.2059  1.0135
 5701TIP3    H238739   0.689   4.815   1.857 -1.0609  1.4028 -2.1629
 5702TIP3   OH238740   6.846   0.666   8.121 -0.1260  0.0867 -0.1211
 5702TIP3    H138741   6.772   0.609   8.143  1.5018 -2.4130 -0.6692
 5702TIP3    H238742   6.846   0.669   8.025 -0.4492  1.4564 -0.0991
 5703TIP3   OH238743   6.665   4.303   8.135  0.0029 -0.3013  0.2134
 5703TIP3    H138744   6.738   4.354   8.169  0.6254  0.6924 -2.4009
 5703TIP3    H238745   6.703   4.250   8.065 -1.5205 -0.8766 -0.2196
 5704TIP3   OH238746   6.611   2.912   7.690  0.3849 -0.6467  0.0856
 5704TIP3    H138747   6.699   2.949   7.700  0.8628 -1.3757 -1.2879
 5704TIP3    H238748   6.555   2.972   7.740  1.6604 -0.2563  1.1130
 5705TIP3   OH238749   6.154   2.158   0.262  0.2926 -0.2535  0.0516
 5705TIP3    H138750   6.151   2.123   0.173  0.4511 -4.2246  1.4020
 5705TIP3    H238751   6.082   2.115   0.308 -0.6155  2.6451  1.6708
 5706TIP3   OH238752   4.880   2.544   1.820 -0.1732  0.2422  0.1231
 5706TIP3    H138753   4.930   2.587   1.751  0.2947  0.5043  0.6244
 5706TIP3    H238754   4.801   2.513   1.776  0.3537 -0.0413 -0.6383
 5707TIP3   OH238755   6.027   1.470   0.348  0.0305 -0.5527  0.4621
 5707TIP3    H138756   5.959   1.403   0.338 -1.0650  0.5529  0.1681
 5707TIP3    H238757   5.995   1.543   0.294  1.0928  0.2737  0.9325
 5708TIP3   OH238758   2.783   2.368   0.425  0.1616 -1.0350 -0.3734
 5708TIP3    H138759   2.822   2.414   0.499  0.6975 -2.2346  0.1326
 5708TIP3    H238760   2.851   2.305   0.399 -0.5683 -1.5859 -0.9683
 5709TIP3   OH238761   0.776   5.066   8.515  0.2220  0.1230  0.0265
 5709TIP3    H138762   0.737   5.130   8.575  0.0381  0.5023 -0.4885
 5709TIP3    H238763   0.824   5.119   8.451  1.0488 -0.3137  0.2742
 5710TIP3   OH238764   5.363   1.856   2.307 -0.3693  0.2190  0.0982
 5710TIP3    H138765   5.365   1.853   2.211 -0.6466 -1.1827  0.1079
 5710TIP3    H238766   5.274   1.832   2.330 -0.2263  0.2595  0.7102
 5711TIP3   OH238767   1.386   1.164   0.096 -0.0172 -0.0835 -0.1214
 5711TIP3    H138768   1.471   1.148   0.137  0.9009  0.0574 -1.8669
 5711TIP3    H238769   1.393   1.252   0.060 -0.4448 -0.5187 -1.3189
 5712TIP3   OH238770   6.455   2.282   2.282  0.3167  0.0268 -0.1932
 5712TIP3    H138771   6.370   2.267   2.241  0.1006 -0.2390  0.3430
 5712TIP3    H238772   6.436   2.335   2.360  0.7361  0.6294 -0.4900
 5713TIP3   OH238773   2.431   3.434   0.249 -0.2057  1.0347 -0.1124
 5713TIP3    H138774   2.392   3.435   0.161 -0.4297 -0.0977 -0.0335
 5713TIP3    H238775   2.359   3.458   0.307 -0.5796 -0.1852 -0.0535
 5714TIP3   OH238776   6.311   6.118   1.724  0.0439 -0.4098 -0.3641
 5714TIP3    H138777   6.231   6.082   1.686 -1.8544  0.9844  1.9947
 5714TIP3    H238778   6.329   6.196   1.672 -0.2424 -0.6236 -0.7899
 5715TIP3   OH238779   0.937   0.418   2.619  0.8175 -0.2602  0.0747
 5715TIP3    H138780   0.921   0.499   2.571  0.8117  0.5554  1.4001
 5715TIP3    H238781   0.985   0.363   2.558 -0.5788  0.1022 -1.4153
 5716TIP3   OH238782   0.053   0.115   0.664 -0.5571  0.4878 -0.7791
 5716TIP3    H138783   0.111   0.123   0.740 -0.9562  3.9042 -0.6627
 5716TIP3    H238784  -0.008   0.045   0.688  0.4732  0.1930  1.2259
 5717TIP3   OH238785   3.062   5.969   7.556  0.2132  0.1168 -0.3347
 5717TIP3    H138786   3.121   6.043   7.569 -0.3565  0.5344 -0.0969
 5717TIP3    H238787   3.095   5.926   7.477  4.0832 -2.7464  2.4023
 5718TIP3   OH238788   3.170   6.342   1.057 -0.1759  0.0502 -0.3499
 5718TIP3    H138789   3.212   6.387   0.984  1.6483 -0.9288  0.0330
 5718TIP3    H238790   3.088   6.309   1.021  0.1131  0.6405 -1.6051
 5719TIP3   OH238791   1.081   2.480   8.103 -0.1518  0.1084  0.2748
 5719TIP3    H138792   1.083   2.438   8.017 -0.4274  0.1733  0.2342
 5719TIP3    H238793   1.054   2.410   8.163 -0.7008  0.2445  0.1927
 5720TIP3   OH238794   6.158   6.013   2.725 -0.0730 -0.1692  0.5941
 5720TIP3    H138795   6.224   6.082   2.726  0.3614 -0.5794  0.4003
 5720TIP3    H238796   6.156   5.980   2.815 -0.2742  0.0835  0.6850
 5721TIP3   OH238797   6.039   4.190   1.994 -0.0498  0.2849 -0.2095
 5721TIP3    H138798   6.130   4.218   1.990 -0.7745  3.1823  1.3090
 5721TIP3    H238799   6.024   4.169   2.086 -0.8584 -0.5300 -0.5066
 5722TIP3   OH238800   3.016   2.833   0.475  0.0567  0.1250  0.1117
 5722TIP3    H138801   3.069   2.867   0.403  0.2466  0.3914  0.3772
 5722TIP3    H238802   2.978   2.752   0.440  1.3711 -0.5654  0.2266
 5723TIP3   OH238803   3.687   5.280   1.574 -0.2661 -0.1341  0.0917
 5723TIP3    H138804   3.760   5.253   1.629  0.8194  1.1162 -0.6771
 5723TIP3    H238805   3.727   5.300   1.489 -1.7040 -0.7265 -0.7752
 5724TIP3   OH238806   4.985   6.429   0.344 -0.2495 -0.5594 -0.5135
 5724TIP3    H138807   5.045   6.420   0.270  0.9551 -0.9570  0.4722
 5724TIP3    H238808   4.937   6.346   0.346 -0.0763 -0.6652 -0.6756
 5725TIP3   OH238809   6.706   6.795   0.241 -0.2789  0.1322  0.1295
 5725TIP3    H138810   6.727   6.878   0.197  2.7823 -1.2580 -1.3124
 5725TIP3    H238811   6.791   6.755   0.258 -1.6255 -2.1892  1.9089
 5726TIP3   OH238812   5.112   0.607   2.101  0.2067 -0.2519  0.3750
 5726TIP3    H138813   5.139   0.625   2.191  1.0919 -2.2451  0.5682
 5726TIP3    H238814   5.079   0.517   2.104  1.3254 -0.7715 -1.4883
 5727TIP3   OH238815   1.769   4.190   7.706 -0.2933  0.0176  0.0712
 5727TIP3    H138816   1.831   4.186   7.780  0.5881 -1.6508 -0.6986
 5727TIP3    H238817   1.824   4.208   7.630 -0.8781 -0.5159 -0.4923
 5728TIP3   OH238818   0.285   0.410   0.581  0.4033 -0.6312  0.1828
 5728TIP3    H138819   0.249   0.332   0.539 -1.1589 -0.8325  1.7846
 5728TIP3    H238820   0.346   0.375   0.646 -0.6427 -0.5920  1.2228
 5729TIP3   OH238821   0.753   3.045   6.996  0.5249 -0.2999  0.5976
 5729TIP3    H138822   0.782   2.960   7.029  2.2075 -0.8054 -1.8723
 5729TIP3    H238823   0.821   3.106   7.022 -0.0900  0.0761  1.3491
 5730TIP3   OH238824   6.152   6.455   0.474  0.3584  0.5549  0.5925
 5730TIP3    H138825   6.189   6.521   0.415 -0.5829  0.4193 -0.1772
 5730TIP3    H238826   6.064   6.439   0.440  1.5362 -3.3180 -1.2214
 5731TIP3   OH238827   1.115   3.173   0.237  0.0377  0.0278  0.3843
 5731TIP3    H138828   1.046   3.228   0.274  0.8459  0.5173  1.1893
 5731TIP3    H238829   1.079   3.084   0.241 -0.6681  0.3082  0.4903
 5732TIP3   OH238830   1.512   0.676   1.855 -0.2316  0.1882  0.3612
 5732TIP3    H138831   1.515   0.602   1.796 -0.8646 -0.4012  1.0504
 5732TIP3    H238832   1.584   0.661   1.916 -1.0931 -0.5038  1.2325
 5733TIP3   OH238833   0.468   3.651   1.902 -0.0560 -0.2298 -0.6336
 5733TIP3    H138834   0.539   3.645   1.839  0.0939  0.0711 -0.4951
 5733TIP3    H238835   0.445   3.744   1.904  1.4588  0.1641  1.4069
 5734TIP3   OH238836   0.588   3.093   1.703  0.1717 -0.3908  0.0100
 5734TIP3    H138837   0.678   3.106   1.672  0.3090  0.6510  0.8018
 5734TIP3    H238838   0.572   3.167   1.761 -1.4877 -0.1028 -0.7551
 5735TIP3   OH238839   3.465   5.596   0.166 -0.3434  0.3787  0.3715
 5735TIP3    H138840   3.405   5.600   0.092  0.9639 -1.1442 -0.8420
 5735TIP3    H238841   3.446   5.675   0.217 -2.6980  0.4183 -0.4459
 5736TIP3   OH238842   4.919   0.683   7.973 -0.1332 -0.4945 -0.4716
 5736TIP3    H138843   4.868   0.754   8.011 -1.4784 -0.1164 -2.8067
 5736TIP3    H238844   4.858   0.609   7.967  0.1675 -0.6828 -1.4291
 5737TIP3   OH238845   5.230   2.413   7.819  0.1910 -0.2262  0.3721
 5737TIP3    H138846   5.154   2.358   7.800  0.1695 -0.5121  1.2225
 5737TIP3    H238847   5.196   2.479   7.880  0.6515 -0.4528  0.8815
 5738TIP3   OH238848   1.048   6.874   1.400 -0.1339  0.1576  0.2981
 5738TIP3    H138849   0.978   6.833   1.450  0.4573  0.3279  1.2835
 5738TIP3    H238850   1.015   6.962   1.379 -0.4074  0.0621  0.3288
 5739TIP3   OH238851   4.734   6.507   3.249 -0.2835 -0.4399 -0.2463
 5739TIP3    H138852   4.707   6.553   3.328  0.2387  0.2958 -0.4867
 5739TIP3    H238853   4.743   6.415   3.276  2.2405  0.1237  1.1872
 5740TIP3   OH238854   0.907   4.072   2.123 -0.3221 -0.1830  0.0802
 5740TIP3    H138855   0.873   4.087   2.035  0.4302  1.1663 -0.0086
 5740TIP3    H238856   0.943   3.984   2.121 -1.6853 -0.7515 -0.4989
 5741TIP3   OH238857   3.795   2.530   0.104 -0.4590 -0.3666 -0.0831
 5741TIP3    H138858   3.847   2.608   0.088 -0.8922 -0.4885 -2.4633
 5741TIP3    H238859   3.840   2.485   0.175  1.2390  0.7669 -0.3966
 5742TIP3   OH238860   5.806   3.509   7.841 -0.8962 -0.1160 -0.1148
 5742TIP3    H138861   5.789   3.426   7.885 -0.7811 -0.3516 -0.5146
 5742TIP3    H238862   5.873   3.489   7.776  0.8048  0.7490  1.3019
 5743TIP3   OH238863   1.220   2.097   1.358 -0.0812  0.3311 -0.3205
 5743TIP3    H138864   1.145   2.090   1.417  0.0260 -0.1329 -0.2342
 5743TIP3    H238865   1.296   2.089   1.416  0.0885  2.5162 -0.1608
 5744TIP3   OH238866   4.058   2.650   8.404  1.0051  0.5581 -0.5555
 5744TIP3    H138867   3.963   2.657   8.398  0.9960  1.0242  0.0446
 5744TIP3    H238868   4.091   2.734   8.373  1.2857  0.0051 -1.8411
 5745TIP3   OH238869   4.692   1.833   7.974 -0.6098 -0.0661 -0.0818
 5745TIP3    H138870   4.752   1.851   7.901  0.2317 -1.4580  0.2213
 5745TIP3    H238871   4.612   1.881   7.952 -0.0289  0.3456 -1.4160
 5746TIP3   OH238872   6.273   0.151   3.132  0.7013 -0.4902 -0.3356
 5746TIP3    H138873   6.311   0.231   3.168 -0.8223  0.5195 -0.8681
 5746TIP3    H238874   6.297   0.153   3.040  0.1276 -0.2999 -0.4853
 5747TIP3   OH238875   6.597   6.076   1.894 -0.4045 -0.2779  0.5081
 5747TIP3    H138876   6.596   6.143   1.826  0.0844 -1.6602 -0.9296
 5747TIP3    H238877   6.521   6.021   1.875 -2.0493  0.9637  2.9179
 5748TIP3   OH238878   6.376   4.100   2.221 -0.8836 -0.0635 -0.0486
 5748TIP3    H138879   6.363   4.024   2.164 -1.2570  0.8063 -1.1535
 5748TIP3    H238880   6.345   4.070   2.307  0.5397 -1.6846 -0.0468
 5749TIP3   OH238881   3.058   2.056   8.466  0.4240  0.1154  0.0277
 5749TIP3    H138882   3.041   2.002   8.389 -0.0314  0.7853 -0.3504
 5749TIP3    H238883   3.154   2.063   8.469  0.4153  1.1414 -1.2344
 5750TIP3   OH238884   6.057   0.317   8.043  0.6918  0.2680  0.6636
 5750TIP3    H138885   6.043   0.225   8.064 -0.5227  0.9680  3.3947
 5750TIP3    H238886   6.034   0.324   7.950 -1.7555 -1.7555  0.9984
 5751TIP3   OH238887   6.403   1.499   8.063  0.0502 -0.4830 -0.2925
 5751TIP3    H138888   6.454   1.418   8.064  1.2405  0.2389 -0.9331
 5751TIP3    H238889   6.324   1.477   8.114  0.6181 -1.8501  0.0695
 5752TIP3   OH238890   0.013   3.874   0.094 -0.7564  0.1782 -0.5414
 5752TIP3    H138891   0.006   3.933   0.019 -0.1148  0.5965 -0.2793
 5752TIP3    H238892   0.019   3.933   0.170  1.7932 -0.1602 -0.4172
 5753TIP3   OH238893   0.703   3.177   1.317  0.0158  0.3553  0.4201
 5753TIP3    H138894   0.733   3.181   1.408  1.2980 -2.2317  0.2318
 5753TIP3    H238895   0.780   3.145   1.269 -0.7652  1.2698 -1.5209
 5754TIP3   OH238896   0.634   2.606   0.422  0.1006  0.2319  0.5735
 5754TIP3    H138897   0.621   2.668   0.494 -3.1373 -0.5037  0.7543
 5754TIP3    H238898   0.592   2.525   0.452  0.1034 -0.5945 -1.5001
 5755TIP3   OH238899   1.039   3.613   8.391  0.2045  0.3194 -0.1617
 5755TIP3    H138900   1.082   3.695   8.370  0.5323 -0.0095 -0.7992
 5755TIP3    H238901   1.087   3.579   8.466  2.1724 -0.8532 -1.8660
 5756TIP3   OH238902   0.684   1.179   8.542  0.5408  0.3688 -0.0197
 5756TIP3    H138903   0.744   1.127   8.597 -0.3305 -0.6109  0.0418
 5756TIP3    H238904   0.609   1.120   8.527 -0.0502  1.2885 -0.7392
 5757TIP3   OH238905   1.444   5.949   0.542  0.3480 -0.3311  0.2238
 5757TIP3    H138906   1.424   5.875   0.484  2.1289 -1.3671  0.8593
 5757TIP3    H238907   1.359   5.976   0.577 -0.6182 -0.5234 -1.8313
 5758TIP3   OH238908   5.159   5.098   8.316 -0.2892  0.1022  0.3662
 5758TIP3    H138909   5.201   5.156   8.379  0.1360  0.5248 -0.2965
 5758TIP3    H238910   5.170   5.142   8.231 -1.5067 -0.0866  0.0879
 5759TIP3   OH238911   5.119   5.347   1.922  0.2254 -0.4631 -0.0050
 5759TIP3    H138912   5.049   5.287   1.951 -0.2239 -0.4593 -1.0356
 5759TIP3    H238913   5.197   5.292   1.915 -0.2942 -1.0733 -1.4168
 5760TIP3   OH238914   4.026   5.815   2.704 -0.8614  0.1818 -0.5105
 5760TIP3    H138915   4.034   5.794   2.797 -2.7680  0.9197 -0.1222
 5760TIP3    H238916   4.106   5.782   2.665  1.0623  1.8479  1.7336
 5761TIP3   OH238917   0.075   4.970   0.834  0.5550  0.1484 -0.5970
 5761TIP3    H138918   0.009   5.027   0.873 -0.7014 -2.1569  0.8072
 5761TIP3    H238919   0.109   5.021   0.760  0.6518  3.3300  1.4312
 5762TIP3   OH238920   3.574   6.187   3.689  0.0959  0.0498 -0.1788
 5762TIP3    H138921   3.625   6.214   3.612  1.0199  1.7148  0.9528
 5762TIP3    H238922   3.640   6.156   3.752 -0.5029  0.1218  0.5028
 5763TIP3   OH238923   2.516   6.389   0.334 -0.0591  0.0952 -0.5090
 5763TIP3    H138924   2.436   6.427   0.370 -0.8675 -0.5803 -1.5157
 5763TIP3    H238925   2.574   6.377   0.409 -2.0512 -2.1934  0.7877
 5764TIP3   OH238926   3.224   3.003   0.969 -0.0993 -0.6053 -0.1699
 5764TIP3    H138927   3.262   3.029   0.885 -0.4576  0.0948 -0.1242
 5764TIP3    H238928   3.191   2.914   0.954  2.1964 -1.5404  0.0148
 5765TIP3   OH238929   4.494   1.742   3.196 -0.2046 -0.6433 -0.2164
 5765TIP3    H138930   4.435   1.773   3.264  0.9202  0.8128  0.1241
 5765TIP3    H238931   4.576   1.723   3.242 -0.0266 -1.5546 -0.8708
 5766TIP3   OH238932   5.368   6.159   7.317 -0.1617 -0.0947  0.4861
 5766TIP3    H138933   5.336   6.180   7.405  0.3732 -0.5345  0.7975
 5766TIP3    H238934   5.360   6.064   7.311 -1.8380  0.0859 -0.6156
 5767TIP3   OH238935   6.555   0.101   8.532  0.5324  0.2860  0.0363
 5767TIP3    H138936   6.528   0.041   8.602 -0.8891  0.8124 -0.0259
 5767TIP3    H238937   6.632   0.146   8.567  0.8728 -0.6692  0.5670
 5768TIP3   OH238938   1.654   0.500   0.415  0.4910  0.4486  0.3455
 5768TIP3    H138939   1.735   0.464   0.450 -0.0101 -1.2362 -0.1253
 5768TIP3    H238940   1.586   0.471   0.477  0.0487  0.4802 -0.1176
 5769TIP3   OH238941   6.462   4.458   8.593 -0.6853  0.5270  0.1632
 5769TIP3    H138942   6.493   4.511   8.666 -2.5882  1.3186  0.4508
 5769TIP3    H238943   6.530   4.467   8.526  1.4878 -0.8448  2.0521
 5770TIP3   OH238944   0.176   3.367   7.892  0.1508  0.2109 -0.0551
 5770TIP3    H138945   0.112   3.312   7.937  1.5938 -0.4083  1.3575
 5770TIP3    H238946   0.177   3.449   7.942 -0.2454  0.6009 -0.6791
 5771TIP3   OH238947   3.780   2.498   1.759  0.2065 -0.3117  0.0307
 5771TIP3    H138948   3.782   2.583   1.804 -0.7746 -0.2540 -0.0086
 5771TIP3    H238949   3.721   2.512   1.685 -0.5967 -1.2316  0.4733
 5772TIP3   OH238950   6.204   4.563   2.307 -0.6398 -0.6549  0.0292
 5772TIP3    H138951   6.165   4.505   2.372 -3.4378 -0.8649 -1.6488
 5772TIP3    H238952   6.236   4.504   2.239 -0.4760 -0.3615 -0.1484
 5773TIP3   OH238953   2.151   1.557   3.086  0.7778  0.0466 -0.4509
 5773TIP3    H138954   2.241   1.525   3.091  0.5849 -0.3070  1.1347
 5773TIP3    H238955   2.160   1.652   3.078  1.2917 -0.0879 -1.7662
 5774TIP3   OH238956   2.643   0.623   2.531  0.0884 -0.2772  0.3881
 5774TIP3    H138957   2.600   0.606   2.615 -0.6570 -1.0572 -0.1378
 5774TIP3    H238958   2.576   0.670   2.480  0.5903  0.3270  0.2711
 5775TIP3   OH238959   4.278   3.714   8.228 -0.0477 -0.5735  0.1243
 5775TIP3    H138960   4.297   3.764   8.307 -0.7391 -1.6578  0.9911
 5775TIP3    H238961   4.359   3.667   8.209 -0.1525 -0.9946  0.7001
 5776TIP3   OH238962   5.101   3.252   7.913 -0.1050  0.2964 -0.0716
 5776TIP3    H138963   5.070   3.328   7.963 -2.8884 -0.7954  0.0286
 5776TIP3    H238964   5.066   3.266   7.825 -0.3360 -0.6629 -0.1461
 5777TIP3   OH238965   4.924   4.089   7.648 -0.2576 -0.3662 -0.0310
 5777TIP3    H138966   4.945   4.182   7.661  1.1445 -0.5529 -0.8154
 5777TIP3    H238967   4.985   4.042   7.705 -0.7686 -0.8328  0.1409
 5778TIP3   OH238968   3.066   2.533   1.934 -0.3614  0.1446 -0.2175
 5778TIP3    H138969   2.991   2.516   1.990  1.0093  0.2995  1.7475
 5778TIP3    H238970   3.095   2.621   1.958  1.0601 -0.3002 -0.1687
 5779TIP3   OH238971   2.749   4.622   0.931  0.1237 -0.0653  0.2200
 5779TIP3    H138972   2.716   4.594   0.846  2.4018 -0.7152 -0.5268
 5779TIP3    H238973   2.717   4.712   0.942 -1.1230 -0.3709 -0.7872
 5780TIP3   OH238974   4.757   1.768   2.157  0.3206 -0.3894  0.2283
 5780TIP3    H138975   4.817   1.826   2.204 -0.9203 -0.1606  1.5646
 5780TIP3    H238976   4.815   1.702   2.117  1.6221  0.9200 -0.1486
 5781TIP3   OH238977   3.815   0.132   2.687 -0.2045  0.0276 -0.1936
 5781TIP3    H138978   3.860   0.145   2.770 -0.0495  0.4159 -0.3370
 5781TIP3    H238979   3.790   0.220   2.659 -3.2534 -0.3157  1.0782
 5782TIP3   OH238980   0.814   5.094   7.548 -0.4186 -0.1676 -0.5999
 5782TIP3    H138981   0.837   5.121   7.459  0.1599  0.2175 -0.3393
 5782TIP3    H238982   0.854   5.160   7.605 -1.0556 -0.2307 -0.0648
 5783TIP3   OH238983   4.645   3.047   8.194 -0.1217 -0.2284 -0.0270
 5783TIP3    H138984   4.646   3.042   8.289  1.7121  0.7435  0.0479
 5783TIP3    H238985   4.612   3.135   8.175  2.6903  0.9252 -0.1092
 5784TIP3   OH238986   3.326   2.013   8.527  0.0548 -0.8020 -0.3074
 5784TIP3    H138987   3.336   1.948   8.597 -1.7339 -0.9883 -0.1696
 5784TIP3    H238988   3.374   2.089   8.558  0.1831 -1.2469  0.6390
 5785TIP3   OH238989   1.300   5.028   0.232  0.4912  0.1584 -0.3243
 5785TIP3    H138990   1.366   4.977   0.184  1.3647  1.0075 -0.0680
 5785TIP3    H238991   1.321   5.119   0.210 -0.2423  0.4637  0.2326
 5786TIP3   OH238992   3.549   2.480   8.276  0.1817  0.2159  0.0484
 5786TIP3    H138993   3.547   2.385   8.266 -1.8280  0.3644 -1.5022
 5786TIP3    H238994   3.578   2.512   8.190 -1.5743  1.0525 -0.2746
 5787TIP3   OH238995   4.450   1.088   7.457 -0.2589  0.2916 -0.0253
 5787TIP3    H138996   4.385   1.124   7.517  0.1263  0.0002  0.5842
 5787TIP3    H238997   4.523   1.150   7.462 -0.9042  1.2220 -1.5580
 5788TIP3   OH238998   2.851   0.713   8.523 -0.1832  0.6320 -0.5163
 5788TIP3    H138999   2.872   0.735   8.613 -0.5244  2.3683 -0.8216
 5788TIP3    H239000   2.935   0.712   8.478  0.0877 -1.0902 -0.0562
 5789TIP3   OH239001   2.630   0.988   2.973  0.4550 -0.2335 -0.5056
 5789TIP3    H139002   2.684   1.022   3.044 -1.0916 -0.1335  0.6958
 5789TIP3    H239003   2.621   0.895   2.992 -0.9072 -0.0006  0.1317
 5790TIP3   OH239004   6.134   3.964   8.496  0.9725  0.4347 -0.1025
 5790TIP3    H139005   6.047   3.931   8.474  0.0438  1.0264  2.2973
 5790TIP3    H239006   6.141   4.047   8.449  0.1594  0.4514 -0.2073
 5791TIP3   OH239007   0.536   4.819   8.648  0.1273  0.7055 -0.0402
 5791TIP3    H139008   0.563   4.910   8.658  0.7745  0.5480 -0.3284
 5791TIP3    H239009   0.510   4.811   8.556 -0.1514  0.6575  0.0419
 5792TIP3   OH239010   5.447   2.090   2.451  0.0551  0.1543  0.1557
 5792TIP3    H139011   5.390   2.062   2.522  0.4875  1.8570  1.2490
 5792TIP3    H239012   5.410   2.050   2.373 -0.7891 -1.2892  1.2453
 5793TIP3   OH239013   1.260   5.379   1.580  0.2678 -0.0205 -0.6121
 5793TIP3    H139014   1.352   5.364   1.558  0.3147 -0.7032 -0.0030
 5793TIP3    H239015   1.225   5.291   1.595 -0.7081  0.1733 -1.6744
 5794TIP3   OH239016   0.804   1.074   2.109  0.3740 -0.3029  0.2407
 5794TIP3    H139017   0.864   1.004   2.134 -0.3128 -1.3728 -0.9568
 5794TIP3    H239018   0.788   1.122   2.190 -0.2501 -2.3905  1.4305
 5795TIP3   OH239019   3.802   4.907   8.449 -0.1739  0.2447  0.1999
 5795TIP3    H139020   3.747   4.983   8.432 -0.3376  0.0916  0.0386
 5795TIP3    H239021   3.861   4.902   8.374  0.0701  0.4173  0.3793
 5796TIP3   OH239022   2.316   0.237   8.010 -0.6207 -0.2247  0.2311
 5796TIP3    H139023   2.376   0.312   8.012 -0.0706 -0.5858 -1.2932
 5796TIP3    H239024   2.365   0.169   7.964 -1.2163 -1.4526  1.3546
 5797TIP3   OH239025   4.388   4.413   1.340  0.2884 -0.3513 -0.2735
 5797TIP3    H139026   4.427   4.455   1.416 -0.2442  1.1091 -0.7736
 5797TIP3    H239027   4.318   4.358   1.376 -1.5474  2.1356  0.2136
 5798TIP3   OH239028   0.120   0.157   2.527  0.4991 -0.6524 -0.3024
 5798TIP3    H139029   0.152   0.205   2.450  1.1900  0.7294  0.7967
 5798TIP3    H239030   0.194   0.101   2.552  0.6475 -0.3676 -0.0857
 5799TIP3   OH239031   2.010   6.466   7.257  0.2108  0.7432  0.3326
 5799TIP3    H139032   1.919   6.481   7.234 -0.1586 -1.9808 -0.3757
 5799TIP3    H239033   2.057   6.474   7.174  0.1881 -0.4378  0.1886
 5800TIP3   OH239034   4.001   2.739   2.248  0.3394  0.1469  0.1511
 5800TIP3    H139035   4.067   2.697   2.193 -0.1626 -0.4510 -0.0082
 5800TIP3    H239036   4.030   2.722   2.337  0.5655  0.1536  0.0794
 5801TIP3   OH239037   1.968   3.221   1.405 -0.1296  0.0088  0.1183
 5801TIP3    H139038   1.887   3.269   1.388 -0.9857 -1.4139 -0.0545
 5801TIP3    H239039   2.037   3.273   1.364 -0.8860  1.4536  0.5968
 5802TIP3   OH239040   1.487   5.720   7.824  0.8206  0.4749 -0.0329
 5802TIP3    H139041   1.419   5.759   7.769 -1.2522 -1.8266  0.6673
 5802TIP3    H239042   1.551   5.686   7.762 -1.0100 -1.2698 -1.1161
 5803TIP3   OH239043   5.041   6.885   0.838  0.3816  0.7257  0.2203
 5803TIP3    H139044   5.062   6.825   0.909  0.6053  0.6195  0.0680
 5803TIP3    H239045   5.058   6.835   0.758 -0.2193  0.7206  0.0889
 5804TIP3   OH239046   3.568   2.147   7.372  0.5058 -0.0587  0.2685
 5804TIP3    H139047   3.525   2.073   7.329  0.0072  1.3970 -1.8968
 5804TIP3    H239048   3.647   2.109   7.411 -0.0256 -1.8329 -0.2733
 5805TIP3   OH239049   4.866   6.329   0.022  0.0252  0.1136  0.1756
 5805TIP3    H139050   4.914   6.334  -0.061  1.4140 -0.1223  0.9389
 5805TIP3    H239051   4.924   6.280   0.081 -1.2370 -0.3339  1.0894
 5806TIP3   OH239052   2.834   6.107   1.629 -0.1274 -0.4632 -0.5314
 5806TIP3    H139053   2.821   6.058   1.548  1.2664 -0.7802 -0.5831
 5806TIP3    H239054   2.776   6.065   1.692 -0.2484 -1.0466 -1.0216
 5807TIP3   OH239055   1.037   1.683   0.816 -0.3616 -0.1965  0.1415
 5807TIP3    H139056   1.131   1.689   0.832 -0.7873  0.1131  2.9922
 5807TIP3    H239057   1.030   1.628   0.738  2.2275  2.3354 -2.0837
 5808TIP3   OH239058   5.629   3.317   0.646  0.2738  0.3999  0.1164
 5808TIP3    H139059   5.668   3.399   0.675  2.2021 -0.1708 -0.6733
 5808TIP3    H239060   5.698   3.252   0.658 -1.1292 -1.0922  0.5263
 5809TIP3   OH239061   0.929   1.048   2.529 -0.2823 -0.0095  0.5448
 5809TIP3    H139062   1.009   1.000   2.550 -1.1719 -1.0723  1.6379
 5809TIP3    H239063   0.937   1.130   2.577  0.2651  0.0156  0.4230
 5810TIP3   OH239064   6.676   5.155   0.632  0.1245  0.4603 -0.1301
 5810TIP3    H139065   6.655   5.073   0.676  0.4896  0.9049  0.9270
 5810TIP3    H239066   6.608   5.165   0.565 -1.0993  0.2684  1.0351
 5811TIP3   OH239067   0.952   5.125   3.035 -0.0115  0.5299  0.4388
 5811TIP3    H139068   1.000   5.068   2.975 -1.2064  0.6695 -0.7047
 5811TIP3    H239069   0.964   5.213   2.999 -0.6924  0.6186  0.4146
 5812TIP3   OH239070   0.112   1.146   7.469  0.7829  0.4027  0.2846
 5812TIP3    H139071   0.187   1.187   7.511  1.8384 -0.2864 -0.8665
 5812TIP3    H239072   0.089   1.073   7.527  0.6584  0.9415  0.9169
 5813TIP3   OH239073   3.039   4.987   1.122 -0.5039 -0.1153  0.7810
 5813TIP3    H139074   3.030   5.070   1.075  0.4618 -0.8978 -0.8628
 5813TIP3    H239075   3.130   4.987   1.153  0.0490 -1.2951 -0.7485
 5814TIP3   OH239076   5.596   4.089   0.895 -0.4726 -0.1130  0.0662
 5814TIP3    H139077   5.605   4.147   0.820 -0.6680 -0.1405  0.0206
 5814TIP3    H239078   5.682   4.090   0.937 -0.2084 -0.4900 -0.4462
 5815TIP3   OH239079   2.996   1.817   2.997 -0.2520  0.1294  0.4024
 5815TIP3    H139080   2.902   1.836   2.998 -0.4566 -0.7413 -0.6376
 5815TIP3    H239081   3.004   1.733   2.951  1.0111  0.0295  0.7519
 5816TIP3   OH239082   6.489   4.723   1.350 -0.5770  0.2446 -0.1131
 5816TIP3    H139083   6.442   4.659   1.296  0.4746 -1.4230  0.8636
 5816TIP3    H239084   6.581   4.706   1.331 -0.2682  2.1019 -0.4741
 5817TIP3   OH239085   0.535   4.813   6.591 -0.1735  0.4213  0.0451
 5817TIP3    H139086   0.532   4.734   6.646  0.1863  0.5175  0.2059
 5817TIP3    H239087   0.522   4.885   6.653  1.0903  0.5857  0.1422
 5818TIP3   OH239088   5.078   2.936   8.439  0.2356 -0.1582  0.0457
 5818TIP3    H139089   5.138   2.980   8.500 -0.6625  0.2192  0.6832
 5818TIP3    H239090   5.001   2.915   8.493  0.1608 -1.4467 -0.5334
 5819TIP3   OH239091   4.420   2.266   7.257 -0.2793  0.2725 -0.0143
 5819TIP3    H139092   4.364   2.226   7.190 -0.2540  0.2159 -0.0016
 5819TIP3    H239093   4.499   2.292   7.211 -1.5014  3.1458 -0.6962
 5820TIP3   OH239094   4.268   4.038   3.562  0.0765 -0.0797 -0.0411
 5820TIP3    H139095   4.181   4.073   3.545  0.8764  1.5605 -1.0553
 5820TIP3    H239096   4.319   4.114   3.591  1.1084 -1.0579  0.8179
 5821TIP3   OH239097   2.211   2.229   0.948 -0.2371  0.0964  0.2209
 5821TIP3    H139098   2.293   2.278   0.945  0.1576 -0.1547  3.5269
 5821TIP3    H239099   2.145   2.295   0.973 -0.7233 -0.0890 -0.5243
 5822TIP3   OH239100   3.473   0.048   8.424 -0.0057 -0.0296 -0.7391
 5822TIP3    H139101   3.466   0.008   8.511 -0.7206 -1.6310 -1.4970
 5822TIP3    H239102   3.441   0.138   8.437 -0.6465 -0.4119  0.5432
 5823TIP3   OH239103   2.776   1.056   7.890  0.5111 -0.0149 -0.2365
 5823TIP3    H139104   2.816   1.079   7.806  1.2335 -0.4283 -0.0208
 5823TIP3    H239105   2.836   0.992   7.928  0.2381  0.2310  0.6356
 5824TIP3   OH239106   5.161   2.190   1.752  0.0958 -0.1260 -0.4292
 5824TIP3    H139107   5.120   2.217   1.670 -0.1765  0.7171 -0.0295
 5824TIP3    H239108   5.165   2.095   1.747 -0.0170 -0.0915 -1.3684
 5825TIP3   OH239109   6.307   2.560   0.193 -0.1024 -0.1648  0.1674
 5825TIP3    H139110   6.373   2.538   0.127 -0.2026 -0.3880  0.1425
 5825TIP3    H239111   6.224   2.543   0.150 -0.2948  2.6009 -0.7452
 5826TIP3   OH239112   1.389   4.543   1.248  0.3372  0.0296 -0.8423
 5826TIP3    H139113   1.461   4.607   1.253  0.4282 -0.0328 -1.3320
 5826TIP3    H239114   1.430   4.460   1.272 -0.0223  0.3113  0.9503
 5827TIP3   OH239115   2.454   0.667   1.033  0.5679  0.1759 -0.4166
 5827TIP3    H139116   2.389   0.691   1.100 -0.8696 -1.2660 -1.2350
 5827TIP3    H239117   2.432   0.723   0.958  1.6259  1.1614 -0.0281
 5828TIP3   OH239118   4.761   4.931   1.453 -0.2244 -0.0000  0.2709
 5828TIP3    H139119   4.855   4.937   1.439 -0.2102 -1.9312 -0.9299
 5828TIP3    H239120   4.729   5.020   1.442  1.3877  0.6054  0.1844
 5829TIP3   OH239121   1.006   4.216   6.592  0.0220  0.4945  0.3193
 5829TIP3    H139122   0.943   4.266   6.644 -1.6281 -0.7943 -0.3595
 5829TIP3    H239123   0.957   4.139   6.563  2.2305 -1.1312  0.6587
 5830TIP3   OH239124   4.552   1.327   8.227 -0.0060 -0.2268  0.6770
 5830TIP3    H139125   4.475   1.321   8.170  0.4409  1.2471 -0.1160
 5830TIP3    H239126   4.517   1.321   8.315 -1.1367  1.0822  0.3528
 5831TIP3   OH239127   1.178   0.836   2.353 -0.5169  0.2136  0.0291
 5831TIP3    H139128   1.231   0.891   2.411 -1.6273 -0.7575  2.0605
 5831TIP3    H239129   1.180   0.750   2.394 -2.0902 -0.2995 -0.9075
 5832TIP3   OH239130   0.569   1.480   2.161  0.3700  0.3231  0.5921
 5832TIP3    H139131   0.528   1.412   2.215 -1.4446  1.7781  1.1200
 5832TIP3    H239132   0.586   1.552   2.222  3.2483  0.0687  0.2708
 5833TIP3   OH239133   2.727   0.781   3.327  0.1013  0.0855 -0.1471
 5833TIP3    H139134   2.646   0.775   3.276 -0.5546  0.3955  0.8399
 5833TIP3    H239135   2.741   0.692   3.360  0.8414 -0.2522 -1.3077
 5834TIP3   OH239136   4.118   4.677   8.634 -0.2421 -0.0904 -0.2147
 5834TIP3    H139137   4.123   4.640   8.546  0.8568 -3.3941  1.1207
 5834TIP3    H239138   4.060   4.618   8.681  0.2295  0.8628  1.6297
 5835TIP3   OH239139   1.346   0.107   8.129 -0.1751  0.0049  0.2523
 5835TIP3    H139140   1.283   0.154   8.185  0.6766  0.6782  0.6706
 5835TIP3    H239141   1.319   0.128   8.040 -0.2521  0.7004  0.4344
 5836TIP3   OH239142   1.727   5.756   2.275  0.1525 -0.5854  0.0139
 5836TIP3    H139143   1.687   5.835   2.310  2.3994  0.7551 -0.2714
 5836TIP3    H239144   1.713   5.761   2.181 -0.8288 -1.2413  0.1024
 5837TIP3   OH239145   4.218   3.674   2.886  0.3230 -0.6920  0.1034
 5837TIP3    H139146   4.218   3.762   2.924 -0.1665 -0.6944  0.1144
 5837TIP3    H239147   4.266   3.620   2.948 -0.2959 -0.6551  0.6163
 5838TIP3   OH239148   0.577   5.314   3.010 -0.0380 -0.4116  0.1666
 5838TIP3    H139149   0.614   5.398   3.036  1.5906 -0.8807 -0.5211
 5838TIP3    H239150   0.527   5.334   2.931  0.0199 -0.0194  0.2270
 5839TIP3   OH239151   2.690   4.041   1.792  0.1300 -0.4808  0.2128
 5839TIP3    H139152   2.622   3.993   1.744 -0.7317  0.2208  0.7082
 5839TIP3    H239153   2.745   3.972   1.831 -1.5302 -1.1253  1.5287
 5840TIP3   OH239154   1.571   4.689   8.513 -0.0436  0.0983 -0.0474
 5840TIP3    H139155   1.562   4.778   8.480  0.2374 -0.3843 -1.4825
 5840TIP3    H239156   1.491   4.644   8.485  0.3915 -0.4383 -0.4572
 5841TIP3   OH239157   1.945   4.553   6.313 -0.0566  0.1812  0.0885
 5841TIP3    H139158   1.912   4.527   6.400 -2.3326 -1.2304 -1.1025
 5841TIP3    H239159   1.949   4.471   6.264  0.4863  1.0616 -1.3859
 5842TIP3   OH239160   5.245   0.788   8.521  0.0904 -0.1169  0.2364
 5842TIP3    H139161   5.172   0.728   8.506 -0.0932 -0.3553  1.8373
 5842TIP3    H239162   5.204   0.869   8.553  0.4007  0.5579 -1.0073
 5843TIP3   OH239163   4.253   5.610   0.286 -1.0252  0.4725  0.6867
 5843TIP3    H139164   4.328   5.664   0.261  0.2785 -0.5421  2.2603
 5843TIP3    H239165   4.184   5.636   0.224  0.0830  2.6209  0.2517
 5844TIP3   OH239166   4.584   4.903   0.234  0.2536  0.7292  0.0462
 5844TIP3    H139167   4.566   4.822   0.281 -1.1267  1.3650  0.6622
 5844TIP3    H239168   4.508   4.958   0.250  0.6389  1.7276 -1.3110
 5845TIP3   OH239169   3.189   6.045   8.629 -0.0340 -0.2790 -0.4875
 5845TIP3    H139170   3.105   5.999   8.619 -0.2769  0.0640 -0.0739
 5845TIP3    H239171   3.218   6.023   8.717 -0.8680  1.4867  0.2819
 5846TIP3   OH239172   3.897   1.820   3.202  0.6908  0.0010 -0.4723
 5846TIP3    H139173   3.927   1.904   3.168  3.2667 -0.5876  0.0740
 5846TIP3    H239174   3.899   1.762   3.126 -0.7418  0.3252 -0.7757
 5847TIP3   OH239175   3.156   3.333   8.276 -0.3904  0.2141  0.1552
 5847TIP3    H139176   3.131   3.261   8.334 -0.5422 -0.1523 -0.3555
 5847TIP3    H239177   3.247   3.352   8.299 -0.0464 -0.7889 -0.3685
 5848TIP3   OH239178   3.414   1.592   0.226  1.0982 -0.3808 -0.6860
 5848TIP3    H139179   3.346   1.624   0.167  0.1749 -1.9893 -0.5503
 5848TIP3    H239180   3.440   1.669   0.277  1.3665  0.8696 -2.6222
 5849TIP3   OH239181   6.126   3.131   8.299  0.1760 -0.0176 -0.7277
 5849TIP3    H139182   6.106   3.218   8.333 -1.0200 -1.0601  1.5012
 5849TIP3    H239183   6.222   3.126   8.300  0.2473  1.1608 -0.6357
 5850TIP3   OH239184   4.087   2.637   1.990  0.1141  0.2170 -0.3179
 5850TIP3    H139185   4.140   2.562   1.964  1.0218  0.4728  0.6750
 5850TIP3    H239186   4.121   2.709   1.937 -0.5258  0.0062 -1.0262
 5851TIP3   OH239187   0.466   1.568   0.957  0.0682 -0.1877 -0.5343
 5851TIP3    H139188   0.399   1.636   0.964  0.5165  0.4141 -1.7819
 5851TIP3    H239189   0.443   1.520   0.878 -0.3045 -1.5831  0.4009
 5852TIP3   OH239190   3.374   5.915   7.257  0.4311 -0.2476  0.2941
 5852TIP3    H139191   3.316   5.952   7.191 -0.3994  0.1743  1.2450
 5852TIP3    H239192   3.379   5.981   7.325  0.6032 -1.0293  1.0516
 5853TIP3   OH239193   5.448   2.243   8.520  0.4631 -0.2592 -0.1671
 5853TIP3    H139194   5.536   2.214   8.546  0.6001 -1.1294 -1.4891
 5853TIP3    H239195   5.437   2.327   8.563  1.6207 -0.5197  0.6934
 5854TIP3   OH239196   3.047   4.113   8.253 -0.1550  0.1435 -0.1026
 5854TIP3    H139197   2.980   4.175   8.283  0.1309  0.9178 -0.9793
 5854TIP3    H239198   3.013   4.081   8.169 -0.6054 -1.4099  0.6453
 5855TIP3   OH239199   5.017   4.651   1.432  0.0774 -0.2530  0.0784
 5855TIP3    H139200   4.993   4.729   1.383  0.0943 -1.3385 -1.7743
 5855TIP3    H239201   4.956   4.583   1.402  0.3574 -1.0797  1.2762
 5856TIP3   OH239202   6.705   4.458   7.421  0.4127  0.0582  0.2007
 5856TIP3    H139203   6.773   4.521   7.397  1.9518 -0.9907  1.6041
 5856TIP3    H239204   6.752   4.375   7.433 -1.3539 -1.0806 -0.2880
 5857TIP3   OH239205   5.694   4.958   1.256  0.3320  0.1043 -0.4579
 5857TIP3    H139206   5.696   4.865   1.233  2.8947  0.4630 -1.9903
 5857TIP3    H239207   5.608   4.988   1.226  0.4251 -1.2626 -2.2574
 5858TIP3   OH239208   2.407   1.031   7.691 -0.0150  0.7780  0.8856
 5858TIP3    H139209   2.466   0.971   7.646 -1.5157 -0.0977  0.0280
 5858TIP3    H239210   2.419   1.115   7.647 -0.9798  0.0924 -0.7862
 5859TIP3   OH239211   5.585   3.349   0.164 -0.2534  0.4051  0.3234
 5859TIP3    H139212   5.546   3.430   0.197 -0.8426  0.2545  0.0200
 5859TIP3    H239213   5.676   3.372   0.145 -0.4079  0.9881  0.2576
 5860TIP3   OH239214   5.056   4.402   3.372 -0.4790 -0.1590 -0.0980
 5860TIP3    H139215   5.072   4.309   3.354  0.8840 -0.2104  1.1745
 5860TIP3    H239216   5.138   4.445   3.348 -1.4712  0.8980 -1.6980
 5861TIP3   OH239217   6.196   4.810   2.154  0.0315 -0.2978  0.1007
 5861TIP3    H139218   6.193   4.864   2.233  0.7528  0.0931 -0.1327
 5861TIP3    H239219   6.161   4.725   2.181 -0.9692  0.2301  0.5129
 5862TIP3   OH239220   5.374   3.210   7.974 -0.3895  0.5823 -0.0843
 5862TIP3    H139221   5.279   3.215   7.968 -0.7351  0.9147  3.3118
 5862TIP3    H239222   5.397   3.276   8.041  2.3374  1.0956 -1.3747
 5863TIP3   OH239223   0.524   2.041   7.690  0.1740 -0.3937  0.3825
 5863TIP3    H139224   0.479   2.046   7.774 -1.4251 -1.5372 -0.3644
 5863TIP3    H239225   0.495   2.118   7.642  0.5352 -0.1143  0.6090
 5864TIP3   OH239226   2.344   6.430   1.415  0.0699  0.2300  0.3486
 5864TIP3    H139227   2.378   6.342   1.401 -1.2685  0.0118 -1.9539
 5864TIP3    H239228   2.412   6.487   1.379  0.5038  0.1115  0.9615
 5865TIP3   OH239229   2.260   1.070   0.083 -0.0916  0.1719  0.3550
 5865TIP3    H139230   2.324   1.001   0.063  0.9853  1.1113  0.4322
 5865TIP3    H239231   2.195   1.062   0.013  0.5036 -0.3499 -0.1638
 5866TIP3   OH239232   1.750   1.434   8.330  0.1699 -0.4114 -0.0117
 5866TIP3    H139233   1.842   1.446   8.308  0.1293  1.5334  0.7181
 5866TIP3    H239234   1.705   1.433   8.246  0.5275  1.9602 -0.2744
 5867TIP3   OH239235   4.275   6.378   1.996  0.0957 -0.7261  0.1443
 5867TIP3    H139236   4.197   6.324   2.013 -3.1501  3.5641  0.7314
 5867TIP3    H239237   4.264   6.408   1.906  2.3877 -1.6862 -0.5336
 5868TIP3   OH239238   0.772   0.717   8.341  0.3050  0.2582  0.1514
 5868TIP3    H139239   0.735   0.799   8.308 -1.9660 -0.0319  1.7278
 5868TIP3    H239240   0.787   0.733   8.434  1.4342 -0.6275  0.1491
 5869TIP3   OH239241   2.594   0.999   0.184 -0.3346 -0.0372 -0.2306
 5869TIP3    H139242   2.661   1.060   0.153  0.9297 -0.8989  0.7096
 5869TIP3    H239243   2.543   0.978   0.106  0.4644  0.6769 -0.9719
 5870TIP3   OH239244   6.397   6.615   2.335  0.1642  0.5635  0.4766
 5870TIP3    H139245   6.365   6.646   2.419  0.2005  2.4821 -0.1672
 5870TIP3    H239246   6.361   6.526   2.327  0.7525  0.0483  2.7885
 5871TIP3   OH239247   4.362   0.299   8.544  0.0741 -0.4113  0.2292
 5871TIP3    H139248   4.417   0.221   8.549  0.9778  0.0058 -1.9808
 5871TIP3    H239249   4.398   0.348   8.470 -1.7203  1.1205  0.3200
 5872TIP3   OH239250   4.872   3.247   0.031 -0.0848 -0.2726 -0.1046
 5872TIP3    H139251   4.854   3.252   0.125  0.4204 -2.3663  0.1568
 5872TIP3    H239252   4.786   3.244  -0.010 -0.3071  0.6405  0.2888
 5873TIP3   OH239253   4.683   2.803   3.226 -0.5541  0.5625  0.4718
 5873TIP3    H139254   4.600   2.770   3.194 -0.8320  1.6832 -0.0355
 5873TIP3    H239255   4.737   2.725   3.239 -0.3561 -0.0164 -2.9542
 5874TIP3   OH239256   1.110   6.295   2.219 -0.5508 -0.5181 -0.3612
 5874TIP3    H139257   1.151   6.272   2.135 -0.2594 -0.2488 -0.2906
 5874TIP3    H239258   1.182   6.325   2.274 -0.8535  0.0695 -0.2781
 5875TIP3   OH239259   4.907   5.878   1.748 -0.5321 -0.1244  0.1824
 5875TIP3    H139260   4.906   5.812   1.816 -1.7474 -0.1735  0.1298
 5875TIP3    H239261   4.985   5.931   1.767  1.5657 -2.6028 -0.8248
 5876TIP3   OH239262   1.716   3.269   7.218  0.3188 -0.6598  0.2848
 5876TIP3    H139263   1.794   3.305   7.261 -0.4604  0.7284  0.5773
 5876TIP3    H239264   1.733   3.174   7.213  1.7556 -0.4530  0.8712
 5877TIP3   OH239265   6.307   6.506   2.050 -0.5061  0.7529  0.2153
 5877TIP3    H139266   6.222   6.465   2.037  0.1817 -0.3825 -0.8542
 5877TIP3    H239267   6.344   6.460   2.125 -0.7549  1.1548  0.5945
 5878TIP3   OH239268   0.109   2.073   0.759  0.1685  0.2694 -0.9664
 5878TIP3    H139269   0.056   2.035   0.830 -0.2722  2.5942  0.0340
 5878TIP3    H239270   0.051   2.073   0.683 -0.9424  1.7592 -0.1663
 5879TIP3   OH239271   1.431   1.726   2.338 -0.6009 -0.3683 -0.5302
 5879TIP3    H139272   1.356   1.783   2.323 -0.7402 -0.8202 -1.6236
 5879TIP3    H239273   1.417   1.652   2.280  0.9857 -0.1769 -1.2065
 5880TIP3   OH239274   6.217   1.237   2.131  0.2273  0.3559  0.2719
 5880TIP3    H139275   6.207   1.154   2.178 -1.0627  1.0059  1.1812
 5880TIP3    H239276   6.299   1.226   2.082  1.4565 -0.4692  2.3910
 5881TIP3   OH239277   2.771   5.843   8.186  0.3003  0.0026 -0.0552
 5881TIP3    H139278   2.706   5.777   8.209  1.6819 -1.4646 -0.1577
 5881TIP3    H239279   2.752   5.866   8.095  0.9247 -1.7056 -0.6605
 5882TIP3   OH239280   3.756   3.974   1.019 -0.4809 -0.3150 -0.2054
 5882TIP3    H139281   3.690   4.043   1.013 -0.9293 -0.7723 -0.5130
 5882TIP3    H239282   3.838   4.018   0.999 -0.7145  0.2116 -0.0248
 5883TIP3   OH239283   2.754   5.870   1.741  0.1316 -0.2353 -0.5169
 5883TIP3    H139284   2.757   5.924   1.820 -2.5252  1.9409 -1.7405
 5883TIP3    H239285   2.678   5.813   1.754 -1.6070  1.5719 -2.2431
 5884TIP3   OH239286   2.029   1.283   2.391  0.3578  0.8425  0.1248
 5884TIP3    H139287   2.101   1.297   2.330  0.1172  2.0249  0.0869
 5884TIP3    H239288   2.062   1.217   2.452  0.7317 -0.0900 -1.0504
 5885TIP3   OH239289   3.970   3.537   8.647 -0.4519  0.2673 -0.1723
 5885TIP3    H139290   3.931   3.601   8.706 -0.2617  0.4507 -0.2451
 5885TIP3    H239291   3.901   3.517   8.584 -0.6354  0.1162  0.0755
 5886TIP3   OH239292   4.901   6.167   7.726 -0.2563 -0.3100 -0.1612
 5886TIP3    H139293   4.959   6.193   7.798 -2.4091 -0.7234  1.8520
 5886TIP3    H239294   4.916   6.233   7.658  0.4574  1.2943  1.4632
 5887TIP3   OH239295   0.859   1.302   8.232 -0.1908 -0.1862  0.3600
 5887TIP3    H139296   0.803   1.308   8.154  0.9379  3.0770 -0.3747
 5887TIP3    H239297   0.811   1.350   8.300  0.3035 -0.0794  0.6414
 5888TIP3   OH239298   1.680   0.247   8.647 -0.1370  0.4681  0.2046
 5888TIP3    H139299   1.613   0.212   8.706 -0.1982 -0.1942 -0.2452
 5888TIP3    H239300   1.676   0.341   8.659  0.0842  0.3233  1.5049
 5889TIP3   OH239301   1.198   6.076   1.750 -0.0508 -0.2312  0.6931
 5889TIP3    H139302   1.244   6.025   1.683  0.8931 -0.1354  1.2582
 5889TIP3    H239303   1.111   6.092   1.712  0.4381 -0.2563 -0.4646
 5890TIP3   OH239304   6.146   4.023   1.763 -0.4629  0.4545 -0.7044
 5890TIP3    H139305   6.103   4.099   1.802  1.7431  0.4952  1.9330
 5890TIP3    H239306   6.102   3.948   1.803  0.4387  0.4649  0.3460
 5891TIP3   OH239307   3.178   0.585   1.554 -0.1726  0.4888  0.1370
 5891TIP3    H139308   3.088   0.615   1.559 -0.9544 -1.6474 -0.1636
 5891TIP3    H239309   3.177   0.515   1.488  1.9407  1.1807 -0.7327
 5892TIP3   OH239310   1.700   3.688   8.283  0.0340 -0.2314  0.1178
 5892TIP3    H139311   1.622   3.732   8.250  0.3125  1.6391  1.7467
 5892TIP3    H239312   1.722   3.624   8.216 -0.5570  1.9629 -2.3222
 5893TIP3   OH239313   4.981   2.709   1.427 -0.1510  0.3818  0.3225
 5893TIP3    H139314   5.043   2.675   1.491 -1.2277 -2.9731 -0.2393
 5893TIP3    H239315   5.011   2.675   1.343  0.3477  3.4110 -0.8579
 5894TIP3   OH239316   5.864   2.027   1.935  0.0718  0.5983 -0.5141
 5894TIP3    H139317   5.890   2.067   2.018  2.4651 -1.4478 -0.1873
 5894TIP3    H239318   5.894   2.089   1.869 -0.4982  1.5307  0.0677
 5895TIP3   OH239319   6.259   2.420   0.987 -0.2289  0.2759  0.1342
 5895TIP3    H139320   6.290   2.412   0.896  0.5865  4.0286 -0.0850
 5895TIP3    H239321   6.339   2.420   1.039 -0.4975  0.8064  0.5512
 5896TIP3   OH239322   5.541   1.887   1.417  0.8606 -0.4916 -0.0746
 5896TIP3    H139323   5.527   1.971   1.374  0.7229 -0.5343 -0.1151
 5896TIP3    H239324   5.611   1.846   1.366  0.9794 -0.3694 -0.0084
 5897TIP3   OH239325   4.059   5.526   7.589 -0.2833  0.3710 -0.0981
 5897TIP3    H139326   4.065   5.442   7.634 -0.3819 -0.0192 -0.8060
 5897TIP3    H239327   3.966   5.539   7.574 -0.1259 -1.4270 -3.6948
 5898TIP3   OH239328   4.056   0.159   8.275 -0.2129  0.5514  0.4047
 5898TIP3    H139329   4.127   0.139   8.214  1.2507  3.1801  1.0758
 5898TIP3    H239330   4.079   0.114   8.356 -3.0587 -4.4531 -1.1418
 5899TIP3   OH239331   4.771   1.339   0.076  0.7627 -0.1352  0.5314
 5899TIP3    H139332   4.813   1.316  -0.007 -0.8285  2.9050 -1.2810
 5899TIP3    H239333   4.829   1.404   0.116  0.0165  0.6960  0.2702
 5900TIP3   OH239334   0.537   4.118   8.069 -0.3968  0.1375 -0.1022
 5900TIP3    H139335   0.521   4.042   8.013 -2.5399  0.3243  0.1838
 5900TIP3    H239336   0.480   4.187   8.034 -2.3391  0.0728  2.6159
 5901TIP3   OH239337   5.585   6.405   0.110  0.0757  0.1456  0.4193
 5901TIP3    H139338   5.614   6.472   0.172 -1.8933 -0.2141  1.8178
 5901TIP3    H239339   5.593   6.446   0.024 -1.0210  2.1739  1.2351
 5902TIP3   OH239340   3.321   2.593   0.381  0.2738 -0.2290 -0.7717
 5902TIP3    H139341   3.396   2.568   0.326 -0.0538 -0.0954 -1.2865
 5902TIP3    H239342   3.356   2.592   0.470  0.5607 -1.4029 -0.8796
 5903TIP3   OH239343   6.482   6.331   1.653 -0.1583  0.4926  0.0406
 5903TIP3    H139344   6.455   6.414   1.614  0.3761  0.6766  0.0488
 5903TIP3    H239345   6.493   6.351   1.746  1.0937  0.7180 -0.1347
 5904TIP3   OH239346   2.119   3.573   8.380  0.4365  0.5990  0.3789
 5904TIP3    H139347   2.048   3.584   8.316  2.2812 -0.2120 -1.9600
 5904TIP3    H239348   2.075   3.546   8.460 -1.8051 -2.4621 -1.6679
 5905TIP3   OH239349   5.025   2.418   0.942  0.0126 -0.1213  0.4318
 5905TIP3    H139350   5.071   2.496   0.910 -0.1316 -0.5083 -0.7380
 5905TIP3    H239351   4.939   2.423   0.902 -0.3506 -0.3715  1.1568
 5906TIP3   OH239352   4.795   0.304   3.147 -0.3371  0.1275  0.3741
 5906TIP3    H139353   4.881   0.346   3.148 -0.5440  0.5535  0.8858
 5906TIP3    H239354   4.739   0.365   3.097  0.1094 -1.1025 -1.7376
 5907TIP3   OH239355   2.858   5.386   2.253  0.2937 -0.2669  0.4254
 5907TIP3    H139356   2.904   5.469   2.242  0.0710 -0.1470  0.3827
 5907TIP3    H239357   2.778   5.396   2.201  1.4347 -1.4535 -1.6728
 5908TIP3   OH239358   0.462   1.627   1.661  0.3221  0.3914 -0.3497
 5908TIP3    H139359   0.418   1.571   1.597  0.2621  0.1193 -0.0737
 5908TIP3    H239360   0.554   1.602   1.655 -0.1030 -2.4065  2.3276
 5909TIP3   OH239361   2.585   4.979   7.848  0.4386  0.1354 -0.3166
 5909TIP3    H139362   2.574   5.022   7.764 -0.7380  0.2082 -0.1443
 5909TIP3    H239363   2.633   5.042   7.901 -0.2078  0.7530 -0.4488
 5910TIP3   OH239364   6.441   0.372   0.242  0.1620 -0.2460  0.1133
 5910TIP3    H139365   6.473   0.321   0.317  4.1340  1.4089 -0.1777
 5910TIP3    H239366   6.426   0.459   0.277 -0.9998 -0.2125 -0.4466
 5911TIP3   OH239367   0.052   3.150   1.973  0.5773 -0.5471  0.2604
 5911TIP3    H139368   0.082   3.123   2.060 -1.3905 -2.2635  0.5001
 5911TIP3    H239369   0.113   3.108   1.912  1.6790  0.2690  0.7726
 5912TIP3   OH239370   6.739   6.752   1.818  0.2334 -0.2173  0.0844
 5912TIP3    H139371   6.670   6.716   1.874  0.2583  1.6711  1.4362
 5912TIP3    H239372   6.818   6.703   1.841  0.2348  0.4970  1.7567
 5913TIP3   OH239373   1.856   0.935   8.337 -0.2344 -0.7527  0.2958
 5913TIP3    H139374   1.792   0.969   8.399  1.6725  2.3149  0.7905
 5913TIP3    H239375   1.819   0.956   8.251 -0.4536 -0.0989  0.5422
 5914TIP3   OH239376   4.630   2.044   2.280  0.1717 -0.0846 -0.6661
 5914TIP3    H139377   4.549   2.033   2.330  0.3220 -1.5132 -0.6788
 5914TIP3    H239378   4.695   2.069   2.345  0.0215 -0.3332 -0.4165
 5915TIP3   OH239379   4.058   3.025   2.264  0.1901  0.7330 -0.0653
 5915TIP3    H139380   3.976   3.071   2.284  0.6011  1.0756  0.9189
 5915TIP3    H239381   4.030   2.937   2.238 -0.5039  0.8961  0.1074
 5916TIP3   OH239382   2.408   5.908   8.406  0.3314 -0.4600  0.1385
 5916TIP3    H139383   2.327   5.947   8.370 -0.1070 -2.5953 -1.3865
 5916TIP3    H239384   2.391   5.814   8.406  1.5451 -0.7634  3.1980
 5917TIP3   OH239385   1.107   2.742   7.591 -0.2139 -0.4421  0.1628
 5917TIP3    H139386   1.105   2.830   7.628  0.9832 -0.3493  0.0614
 5917TIP3    H239387   1.113   2.757   7.496 -0.7877 -0.6448  0.0933
 5918TIP3   OH239388   6.396   3.019   1.456 -0.3294 -0.6156 -0.6119
 5918TIP3    H139389   6.437   3.088   1.508 -0.8463  0.1150 -1.1450
 5918TIP3    H239390   6.398   2.941   1.512  2.2895 -0.7702 -0.8197
 5919TIP3   OH239391   1.490   1.053   7.664  0.2168 -0.1627 -0.1488
 5919TIP3    H139392   1.489   0.993   7.589  2.3199 -0.4863  0.0351
 5919TIP3    H239393   1.439   1.128   7.634  0.4500 -0.5678 -1.6689
 5920TIP3   OH239394   6.795   2.669   8.139  0.1183  0.5276 -0.2954
 5920TIP3    H139395   6.797   2.622   8.223  0.7736  3.3339  1.4168
 5920TIP3    H239396   6.703   2.666   8.113 -0.2496  0.2625  0.9523
 5921TIP3   OH239397   6.588   4.725   7.480  0.3774  0.6212  0.0880
 5921TIP3    H139398   6.609   4.632   7.488  1.3667  0.9315  1.5143
 5921TIP3    H239399   6.492   4.729   7.488  0.2843 -0.3115 -0.4745
 5922TIP3   OH239400   2.437   2.996   0.238 -0.6091  0.6646 -0.3746
 5922TIP3    H139401   2.457   3.064   0.173  0.9174 -0.2305 -0.9036
 5922TIP3    H239402   2.477   2.917   0.202  1.3427  0.3671  2.1945
 5923TIP3   OH239403   0.878   3.333   7.706 -0.2991  0.1753 -0.6514
 5923TIP3    H139404   0.822   3.409   7.720  2.2653  1.9105  1.0973
 5923TIP3    H239405   0.966   3.369   7.698  1.1660 -2.6404  1.0477
 5924TIP3   OH239406   6.149   2.424   7.704 -0.1088 -0.8907 -0.0588
 5924TIP3    H139407   6.100   2.365   7.762  0.5663  2.2596  4.2326
 5924TIP3    H239408   6.240   2.394   7.711 -0.0694 -0.6873  0.3725
 5925TIP3   OH239409   5.146   3.114   0.335 -0.3184  0.3884 -1.1840
 5925TIP3    H139410   5.134   3.195   0.386  0.4168 -0.3628  0.2410
 5925TIP3    H239411   5.238   3.118   0.307  0.2829 -0.8043  0.4914
 5926TIP3   OH239412   3.089   5.126   0.752 -0.5429  0.4444  0.7017
 5926TIP3    H139413   3.086   5.093   0.842  1.4009 -1.2023  0.2458
 5926TIP3    H239414   3.059   5.217   0.758  1.6546  1.1075  3.3784
 5927TIP3   OH239415   4.846   1.157   3.009 -0.3457  0.4498 -0.1429
 5927TIP3    H139416   4.774   1.096   2.996  0.4619 -0.5593 -0.0286
 5927TIP3    H239417   4.804   1.238   3.037 -1.4247 -0.1435  0.0128
 5928TIP3   OH239418   2.071   3.605   1.464  0.1479 -0.0966 -0.8942
 5928TIP3    H139419   2.112   3.584   1.381 -1.0344 -1.3341 -1.1982
 5928TIP3    H239420   1.977   3.588   1.451 -0.1016 -0.0889  0.5970
 5929TIP3   OH239421   3.135   3.179   2.008 -0.7120 -0.1357 -0.2697
 5929TIP3    H139422   3.207   3.152   1.951 -0.1532  1.4397 -0.3830
 5929TIP3    H239423   3.154   3.137   2.092  1.0575  1.1508  0.0581
 5930TIP3   OH239424   3.965   0.936   0.441  0.4504  0.4499 -0.5810
 5930TIP3    H139425   4.033   0.970   0.384 -0.4664  0.2730 -1.8272
 5930TIP3    H239426   3.935   1.011   0.492  2.0008  0.3940  0.4649
 5931TIP3   OH239427   5.393   0.369   0.100  0.2612  0.4485 -0.4376
 5931TIP3    H139428   5.443   0.444   0.134  1.1475 -0.4128  0.2323
 5931TIP3    H239429   5.321   0.358   0.162  2.1869 -1.4729  1.6773
 5932TIP3   OH239430   1.552   3.567   0.382  0.6032 -0.4035  0.8462
 5932TIP3    H139431   1.503   3.648   0.398 -1.2209 -0.8829 -1.7646
 5932TIP3    H239432   1.523   3.507   0.450  2.7555  1.2900  3.4921
 5933TIP3   OH239433   2.056   6.179   6.684  0.5290 -0.1784  0.3355
 5933TIP3    H139434   1.994   6.244   6.651  0.2998  0.0844  1.2413
 5933TIP3    H239435   2.022   6.095   6.652  0.3704  0.0713 -0.1622
 5934TIP3   OH239436   5.983   3.443   1.298 -0.2648 -0.0784  0.7604
 5934TIP3    H139437   5.924   3.384   1.251 -0.6316  0.9052 -0.0585
 5934TIP3    H239438   6.024   3.496   1.230  0.4913  0.2331  1.4327
 5935TIP3   OH239439   0.904   2.641   8.506 -0.3742  0.4308  0.3679
 5935TIP3    H139440   0.874   2.649   8.416  0.0746 -0.7112  0.1018
 5935TIP3    H239441   0.879   2.724   8.547 -2.8113  0.0328 -0.1510
 5936TIP3   OH239442   1.630   3.883   1.439  0.2079 -0.1086  0.9403
 5936TIP3    H139443   1.618   3.953   1.503 -0.0075  1.7824 -1.0413
 5936TIP3    H239444   1.544   3.871   1.400  0.8807  0.8643 -0.9738
 5937TIP3   OH239445   0.918   3.318   0.339  0.5072  0.0896 -0.9093
 5937TIP3    H139446   0.844   3.373   0.314  1.6563  2.8849  1.3226
 5937TIP3    H239447   0.877   3.241   0.380 -1.2387  1.8410  0.8378
 5938TIP3   OH239448   4.157   1.469   7.012  0.0540 -0.2971  0.0259
 5938TIP3    H139449   4.134   1.539   7.073 -1.3234 -0.6535 -0.0623
 5938TIP3    H239450   4.250   1.453   7.028  0.3036  1.2846  0.3086
 5939TIP3   OH239451   0.500   2.716   7.922 -0.0670 -0.2775 -0.0597
 5939TIP3    H139452   0.512   2.809   7.936 -0.4390 -0.1594 -0.4845
 5939TIP3    H239453   0.409   2.708   7.892  0.0541 -0.7386 -0.3126
 5940TIP3   OH239454   5.876   3.386   0.353 -0.0381 -0.4126 -0.2118
 5940TIP3    H139455   5.875   3.295   0.324 -0.3774 -0.5303  0.1667
 5940TIP3    H239456   5.968   3.411   0.348 -0.0647 -0.4703 -1.2545
 5941TIP3   OH239457   4.450   2.351   8.344 -0.2078  0.1911  0.4807
 5941TIP3    H139458   4.406   2.435   8.335 -0.9755 -0.2660 -0.1846
 5941TIP3    H239459   4.483   2.331   8.257  0.6428  0.1456  0.7985
 5942TIP3   OH239460   1.612   3.346   0.199 -0.3544 -0.5382  0.3723
 5942TIP3    H139461   1.525   3.323   0.165 -0.3391 -0.0345 -0.0307
 5942TIP3    H239462   1.595   3.406   0.271 -0.3317 -0.1556  0.0606
 5943TIP3   OH239463   3.093   1.179   0.056 -0.0664 -0.6411 -0.4752
 5943TIP3    H139464   3.016   1.123   0.062  0.6812 -1.7540 -0.9219
 5943TIP3    H239465   3.158   1.126   0.010  0.9160  0.3325 -0.2569
 5944TIP3   OH239466   3.648   0.231   8.002 -0.2185 -0.4227 -0.1385
 5944TIP3    H139467   3.655   0.167   7.931 -1.8048 -0.4557 -0.3094
 5944TIP3    H239468   3.557   0.224   8.032 -0.1903  1.1497  0.4207
 5945TIP3   OH239469   4.310   4.685   0.125  0.0330 -0.4832  0.0154
 5945TIP3    H139470   4.229   4.681   0.074  0.0553  1.1014 -0.1938
 5945TIP3    H239471   4.380   4.674   0.061  0.0241  0.1663 -0.1134
 5946TIP3   OH239472   4.351   0.827   0.530 -0.2942  0.4993 -0.1011
 5946TIP3    H139473   4.375   0.848   0.621  0.4756 -0.6241 -0.0355
 5946TIP3    H239474   4.269   0.778   0.539  0.8030 -1.3934  0.1808
 5947TIP3   OH239475   5.981   1.232   8.139  0.0420  0.3608  0.1287
 5947TIP3    H139476   5.898   1.238   8.185 -0.6609 -2.7111 -0.5352
 5947TIP3    H239477   5.994   1.139   8.124  2.4089  0.9039 -1.9835
 5948TIP3   OH239478   4.585   5.712   1.551  0.0632  0.4208  0.6068
 5948TIP3    H139479   4.580   5.626   1.594 -2.4327  0.1905  0.0196
 5948TIP3    H239480   4.612   5.771   1.621  0.4528 -0.6255  1.3797
 5949TIP3   OH239481   1.162   5.048   7.719 -0.4740  0.1560  0.2399
 5949TIP3    H139482   1.164   4.997   7.638  1.1429  1.0504 -0.3219
 5949TIP3    H239483   1.072   5.083   7.722 -1.0481 -1.1945 -0.3016
 5950TIP3   OH239484   2.019   6.854   0.468 -0.3901 -0.7180 -0.7047
 5950TIP3    H139485   1.932   6.864   0.430 -0.2744 -1.5820 -1.2243
 5950TIP3    H239486   2.003   6.819   0.556 -0.7127  2.2352  0.5379
 5951TIP3   OH239487   1.391   6.584   1.335  0.9657  0.6502  0.2834
 5951TIP3    H139488   1.433   6.648   1.277 -0.4134  0.5814 -0.8213
 5951TIP3    H239489   1.326   6.540   1.280  0.4512 -0.2543  1.5745
 5952TIP3   OH239490   2.923   5.239   1.410 -0.6444  0.4701  0.2784
 5952TIP3    H139491   2.994   5.302   1.421 -1.1667  1.0713  0.2711
 5952TIP3    H239492   2.886   5.259   1.324 -1.3340  0.6962  0.6175
 5953TIP3   OH239493   1.572   5.107   0.075 -0.3668 -0.1190  0.0314
 5953TIP3    H139494   1.510   5.180   0.080 -0.1593  0.6127 -4.3237
 5953TIP3    H239495   1.656   5.149   0.056  0.5179 -1.3670  1.0175
 5954TIP3   OH239496   3.151   2.790   1.962 -0.2380  0.1718 -0.3793
 5954TIP3    H139497   3.112   2.872   1.932  0.4581  0.0522 -1.7096
 5954TIP3    H239498   3.234   2.785   1.914 -0.1735 -1.2072 -0.1472
 5955TIP3   OH239499   1.308   4.277   7.740  0.1865  0.0366 -0.1462
 5955TIP3    H139500   1.229   4.287   7.794 -0.0391 -1.9161 -0.0345
 5955TIP3    H239501   1.380   4.298   7.799 -0.2021  1.0183 -0.0089
 5956TIP3   OH239502   5.955   2.514   0.416  0.2561  0.6783  0.1613
 5956TIP3    H139503   5.947   2.521   0.321  0.1198  0.3361  0.1460
 5956TIP3    H239504   6.049   2.503   0.432  0.3107  1.0291  0.0875
 5957TIP3   OH239505   5.320   1.783   0.547  0.4986 -0.2032  0.3072
 5957TIP3    H139506   5.388   1.736   0.500 -1.7224 -0.6894 -2.6728
 5957TIP3    H239507   5.283   1.719   0.608  0.2680 -1.0772 -0.7336
 5958TIP3   OH239508   6.726   1.612   0.471 -0.8694  0.2431  0.3355
 5958TIP3    H139509   6.708   1.573   0.385  1.1757 -0.9859  0.3960
 5958TIP3    H239510   6.757   1.539   0.525  1.2569  1.5515  1.0335
 5959TIP3   OH239511   2.714   2.192   8.228  0.0930  0.3819  0.2237
 5959TIP3    H139512   2.631   2.210   8.272  0.1838  0.1804  0.4829
 5959TIP3    H239513   2.710   2.099   8.206  0.1446  0.4299  0.0106
 5960TIP3   OH239514   3.319   0.179   7.470  0.0068  0.8385  0.2991
 5960TIP3    H139515   3.309   0.095   7.514  1.4097 -0.9788 -2.5638
 5960TIP3    H239516   3.236   0.225   7.487 -1.6918 -1.9825  0.2338
 5961TIP3   OH239517   3.798   5.046   1.139  0.0199 -0.0745  0.0750
 5961TIP3    H139518   3.883   5.083   1.114  0.0102  0.3593  0.6511
 5961TIP3    H239519   3.816   4.955   1.163  0.4329  0.1875  0.7830
 5962TIP3   OH239520   3.374   1.985   0.177 -0.3836  0.7968  0.5840
 5962TIP3    H139521   3.406   1.974   0.267 -0.6765 -0.5757  0.5449
 5962TIP3    H239522   3.362   2.080   0.167 -0.1166  0.9919  1.9104
 5963TIP3   OH239523   2.841   4.281   8.267  0.5483  0.2268  0.3233
 5963TIP3    H139524   2.786   4.324   8.332 -2.1309 -1.0407 -0.9494
 5963TIP3    H239525   2.855   4.348   8.199  0.1844  0.4135  0.4332
 5964TIP3   OH239526   5.439   3.946   8.217  0.5511  0.1812 -0.3692
 5964TIP3    H139527   5.461   3.989   8.300 -0.6847 -0.3261  0.2394
 5964TIP3    H239528   5.462   4.011   8.150 -1.0520  1.7388  0.5080
 5965TIP3   OH239529   1.810   4.341   1.953 -0.5285 -0.0810 -0.1336
 5965TIP3    H139530   1.761   4.379   1.880  0.6081  2.7253  0.4451
 5965TIP3    H239531   1.896   4.321   1.916 -0.3366  0.2304  0.1382
 5966TIP3   OH239532   6.336   4.768   0.160  0.3754  0.5192 -0.0839
 5966TIP3    H139533   6.284   4.813   0.227 -0.5213  0.4597 -0.7121
 5966TIP3    H239534   6.273   4.708   0.118  1.0714  0.1143 -0.5656
 5967TIP3   OH239535   2.640   2.598   1.474  0.0757 -0.2848  0.0082
 5967TIP3    H139536   2.574   2.636   1.533  0.5941 -1.1595  1.2039
 5967TIP3    H239537   2.718   2.589   1.529  0.8265 -0.3938 -1.0506
 5968TIP3   OH239538   1.111   6.744   0.705  0.1312 -0.8013 -0.4767
 5968TIP3    H139539   1.035   6.788   0.667  0.1372 -0.4554 -0.0954
 5968TIP3    H239540   1.078   6.660   0.736 -0.0368 -0.7636 -0.5532
 5969TIP3   OH239541   1.724   6.863   8.151  0.1357  0.2989 -0.3175
 5969TIP3    H139542   1.663   6.904   8.090 -0.1965 -2.0208 -1.6633
 5969TIP3    H239543   1.683   6.779   8.173  1.4700 -0.0259  1.1175
 5970TIP3   OH239544   0.821   6.063   7.102 -0.4678  0.6708 -0.8299
 5970TIP3    H139545   0.743   6.040   7.152 -0.5256 -0.8886 -1.5736
 5970TIP3    H239546   0.789   6.120   7.032 -0.4753  2.3564  0.4815
 5971TIP3   OH239547   6.072   5.911   2.496  0.3958 -0.0878 -0.0632
 5971TIP3    H139548   6.080   5.960   2.577  1.8151 -0.0167 -0.2242
 5971TIP3    H239549   6.051   5.822   2.523 -3.2166  0.6989  0.2015
 5972TIP3   OH239550   3.691   0.981   0.229  0.1007  0.4451  0.9225
 5972TIP3    H139551   3.702   0.889   0.255 -1.9341  0.2877  1.3810
 5972TIP3    H239552   3.779   1.009   0.203  0.8177 -1.5480  1.0183
 5973TIP3   OH239553   0.188   4.306   0.128 -0.7399 -0.3100  0.2250
 5973TIP3    H139554   0.224   4.289   0.040 -2.9102 -1.6655 -0.4770
 5973TIP3    H239555   0.177   4.401   0.131 -0.2569 -0.2005 -0.8121
 5974TIP3   OH239556   3.416   3.661   8.476  0.0852  0.0799  0.2671
 5974TIP3    H139557   3.457   3.745   8.455  0.9404  0.4722  3.0453
 5974TIP3    H239558   3.398   3.666   8.570 -3.3958 -1.4016 -0.1444
 5975TIP3   OH239559   2.588   1.127   1.460  0.4660 -0.6116 -0.2804
 5975TIP3    H139560   2.507   1.095   1.501  0.7282 -2.0410 -0.8181
 5975TIP3    H239561   2.617   1.199   1.516 -0.5434 -0.8660  0.5894
 5976TIP3   OH239562   3.141   2.752   0.701  0.5686 -0.4391  0.0194
 5976TIP3    H139563   3.071   2.731   0.764  0.6701 -0.4852  0.1170
 5976TIP3    H239564   3.094   2.775   0.621  0.4470 -0.7628 -0.0055
 5977TIP3   OH239565   5.009   6.495   1.308 -0.3902  0.1997 -0.2084
 5977TIP3    H139566   4.985   6.439   1.234 -0.7025  1.7164 -1.2919
 5977TIP3    H239567   4.925   6.513   1.351 -0.1797 -0.8946  0.7142
 5978TIP3   OH239568   3.900   5.499   7.235  0.3052  0.0923 -0.1798
 5978TIP3    H139569   3.885   5.563   7.305 -0.0949  1.0789 -1.1303
 5978TIP3    H239570   3.822   5.504   7.180  0.7762 -0.3678 -0.9228
 5979TIP3   OH239571   4.265   3.205   8.038 -0.0785  0.5341 -0.1148
 5979TIP3    H139572   4.339   3.224   7.980 -1.1479  0.6612 -1.5157
 5979TIP3    H239573   4.275   3.114   8.062  1.9216  1.2014  1.8564
 5980TIP3   OH239574   2.432   6.220   1.218 -0.4057 -0.3100 -0.2246
 5980TIP3    H139575   2.400   6.135   1.187 -0.9253 -0.2978  0.2621
 5980TIP3    H239576   2.458   6.204   1.309  2.8835 -0.8202 -1.1294
 5981TIP3   OH239577   5.686   5.114   7.433 -0.0658 -0.4140 -0.3232
 5981TIP3    H139578   5.693   5.038   7.376  0.6755  0.2845 -1.2014
 5981TIP3    H239579   5.775   5.150   7.436 -0.9409  2.2682 -2.5510
 5982TIP3   OH239580   6.776   1.566   0.011 -0.6022 -0.8259  0.3928
 5982TIP3    H139581   6.813   1.561  -0.077 -0.6570 -2.0217  0.4252
 5982TIP3    H239582   6.726   1.648   0.011  1.1493  0.2948  0.0155
 5983TIP3   OH239583   1.259   0.504   0.255 -0.4385  0.4214 -0.0999
 5983TIP3    H139584   1.260   0.442   0.328 -0.9101  0.2995 -0.1923
 5983TIP3    H239585   1.347   0.499   0.218 -0.4373 -0.1012 -0.0355
 5984TIP3   OH239586   6.610   5.583   1.099  0.1203 -0.0705  0.3867
 5984TIP3    H139587   6.684   5.645   1.095 -0.2939  0.3573 -1.2713
 5984TIP3    H239588   6.650   5.497   1.085  0.4557  0.0177  0.7708
 5985TIP3   OH239589   1.167   3.895   8.331  0.1767  0.3241  0.1199
 5985TIP3    H139590   1.078   3.927   8.348 -0.0016 -0.4911  0.7594
 5985TIP3    H239591   1.185   3.922   8.240 -0.6505  0.6453  0.0391
 5986TIP3   OH239592   6.539   6.406   1.909 -0.3179 -0.2990 -0.5982
 5986TIP3    H139593   6.464   6.450   1.949 -0.2787 -0.6108 -0.1820
 5986TIP3    H239594   6.614   6.458   1.935 -0.4550  0.4768 -1.6693
 5987TIP3   OH239595   1.682   0.954   8.132 -0.0374 -0.5112 -0.7758
 5987TIP3    H139596   1.707   1.001   8.053  1.7758  1.5565  0.8989
 5987TIP3    H239597   1.592   0.981   8.149  1.0895  2.9753  0.4025
 5988TIP3   OH239598   4.117   4.356   0.855  0.2619 -0.5378  0.2127
 5988TIP3    H139599   4.172   4.375   0.779 -0.4042  0.6160 -0.0191
 5988TIP3    H239600   4.087   4.266   0.842 -0.5541 -0.0735 -1.3751
 5989TIP3   OH239601   5.327   0.366   0.606  0.2058 -0.0419 -0.0911
 5989TIP3    H139602   5.299   0.360   0.514 -0.9723 -0.6831  0.3030
 5989TIP3    H239603   5.265   0.312   0.654  0.1743  1.1124  1.2288
 5990TIP3   OH239604   2.065   4.987   8.361 -1.1856 -0.9493 -0.0357
 5990TIP3    H139605   2.148   4.993   8.313 -1.0749 -0.0146  0.2511
 5990TIP3    H239606   2.060   4.896   8.389 -0.8615 -1.3254 -1.1310
 5991TIP3   OH239607   2.084   3.987   8.163  0.2897 -0.1309 -0.1302
 5991TIP3    H139608   2.144   4.039   8.215  1.0581 -0.1991 -0.9309
 5991TIP3    H239609   2.108   3.896   8.182 -1.3854 -0.2742  1.6685
 5992TIP3   OH239610   6.151   3.052   2.393  0.2592 -0.0095  0.1756
 5992TIP3    H139611   6.129   3.145   2.405  0.3800 -0.0326  0.5875
 5992TIP3    H239612   6.072   3.006   2.420 -0.3385  0.0097 -1.4047
 5993TIP3   OH239613   5.967   0.970   8.090  0.6923  0.5559  0.0585
 5993TIP3    H139614   6.039   0.924   8.047 -0.1025  0.7015 -1.5066
 5993TIP3    H239615   5.894   0.908   8.088  1.2088 -0.3825  3.4397
 5994TIP3   OH239616   3.684   0.170   1.212 -0.1952  0.0686 -0.4069
 5994TIP3    H139617   3.702   0.263   1.207  0.2706 -0.0515 -1.1173
 5994TIP3    H239618   3.762   0.132   1.252  0.0371 -0.1272 -1.0268
 5995TIP3   OH239619   3.975   4.807   2.590  0.2695 -0.2663  0.5559
 5995TIP3    H139620   3.913   4.748   2.547  0.5164  0.4789 -0.8964
 5995TIP3    H239621   3.953   4.803   2.683 -1.6485 -0.3535  0.1253
 5996TIP3   OH239622   6.432   5.919   2.233 -0.1428 -0.1068 -0.3601
 5996TIP3    H139623   6.388   5.843   2.197 -1.7043  0.4465  0.3089
 5996TIP3    H239624   6.420   5.911   2.328 -0.6525  1.1501 -0.3030
 5997TIP3   OH239625   6.080   5.540   8.437  0.3030  0.1489 -0.3287
 5997TIP3    H139626   6.121   5.479   8.498  1.3528  0.8951 -0.2631
 5997TIP3    H239627   5.987   5.539   8.460 -0.2728 -3.4593 -2.0774
 5998TIP3   OH239628   1.477   4.316   1.376  0.0786  0.1300 -0.0838
 5998TIP3    H139629   1.405   4.257   1.353 -0.5215  0.9561 -0.4211
 5998TIP3    H239630   1.543   4.301   1.308  0.3426 -0.8181  0.3746
 5999TIP3   OH239631   3.701   3.860   0.092 -0.7142  0.2131  0.2461
 5999TIP3    H139632   3.620   3.906   0.116 -1.3584  0.7694 -2.5273
 5999TIP3    H239633   3.771   3.918   0.122 -1.4291  1.0195  0.4010
 6000TIP3   OH239634   5.955   3.780   2.410  0.1281 -0.2356  0.2232
 6000TIP3    H139635   5.967   3.687   2.430 -3.2808 -0.5940  1.2744
 6000TIP3    H239636   5.999   3.826   2.481  0.2703 -1.1227  0.7278
 6001TIP3   OH239637   4.632   2.080   1.122  0.2460 -0.0709 -0.3213
 6001TIP3    H139638   4.624   2.092   1.216  0.5781 -1.0984 -0.1440
 6001TIP3    H239639   4.655   2.166   1.088 -3.7235  1.3104  0.0003
 6002TIP3   OH239640   0.239   2.481   1.518 -0.4688 -0.2776  0.0388
 6002TIP3    H139641   0.182   2.527   1.457 -2.3084 -0.8731  1.2220
 6002TIP3    H239642   0.318   2.462   1.468 -1.0815  1.0629 -1.5045
 6003TIP3   OH239643   5.063   4.165   1.235 -0.3446  0.7655  0.2578
 6003TIP3    H139644   5.086   4.226   1.165 -0.8381  0.9273  0.2324
 6003TIP3    H239645   4.968   4.157   1.229 -0.1111 -3.6533 -2.8447
 6004TIP3   OH239646   4.057   2.156   8.265 -0.0625  0.7340 -0.5854
 6004TIP3    H139647   4.130   2.147   8.326 -1.3749 -2.2485  0.7491
 6004TIP3    H239648   4.007   2.230   8.298  0.6633  0.8183  0.3672
 6005TIP3   OH239649   3.908   5.557   0.839  0.0167  0.1292 -0.5285
 6005TIP3    H139650   3.825   5.595   0.811 -1.3572 -1.3050  1.3009
 6005TIP3    H239651   3.897   5.463   0.823  1.9952  0.0696 -1.8421
 6006TIP3   OH239652   5.567   6.147   6.753 -0.0974  0.0822 -0.3390
 6006TIP3    H139653   5.655   6.111   6.756 -0.8951 -1.9450  0.3871
 6006TIP3    H239654   5.579   6.239   6.730  2.0772 -0.5572 -2.0550
 6007TIP3   OH239655   4.131   0.907   1.725  0.4086 -0.1594  0.2624
 6007TIP3    H139656   4.110   0.992   1.764  1.4891  0.9524 -1.4102
 6007TIP3    H239657   4.192   0.867   1.786 -1.1596 -0.3836  1.7471
 6008TIP3   OH239658   0.534   0.180   0.532  0.3511  0.1146 -0.3056
 6008TIP3    H139659   0.440   0.168   0.522  0.3417  0.2226 -0.3387
 6008TIP3    H239660   0.554   0.142   0.617  0.2462  0.2791 -0.2084
 6009TIP3   OH239661   2.121   1.809   2.530 -0.1399 -0.1932 -0.0937
 6009TIP3    H139662   2.075   1.735   2.570  1.1121  0.0736  1.9313
 6009TIP3    H239663   2.080   1.886   2.567 -1.8169  0.2644 -2.6153
 6010TIP3   OH239664   3.995   2.734   0.757 -0.5890  0.1277  0.3530
 6010TIP3    H139665   3.914   2.745   0.806 -1.4411 -0.8519 -0.7943
 6010TIP3    H239666   4.046   2.812   0.779 -1.5830  0.4814  1.5435
 6011TIP3   OH239667   3.555   3.816   0.710 -0.0218  0.3505 -0.0224
 6011TIP3    H139668   3.539   3.750   0.642  0.5966 -0.9161  1.0241
 6011TIP3    H239669   3.634   3.786   0.754 -1.2124  0.3226  2.2144
 6012TIP3   OH239670   2.632   3.228   2.455  0.3056 -0.2160 -0.1412
 6012TIP3    H139671   2.697   3.207   2.389  1.2863  1.3360  0.2760
 6012TIP3    H239672   2.550   3.238   2.406  0.4143 -1.8397 -0.7153
 6013TIP3   OH239673   1.419   2.865   2.249 -0.1666  0.2533 -0.1613
 6013TIP3    H139674   1.337   2.873   2.298  0.5440  0.3758  1.0282
 6013TIP3    H239675   1.465   2.947   2.266  0.7848 -0.3581  0.2584
 6014TIP3   OH239676   0.497   3.235   8.287 -0.0378 -0.2177  0.5338
 6014TIP3    H139677   0.569   3.202   8.233  0.6632  0.8155  0.8029
 6014TIP3    H239678   0.436   3.162   8.293 -1.0304  0.0971 -3.1566
 6015TIP3   OH239679   0.222   3.378   2.967 -0.6636 -0.2826 -0.5049
 6015TIP3    H139680   0.195   3.295   2.928 -0.8732 -0.0470 -0.8652
 6015TIP3    H239681   0.167   3.444   2.924 -1.6269 -0.1195  0.8994
 6016TIP3   OH239682   2.307   3.477   8.664 -0.4245  0.0027  0.1764
 6016TIP3    H139683   2.251   3.423   8.607 -0.5001  2.0272 -1.7951
 6016TIP3    H239684   2.251   3.550   8.689  0.3122  0.2633  1.0802
 6017TIP3   OH239685   5.975   2.031   0.674  0.7741  0.3830 -0.0688
 6017TIP3    H139686   5.963   1.995   0.762 -1.2342  3.2850  0.9937
 6017TIP3    H239687   5.985   1.954   0.618  0.2398 -1.6494  2.4343
 6018TIP3   OH239688   4.019   3.068   3.574 -0.3454 -0.1002  0.0376
 6018TIP3    H139689   4.038   3.158   3.601  0.3437  0.2259 -1.4077
 6018TIP3    H239690   4.024   3.071   3.478  0.8549 -1.9025 -0.0032
 6019TIP3   OH239691   6.082   4.804   1.509 -0.3408 -0.0398 -0.0968
 6019TIP3    H139692   6.010   4.866   1.519  0.4308  0.8165  0.2605
 6019TIP3    H239693   6.046   4.720   1.536 -0.5734  0.7737  2.3521
 6020TIP3   OH239694   0.477   5.796   8.088  0.2156 -0.1726 -0.0655
 6020TIP3    H139695   0.411   5.735   8.055  0.5526  0.1086 -1.2831
 6020TIP3    H239696   0.527   5.744   8.151 -0.2934 -0.7815 -0.1484
 6021TIP3   OH239697   1.891   2.817   8.149  0.1939 -0.0957 -0.0170
 6021TIP3    H139698   1.904   2.781   8.061  0.5378 -0.6215  0.2431
 6021TIP3    H239699   1.964   2.781   8.200  0.1760  0.4574  0.4085
 6022TIP3   OH239700   1.124   2.183   2.361  0.1794 -0.3690  0.0092
 6022TIP3    H139701   1.060   2.113   2.349 -0.8329  0.6518 -0.8533
 6022TIP3    H239702   1.075   2.263   2.343  1.1990  0.6060  1.3695
 6023TIP3   OH239703   5.658   5.997   2.532  0.3894 -0.2628  0.5728
 6023TIP3    H139704   5.604   6.036   2.601  1.1099 -0.4900  1.2796
 6023TIP3    H239705   5.611   6.016   2.451 -0.8767 -0.6820  1.1868
 6024TIP3   OH239706   1.762   6.185   1.015  0.2252  0.3835 -0.1150
 6024TIP3    H139707   1.858   6.178   1.020  0.4580  0.6443 -2.7377
 6024TIP3    H239708   1.734   6.100   0.982 -0.0759  1.2387 -2.2370
 6025TIP3   OH239709   5.413   6.643   2.913 -0.4630  0.0402 -0.0925
 6025TIP3    H139710   5.349   6.636   2.842  0.0910  0.3441 -0.6290
 6025TIP3    H239711   5.360   6.649   2.993 -1.1583 -3.6349 -0.0789
 6026TIP3   OH239712   6.399   1.868   1.440  0.6101 -0.1420 -0.3055
 6026TIP3    H139713   6.479   1.843   1.394  1.6502 -0.9310  1.8051
 6026TIP3    H239714   6.344   1.790   1.437  0.7667 -0.2629 -0.0261
 6027TIP3   OH239715   5.445   3.571   0.265  0.4136  0.0963  0.0263
 6027TIP3    H139716   5.489   3.633   0.323  1.4493 -0.1391 -0.4813
 6027TIP3    H239717   5.383   3.525   0.322  0.7207  0.5444  0.7372
 6028TIP3   OH239718   2.660   4.528   2.589 -0.2497 -0.0537 -0.1574
 6028TIP3    H139719   2.733   4.571   2.634  0.7017 -0.9220 -0.8110
 6028TIP3    H239720   2.596   4.513   2.658  0.0709  0.9728  0.3828
 6029TIP3   OH239721   2.985   0.810   7.061 -0.2860  0.2356  0.0391
 6029TIP3    H139722   3.001   0.739   7.000  0.8432  0.3670  0.1748
 6029TIP3    H239723   3.072   0.842   7.085 -0.5563 -1.0621  3.2097
 6030TIP3   OH239724   0.725   3.667   1.787  1.0864  0.1487 -0.1799
 6030TIP3    H139725   0.815   3.669   1.819  1.1742  0.1291 -0.4260
 6030TIP3    H239726   0.710   3.755   1.753  1.3491 -0.1433 -1.0653
 6031TIP3   OH239727   5.320   6.109   1.290  0.1873  0.7597 -0.1885
 6031TIP3    H139728   5.335   6.162   1.369 -0.9170  3.4437 -1.6584
 6031TIP3    H239729   5.389   6.043   1.292 -0.9533 -0.6376  4.0492
 6032TIP3   OH239730   2.173   4.605   7.136  0.0156 -0.1425  0.5455
 6032TIP3    H139731   2.083   4.572   7.138  0.8163 -2.4763  2.2648
 6032TIP3    H239732   2.224   4.534   7.097  1.1731  1.0762 -0.2520
 6033TIP3   OH239733   4.611   5.810   2.628 -0.2002  0.1832  0.0954
 6033TIP3    H139734   4.655   5.880   2.579 -0.9642  0.3184 -0.4311
 6033TIP3    H239735   4.609   5.841   2.718  1.7801 -0.3392  0.3669
 6034TIP3   OH239736   5.323   5.278   0.426 -0.4217 -0.2697  0.6900
 6034TIP3    H139737   5.392   5.324   0.378 -1.2116  0.7872  0.5223
 6034TIP3    H239738   5.366   5.245   0.505  0.1849  0.8122  0.8333
 6035TIP3   OH239739   1.348   0.941   1.170  0.2504 -0.0577 -0.0301
 6035TIP3    H139740   1.347   0.846   1.183 -0.8723 -0.4956 -2.6031
 6035TIP3    H239741   1.403   0.954   1.093  1.6883  1.5860  1.2097
 6036TIP3   OH239742   1.138   5.945   0.551  0.1703  0.3353  0.4116
 6036TIP3    H139743   1.165   5.896   0.473 -1.3870  0.1263 -0.0267
 6036TIP3    H239744   1.077   5.887   0.596  1.2320  0.3491  1.9645
 6037TIP3   OH239745   4.048   4.160   8.615 -0.3979 -0.3262  0.5068
 6037TIP3    H139746   4.018   4.185   8.528  2.1199 -0.5320 -0.4705
 6037TIP3    H239747   4.058   4.065   8.611  0.2152 -0.2803  0.8503
 6038TIP3   OH239748   5.936   0.125   7.738  0.3747  0.5760  0.3145
 6038TIP3    H139749   5.905   0.094   7.653  1.1795  0.6729 -0.0246
 6038TIP3    H239750   5.858   0.123   7.794 -0.2390  0.8140 -0.5035
 6039TIP3   OH239751   6.776   0.593   7.254  0.3804  0.0029  0.0023
 6039TIP3    H139752   6.828   0.526   7.210  0.3005  0.1322 -0.2953
 6039TIP3    H239753   6.816   0.603   7.340 -0.2285 -1.1647  0.4435
 6040TIP3   OH239754   5.570   4.208   2.601 -0.1925 -0.5502 -0.5374
 6040TIP3    H139755   5.508   4.144   2.636  0.0167 -1.3296 -1.5677
 6040TIP3    H239756   5.589   4.265   2.676 -0.4108 -1.6522  0.3891
 6041TIP3   OH239757   0.980   5.751   8.576  0.3050 -0.5041 -0.3185
 6041TIP3    H139758   0.918   5.808   8.622 -0.1464  0.0577 -1.5765
 6041TIP3    H239759   1.014   5.806   8.505  2.1779 -0.8304  0.2697
 6042TIP3   OH239760   0.137   2.150   0.019 -0.3924 -0.2045  1.2381
 6042TIP3    H139761   0.068   2.214   0.003 -0.7985 -0.9673 -0.3516
 6042TIP3    H239762   0.162   2.121  -0.069  0.9027 -1.0445  1.8624
 6043TIP3   OH239763   2.979   3.121   0.641  0.1971 -0.2058  0.0999
 6043TIP3    H139764   3.028   3.187   0.593  0.1144 -0.4864 -0.3728
 6043TIP3    H239765   3.043   3.055   0.664  0.3479  0.2008  0.8746
 6044TIP3   OH239766   6.629   1.825   7.744  0.1495 -0.5625  0.0097
 6044TIP3    H139767   6.685   1.764   7.792  1.1053  0.3656  0.1001
 6044TIP3    H239768   6.686   1.861   7.676 -0.6236 -0.3436 -0.5284
 6045TIP3   OH239769   1.898   1.146   3.091 -0.2398 -0.1097  0.8717
 6045TIP3    H139770   1.814   1.122   3.129 -0.6689 -1.3335 -0.7222
 6045TIP3    H239771   1.953   1.069   3.105 -0.4527 -0.6648 -0.9719
 6046TIP3   OH239772   1.656   5.498   2.737 -0.9534 -0.1004 -0.2180
 6046TIP3    H139773   1.719   5.467   2.802 -0.0625  1.2733 -0.3652
 6046TIP3    H239774   1.572   5.496   2.782 -0.6577 -1.0036  0.3256
 6047TIP3   OH239775   0.222   6.447   2.201  0.3083 -0.0402  0.0555
 6047TIP3    H139776   0.218   6.542   2.195  0.5810 -0.0815 -0.8229
 6047TIP3    H239777   0.228   6.430   2.295  2.8556  0.9347  0.1482
 6048TIP3   OH239778   1.821   2.012   0.627  0.0273 -0.2852  0.3073
 6048TIP3    H139779   1.913   2.036   0.628 -0.4397  1.6873 -0.1559
 6048TIP3    H239780   1.785   2.053   0.706 -1.2205  2.6234 -1.5994
 6049TIP3   OH239781   2.270   0.233   1.712 -0.2534  0.4388  0.0932
 6049TIP3    H139782   2.295   0.144   1.734 -0.5913  0.4064  0.3497
 6049TIP3    H239783   2.175   0.235   1.723 -0.5869  0.1719 -2.2230
 6050TIP3   OH239784   5.209   3.165   1.729  0.2079 -0.0642  0.2812
 6050TIP3    H139785   5.283   3.120   1.688  0.0752  0.2580 -0.3246
 6050TIP3    H239786   5.247   3.210   1.804  1.0022  1.5681 -1.0190
 6051TIP3   OH239787   0.819   6.408   7.850  0.0776 -0.0413 -0.7152
 6051TIP3    H139788   0.827   6.314   7.835  0.8553 -0.1896  0.4581
 6051TIP3    H239789   0.909   6.438   7.864 -0.0346  1.1041 -2.2378
 6052TIP3   OH239790   5.480   6.234   7.015  0.2728 -0.0079  0.2838
 6052TIP3    H139791   5.520   6.205   6.933 -0.5943 -1.5205  0.3459
 6052TIP3    H239792   5.411   6.294   6.987  0.9891  0.7116  0.0238
 6053TIP3   OH239793   5.730   0.379   2.715 -0.4334 -0.1359 -0.1992
 6053TIP3    H139794   5.710   0.472   2.704 -0.3161  0.0175  0.8168
 6053TIP3    H239795   5.662   0.347   2.774 -0.1634 -0.5810 -0.1288
 6054TIP3   OH239796   5.187   6.168   2.239 -0.0128 -0.0152 -0.4611
 6054TIP3    H139797   5.145   6.091   2.202 -0.0843 -0.5479  0.6779
 6054TIP3    H239798   5.200   6.146   2.331  0.4831  1.1178 -0.2436
 6055TIP3   OH239799   5.711   3.098   0.240  0.2516  0.1207  0.0755
 6055TIP3    H139800   5.652   3.173   0.231  2.0743  1.4227 -2.0401
 6055TIP3    H239801   5.653   3.022   0.242 -1.5823  1.4605  0.7528
 6056TIP3   OH239802   4.389   6.316   0.020 -0.2681  0.9120  0.0841
 6056TIP3    H139803   4.475   6.342   0.053  0.7146  1.1757 -2.4774
 6056TIP3    H239804   4.334   6.312   0.099  1.8219  1.6565  1.6909
 6057TIP3   OH239805   5.895   0.626   2.390 -0.0662  0.1395  0.0754
 6057TIP3    H139806   5.883   0.689   2.461 -1.1237  1.3415 -1.1030
 6057TIP3    H239807   5.809   0.587   2.377 -0.0263  0.3465 -0.9024
 6058TIP3   OH239808   1.138   1.046   1.310  0.0343  0.5382  0.0640
 6058TIP3    H139809   1.162   1.134   1.338  0.6991  0.6765 -0.9174
 6058TIP3    H239810   1.216   1.011   1.268 -0.9607  0.4342 -1.8208
 6059TIP3   OH239811   5.401   6.199   7.830 -0.0699  0.4692  0.3237
 6059TIP3    H139812   5.322   6.157   7.796 -0.0252  0.9856 -0.4381
 6059TIP3    H239813   5.401   6.286   7.789  1.3387  0.1811 -0.3363
 6060TIP3   OH239814   2.677   0.323   2.139 -0.1490 -0.2018 -0.5392
 6060TIP3    H139815   2.617   0.359   2.074 -1.4296 -2.0211 -0.4543
 6060TIP3    H239816   2.764   0.337   2.102 -0.7134  1.0225 -1.4508
 6061TIP3   OH239817   5.206   3.203   7.586 -0.5037  0.0768  0.3269
 6061TIP3    H139818   5.291   3.210   7.630  0.7540 -0.2398 -1.9346
 6061TIP3    H239819   5.198   3.283   7.535 -0.9013 -0.5173 -0.5702
 6062TIP3   OH239820   0.118   3.752   0.726  0.3762 -0.1485  0.1093
 6062TIP3    H139821   0.080   3.829   0.683  1.7933  0.6782  0.2651
 6062TIP3    H239822   0.042   3.700   0.754 -0.6068  0.9471 -0.4300
 6063TIP3   OH239823   5.936   5.155   0.630 -0.0594 -0.0798  0.0417
 6063TIP3    H139824   5.910   5.194   0.714  0.1939  0.7867 -0.2709
 6063TIP3    H239825   5.988   5.224   0.587 -3.2759  1.0003 -2.4958
 6064TIP3   OH239826   0.715   1.410   0.940 -0.2372  0.0116 -0.0960
 6064TIP3    H139827   0.620   1.418   0.949 -0.2174  0.6127 -0.3647
 6064TIP3    H239828   0.749   1.426   1.028 -0.2648  2.0142 -0.4103
 6065TIP3   OH239829   0.823   1.805   7.906 -0.5774  0.0696  0.0564
 6065TIP3    H139830   0.777   1.873   7.956 -2.5693 -1.2391  0.1038
 6065TIP3    H239831   0.886   1.768   7.968 -1.2491  0.1637  0.8056
 6066TIP3   OH239832   5.559   0.508   8.284  0.2566 -0.7388 -0.3372
 6066TIP3    H139833   5.485   0.513   8.345  0.5477 -2.0046  0.1612
 6066TIP3    H239834   5.580   0.599   8.264 -1.3635 -0.3476 -0.4121
 6067TIP3   OH239835   4.046   5.506   1.118 -0.5438  0.6549 -0.3011
 6067TIP3    H139836   3.996   5.581   1.150 -1.7500  0.5270 -1.7281
 6067TIP3    H239837   3.997   5.478   1.040  0.9473 -0.4296 -0.8732
 6068TIP3   OH239838   1.339   6.498   0.876  0.4457 -0.1675 -0.2404
 6068TIP3    H139839   1.407   6.432   0.890  2.0744  1.3362 -0.6867
 6068TIP3    H239840   1.386   6.581   0.876 -1.5280  1.0191  0.2546
 6069TIP3   OH239841   6.376   1.735   1.027 -0.7584  0.0624  0.3569
 6069TIP3    H139842   6.342   1.656   1.071  1.1053  0.5275  2.8993
 6069TIP3    H239843   6.347   1.807   1.082 -0.0240  0.8866 -0.3053
 6070TIP3   OH239844   0.872   5.535   0.769 -0.5127  0.2892  0.4057
 6070TIP3    H139845   0.844   5.521   0.678 -0.4171  1.7662  0.1348
 6070TIP3    H239846   0.798   5.503   0.821 -0.1862 -1.4623 -0.1278
 6071TIP3   OH239847   2.752   0.247   1.047  0.8500  0.6909 -0.6619
 6071TIP3    H139848   2.787   0.180   1.105 -3.2183 -1.8416 -0.8091
 6071TIP3    H239849   2.748   0.326   1.101 -1.1032 -1.1047  2.0383
 6072TIP3   OH239850   1.859   6.541   0.417 -0.2181  0.4079  0.1181
 6072TIP3    H139851   1.926   6.480   0.386 -1.3908 -1.6181  1.3244
 6072TIP3    H239852   1.867   6.617   0.360  1.9886 -0.4531 -0.8157
 6073TIP3   OH239853   3.555   1.207   0.634 -0.3023  0.1240 -0.2545
 6073TIP3    H139854   3.536   1.299   0.617  0.1332  0.7919  2.4165
 6073TIP3    H239855   3.487   1.159   0.587 -2.2515  1.9482  0.5424
 6074TIP3   OH239856   5.924   1.138   2.368 -0.1299  0.8204  0.8426
 6074TIP3    H139857   5.857   1.163   2.432 -2.4317 -1.2929 -0.5756
 6074TIP3    H239858   5.923   1.043   2.367  2.1621  0.7446 -0.0578
 6075TIP3   OH239859   0.848   5.928   2.078  0.1447 -0.4085  0.0486
 6075TIP3    H139860   0.812   5.895   1.995  1.0229 -2.4740  0.4410
 6075TIP3    H239861   0.892   6.009   2.053  0.4441 -1.0167 -1.5434
 6076TIP3   OH239862   3.986   0.344   3.086 -0.3764 -0.2604  0.3220
 6076TIP3    H139863   3.946   0.427   3.110  0.2514  0.4137 -0.8657
 6076TIP3    H239864   4.077   0.366   3.064 -0.3906 -1.1194 -0.7224
 6077TIP3   OH239865   6.618   4.807   2.274  0.4320 -0.5138  0.0238
 6077TIP3    H139866   6.622   4.800   2.369  1.1073 -0.8751 -0.0235
 6077TIP3    H239867   6.689   4.866   2.250  0.3912 -0.5772 -0.2640
 6078TIP3   OH239868   6.275   3.044   0.565  0.1952 -0.7188 -0.0162
 6078TIP3    H139869   6.328   2.978   0.610 -0.7761 -1.5148  0.0014
 6078TIP3    H239870   6.278   3.120   0.623  2.3142 -0.2953 -0.6137
 6079TIP3   OH239871   6.662   2.279   1.640  0.1814 -0.4733 -0.3247
 6079TIP3    H139872   6.635   2.194   1.605  2.3218 -1.2254 -0.3394
 6079TIP3    H239873   6.750   2.293   1.603  0.0727  1.5304  0.0562
 6080TIP3   OH239874   2.208   4.130   7.447  0.3200 -0.4144 -0.3513
 6080TIP3    H139875   2.225   4.095   7.360 -0.7393  0.9833 -1.1391
 6080TIP3    H239876   2.242   4.220   7.444 -2.3613  0.6713 -0.3163
 6081TIP3   OH239877   0.173   3.395   2.617  0.5641  0.0673 -0.2042
 6081TIP3    H139878   0.234   3.399   2.544  0.0864 -1.4943 -0.7339
 6081TIP3    H239879   0.192   3.313   2.660 -0.1019  0.3113  0.5875
 6082TIP3   OH239880   6.769   2.113   6.925  0.6934  0.4997 -0.5027
 6082TIP3    H139881   6.778   2.197   6.881  0.9226  1.2105  0.8605
 6082TIP3    H239882   6.702   2.127   6.991 -1.7028 -1.3156 -2.3361
 6083TIP3   OH239883   0.201   1.087   8.469  0.4456 -0.0523 -0.9456
 6083TIP3    H139884   0.173   1.164   8.419  1.1520  1.3650  0.7113
 6083TIP3    H239885   0.122   1.059   8.515  0.0258 -0.7600 -2.0687
 6084TIP3   OH239886   2.803   5.654   7.885 -0.0209 -0.1597 -0.0684
 6084TIP3    H139887   2.863   5.603   7.830 -0.8435 -3.8970  2.1317
 6084TIP3    H239888   2.831   5.635   7.975 -0.9492  2.7696  0.9550
 6085TIP3   OH239889   0.867   0.528   8.150 -0.0747  0.1208  0.2017
 6085TIP3    H139890   0.851   0.590   8.221 -0.1196 -0.4096  0.6616
 6085TIP3    H239891   0.804   0.458   8.166  1.3248 -1.0390  0.8838
 6086TIP3   OH239892   4.308   5.857   2.534 -0.2232  0.4573  0.4501
 6086TIP3    H139893   4.295   5.909   2.614  1.5112  0.5009  0.7567
 6086TIP3    H239894   4.403   5.855   2.523 -0.3617 -0.8558 -0.7680
 6087TIP3   OH239895   4.477   1.686   1.583 -0.3282  0.1231 -0.3020
 6087TIP3    H139896   4.434   1.735   1.514  0.7234  2.2514  0.4650
 6087TIP3    H239897   4.470   1.742   1.661 -0.4402 -1.6580  1.0508
 6088TIP3   OH239898   1.328   5.483   2.874 -0.3673 -0.7530 -0.6179
 6088TIP3    H139899   1.342   5.437   2.956  1.8143  0.8582  0.0201
 6088TIP3    H239900   1.282   5.421   2.818 -0.1345 -2.5901  1.1455
 6089TIP3   OH239901   1.137   3.427   0.533 -0.2692 -0.3333  0.7479
 6089TIP3    H139902   1.081   3.392   0.464  1.0783 -1.0476 -0.0349
 6089TIP3    H239903   1.183   3.351   0.568  0.2425  0.2239  1.3312
 6090TIP3   OH239904   3.288   3.011   8.531  0.1451  0.1248 -0.3740
 6090TIP3    H139905   3.377   3.046   8.518  0.1754  0.4999  0.6791
 6090TIP3    H239906   3.257   2.989   8.443  1.5141 -0.5887 -0.7018
 6091TIP3   OH239907   0.085   2.117   0.279 -0.2109 -0.0092 -0.0564
 6091TIP3    H139908   0.136   2.117   0.199  1.3971 -1.2650  0.9030
 6091TIP3    H239909   0.075   2.024   0.301 -1.6341  0.2685  0.5827
 6092TIP3   OH239910   0.801   2.827   1.307 -0.2065  0.2186  0.4565
 6092TIP3    H139911   0.803   2.820   1.403  1.7080  2.9001  0.7468
 6092TIP3    H239912   0.711   2.849   1.286 -0.7970 -1.0339  1.5776
 6093TIP3   OH239913   1.568   6.875   7.121  0.3418  0.5444  0.0773
 6093TIP3    H139914   1.524   6.948   7.165 -0.3324  0.0345  0.2811
 6093TIP3    H239915   1.498   6.832   7.072  0.6225 -0.2438  0.3521
 6094TIP3   OH239916   0.206   6.646   0.479  0.2202 -0.5689 -0.0568
 6094TIP3    H139917   0.254   6.691   0.549  0.5830 -1.7329  0.4664
 6094TIP3    H239918   0.206   6.554   0.506 -1.1820 -0.7741 -0.7134
 6095TIP3   OH239919   1.252   2.591   1.261 -0.6168 -0.1575 -0.3108
 6095TIP3    H139920   1.268   2.534   1.186 -0.5643  0.6372 -0.9146
 6095TIP3    H239921   1.157   2.605   1.261 -0.4402  1.1723 -1.2351
 6096TIP3   OH239922   3.010   6.046   1.253 -0.1515 -0.1270 -0.5828
 6096TIP3    H139923   3.022   6.087   1.168 -0.9811  0.1278 -0.5843
 6096TIP3    H239924   3.038   5.955   1.240 -0.0917 -0.0406 -1.0745
 6097TIP3   OH239925   0.212   4.978   7.931 -0.0438  0.5296  0.4243
 6097TIP3    H139926   0.190   5.071   7.921 -0.1126  0.6282  1.4634
 6097TIP3    H239927   0.128   4.933   7.932 -0.0521  0.5623  1.0068
 6098TIP3   OH239928   3.570   6.398   8.350  0.0495  0.0285  0.3426
 6098TIP3    H139929   3.616   6.388   8.433 -0.1800  0.8363  0.5790
 6098TIP3    H239930   3.606   6.329   8.294 -0.3279 -1.0021  1.3342
 6099TIP3   OH239931   1.589   6.159   1.576 -0.0844 -0.3445 -0.0873
 6099TIP3    H139932   1.524   6.214   1.533 -0.5572 -0.5562  0.3400
 6099TIP3    H239933   1.565   6.162   1.669  1.4703  0.8554  0.3149
 6100TIP3   OH239934   4.816   2.619   0.181 -0.0340 -0.0202 -0.3605
 6100TIP3    H139935   4.846   2.585   0.097 -1.2732 -4.5429  0.7622
 6100TIP3    H239936   4.722   2.633   0.170 -0.2192 -0.7090  0.2355
 6101TIP3   OH239937   2.015   0.926   2.357  0.2246  0.2426 -0.1068
 6101TIP3    H139938   2.099   0.936   2.402  0.4889 -0.1765 -0.5092
 6101TIP3    H239939   2.035   0.939   2.264 -0.2047  0.4186 -0.1805
 6102TIP3   OH239940   2.168   1.504   8.491  0.2056  0.0573 -0.3521
 6102TIP3    H139941   2.129   1.570   8.433 -1.6401 -1.0638 -0.4766
 6102TIP3    H239942   2.162   1.423   8.440 -1.1692 -0.8967  1.2226
 6103TIP3   OH239943   2.175   3.620   6.683 -0.0194  0.3289  0.9658
 6103TIP3    H139944   2.087   3.657   6.691  0.5525  1.9195  0.3850
 6103TIP3    H239945   2.214   3.668   6.610  0.8046 -1.4568  0.1797
 6104TIP3   OH239946   5.190   3.892   0.805 -1.5067 -0.6233 -0.2412
 6104TIP3    H139947   5.227   3.841   0.878 -1.2080 -1.6521 -1.0991
 6104TIP3    H239948   5.101   3.859   0.795 -1.6363 -0.2973 -0.1807
 6105TIP3   OH239949   0.622   2.470   6.930 -0.3236 -0.2774  0.3270
 6105TIP3    H139950   0.558   2.433   6.869  0.2820 -1.0358  0.1317
 6105TIP3    H239951   0.686   2.400   6.943  0.6634  0.5775  0.2370
 6106TIP3   OH239952   1.086   0.854   1.502  0.0257  0.0296  0.4063
 6106TIP3    H139953   1.058   0.925   1.560  0.1286 -0.3550  0.9377
 6106TIP3    H239954   1.112   0.898   1.421  1.0202  0.7064  1.0688
 6107TIP3   OH239955   6.540   2.577   8.030 -0.1490 -0.5722  0.3686
 6107TIP3    H139956   6.516   2.640   7.962  0.9867  1.2461  1.5555
 6107TIP3    H239957   6.577   2.503   7.982 -2.2610 -0.7431 -1.1072
 6108TIP3   OH239958   3.379   6.878   0.580 -0.3282  0.1234 -0.7244
 6108TIP3    H139959   3.311   6.850   0.519 -0.6005  2.0612 -1.3699
 6108TIP3    H239960   3.396   6.970   0.558  1.9058 -0.0475 -0.0190
 6109TIP3   OH239961   4.496   6.207   1.489 -0.1396  0.0777 -0.0446
 6109TIP3    H139962   4.585   6.226   1.519 -0.7318  1.7867  0.7487
 6109TIP3    H239963   4.479   6.118   1.520  1.4972 -0.5177 -0.7511
 6110TIP3   OH239964   0.773   2.002   8.139 -0.2335 -0.3055  0.4118
 6110TIP3    H139965   0.686   1.973   8.111 -0.5937  0.5257  0.6208
 6110TIP3    H239966   0.786   2.085   8.094 -0.0300  0.1268  1.2479
 6111TIP3   OH239967   1.842   4.691   7.840  0.2987  0.3954 -0.0638
 6111TIP3    H139968   1.813   4.783   7.847  0.0074  0.1801  3.1353
 6111TIP3    H239969   1.937   4.696   7.841  0.2953  0.6525  1.7175
 6112TIP3   OH239970   3.942   0.130   1.286  0.3524 -0.3042 -0.6253
 6112TIP3    H139971   4.016   0.190   1.297  1.2903 -1.3589 -1.0201
 6112TIP3    H239972   3.979   0.055   1.239 -0.9573 -0.8862 -0.7559
 6113TIP3   OH239973   4.758   0.460   0.697 -0.0151 -0.3873 -0.6440
 6113TIP3    H139974   4.743   0.554   0.690  2.8752  0.1012 -1.5903
 6113TIP3    H239975   4.789   0.448   0.787  3.6255  0.3899 -1.6202
 6114TIP3   OH239976   6.311   6.522   1.213 -0.6007 -0.0979 -0.7135
 6114TIP3    H139977   6.243   6.464   1.177 -0.8912 -0.7024  0.7154
 6114TIP3    H239978   6.376   6.462   1.250 -1.0039  0.4613  0.9811
 6115TIP3   OH239979   6.630   3.667   0.766  0.1066  0.5251  0.7391
 6115TIP3    H139980   6.687   3.594   0.790  2.1450  2.0370  0.8247
 6115TIP3    H239981   6.645   3.733   0.834 -2.8668  0.5005  1.5540
 6116TIP3   OH239982   3.516   6.492   0.305  0.0996  0.5119 -0.0566
 6116TIP3    H139983   3.459   6.416   0.292  0.3211  0.4374 -0.6167
 6116TIP3    H239984   3.531   6.494   0.399  0.8851 -0.7222 -0.1286
 6117TIP3   OH239985   5.360   4.110   0.533  0.0348  0.1031 -0.1098
 6117TIP3    H139986   5.276   4.065   0.530  0.1866 -0.1628 -0.3780
 6117TIP3    H239987   5.338   4.202   0.522 -0.1696 -0.0230 -0.7752
 6118TIP3   OH239988   3.414   3.105   7.362 -0.5676  0.0397 -0.5213
 6118TIP3    H139989   3.470   3.065   7.428 -1.6086  0.6319  0.7695
 6118TIP3    H239990   3.367   3.032   7.322 -0.3734 -0.2728 -0.1822
 6119TIP3   OH239991   1.060   2.913   1.299  0.3431 -0.0706 -0.1216
 6119TIP3    H139992   1.106   2.840   1.340 -0.3543 -1.1487 -1.1979
 6119TIP3    H239993   0.967   2.891   1.308 -0.1766  2.7064  3.2205
 6120TIP3   OH239994   4.067   1.707   0.741 -0.0435 -0.2805 -0.6801
 6120TIP3    H139995   3.984   1.741   0.774  1.1136  1.2977  0.7933
 6120TIP3    H239996   4.063   1.722   0.646 -1.2279  0.2484 -0.5662
 6121TIP3   OH239997   6.100   5.499   1.712  0.5728 -0.1688  0.2088
 6121TIP3    H139998   6.150   5.449   1.647 -0.4442  0.2266 -0.9274
 6121TIP3    H239999   6.037   5.548   1.660  0.8219  1.4702  1.3830
 6122TIP3   OH240000   3.175   5.762   7.346  0.2029 -0.0879 -0.7309
 6122TIP3    H140001   3.240   5.808   7.293 -0.2497  1.9755  0.4318
 6122TIP3    H240002   3.147   5.689   7.290  1.9535  0.1883 -2.0825
 6123TIP3   OH240003   3.539   5.241   7.652  0.4392 -0.4074 -0.1032
 6123TIP3    H140004   3.624   5.284   7.654  0.1140  0.2886 -0.7556
 6123TIP3    H240005   3.557   5.151   7.678  1.7567 -0.8807 -2.4279
 6124TIP3   OH240006   4.703   0.739   8.561  0.0712 -0.5128  0.5673
 6124TIP3    H140007   4.608   0.747   8.572  0.3880  1.4855  2.5634
 6124TIP3    H240008   4.735   0.720   8.649  1.6108 -0.0725  0.1280
 6125TIP3   OH240009   3.734   6.721   0.442  0.2016  0.6107  0.2556
 6125TIP3    H140010   3.680   6.758   0.372 -0.2904 -0.7708 -0.1145
 6125TIP3    H240011   3.689   6.748   0.523 -2.1257 -1.9458 -0.0470
 6126TIP3   OH240012   2.700   0.718   2.164  0.8608 -0.0248 -0.0817
 6126TIP3    H140013   2.738   0.656   2.227  2.6526  0.1449 -0.9337
 6126TIP3    H240014   2.706   0.673   2.080  2.5391  1.3975 -0.7741
 6127TIP3   OH240015   2.874   6.861   7.602  0.0985 -0.3212 -0.3587
 6127TIP3    H140016   2.784   6.881   7.629  0.1731 -2.4064  1.8049
 6127TIP3    H240017   2.906   6.942   7.563 -2.0319  1.1397  0.7044
 6128TIP3   OH240018   2.345   5.149   0.081 -0.0012 -0.1535 -0.9159
 6128TIP3    H140019   2.322   5.237   0.051 -1.9357 -0.5390 -0.7411
 6128TIP3    H240020   2.302   5.090   0.018 -0.0329 -0.9611 -0.1662
 6129TIP3   OH240021   2.146   6.292   2.472  0.2993  1.1165 -0.1945
 6129TIP3    H140022   2.105   6.206   2.471  0.1908  1.1334  1.3780
 6129TIP3    H240023   2.212   6.287   2.541  0.5264  2.1890 -0.3071
 6130TIP3   OH240024   0.997   3.712   1.849 -0.2698  0.1457  0.2618
 6130TIP3    H140025   1.054   3.692   1.775 -0.9336 -0.0481 -0.2035
 6130TIP3    H240026   1.056   3.749   1.915  0.2933  0.5227 -0.4378
 6131TIP3   OH240027   5.414   3.757   7.794 -0.0931  0.1086  0.0196
 6131TIP3    H140028   5.377   3.672   7.819 -0.2223  0.2376  0.2714
 6131TIP3    H240029   5.341   3.804   7.755  0.3479 -0.4784 -1.6023
 6132TIP3   OH240030   0.480   4.420   0.805  0.0348  0.6257 -0.8645
 6132TIP3    H140031   0.483   4.414   0.901 -1.9706  3.9410 -0.4385
 6132TIP3    H240032   0.563   4.463   0.782  0.2705  0.3477 -0.5454
 6133TIP3   OH240033   3.343   3.050   1.902 -0.0841  0.0103 -0.3360
 6133TIP3    H140034   3.397   3.053   1.981 -0.6507 -1.2117  0.1201
 6133TIP3    H240035   3.353   2.961   1.869 -2.1287 -0.4056  0.0120
 6134TIP3   OH240036   3.385   2.695   1.446  0.1001  0.2640  0.0757
 6134TIP3    H140037   3.434   2.765   1.403  0.9897  0.1942  0.9370
 6134TIP3    H240038   3.404   2.617   1.395 -1.9863  0.8207 -1.7255
 6135TIP3   OH240039   3.267   6.275   1.683 -0.3486 -0.2713 -0.1691
 6135TIP3    H140040   3.345   6.305   1.635 -0.5077  1.1714  0.4132
 6135TIP3    H240041   3.263   6.332   1.759 -1.8581 -0.4790 -0.0702
 6136TIP3   OH240042   1.062   3.237   0.979 -0.0418  0.1191  0.0443
 6136TIP3    H140043   1.010   3.172   1.027 -1.4724  0.8838 -0.4051
 6136TIP3    H240044   1.153   3.218   1.003 -0.3073 -2.6804 -0.8631
 6137TIP3   OH240045   5.019   0.733   0.694 -0.0544  0.3334  0.1272
 6137TIP3    H140046   4.973   0.809   0.659 -0.3860  0.0008 -0.1657
 6137TIP3    H240047   4.987   0.726   0.785 -0.7025  0.0265 -0.1115
 6138TIP3   OH240048   1.052   5.719   0.279 -0.0401  0.0445 -0.3578
 6138TIP3    H140049   0.977   5.725   0.338 -0.2337  0.5393 -0.6445
 6138TIP3    H240050   1.071   5.625   0.273 -0.6045 -0.0792 -0.2484
 6139TIP3   OH240051   1.263   0.857   7.285 -0.0482 -0.3501 -0.4419
 6139TIP3    H140052   1.246   0.855   7.191  0.4425 -0.7160 -0.5272
 6139TIP3    H240053   1.237   0.770   7.316  0.5154 -0.4974 -0.3735
 6140TIP3   OH240054   1.298   0.749   2.902  0.2689 -0.2675 -0.2095
 6140TIP3    H140055   1.297   0.843   2.917 -1.6124 -0.0554 -1.3416
 6140TIP3    H240056   1.364   0.715   2.962 -1.5755  1.3189  2.9398
 6141TIP3   OH240057   6.660   5.460   0.118 -0.1452 -0.0645  0.0433
 6141TIP3    H140058   6.570   5.477   0.092  0.2398  2.3010  0.0284
 6141TIP3    H240059   6.679   5.527   0.184  1.4997 -0.7046  0.2764
 6142TIP3   OH240060   3.255   4.021   7.761  0.1107 -0.1570 -0.2273
 6142TIP3    H140061   3.206   4.048   7.684 -0.3689 -1.0832 -0.2569
 6142TIP3    H240062   3.265   3.926   7.751  0.3807 -0.2298  0.6569
 6143TIP3   OH240063   5.676   1.438   8.224  0.1371  0.1413 -0.6406
 6143TIP3    H140064   5.659   1.411   8.315 -2.4128  2.1892 -0.3992
 6143TIP3    H240065   5.644   1.365   8.172  1.0922 -0.8170  0.0734
 6144TIP3   OH240066   1.297   0.441   2.740 -0.3101  0.0276 -0.5171
 6144TIP3    H140067   1.386   0.468   2.719 -0.4318 -0.6555 -1.9689
 6144TIP3    H240068   1.308   0.358   2.786 -0.0463  1.5238  2.3958
 6145TIP3   OH240069   3.660   5.210   0.933  0.0822  0.0155  0.6704
 6145TIP3    H140070   3.722   5.180   0.999 -0.9320  1.1907  2.2472
 6145TIP3    H240071   3.699   5.290   0.898  0.7503 -0.7553 -0.3945
 6146TIP3   OH240072   3.293   5.289   1.638  0.1758  0.2980  0.3628
 6146TIP3    H140073   3.336   5.204   1.636 -0.8215 -0.2049 -0.6138
 6146TIP3    H240074   3.362   5.351   1.611  1.1431 -0.0510  1.9080
 6147TIP3   OH240075   5.432   5.142   7.862  0.3366 -0.1399  0.0195
 6147TIP3    H140076   5.345   5.102   7.869 -0.8502  1.5479 -3.2116
 6147TIP3    H240077   5.475   5.093   7.792  1.2273  0.3215  0.2284
 6148TIP3   OH240078   5.869   5.550   1.021  0.3945 -0.0724 -0.1708
 6148TIP3    H140079   5.908   5.493   1.087  0.0044  0.7387  0.7704
 6148TIP3    H240080   5.920   5.532   0.942  0.5884 -1.3712  0.2205
 6149TIP3   OH240081   4.795   5.640   0.685 -0.1938  0.0931 -0.1938
 6149TIP3    H140082   4.781   5.644   0.590 -0.5225  0.8331 -0.1166
 6149TIP3    H240083   4.777   5.728   0.716  0.5848  0.0332  0.4748
 6150TIP3   OH240084   2.833   1.866   7.911  0.7228  0.4757 -0.3036
 6150TIP3    H140085   2.860   1.852   7.821 -2.0994  1.5504 -1.4383
 6150TIP3    H240086   2.815   1.778   7.945  1.3964  0.0946 -0.9239
 6151TIP3   OH240087   6.384   0.196   2.492  0.6617 -0.9940  0.1621
 6151TIP3    H140088   6.426   0.260   2.550 -0.0950 -0.4917  0.1626
 6151TIP3    H240089   6.364   0.244   2.412  1.8163 -1.7209 -0.5844
 6152TIP3   OH240090   4.281   4.126   7.894 -0.6508 -0.4719  0.5536
 6152TIP3    H140091   4.296   4.091   7.806 -0.6346  1.0740 -0.0909
 6152TIP3    H240092   4.187   4.115   7.908 -0.9010  0.4559 -0.2257
 6153TIP3   OH240093   3.625   2.823   1.662 -0.3912 -0.0582 -0.1308
 6153TIP3    H140094   3.716   2.831   1.691 -0.3601  2.4670 -0.6963
 6153TIP3    H240095   3.619   2.735   1.625  1.6501 -0.4778  0.4154
 6154TIP3   OH240096   6.012   1.683   6.833  0.1173  0.2596 -0.1720
 6154TIP3    H140097   5.937   1.740   6.815  0.8774  1.2600 -0.2436
 6154TIP3    H240098   6.030   1.641   6.749 -0.8630 -0.6400  0.0353
 6155TIP3   OH240099   4.216   1.062   8.378 -0.2054  0.3574 -0.1407
 6155TIP3    H140100   4.143   1.047   8.438 -0.7082  3.5548  0.2258
 6155TIP3    H240101   4.294   1.037   8.429 -0.8724 -1.9733 -0.1262
 6156TIP3   OH240102   3.802   2.940   1.130 -0.4246 -0.2370 -0.3850
 6156TIP3    H140103   3.767   2.896   1.052  1.8659 -0.9325 -1.1010
 6156TIP3    H240104   3.860   2.875   1.170  0.5482  1.0524  0.3627
 6157TIP3   OH240105   6.158   5.334   8.587  0.4459 -0.2518 -0.5801
 6157TIP3    H140106   6.116   5.249   8.601  0.2995 -0.1293 -0.2496
 6157TIP3    H240107   6.244   5.313   8.552  0.3586 -0.5312 -0.6330
 6158TIP3   OH240108   0.472   6.476   8.543  0.1547 -0.3178  0.4783
 6158TIP3    H140109   0.555   6.429   8.541  0.4490  0.1952 -0.3200
 6158TIP3    H240110   0.486   6.551   8.485 -0.3488  0.6670  1.5824
 6159TIP3   OH240111   3.681   1.258   1.381 -0.4667 -0.1765 -0.5016
 6159TIP3    H140112   3.591   1.290   1.377  0.5540  3.1028  0.4384
 6159TIP3    H240113   3.706   1.267   1.473  1.0765 -0.2987 -0.8824
 6160TIP3   OH240114   3.009   3.274   1.742 -0.0466 -0.5142  0.2461
 6160TIP3    H140115   2.955   3.277   1.821  0.6484 -0.5855  0.7297
 6160TIP3    H240116   3.073   3.344   1.754 -1.9353  1.7497 -1.7508
 6161TIP3   OH240117   6.779   2.598   1.692 -0.1528  0.0091 -0.0699
 6161TIP3    H140118   6.855   2.586   1.749 -0.9441  0.0452  1.0344
 6161TIP3    H240119   6.714   2.537   1.727 -1.4352  1.6512  0.4922
 6162TIP3   OH240120   0.531   1.587   1.256  0.0297 -0.7123  0.0799
 6162TIP3    H140121   0.531   1.679   1.280 -0.3570 -0.8401  0.5876
 6162TIP3    H240122   0.479   1.583   1.175 -0.2384 -0.5276  0.2413
 6163TIP3   OH240123   6.114   4.742   8.077 -0.0874  0.0640 -0.2598
 6163TIP3    H140124   6.062   4.808   8.121  0.8600  0.3415  0.4739
 6163TIP3    H240125   6.176   4.791   8.024 -0.5786 -0.2616 -1.1539
 6164TIP3   OH240126   4.464   1.671   0.509 -0.4761  0.6125 -0.6042
 6164TIP3    H140127   4.406   1.620   0.453 -0.1641 -1.9683  1.2525
 6164TIP3    H240128   4.417   1.676   0.593  1.8074 -1.3897  0.8959
 6165TIP3   OH240129   0.730   4.684   7.639  0.5794 -0.6751  0.6084
 6165TIP3    H140130   0.639   4.713   7.626  0.1924 -1.9591  0.3036
 6165TIP3    H240131   0.777   4.763   7.663 -0.1346  0.4755 -1.5611
 6166TIP3   OH240132   5.049   2.901   2.610 -0.6563 -0.2650 -0.0693
 6166TIP3    H140133   5.013   2.813   2.597  2.7741 -2.0422  1.3022
 6166TIP3    H240134   5.078   2.902   2.701  3.4761  0.5070 -1.2175
 6167TIP3   OH240135   1.636   5.851   8.598  0.2039  0.0894 -0.2874
 6167TIP3    H140136   1.658   5.944   8.595 -0.4304  0.2223 -1.3400
 6167TIP3    H240137   1.553   5.845   8.551 -1.1577 -0.6244  2.0394
 6168TIP3   OH240138   5.768   4.642   0.597 -0.4379  0.1719  0.0107
 6168TIP3    H140139   5.794   4.734   0.598  0.7903 -0.1481 -0.4203
 6168TIP3    H240140   5.699   4.636   0.663 -0.3946  1.3590  0.1903
 6169TIP3   OH240141   3.998   4.391   7.748  0.4635 -0.0388 -0.2112
 6169TIP3    H140142   3.979   4.338   7.826 -0.8344 -1.3446 -1.3784
 6169TIP3    H240143   4.090   4.373   7.729  0.9567  0.6836  1.2600
 6170TIP3   OH240144   0.582   1.209   1.722 -0.0526  0.1097 -0.1957
 6170TIP3    H140145   0.497   1.167   1.724 -0.3669  0.7427 -0.0052
 6170TIP3    H240146   0.567   1.296   1.759  1.2397 -0.7414  2.5687
 6171TIP3   OH240147   0.600   4.732   3.002  0.2429 -0.2606  1.5371
 6171TIP3    H140148   0.586   4.760   3.093 -0.3754 -0.2199  1.4331
 6171TIP3    H240149   0.665   4.662   3.008 -0.6791 -1.0877  2.1387
 6172TIP3   OH240150   1.673   5.933   0.929 -0.2633  0.5588 -0.1363
 6172TIP3    H140151   1.601   5.886   0.887  1.1701  1.2302 -3.5914
 6172TIP3    H240152   1.708   5.870   0.992 -0.3678 -1.9328 -2.3976
 6173TIP3   OH240153   5.791   3.029   7.632 -0.0125 -0.0373 -0.1237
 6173TIP3    H140154   5.725   3.098   7.622 -2.7154 -2.4072  0.1179
 6173TIP3    H240155   5.810   3.000   7.543  0.5286  0.4219 -0.1696
 6174TIP3   OH240156   5.053   4.170   0.294 -0.0014 -0.4254  0.1330
 6174TIP3    H140157   5.089   4.140   0.377  3.7277  1.5779 -0.5568
 6174TIP3    H240158   5.081   4.104   0.230  1.8837  0.6924 -0.2671
 6175TIP3   OH240159   4.726   0.727   2.965  0.2688  0.1938 -0.3201
 6175TIP3    H140160   4.755   0.639   2.992 -0.3925  0.2131  0.5118
 6175TIP3    H240161   4.796   0.759   2.908  1.9058  0.2587  1.6067
 6176TIP3   OH240162   6.559   4.552   7.912 -0.2246 -0.0287  0.1807
 6176TIP3    H140163   6.507   4.490   7.860 -0.2555 -1.2814  1.6390
 6176TIP3    H240164   6.585   4.503   7.989  0.2416  1.6270  1.1301
 6177TIP3   OH240165   4.090   5.295   7.786 -0.5204  0.0301 -0.6199
 6177TIP3    H140166   4.080   5.210   7.741 -1.2369 -1.0341  1.4247
 6177TIP3    H240167   4.021   5.296   7.852  0.8556  1.2108  0.9005
 6178TIP3   OH240168   4.408   2.151   1.970  0.4355 -0.5742 -0.1237
 6178TIP3    H140169   4.314   2.147   1.951  0.5878 -0.7874 -0.8784
 6178TIP3    H240170   4.431   2.061   1.993  0.0718 -0.1602  2.0978
 6179TIP3   OH240171   1.529   2.496   0.038 -0.4494  0.0313 -0.0238
 6179TIP3    H140172   1.496   2.549  -0.035  0.8621  0.5070 -0.3035
 6179TIP3    H240173   1.460   2.432   0.054 -2.2060  1.9107  0.4413
 6180TIP3   OH240174   5.795   5.314   1.598 -0.3236  0.1984 -0.3190
 6180TIP3    H140175   5.856   5.256   1.552  1.4739  2.3362 -0.8034
 6180TIP3    H240176   5.822   5.310   1.689  1.2707  1.8642 -0.6652
 6181TIP3   OH240177   0.614   4.987   8.053  0.0817 -0.0115 -0.3073
 6181TIP3    H140178   0.592   4.894   8.053 -1.0333  0.1940 -2.2243
 6181TIP3    H240179   0.645   5.005   8.142 -1.0541 -1.8860  0.5200
 6182TIP3   OH240180   2.695   5.912   0.201 -0.2998 -0.2294  0.6065
 6182TIP3    H140181   2.737   5.930   0.117  0.4683 -1.2767  0.7462
 6182TIP3    H240182   2.637   5.987   0.215 -0.9026 -0.3006 -1.1482
 6183TIP3   OH240183   6.301   0.837   8.253  0.0171  0.2735  0.2109
 6183TIP3    H140184   6.224   0.831   8.311 -0.9254  1.9751 -0.7725
 6183TIP3    H240185   6.299   0.927   8.221  1.1051 -0.3163 -1.6531
 6184TIP3   OH240186   5.934   0.937   6.797 -0.1952  0.6945 -0.6500
 6184TIP3    H140187   6.028   0.955   6.798 -0.0783  0.1623 -1.2811
 6184TIP3    H240188   5.901   0.987   6.723 -0.4016  0.8448 -0.4562
 6185TIP3   OH240189   5.828   3.966   8.048  0.0870  0.0362 -0.3560
 6185TIP3    H140190   5.834   3.874   8.023 -1.8522 -0.4582  0.8008
 6185TIP3    H240191   5.906   3.982   8.100  1.3906 -0.3992 -2.0655
 6186TIP3   OH240192   2.067   1.849   1.166  0.0245  0.5554 -0.2873
 6186TIP3    H140193   2.031   1.763   1.143 -0.1194  0.3205  0.7293
 6186TIP3    H240194   2.016   1.877   1.242  1.4012  0.5971  0.6741
 6187TIP3   OH240195   0.859   4.906   7.727 -0.2895 -0.1406  0.3075
 6187TIP3    H140196   0.931   4.856   7.689 -0.3673  0.0516 -0.1061
 6187TIP3    H240197   0.833   4.966   7.657  0.0088  0.6913  0.8921
 6188TIP3   OH240198   4.675   2.578   8.039  0.0064 -0.1853  0.1829
 6188TIP3    H140199   4.712   2.504   8.088  0.8837  0.5341  0.6319
 6188TIP3    H240200   4.677   2.651   8.101  2.5435  1.1576 -1.3231
 6189TIP3   OH240201   3.273   5.850   1.611 -0.0059  0.6526 -0.5818
 6189TIP3    H140202   3.336   5.900   1.558 -0.4925  2.3688  0.3724
 6189TIP3    H240203   3.211   5.916   1.642 -0.5232 -0.5141  0.9776
 6190TIP3   OH240204   5.903   3.908   1.435  0.3002  0.3256  0.3658
 6190TIP3    H140205   5.961   3.832   1.442  1.4216  1.1951  0.8348
 6190TIP3    H240206   5.815   3.873   1.450  0.7907 -0.8956  0.4491
 6191TIP3   OH240207   3.128   1.922   1.944  0.2324  0.1592 -0.4473
 6191TIP3    H140208   3.207   1.949   1.897 -0.0995  0.5776 -0.7759
 6191TIP3    H240209   3.159   1.891   2.028  0.7312  0.5080 -0.4998
 6192TIP3   OH240210   5.717   1.790   6.535 -0.0089  0.5835 -0.3054
 6192TIP3    H140211   5.753   1.847   6.467 -1.9487  3.0072  0.5681
 6192TIP3    H240212   5.772   1.806   6.611 -0.7360  1.5581  0.0254
 6193TIP3   OH240213   1.567   4.130   7.556  0.2598 -0.4943  0.1100
 6193TIP3    H140214   1.633   4.138   7.625 -0.9885 -0.9194  1.3954
 6193TIP3    H240215   1.552   4.220   7.526  0.7569 -0.2973  0.4407
 6194TIP3   OH240216   1.015   4.331   2.138 -0.1287 -0.4513  0.3173
 6194TIP3    H140217   1.081   4.345   2.206 -1.1667 -1.8176  1.6959
 6194TIP3    H240218   0.976   4.246   2.160  0.7224 -1.8775 -3.0642
 6195TIP3   OH240219   4.317   4.075   7.283  0.0699 -0.0860 -0.3926
 6195TIP3    H140220   4.240   4.075   7.225 -0.9345 -0.4859  0.8944
 6195TIP3    H240221   4.302   4.149   7.342 -0.1653 -1.0998  0.8832
 6196TIP3   OH240222   1.079   0.675   8.450  0.6857 -0.4896  0.2484
 6196TIP3    H140223   1.041   0.760   8.471  1.0869 -0.2373 -0.0128
 6196TIP3    H240224   1.174   0.690   8.452  0.7617 -0.5065 -1.4486
 6197TIP3   OH240225   4.738   4.082   7.060  0.4390  0.4258 -0.2322
 6197TIP3    H140226   4.679   4.006   7.057  1.0121 -0.0003 -1.0872
 6197TIP3    H240227   4.709   4.137   6.988  1.8017 -0.3523 -1.4229
 6198TIP3   OH240228   0.756   1.365   0.556 -0.4636 -0.8253 -0.4507
 6198TIP3    H140229   0.763   1.328   0.468  0.6462  1.1548 -1.2521
 6198TIP3    H240230   0.700   1.442   0.545 -2.5918 -2.0312  1.1411
 6199TIP3   OH240231   1.958   2.567   8.598 -0.2069 -0.0790 -0.1837
 6199TIP3    H140232   1.886   2.507   8.578  0.8220 -1.5420  0.3317
 6199TIP3    H240233   2.036   2.522   8.566  0.4870  1.6324 -1.0486
 6200TIP3   OH240234   2.495   3.745   2.589 -0.5615 -0.2321  0.0142
 6200TIP3    H140235   2.576   3.749   2.539 -0.0486  2.8344  0.8425
 6200TIP3    H240236   2.426   3.764   2.525 -0.4900 -1.4506 -0.4357
 6201TIP3   OH240237   2.082   2.922   0.884 -0.7261  0.1407 -0.8223
 6201TIP3    H140238   2.140   2.870   0.940 -0.3708  1.6505  0.2638
 6201TIP3    H240239   2.137   2.952   0.812 -0.8033 -0.5222 -1.1657
 6202TIP3   OH240240   4.870   5.714   7.060 -0.8092 -0.3228 -0.3919
 6202TIP3    H140241   4.926   5.792   7.059 -1.9965  0.5496 -0.7996
 6202TIP3    H240242   4.928   5.643   7.089  0.0298  0.9081  1.0610
 6203TIP3   OH240243   6.853   3.227   8.004  0.4365 -0.1307 -0.1524
 6203TIP3    H140244   6.786   3.180   8.054 -0.6443  0.8788 -0.5820
 6203TIP3    H240245   6.897   3.160   7.952  0.1382 -0.8931  0.5593
 6204TIP3   OH240246   0.615   1.926   6.695  0.5997 -0.1995 -0.1271
 6204TIP3    H140247   0.667   1.871   6.637  1.0988  2.1568 -2.0857
 6204TIP3    H240248   0.667   1.933   6.776  0.7991 -2.0149 -0.0744
 6205TIP3   OH240249   4.318   3.330   0.504 -1.0317  0.1648 -0.0454
 6205TIP3    H140250   4.322   3.259   0.568  1.5706  0.7561  0.5465
 6205TIP3    H240251   4.227   3.328   0.472 -1.6396 -1.9490  1.5732
 6206TIP3   OH240252   0.423   0.092   2.227  0.0979 -0.4050 -0.2960
 6206TIP3    H140253   0.495   0.102   2.164 -0.3057 -2.9758 -1.2701
 6206TIP3    H240254   0.345   0.117   2.178 -0.0153 -0.7415 -0.2932
 6207TIP3   OH240255   4.776   1.173   8.288 -0.5875 -0.7808  0.6460
 6207TIP3    H140256   4.705   1.236   8.293 -0.0790 -0.2384  1.3140
 6207TIP3    H240257   4.733   1.088   8.293 -1.2093 -0.4687  0.7055
 6208TIP3   OH240258   1.169   1.101   1.007  0.3387 -0.0778  0.3851
 6208TIP3    H140259   1.233   1.160   0.967  0.1147 -0.2760 -0.2699
 6208TIP3    H240260   1.221   1.046   1.066  0.9660 -0.9848 -0.9583
 6209TIP3   OH240261   0.297   6.817   8.549 -0.0651 -0.0917  0.1504
 6209TIP3    H140262   0.307   6.742   8.491 -0.4464 -0.3875  0.4576
 6209TIP3    H240263   0.378   6.867   8.539 -0.2419  0.0254 -0.8547
 6210TIP3   OH240264   0.133   0.700   0.588  0.3622  0.1119 -0.0088
 6210TIP3    H140265   0.193   0.714   0.516 -1.4296  2.0307 -1.2279
 6210TIP3    H240266   0.173   0.630   0.639  2.3314 -0.4200 -2.1280
 6211TIP3   OH240267   4.341   1.989   8.498  0.2176  0.1454 -0.0860
 6211TIP3    H140268   4.372   1.977   8.409 -1.7827  1.6338 -1.0602
 6211TIP3    H240269   4.303   2.077   8.499 -1.7288 -0.6141  1.6062
 6212TIP3   OH240270   3.903   6.338   0.915 -0.3248 -0.4247  0.3396
 6212TIP3    H140271   3.927   6.246   0.900  0.4830 -0.1018 -0.4201
 6212TIP3    H240272   3.985   6.386   0.907 -0.8765  0.4631 -0.0912
 6213TIP3   OH240273   6.479   6.599   1.568 -0.1445  0.8098  0.4109
 6213TIP3    H140274   6.395   6.640   1.551 -0.0417 -0.1351 -3.0874
 6213TIP3    H240275   6.542   6.671   1.566 -0.5088  1.1080 -0.4100
 6214TIP3   OH240276   1.890   3.478   8.209  0.1671 -0.9046  0.1711
 6214TIP3    H140277   1.870   3.409   8.272  0.5487 -0.4445  0.8119
 6214TIP3    H240278   1.883   3.435   8.124  1.6482 -2.0682  0.5911
 6215TIP3   OH240279   3.333   0.668   1.769 -0.1878 -0.4940 -0.4894
 6215TIP3    H140280   3.343   0.756   1.732 -3.0499  0.7268  1.3252
 6215TIP3    H240281   3.289   0.618   1.700  1.0854 -0.4416 -1.3751
 6216TIP3   OH240282   2.685   2.184   1.634 -0.1734 -0.3603  0.1078
 6216TIP3    H140283   2.640   2.101   1.649 -1.2095 -0.0939 -1.3110
 6216TIP3    H240284   2.757   2.162   1.575 -0.3330 -0.2851 -0.1161
 6217TIP3   OH240285   0.071   5.537   2.530  0.2710  0.0150  0.4226
 6217TIP3    H140286   0.116   5.553   2.612  0.8742  0.2269  0.0541
 6217TIP3    H240287  -0.016   5.577   2.542  0.5065  0.4170  0.8024
 6218TIP3   OH240288   6.636   4.004   0.030  0.2600 -0.6629 -0.4822
 6218TIP3    H140289   6.721   4.048   0.037 -1.3582  2.7976 -0.4485
 6218TIP3    H240290   6.593   4.048  -0.043 -2.6031 -0.0881  1.3980
 6219TIP3   OH240291   6.417   0.698   6.591  0.1450  0.0242  0.0102
 6219TIP3    H140292   6.350   0.681   6.658 -1.1818  0.7010 -1.0829
 6219TIP3    H240293   6.418   0.793   6.582  0.9918 -0.0051 -0.2628
 6220TIP3   OH240294   4.058   6.267   2.729  0.0875 -0.1206  0.1302
 6220TIP3    H140295   4.072   6.261   2.823 -0.6659  1.0836  0.3496
 6220TIP3    H240296   4.087   6.355   2.706  2.1133 -1.0411 -1.1445
 6221TIP3   OH240297   2.339   4.824   7.097 -0.0046  0.2353 -0.0493
 6221TIP3    H140298   2.312   4.737   7.127  3.3304 -1.0851 -0.5157
 6221TIP3    H240299   2.333   4.820   7.001 -0.3394  0.7552 -0.0611
 6222TIP3   OH240300   0.055   5.825   0.924 -0.4643  0.2408  0.1009
 6222TIP3    H140301   0.015   5.749   0.882  0.6892 -0.5998  0.4666
 6222TIP3    H240302   0.095   5.790   1.004  1.4911  0.8959 -0.5372
 6223TIP3   OH240303   2.063   5.789   1.347  0.0819  0.0782 -0.3332
 6223TIP3    H140304   2.047   5.696   1.332  0.2567  0.0168 -0.1481
 6223TIP3    H240305   1.981   5.821   1.385  0.0704 -0.0321 -0.2634
 6224TIP3   OH240306   4.216   1.917   2.295  0.0701  0.5160  0.1693
 6224TIP3    H140307   4.150   1.889   2.358  0.9818  1.6624  1.6892
 6224TIP3    H240308   4.198   2.010   2.281  1.3218  0.8378  0.5912
 6225TIP3   OH240309   4.725   1.180   7.430 -0.1982  0.6069 -0.0803
 6225TIP3    H140310   4.754   1.233   7.356  1.6778 -0.3066 -0.0624
 6225TIP3    H240311   4.746   1.233   7.507  0.4715  0.3900 -0.1094
 6226TIP3   OH240312   6.572   2.078   8.464  0.3819  0.4894 -0.0586
 6226TIP3    H140313   6.605   2.074   8.554  1.2047  1.1436 -0.3237
 6226TIP3    H240314   6.485   2.037   8.468  1.0678 -0.9423  0.7226
 6227TIP3   OH240315   0.167   3.600   8.049 -0.1825 -0.9770  0.7148
 6227TIP3    H140316   0.110   3.634   7.981  0.8992  0.0329  0.2781
 6227TIP3    H240317   0.213   3.677   8.083  0.1700 -1.6242  1.7562
 6228TIP3   OH240318   5.752   4.895   0.290  0.2497  0.1925 -0.2411
 6228TIP3    H140319   5.789   4.806   0.292  0.6162  0.3461  1.0931
 6228TIP3    H240320   5.725   4.907   0.200 -0.6939 -1.6461 -0.2631
 6229TIP3   OH240321   2.327   3.652   1.540 -0.3969 -0.2289 -0.0146
 6229TIP3    H140322   2.367   3.580   1.491 -0.4578  1.1303 -2.1579
 6229TIP3    H240323   2.233   3.640   1.530 -0.4007  0.7449 -1.3542
 6230TIP3   OH240324   1.630   2.006   7.187 -0.4745 -0.3974 -0.1872
 6230TIP3    H140325   1.702   1.964   7.234 -1.9168 -2.5306  0.2706
 6230TIP3    H240326   1.645   2.100   7.198  1.6159 -0.8019  0.7930
 6231TIP3   OH240327   1.692   1.112   7.386  0.1207 -0.2827 -0.4804
 6231TIP3    H140328   1.715   1.086   7.296 -0.1036  0.8043 -0.8565
 6231TIP3    H240329   1.642   1.037   7.420  2.6726 -2.0174 -0.2104
 6232TIP3   OH240330   3.438   3.489   0.198 -0.2253 -0.1047  0.6446
 6232TIP3    H140331   3.350   3.500   0.162  0.0443 -1.8717 -0.7221
 6232TIP3    H240332   3.429   3.418   0.261 -0.0498  0.7849  1.7024
 6233TIP3   OH240333   6.166   4.264   3.205  0.0817  0.4897 -0.1941
 6233TIP3    H140334   6.102   4.320   3.161 -0.4225  0.5664  0.6153
 6233TIP3    H240335   6.233   4.325   3.237 -0.0325  0.5392 -0.0474
 6234TIP3   OH240336   4.483   2.657   1.910  0.1188 -0.4344 -0.0097
 6234TIP3    H140337   4.489   2.566   1.939 -2.3279 -0.3774  0.9243
 6234TIP3    H240338   4.389   2.671   1.896  0.4665  1.8793 -0.3691
 6235TIP3   OH240339   5.123   2.869   2.892  0.6358 -0.4193 -0.2023
 6235TIP3    H140340   5.039   2.852   2.934 -0.4179 -0.1997 -2.1026
 6235TIP3    H240341   5.147   2.957   2.921  0.1922 -0.4805  0.3452
 6236TIP3   OH240342   6.494   2.895   8.480 -0.1517 -0.2022  0.4500
 6236TIP3    H140343   6.576   2.852   8.506  0.7002  1.1617  0.0806
 6236TIP3    H240344   6.478   2.863   8.391 -0.5477 -1.1917  0.8541
 6237TIP3   OH240345   5.870   3.047   7.343 -0.2839  0.2411  0.0863
 6237TIP3    H140346   5.824   3.129   7.325 -2.3186 -1.2174 -1.8988
 6237TIP3    H240347   5.807   2.979   7.322  1.7442 -1.8958  0.4764
 6238TIP3   OH240348   0.964   3.884   1.419 -0.4298  0.1840  0.4152
 6238TIP3    H140349   1.000   3.973   1.418  1.2730 -0.4663 -1.4631
 6238TIP3    H240350   0.975   3.852   1.330 -1.1375 -1.8924  1.0150
 6239TIP3   OH240351   2.199   4.689   0.876 -0.0615  0.2424 -0.0541
 6239TIP3    H140352   2.270   4.748   0.903  0.4630  0.4518 -1.7789
 6239TIP3    H240353   2.152   4.738   0.809 -1.1056 -0.3845  0.2070
 6240TIP3   OH240354   1.650   1.892   1.309  0.8671  0.8329 -0.0836
 6240TIP3    H140355   1.741   1.867   1.325 -0.0810 -2.4321  1.1353
 6240TIP3    H240356   1.625   1.840   1.232 -0.2305  0.8810  0.2242
 6241TIP3   OH240357   5.106   3.523   8.077 -0.0617  0.1839  0.2681
 6241TIP3    H140358   5.162   3.569   8.139 -0.6138  2.8426 -1.0637
 6241TIP3    H240359   5.043   3.589   8.048 -0.4746 -1.2104 -2.3233
 6242TIP3   OH240360   4.021   0.320   7.758 -0.0543  0.4704  0.3830
 6242TIP3    H140361   3.957   0.267   7.807  0.2624 -0.3677 -0.0896
 6242TIP3    H240362   4.034   0.272   7.676  3.3754 -1.0481  1.6060
 6243TIP3   OH240363   3.499   4.587   8.179  0.2946 -0.5741 -0.0474
 6243TIP3    H140364   3.450   4.653   8.130  0.4687  0.1720  0.7630
 6243TIP3    H240365   3.590   4.612   8.170  0.4378 -1.2315 -0.4864
 6244TIP3   OH240366   5.511   5.114   2.766 -0.1291 -0.5927 -0.3356
 6244TIP3    H140367   5.485   5.106   2.674 -1.0513  0.6189 -0.2058
 6244TIP3    H240368   5.476   5.035   2.807 -1.9270  0.0430 -0.5625
 6245TIP3   OH240369   1.563   4.854   2.017  0.0024 -0.3688 -0.2324
 6245TIP3    H140370   1.573   4.930   2.074 -0.0397  1.5755 -2.6515
 6245TIP3    H240371   1.632   4.793   2.046  0.0673  0.5605  1.7332
 6246TIP3   OH240372   5.156   1.603   0.216  0.2585 -0.5132  0.3596
 6246TIP3    H140373   5.159   1.512   0.187 -1.4783  0.2699 -2.7011
 6246TIP3    H240374   5.214   1.650   0.155 -0.1185  0.6477  0.8614
 6247TIP3   OH240375   3.168   2.222   8.187  0.3799 -0.3161 -0.7978
 6247TIP3    H140376   3.127   2.141   8.157 -0.5490  0.4825 -1.7334
 6247TIP3    H240377   3.218   2.254   8.112 -0.2493  0.6064 -0.8339
 6248TIP3   OH240378   4.767   3.172   2.314 -0.2963  0.1536  0.3506
 6248TIP3    H140379   4.849   3.122   2.320 -0.0909  0.5087  0.5554
 6248TIP3    H240380   4.783   3.235   2.243 -0.4791  0.0702  0.2336
 6249TIP3   OH240381   6.834   3.081   8.343  0.4800  0.1519 -0.6535
 6249TIP3    H140382   6.786   3.041   8.271  0.0097  0.5736 -0.5832
 6249TIP3    H240383   6.831   3.175   8.324 -1.0647  0.4328  0.7287
 6250TIP3   OH240384   6.594   1.882   1.212 -0.1748  0.1943 -0.1884
 6250TIP3    H140385   6.591   1.839   1.126  0.9600 -0.0067 -0.1469
 6250TIP3    H240386   6.586   1.976   1.192  4.3870  0.6653 -1.0662
 6251TIP3   OH240387   0.917   4.332   6.849 -0.0613 -0.1670  0.1727
 6251TIP3    H140388   0.847   4.360   6.791  0.2815 -0.3369 -0.3329
 6251TIP3    H240389   0.964   4.413   6.871  0.1863 -0.1838 -0.2932
 6252TIP3   OH240390   3.281   0.067   2.745  0.6779 -0.0961 -0.3406
 6252TIP3    H140391   3.338   0.087   2.671  0.6841 -0.1228 -0.3427
 6252TIP3    H240392   3.229  -0.008   2.717 -0.3338  0.7698 -0.8658
 6253TIP3   OH240393   5.835   2.345   8.318  0.4115  0.0761 -0.6877
 6253TIP3    H140394   5.809   2.335   8.410  0.4215 -1.3461 -0.8198
 6253TIP3    H240395   5.929   2.362   8.322 -0.0294  2.9198 -0.3280
 6254TIP3   OH240396   0.130   1.796   6.853  0.0929  0.4020  0.6061
 6254TIP3    H140397   0.140   1.863   6.786 -0.4920 -0.4013 -0.3256
 6254TIP3    H240398   0.119   1.844   6.934 -1.1398  1.4682 -0.1486
 6255TIP3   OH240399   3.202   6.579   7.162 -0.3202  0.4661 -0.6309
 6255TIP3    H140400   3.223   6.613   7.075  0.4097  0.9262 -0.2867
 6255TIP3    H240401   3.119   6.533   7.150 -1.0761  1.9105 -1.2257
 6256TIP3   OH240402   3.805   5.228   2.148  0.5149  0.2110 -0.0330
 6256TIP3    H140403   3.741   5.228   2.218  1.8333  2.2085  1.2813
 6256TIP3    H240404   3.795   5.142   2.106 -1.5203 -0.3464  1.4375
 6257TIP3   OH240405   6.636   5.709   0.234  0.1763 -0.6870  0.2104
 6257TIP3    H140406   6.666   5.770   0.167  0.9146 -0.0768  1.0712
 6257TIP3    H240407   6.541   5.713   0.230  0.2149  0.6001  0.3009
 6258TIP3   OH240408   6.709   6.163   1.268  0.0944  0.5380 -0.0369
 6258TIP3    H140409   6.666   6.090   1.312 -1.3068  1.7493  0.6891
 6258TIP3    H240410   6.791   6.126   1.234 -1.5035 -1.8994 -1.5514
 6259TIP3   OH240411   5.075   1.821   1.431  0.1196  0.1066 -0.3668
 6259TIP3    H140412   5.021   1.742   1.439  0.4708 -0.0243  1.0111
 6259TIP3    H240413   5.107   1.819   1.341 -0.8376 -0.6817 -0.7129
 6260TIP3   OH240414   3.596   0.781   7.501 -0.0430  0.1088 -0.0699
 6260TIP3    H140415   3.529   0.756   7.437 -0.6135 -0.9973  0.9190
 6260TIP3    H240416   3.566   0.864   7.537  0.1158  0.5755 -0.9921
 6261TIP3   OH240417   6.011   0.979   7.149 -0.4762 -0.0200  0.1916
 6261TIP3    H140418   6.075   0.919   7.111  0.6060  1.1064  0.1683
 6261TIP3    H240419   6.044   1.066   7.127 -1.3532  0.6125  1.2659
 6262TIP3   OH240420   0.096   1.574   8.153 -0.1677 -0.0763 -0.5078
 6262TIP3    H140421   0.115   1.494   8.104  1.1393  0.3795 -0.7942
 6262TIP3    H240422   0.023   1.615   8.106 -0.7277 -0.9969 -0.4582
 6263TIP3   OH240423   2.056   1.802   7.867  0.6153  0.0401 -0.1687
 6263TIP3    H140424   2.071   1.737   7.935  0.6116  0.5786  0.3518
 6263TIP3    H240425   2.118   1.872   7.887 -0.2022  0.7329 -0.0223
 6264TIP3   OH240426   2.720   0.619   1.022 -0.2242 -0.6331  0.2167
 6264TIP3    H140427   2.626   0.601   1.008  0.2022 -2.3718 -0.7459
 6264TIP3    H240428   2.745   0.673   0.947 -0.4626 -0.1001  0.5161
 6265TIP3   OH240429   2.695   0.883   7.102  0.0987 -0.5172 -0.0440
 6265TIP3    H140430   2.635   0.838   7.042  1.1574 -1.1048 -0.6760
 6265TIP3    H240431   2.782   0.863   7.069  0.6727 -0.1108  1.1799
 6266TIP3   OH240432   4.924   3.807   0.035  0.3956 -0.8615  0.2546
 6266TIP3    H140433   4.986   3.878   0.049 -1.9135  1.7797 -1.7980
 6266TIP3    H240434   4.841   3.840   0.071 -0.8113 -2.4252 -0.9625
 6267TIP3   OH240435   0.009   1.420   0.239 -0.4789 -0.7533  0.2095
 6267TIP3    H140436   0.078   1.476   0.274 -1.4472  0.6680 -0.0730
 6267TIP3    H240437  -0.043   1.477   0.182 -1.3083 -2.0231 -0.3767
 6268TIP3   OH240438   5.095   2.562   8.010  0.1859 -0.0247  0.1545
 6268TIP3    H140439   5.149   2.641   8.020 -0.1542  0.2643 -0.2571
 6268TIP3    H240440   5.009   2.595   7.982 -0.4134 -0.4185  1.4327
 6269TIP3   OH240441   4.889   4.491   0.639  0.2736  0.6669 -0.2686
 6269TIP3    H140442   4.900   4.399   0.664 -1.7970  0.9424  2.1223
 6269TIP3    H240443   4.875   4.489   0.545  2.4199 -1.2064 -0.6219
 6270TIP3   OH240444   4.446   6.004   0.892  0.0088  0.3462  0.4324
 6270TIP3    H140445   4.366   5.985   0.942  0.5380 -0.7181  0.9162
 6270TIP3    H240446   4.450   5.934   0.828  0.2746  0.7071  0.0534
 6271TIP3   OH240447   3.444   0.029   0.022 -0.3582  0.1708  0.6769
 6271TIP3    H140448   3.467   0.108   0.070  1.1050  1.0699 -1.3601
 6271TIP3    H240449   3.349   0.033   0.014 -0.3943  1.2020  1.4468
 6272TIP3   OH240450   3.212   4.405   2.274  0.0717 -0.5668  0.0131
 6272TIP3    H140451   3.180   4.468   2.339  0.2645  2.2367 -2.4141
 6272TIP3    H240452   3.211   4.321   2.320  0.1089  1.1953  3.5681
 6273TIP3   OH240453   3.740   5.575   2.299 -0.1624  0.1207  0.2458
 6273TIP3    H140454   3.652   5.611   2.308 -0.3275 -0.1641 -0.1901
 6273TIP3    H240455   3.797   5.652   2.290  0.0332  0.4743  3.4257
 6274TIP3   OH240456   6.283   2.942   2.105  0.2474 -0.6427 -0.5905
 6274TIP3    H140457   6.209   2.930   2.164 -0.7459  1.0880 -1.4027
 6274TIP3    H240458   6.320   2.854   2.094 -1.0341 -1.3745  0.6424
 6275TIP3   OH240459   3.141   1.834   0.231  0.3557 -0.0772 -0.1507
 6275TIP3    H140460   3.221   1.887   0.232  0.7920 -0.5324 -2.9032
 6275TIP3    H240461   3.109   1.840   0.141 -0.4875 -3.1277 -0.1770
 6276TIP3   OH240462   2.903   3.365   8.211  0.0668 -0.3717  0.0561
 6276TIP3    H140463   2.997   3.352   8.225  0.6638  2.6008 -0.5227
 6276TIP3    H240464   2.880   3.301   8.144  1.7594 -0.8964 -0.0848
 6277TIP3   OH240465   0.682   6.194   0.434  0.0145 -0.3825  0.4656
 6277TIP3    H140466   0.638   6.267   0.391  0.5777 -0.6227 -0.5366
 6277TIP3    H240467   0.640   6.188   0.520 -1.7386 -0.4593 -0.3736
 6278TIP3   OH240468   4.804   4.139   0.479  0.6213  0.0779  0.6760
 6278TIP3    H140469   4.760   4.222   0.462 -3.0151 -2.0842 -2.2017
 6278TIP3    H240470   4.877   4.137   0.418 -0.9401  0.1695 -1.3076
 6279TIP3   OH240471   2.201   2.423   2.472 -0.3130  0.3274 -0.8172
 6279TIP3    H140472   2.279   2.376   2.443  0.3150  2.1293 -2.2440
 6279TIP3    H240473   2.213   2.433   2.567  1.2654  0.6620 -1.0184
 6280TIP3   OH240474   1.929   4.442   1.608 -0.3147 -0.0071  0.3746
 6280TIP3    H140475   1.839   4.413   1.621  0.4079 -1.4145  2.8409
 6280TIP3    H240476   1.983   4.369   1.637  1.7056  0.3867 -1.9947
 6281TIP3   OH240477   4.040   1.396   1.904  0.0850  0.6896  0.5603
 6281TIP3    H140478   3.944   1.388   1.906  0.1821 -1.2942 -0.3705
 6281TIP3    H240479   4.061   1.454   1.977 -1.7950  0.8179  1.0460
 6282TIP3   OH240480   4.669   0.614   1.815 -0.3172 -0.4071  0.1843
 6282TIP3    H140481   4.756   0.585   1.790 -0.9464 -2.6991  0.4099
 6282TIP3    H240482   4.684   0.674   1.889  1.0238 -1.9250  1.2103
 6283TIP3   OH240483   3.544   3.862   8.338 -0.1515  0.0466  0.3158
 6283TIP3    H140484   3.556   3.957   8.337  0.7918 -0.0454 -1.2904
 6283TIP3    H240485   3.623   3.829   8.382 -0.5900 -0.0005  1.0849
 6284TIP3   OH240486   4.447   1.493   7.087  0.6681  0.7136  0.1974
 6284TIP3    H140487   4.483   1.504   6.999 -0.1273  1.0859 -0.0982
 6284TIP3    H240488   4.515   1.528   7.145  1.0752  0.7430 -0.2870
 6285TIP3   OH240489   2.008   3.988   2.669  0.0746  0.4904 -0.9750
 6285TIP3    H140490   2.103   3.989   2.676  0.0787  0.0696 -0.9836
 6285TIP3    H240491   1.989   4.036   2.588  0.3118 -0.0006 -1.3279
 6286TIP3   OH240492   4.636   5.935   0.293  0.3009 -0.3853 -0.0803
 6286TIP3    H140493   4.590   5.861   0.253  1.6974 -0.7469 -1.1049
 6286TIP3    H240494   4.682   5.977   0.220  1.1805  0.2500  0.8150
 6287TIP3   OH240495   0.238   5.106   3.044 -0.2029 -0.1186 -0.3254
 6287TIP3    H140496   0.191   5.143   3.119  2.0508  1.2213  0.5183
 6287TIP3    H240497   0.227   5.170   2.975 -0.1490 -0.1090 -0.3256
 6288TIP3   OH240498   4.932   4.464   2.104 -0.0690  0.1554 -0.2019
 6288TIP3    H140499   5.014   4.488   2.148  1.3805 -1.1034 -2.0196
 6288TIP3    H240500   4.889   4.548   2.085 -0.1121  0.7752  2.3147
 6289TIP3   OH240501   1.468   4.429   7.015  0.0578  0.3628 -0.1589
 6289TIP3    H140502   1.376   4.455   7.021  0.3416  1.2345  0.5268
 6289TIP3    H240503   1.475   4.390   6.928 -0.8005  0.9234 -0.4978
 6290TIP3   OH240504   4.283   3.830   1.785 -0.0827 -0.3559 -0.1219
 6290TIP3    H140505   4.241   3.756   1.828 -0.6242 -0.3265 -0.5825
 6290TIP3    H240506   4.364   3.794   1.750  1.2654  0.0056  2.3736
 6291TIP3   OH240507   2.757   5.753   1.129 -0.2202 -0.8655  0.7915
 6291TIP3    H140508   2.702   5.675   1.139 -2.2810  0.4680  0.3155
 6291TIP3    H240509   2.753   5.796   1.215 -1.4129  0.1513  0.2488
 6292TIP3   OH240510   0.022   0.294   0.212  0.2247  0.2790  0.2054
 6292TIP3    H140511   0.073   0.216   0.236  0.7377  0.5767  0.0780
 6292TIP3    H240512  -0.017   0.323   0.294 -0.5409 -0.5069  0.1507
 6293TIP3   OH240513   2.949   5.771   0.105  0.6370 -0.3164 -0.0066
 6293TIP3    H140514   2.907   5.811   0.181 -0.8635 -1.6072 -0.0851
 6293TIP3    H240515   3.036   5.745   0.136 -0.1732 -1.4138  1.5140
 6294TIP3   OH240516   6.355   6.689   7.788  0.2598 -0.1418 -0.2749
 6294TIP3    H140517   6.422   6.647   7.734  0.9695 -0.1209  0.5615
 6294TIP3    H240518   6.311   6.750   7.729  0.9677 -0.1769 -0.8451
 6295TIP3   OH240519   6.027   0.374   7.780  0.0410 -0.4576  0.3968
 6295TIP3    H140520   5.982   0.301   7.738 -0.0314 -0.8960  1.2215
 6295TIP3    H240521   5.967   0.448   7.770  0.6903 -0.1584 -1.6157
 6296TIP3   OH240522   3.118   6.475   1.295 -0.0191 -0.2801  0.2881
 6296TIP3    H140523   3.146   6.429   1.216  0.5708 -0.0120  0.3324
 6296TIP3    H240524   3.120   6.409   1.364  0.3760 -0.2998  0.2601
 6297TIP3   OH240525   6.423   0.324   1.687 -0.5492 -0.2168 -0.8249
 6297TIP3    H140526   6.382   0.318   1.600 -0.6876 -2.6029 -0.6829
 6297TIP3    H240527   6.381   0.254   1.737  0.4442  0.2907  0.7816
 6298TIP3   OH240528   6.020   6.242   7.479 -0.3841  0.7211 -0.6318
 6298TIP3    H140529   6.065   6.305   7.422  2.2618  0.1544  0.6431
 6298TIP3    H240530   6.000   6.168   7.422 -0.9824  1.5403 -1.5295
 6299TIP3   OH240531   6.864   6.857   1.094  0.5439 -0.6746 -0.4485
 6299TIP3    H140532   6.875   6.951   1.081 -0.5837 -0.6692 -1.4633
 6299TIP3    H240533   6.937   6.817   1.046  2.6033 -0.2880  2.1197
 6300TIP3   OH240534   3.932   5.634   7.965 -0.2198  0.3888  0.1447
 6300TIP3    H140535   3.929   5.722   7.928 -1.5360 -0.1924 -1.2869
 6300TIP3    H240536   3.888   5.580   7.899  1.8009 -1.5878  0.3033
 6301TIP3   OH240537   6.732   1.399   0.645  0.5861 -0.0478  0.4387
 6301TIP3    H140538   6.677   1.462   0.691 -0.4669  0.0739 -0.8896
 6301TIP3    H240539   6.697   1.314   0.670  0.5097 -0.0086  0.4647
 6302TIP3   OH240540   0.095   6.292   1.926  0.5208  0.1032 -0.0127
 6302TIP3    H140541   0.070   6.237   2.000 -0.1152 -1.0340 -1.0416
 6302TIP3    H240542   0.183   6.324   1.948  0.5700 -0.6689  0.9665
 6303TIP3   OH240543   3.461   1.080   8.437  0.0694  0.2660  0.0580
 6303TIP3    H140544   3.435   1.105   8.348 -2.1218 -0.0918  0.5341
 6303TIP3    H240545   3.448   1.160   8.489  0.2536  0.1660  0.2601
 6304TIP3   OH240546   3.411   6.625   0.788 -0.2018  0.0035  0.0707
 6304TIP3    H140547   3.336   6.589   0.741 -0.5215  1.3764 -0.5342
 6304TIP3    H240548   3.477   6.641   0.720  0.8377 -1.6053  0.6552
 6305TIP3   OH240549   6.828   1.724   7.347 -0.0201 -0.1909  0.4435
 6305TIP3    H140550   6.766   1.782   7.391  1.0696  2.3612 -1.1364
 6305TIP3    H240551   6.775   1.676   7.283 -0.8576 -0.5968  1.4144
 6306TIP3   OH240552   4.016   0.444   1.304  0.2702 -0.5029  0.0948
 6306TIP3    H140553   4.100   0.425   1.345  0.0971 -2.4374 -0.3756
 6306TIP3    H240554   4.023   0.406   1.216 -1.2956 -1.2424  0.2603
 6307TIP3   OH240555   0.378   4.323   0.578  0.1052 -0.0070 -0.5830
 6307TIP3    H140556   0.429   4.315   0.497 -0.5112  0.1332 -0.9978
 6307TIP3    H240557   0.443   4.331   0.647  0.6451  0.5582 -1.1419
 6308TIP3   OH240558   6.729   3.930   7.037 -0.0274  0.4784  0.0551
 6308TIP3    H140559   6.772   3.916   6.952  2.1017 -0.5638  1.2121
 6308TIP3    H240560   6.736   4.024   7.052 -0.7405  0.7279 -1.0509
 6309TIP3   OH240561   2.686   5.379   0.062  0.2939 -0.5206 -0.0370
 6309TIP3    H140562   2.754   5.419   0.008 -0.8321  0.6026 -0.6862
 6309TIP3    H240563   2.604   5.402   0.018 -0.7411  1.0958  2.4730
 6310TIP3   OH240564   1.470   2.667   1.574 -0.1485 -0.3256  0.2180
 6310TIP3    H140565   1.539   2.619   1.620 -1.6158 -2.4325  0.3767
 6310TIP3    H240566   1.487   2.649   1.481  0.3155  0.3100  0.1804
 6311TIP3   OH240567   5.654   4.189   2.061  0.7299 -0.0440  0.1944
 6311TIP3    H140568   5.631   4.099   2.037  0.0264  0.1101  0.2667
 6311TIP3    H240569   5.656   4.188   2.157 -2.0059  0.6225  0.3532
 6312TIP3   OH240570   0.288   4.734   1.017  0.2134 -0.6183 -0.3828
 6312TIP3    H140571   0.258   4.733   0.926 -0.9086 -1.0641 -0.0223
 6312TIP3    H240572   0.357   4.667   1.020  1.3278  0.4390 -1.2243
 6313TIP3   OH240573   6.688   1.099   7.617  0.0716 -0.0950  0.2864
 6313TIP3    H140574   6.616   1.102   7.554 -0.4624  0.8619  0.9129
 6313TIP3    H240575   6.714   1.190   7.628  1.3734 -0.4355  0.0885
 6314TIP3   OH240576   5.908   3.833   8.391  0.0540 -0.3580 -0.1953
 6314TIP3    H140577   5.881   3.751   8.351  1.0053 -0.3842 -0.8170
 6314TIP3    H240578   5.915   3.895   8.318  1.3058 -0.2723 -0.0350
 6315TIP3   OH240579   5.082   4.115   7.164  0.2521 -0.1882  0.2501
 6315TIP3    H140580   5.068   4.034   7.116 -1.6642  1.2349 -1.8227
 6315TIP3    H240581   5.172   4.140   7.144  0.2230 -0.8075 -0.7009
 6316TIP3   OH240582   4.111   2.186   0.081  0.5508  1.0375 -0.4664
 6316TIP3    H140583   4.177   2.253   0.060 -0.6018  2.3341 -0.1356
 6316TIP3    H240584   4.027   2.229   0.064 -0.2400 -0.2564 -0.0016
 6317TIP3   OH240585   5.424   0.913   1.374  0.6797  0.1402  0.2842
 6317TIP3    H140586   5.465   0.936   1.458 -0.7667 -0.0685  1.0818
 6317TIP3    H240587   5.388   0.826   1.388 -1.9215  1.1567  0.3963
 6318TIP3   OH240588   2.468   1.308   2.604 -0.2845 -0.3168 -0.0477
 6318TIP3    H140589   2.498   1.399   2.612  0.4662 -0.6617  1.2601
 6318TIP3    H240590   2.376   1.312   2.630 -0.0836 -0.0230  0.6533
 6319TIP3   OH240591   3.456   4.208   8.218 -0.1102  0.7883 -0.8005
 6319TIP3    H140592   3.380   4.258   8.187 -1.7567 -0.9464  0.1671
 6319TIP3    H240593   3.491   4.167   8.140 -0.4049  1.3107 -1.2163
 6320TIP3   OH240594   5.092   5.739   8.405 -0.0731 -0.5524  0.3463
 6320TIP3    H140595   5.043   5.814   8.440 -0.7245 -0.7873 -0.0542
 6320TIP3    H240596   5.181   5.773   8.394 -0.2693  0.0517  0.5457
 6321TIP3   OH240597   0.189   4.785   2.737 -0.1647 -0.1349 -0.7103
 6321TIP3    H140598   0.200   4.875   2.704  1.0629  0.8335  2.0443
 6321TIP3    H240599   0.105   4.787   2.783 -0.1161 -0.3769 -0.6132
 6322TIP3   OH240600   5.370   2.934   0.894 -0.5599  0.0264  0.1611
 6322TIP3    H140601   5.465   2.923   0.888 -0.6102 -0.1537 -0.4059
 6322TIP3    H240602   5.349   2.919   0.986  0.0754  0.9837  0.4714
 6323TIP3   OH240603   3.357   1.845   1.779  0.1800  0.1223  0.1273
 6323TIP3    H140604   3.385   1.858   1.869 -1.2531  0.1824  0.5887
 6323TIP3    H240605   3.429   1.797   1.738  1.1112  0.6303  1.1312
 6324TIP3   OH240606   5.753   5.796   0.961 -0.0547 -0.1260 -0.2127
 6324TIP3    H140607   5.778   5.840   1.042  1.1748 -0.6169 -0.3054
 6324TIP3    H240608   5.778   5.705   0.974  0.3498 -0.1736 -1.2204
 6325TIP3   OH240609   6.886   3.786   7.192  0.2794 -0.2121 -0.2654
 6325TIP3    H140610   6.824   3.830   7.134  0.8539  0.0051 -0.7331
 6325TIP3    H240611   6.919   3.712   7.140  0.5154 -0.2413 -0.0734
 6326TIP3   OH240612   3.121   5.297   2.267  0.1111 -0.2896 -0.1626
 6326TIP3    H140613   3.145   5.240   2.195 -0.5804  0.5973 -1.1154
 6326TIP3    H240614   3.026   5.308   2.259  0.0139 -0.2055  0.9088
 6327TIP3   OH240615   4.260   0.714   2.231 -0.1513 -0.0084  0.3965
 6327TIP3    H140616   4.249   0.673   2.316 -1.0226 -1.1135 -0.2230
 6327TIP3    H240617   4.174   0.709   2.190  0.2642  0.4517 -0.5798
 6328TIP3   OH240618   6.295   3.581   0.850 -0.4999 -0.0738 -0.2090
 6328TIP3    H140619   6.367   3.565   0.911 -2.4918  2.5927  3.1891
 6328TIP3    H240620   6.312   3.668   0.814 -1.0767 -0.2138 -0.8380
 6329TIP3   OH240621   3.861   3.202   2.311  0.4823  0.1737  0.1034
 6329TIP3    H140622   3.941   3.254   2.322  0.4020  0.0076  1.6883
 6329TIP3    H240623   3.790   3.265   2.322  0.3896 -0.1558  1.6763
 6330TIP3   OH240624   2.833   0.996   8.248  0.9635 -0.2463 -0.4468
 6330TIP3    H140625   2.836   0.975   8.155 -2.8364  3.1646 -1.6324
 6330TIP3    H240626   2.847   1.091   8.252  1.5230 -0.3567  2.5755
 6331TIP3   OH240627   5.382   2.621   0.994 -0.2981  0.2834  0.4263
 6331TIP3    H140628   5.422   2.547   1.038 -0.6803  0.5435  1.2192
 6331TIP3    H240629   5.440   2.695   1.015  0.0604  0.2308 -0.3274
 6332TIP3   OH240630   4.493   4.452   2.195  0.6668 -0.1264  0.0358
 6332TIP3    H140631   4.492   4.507   2.117  0.2353 -1.2203 -0.7638
 6332TIP3    H240632   4.458   4.367   2.165  3.3877 -1.5833  0.6631
 6333TIP3   OH240633   3.509   5.310   2.295 -0.2538 -0.3880  0.2571
 6333TIP3    H140634   3.498   5.403   2.312 -0.2087 -0.1261 -1.0527
 6333TIP3    H240635   3.482   5.267   2.377 -1.6178  0.6972  0.4198
 6334TIP3   OH240636   1.347   5.896   8.531 -0.3799 -0.1275  0.1745
 6334TIP3    H140637   1.316   5.961   8.594 -0.6541 -0.8551  0.8128
 6334TIP3    H240638   1.311   5.924   8.447  1.2189  1.6965  0.0327
 6335TIP3   OH240639   0.517   3.185   2.532 -0.0285  0.1089 -0.0949
 6335TIP3    H140640   0.522   3.252   2.464 -2.3415 -1.9195 -2.4902
 6335TIP3    H240641   0.423   3.167   2.540  0.5064 -3.7628 -0.6828
 6336TIP3   OH240642   6.289   0.098   1.810 -1.1271  0.3862  0.0271
 6336TIP3    H140643   6.203   0.136   1.829 -1.4452 -1.5066  2.9989
 6336TIP3    H240644   6.312   0.049   1.889  0.9852 -2.3207 -2.0601
 6337TIP3   OH240645   2.124   5.701   1.656  0.1451  0.0122  0.0665
 6337TIP3    H140646   2.181   5.774   1.633  0.1120 -0.5140 -1.8684
 6337TIP3    H240647   2.171   5.623   1.627 -0.5782 -0.6185  0.5194
 6338TIP3   OH240648   1.978   6.075   8.538 -0.4951 -0.5039  0.0488
 6338TIP3    H140649   1.962   6.066   8.632  0.6146 -0.0656  0.2849
 6338TIP3    H240650   1.897   6.113   8.504 -0.8641 -0.5541  0.8390
 6339TIP3   OH240651   1.852   4.516   0.443 -0.4685  0.1667 -0.3234
 6339TIP3    H140652   1.774   4.463   0.456  0.2296 -1.5086 -2.3002
 6339TIP3    H240653   1.924   4.460   0.474  0.2983 -0.2009 -2.5439
 6340TIP3   OH240654   0.722   0.820   1.444 -0.4174 -0.3672  0.0917
 6340TIP3    H140655   0.799   0.828   1.386  0.0638 -2.6098  0.3305
 6340TIP3    H240656   0.727   0.897   1.501 -0.7839  1.8238 -2.6078
 6341TIP3   OH240657   0.510   1.567   7.392 -0.7479 -0.3608 -0.1274
 6341TIP3    H140658   0.529   1.511   7.468 -0.9065 -0.5803 -0.2476
 6341TIP3    H240659   0.526   1.511   7.316  2.1462  0.6633 -0.3804
 6342TIP3   OH240660   4.395   0.973   0.793 -0.2682 -0.2061 -0.1058
 6342TIP3    H140661   4.315   1.014   0.761  0.0496  2.2166  1.9187
 6342TIP3    H240662   4.389   0.979   0.888  2.2123 -0.1426  0.1251
 6343TIP3   OH240663   1.176   6.369   1.718  0.2796 -0.1019 -0.4534
 6343TIP3    H140664   1.181   6.438   1.652  1.0561 -1.8904 -2.3646
 6343TIP3    H240665   1.199   6.289   1.672 -0.2321 -1.6358  1.7570
 6344TIP3   OH240666   1.417   6.181   7.921  0.2478  0.2887 -0.0070
 6344TIP3    H140667   1.428   6.170   8.015 -1.8545 -0.4305  0.2178
 6344TIP3    H240668   1.498   6.149   7.882  0.7797 -0.2655  1.5094
 6345TIP3   OH240669   1.512   6.675   0.340 -0.5392  0.5230  0.2296
 6345TIP3    H140670   1.585   6.671   0.278 -0.4293 -0.1896  0.3971
 6345TIP3    H240671   1.551   6.707   0.422 -0.3890  0.0142  0.3565
 6346TIP3   OH240672   6.859   3.521   0.756  0.3496  0.0364  0.3321
 6346TIP3    H140673   6.822   3.472   0.683  0.9749 -0.2006  0.1703
 6346TIP3    H240674   6.950   3.495   0.759  1.1130  2.2945 -0.6947
 6347TIP3   OH240675   4.214   2.797   1.827  0.3188  0.0844 -0.0833
 6347TIP3    H140676   4.177   2.794   1.739  2.1995 -0.8778 -0.9018
 6347TIP3    H240677   4.250   2.885   1.835  1.9842 -0.4625 -1.1280
 6348TIP3   OH240678   4.944   5.141   1.940 -0.0921 -0.6925 -0.3601
 6348TIP3    H140679   4.966   5.068   1.882  0.6698 -0.2487 -0.6433
 6348TIP3    H240680   4.925   5.099   2.024  1.3982 -1.1584 -0.2271
 6349TIP3   OH240681   4.896   0.926   7.335 -0.1718  0.1856  0.0290
 6349TIP3    H140682   4.961   0.996   7.329 -0.2883  0.2499 -0.5615
 6349TIP3    H240683   4.925   0.872   7.408  1.0823 -0.3478 -0.8300
 6350TIP3   OH240684   6.283   1.253   8.596 -0.2009 -0.2114  0.4092
 6350TIP3    H140685   6.341   1.230   8.523  1.0651  1.1690  0.9231
 6350TIP3    H240686   6.213   1.304   8.556 -0.1793 -0.5152 -0.0140
 6351TIP3   OH240687   0.029   5.772   0.316 -0.0725  0.3384 -0.5407
 6351TIP3    H140688   0.073   5.724   0.246 -0.7982 -1.0039 -0.1248
 6351TIP3    H240689  -0.056   5.728   0.324 -0.1583  0.7227  0.8961
 6352TIP3   OH240690   5.047   2.835   0.928 -0.4353  0.8065  0.0159
 6352TIP3    H140691   5.061   2.792   1.013 -1.4209 -0.0869 -0.2692
 6352TIP3    H240692   5.075   2.926   0.944 -0.4468  0.6198  1.2497
 6353TIP3   OH240693   5.365   1.122   7.932  0.3064  0.1241 -0.0722
 6353TIP3    H140694   5.284   1.118   7.881  0.3988 -0.4843 -0.1784
 6353TIP3    H240695   5.398   1.032   7.932 -0.6730 -0.3163  2.6509
 6354TIP3   OH240696   1.268   4.210   2.102 -0.3446  0.0904 -0.4588
 6354TIP3    H140697   1.256   4.276   2.170 -1.4225  0.9121 -1.4140
 6354TIP3    H240698   1.203   4.232   2.035 -0.9427 -2.0842 -0.6893
 6355TIP3   OH240699   0.219   0.217   7.757 -0.0854  0.0081 -0.0272
 6355TIP3    H140700   0.221   0.144   7.694 -3.1769  0.3572 -0.7200
 6355TIP3    H240701   0.286   0.195   7.822  0.5935 -2.3195 -1.4002
 6356TIP3   OH240702   5.904   6.350   2.969 -0.1365  0.0884 -0.1902
 6356TIP3    H140703   5.907   6.268   3.018 -1.1216  0.1193 -0.0648
 6356TIP3    H240704   5.838   6.403   3.014  0.8059  1.1356  0.0013
 6357TIP3   OH240705   4.235   4.609   1.934  0.1125  0.2404  0.1326
 6357TIP3    H140706   4.213   4.557   2.012  0.3011  0.9022  0.6277
 6357TIP3    H240707   4.326   4.587   1.915  0.5026  1.1164  0.9253
 6358TIP3   OH240708   0.274   1.822   1.645  0.1527 -0.0804 -0.3394
 6358TIP3    H140709   0.355   1.777   1.667 -0.7593 -1.9753 -0.6900
 6358TIP3    H240710   0.205   1.770   1.686 -0.9949  0.6484 -1.2688
 6359TIP3   OH240711   5.148   3.872   8.427 -0.6804 -0.1549 -0.5100
 6359TIP3    H140712   5.142   3.788   8.474 -2.6113  0.7390  0.9757
 6359TIP3    H240713   5.240   3.896   8.434 -0.5553 -0.9731  1.2210
 6360TIP3   OH240714   0.039   3.940   1.062 -0.0040 -0.0896 -0.0468
 6360TIP3    H140715   0.033   3.937   1.157 -1.8421 -0.1068 -0.1210
 6360TIP3    H240716   0.130   3.918   1.042  0.6530  0.8743  1.7274
 6361TIP3   OH240717   0.973   0.293   7.833 -0.6438  0.0824  0.2735
 6361TIP3    H140718   0.982   0.249   7.749  0.2556  0.3739  0.2058
 6361TIP3    H240719   0.897   0.252   7.874 -1.5244  0.4255 -0.9721
 6362TIP3   OH240720   6.517   6.648   0.635 -0.8707 -0.3756 -0.3946
 6362TIP3    H140721   6.539   6.562   0.671 -1.8187 -0.6231 -0.3674
 6362TIP3    H240722   6.508   6.634   0.541 -0.6648 -0.2244 -0.4376
 6363TIP3   OH240723   1.353   5.316   1.201  0.4686 -0.4361  0.5169
 6363TIP3    H140724   1.423   5.252   1.209  1.0767  0.2773  1.0577
 6363TIP3    H240725   1.274   5.264   1.186  0.9974 -1.2829  0.6254
 6364TIP3   OH240726   0.835   3.417   1.716 -0.2730  0.3745 -0.4145
 6364TIP3    H140727   0.924   3.391   1.695 -0.0320  1.6069 -0.9541
 6364TIP3    H240728   0.836   3.512   1.714 -1.5812  0.4075 -0.3382
 6365TIP3   OH240729   5.834   1.622   7.495 -0.7286  0.6076  0.0952
 6365TIP3    H140730   5.904   1.687   7.488  0.6690 -0.8966 -0.8631
 6365TIP3    H240731   5.865   1.562   7.563 -1.5380  0.4048  0.2945
 6366TIP3   OH240732   3.317   5.631   3.205  0.1225 -0.1100  0.2361
 6366TIP3    H140733   3.409   5.651   3.221  0.3222  1.4395 -2.2426
 6366TIP3    H240734   3.269   5.689   3.265  0.7989  1.5611 -0.7604
 6367TIP3   OH240735   5.832   4.909   0.670  0.1993  0.2659  0.7146
 6367TIP3    H140736   5.863   4.905   0.760 -1.3363  1.1769  1.3107
 6367TIP3    H240737   5.845   5.001   0.645 -1.2184  0.4816  0.7061
 6368TIP3   OH240738   1.465   6.066   1.295  0.4825 -0.5677  0.0203
 6368TIP3    H140739   1.423   6.081   1.380 -0.2582  0.6123 -0.5269
 6368TIP3    H240740   1.493   6.153   1.267  0.1683 -0.8464 -1.2230
 6369TIP3   OH240741   1.682   1.557   7.605 -0.0836 -0.4927  0.2618
 6369TIP3    H140742   1.686   1.607   7.524  2.2843 -0.4005  0.3514
 6369TIP3    H240743   1.738   1.605   7.666 -0.9582 -1.1338  1.6285
 6370TIP3   OH240744   5.314   4.524   8.288 -0.0917 -0.2384 -0.4091
 6370TIP3    H140745   5.231   4.568   8.307  0.3028  0.3030  0.1244
 6370TIP3    H240746   5.305   4.494   8.198 -0.7121  0.1692 -0.4921
 6371TIP3   OH240747   1.186   2.088   7.684 -0.2250  0.4764 -0.2739
 6371TIP3    H140748   1.187   1.996   7.708 -0.8140  0.1854 -1.3058
 6371TIP3    H240749   1.219   2.090   7.594 -1.6729  1.0724 -0.8211
 6372TIP3   OH240750   4.657   1.001   1.186  0.1396 -0.2499 -0.7247
 6372TIP3    H140751   4.628   0.989   1.276  2.2627  1.3278  0.2366
 6372TIP3    H240752   4.575   1.013   1.136 -1.0690  3.4798  1.7286
 6373TIP3   OH240753   0.910   1.642   2.215 -0.5606  0.2774  0.0111
 6373TIP3    H140754   0.921   1.726   2.170 -0.6632  2.1116  3.1449
 6373TIP3    H240755   0.894   1.666   2.306  0.8563 -3.2087  1.3296
 6374TIP3   OH240756   1.700   0.933   2.112 -0.2402 -0.7676 -0.1828
 6374TIP3    H140757   1.689   0.918   2.206 -0.2583  1.0625  0.1527
 6374TIP3    H240758   1.611   0.944   2.079 -0.1915 -0.5796 -0.2535
 6375TIP3   OH240759   1.950   4.390   8.283 -0.2045 -0.4680 -0.2607
 6375TIP3    H140760   1.993   4.388   8.198 -1.2079 -1.2442 -0.7711
 6375TIP3    H240761   1.904   4.474   8.285 -0.0331 -0.3700 -0.4093
 6376TIP3   OH240762   4.687   1.747   7.570 -0.2827  0.1274 -0.5544
 6376TIP3    H140763   4.763   1.739   7.627 -0.1493  2.7534 -0.2571
 6376TIP3    H240764   4.614   1.712   7.621  0.6267 -2.3029 -0.7965
 6377TIP3   OH240765   3.970   1.051   0.138  0.4287 -0.1511  0.1132
 6377TIP3    H140766   3.923   1.134   0.129 -0.6214 -0.9114 -2.1925
 6377TIP3    H240767   4.060   1.076   0.159 -0.0929  1.5057  0.5366
 6378TIP3   OH240768   0.303   3.025   8.274 -0.3018 -0.4731  0.2910
 6378TIP3    H140769   0.354   2.947   8.295 -0.3535 -0.2393  1.3303
 6378TIP3    H240770   0.224   2.992   8.231  0.1363 -0.9194 -0.1825
 6379TIP3   OH240771   3.762   1.689   1.451 -0.5729 -0.0508 -0.0728
 6379TIP3    H140772   3.815   1.626   1.500 -1.2666  0.3896  1.2921
 6379TIP3    H240773   3.779   1.668   1.359  0.0214 -1.5309  0.3464
 6380TIP3   OH240774   6.426   2.611   1.131  0.2579  0.0481 -0.2158
 6380TIP3    H140775   6.402   2.645   1.045 -0.0875  0.8646  0.1981
 6380TIP3    H240776   6.516   2.580   1.120 -0.4120 -1.7114 -1.4004
 6381TIP3   OH240777   3.366   6.423   2.306  0.8291  0.2766  0.0855
 6381TIP3    H140778   3.415   6.374   2.372 -0.9183  0.6848  1.7910
 6381TIP3    H240779   3.422   6.498   2.284  1.9248 -0.4832  0.2157
 6382TIP3   OH240780   4.300   5.085   1.185  0.2771  0.4225 -0.0077
 6382TIP3    H140781   4.305   5.034   1.104  0.6214 -0.0777  0.3260
 6382TIP3    H240782   4.279   5.174   1.155  0.2849  0.2233 -0.6361
 6383TIP3   OH240783   4.653   1.304   2.745  0.0828 -0.4755  0.3444
 6383TIP3    H140784   4.604   1.298   2.663 -0.9223  2.4495  0.6215
 6383TIP3    H240785   4.588   1.294   2.814  0.7613 -1.8248  0.8424
 6384TIP3   OH240786   2.587   6.640   1.892  0.2197  0.1998 -0.2990
 6384TIP3    H140787   2.545   6.659   1.808 -0.8325  1.7530  0.5408
 6384TIP3    H240788   2.529   6.677   1.958  0.9652 -1.0820  1.1615
 6385TIP3   OH240789   0.178   5.055   2.683 -0.5412 -0.2237 -0.0508
 6385TIP3    H140790   0.138   5.114   2.747  0.7511 -0.8694  1.4220
 6385TIP3    H240791   0.214   5.113   2.616  1.2124  0.7904  1.6505
 6386TIP3   OH240792   4.327   6.241   7.729  0.2935  0.1385 -0.3956
 6386TIP3    H140793   4.422   6.243   7.735  0.3039 -0.4023 -0.3224
 6386TIP3    H240794   4.306   6.293   7.651  0.6639 -0.0061 -0.5894
 6387TIP3   OH240795   3.060   6.832   2.417 -0.2945  0.3705 -0.5886
 6387TIP3    H140796   3.110   6.803   2.494  0.3764  2.1726 -0.3053
 6387TIP3    H240797   3.118   6.811   2.343 -1.1339 -1.7871 -0.6977
 6388TIP3   OH240798   1.900   4.326   1.099 -0.0989 -0.0101 -0.2548
 6388TIP3    H140799   1.918   4.281   1.181 -1.0856  0.7047  0.3741
 6388TIP3    H240800   1.969   4.391   1.090 -1.1152  1.3068  1.0770
 6389TIP3   OH240801   1.093   5.525   0.932  0.3733 -0.1982 -0.2847
 6389TIP3    H140802   1.116   5.432   0.924 -0.1696 -0.2531 -1.2606
 6389TIP3    H240803   1.012   5.535   0.883 -0.8128  0.3573  1.6420
 6390TIP3   OH240804   5.633   3.741   2.199  0.3426  0.1079  0.7019
 6390TIP3    H140805   5.626   3.815   2.140  1.1379  0.9863  1.6581
 6390TIP3    H240806   5.546   3.701   2.199  0.0393  0.7553 -0.1945
 6391TIP3   OH240807   4.438   4.551   0.741  0.0786  0.2195 -0.1283
 6391TIP3    H140808   4.445   4.458   0.717  0.0067  0.5924 -1.6480
 6391TIP3    H240809   4.516   4.567   0.794 -1.1645 -1.3071  2.3771
 6392TIP3   OH240810   4.646   5.452   2.843 -0.6022 -0.4917 -0.1132
 6392TIP3    H140811   4.563   5.451   2.891  0.5643 -1.1242  2.0501
 6392TIP3    H240812   4.695   5.525   2.882  0.2401 -0.7712 -0.6287
 6393TIP3   OH240813   3.930   0.832   8.465  0.1661 -0.8125  0.2614
 6393TIP3    H140814   3.889   0.839   8.379  1.3176 -1.0864 -0.3283
 6393TIP3    H240815   4.003   0.771   8.453 -0.6323 -2.1696  1.8210
 6394TIP3   OH240816   2.821   0.082   2.408 -0.0933  0.0812 -0.1473
 6394TIP3    H140817   2.886   0.018   2.439  1.5734  1.4241 -0.7182
 6394TIP3    H240818   2.857   0.167   2.433 -2.9401  0.8276  1.8638
 6395TIP3   OH240819   3.206   3.536   7.691  0.2736 -0.7095 -0.1445
 6395TIP3    H140820   3.209   3.480   7.613  0.6206 -0.9144  0.0120
 6395TIP3    H240821   3.206   3.474   7.764  2.5551 -0.5177  0.0927
 6396TIP3   OH240822   0.432   4.961   8.420 -0.2589  0.1810  0.3092
 6396TIP3    H140823   0.507   4.957   8.360  0.2442  1.2076  0.8353
 6396TIP3    H240824   0.356   4.967   8.362  0.1682  0.5175 -0.2367
 6397TIP3   OH240825   1.988   5.777   2.320  0.4574  0.4031 -0.2826
 6397TIP3    H140826   1.892   5.776   2.312  0.3933 -0.8870  0.2486
 6397TIP3    H240827   2.020   5.742   2.237  0.4678  0.9175 -0.4934
 6398TIP3   OH240828   3.223   0.266   7.222  0.2134 -0.3276 -0.5249
 6398TIP3    H140829   3.279   0.210   7.276  0.2473 -0.9506 -1.1937
 6398TIP3    H240830   3.180   0.206   7.162  1.0592  0.4755 -1.9847
 6399TIP3   OH240831   1.502   4.005   2.379  0.6938  0.5451  0.1916
 6399TIP3    H140832   1.517   3.911   2.393  3.3922  0.4942 -2.2142
 6399TIP3    H240833   1.415   4.010   2.341 -0.2500 -0.7267  2.0138
 6400TIP3   OH240834   4.945   0.620   1.511 -0.0287 -0.9161  0.0000
 6400TIP3    H140835   4.976   0.563   1.440  0.8493 -0.7045  0.2036
 6400TIP3    H240836   4.958   0.569   1.590  0.7525 -0.4493  0.1828
 6401TIP3   OH240837   1.196   4.824   0.634  0.6327  0.0260 -0.2628
 6401TIP3    H140838   1.143   4.805   0.557 -0.2287 -1.5420  0.6718
 6401TIP3    H240839   1.241   4.742   0.654  2.8684  1.0870 -0.5438
 6402TIP3   OH240840   3.716   1.130   8.222  0.2910 -0.1799  0.4092
 6402TIP3    H140841   3.731   1.208   8.277 -1.5365  0.2429  0.3840
 6402TIP3    H240842   3.660   1.074   8.275  1.3162 -1.3758  0.2901
 6403TIP3   OH240843   3.965   4.643   7.956  0.0459  0.0464 -0.7055
 6403TIP3    H140844   3.961   4.564   7.903 -2.1411  1.5017 -2.9005
 6403TIP3    H240845   3.984   4.714   7.894 -0.9673  1.6157  0.6701
 6404TIP3   OH240846   5.152   4.593   2.208 -0.5170  0.5266  0.3331
 6404TIP3    H140847   5.168   4.603   2.114 -0.1884 -0.3621  0.2783
 6404TIP3    H240848   5.182   4.675   2.246 -0.4404  0.8094 -0.3210
 6405TIP3   OH240849   0.390   3.065   1.539 -0.7003  0.4178 -0.0639
 6405TIP3    H140850   0.485   3.063   1.529 -0.7672 -0.2175 -0.6027
 6405TIP3    H240851   0.376   3.116   1.619  0.1979 -1.1932  1.1856
 6406TIP3   OH240852   6.406   3.337   0.745 -0.2591 -0.0268  0.1572
 6406TIP3    H140853   6.420   3.355   0.652  1.3858 -2.8302 -0.2225
 6406TIP3    H240854   6.344   3.404   0.772 -1.3884  0.4453 -3.1244
 6407TIP3   OH240855   1.810   4.300   2.669 -0.3476 -0.0494 -0.9258
 6407TIP3    H140856   1.766   4.311   2.753  1.1022 -1.1023  0.0296
 6407TIP3    H240857   1.779   4.374   2.616 -0.4874  1.2817  0.8909
 6408TIP3   OH240858   5.575   4.088   8.011  0.2016 -0.1584  0.3746
 6408TIP3    H140859   5.608   4.115   7.926 -0.5401 -1.3696 -0.3224
 6408TIP3    H240860   5.639   4.024   8.042 -0.5414 -1.2188 -0.2047
 6409TIP3   OH240861   2.163   2.541   7.749 -0.1434 -0.0889 -0.2322
 6409TIP3    H140862   2.248   2.499   7.741  0.5851  1.5269 -1.4563
 6409TIP3    H240863   2.146   2.578   7.663 -1.9338 -0.0606  0.0862
 6410TIP3   OH240864   6.170   4.957   0.296 -0.0485 -0.3882  0.3233
 6410TIP3    H140865   6.156   4.932   0.387  2.3611 -1.3908  0.4941
 6410TIP3    H240866   6.131   5.045   0.289 -4.0904 -1.9127  1.0879
 6411TIP3   OH240867   1.454   2.194   1.483  0.0165 -0.4581 -0.4655
 6411TIP3    H140868   1.511   2.270   1.467  0.4418 -0.5028  0.6887
 6411TIP3    H240869   1.498   2.146   1.553 -0.0091 -2.0397 -1.4827
 6412TIP3   OH240870   1.401   4.622   7.638  0.5064  0.5206 -0.2617
 6412TIP3    H140871   1.324   4.567   7.628  0.9792  0.0495 -1.7362
 6412TIP3    H240872   1.383   4.699   7.584  0.6380  0.9007  0.2307
 6413TIP3   OH240873   2.645   5.415   8.221  0.0137  0.2917 -0.6079
 6413TIP3    H140874   2.700   5.350   8.178  0.5331 -1.1003  1.9795
 6413TIP3    H240875   2.620   5.375   8.304 -1.0630  2.7559  0.3654
 6414TIP3   OH240876   3.194   0.085   8.303 -0.6665 -0.0701 -0.0245
 6414TIP3    H140877   3.271   0.028   8.302 -1.3909 -1.0948  0.5710
 6414TIP3    H240878   3.222   0.161   8.354 -0.2401 -0.7268  0.7509
 6415TIP3   OH240879   3.434   4.647   0.072 -0.0203  0.5412  0.0830
 6415TIP3    H140880   3.371   4.645   0.145 -0.9031 -0.0015 -0.6738
 6415TIP3    H240881   3.509   4.695   0.107 -1.2515  2.1383  0.7087
 6416TIP3   OH240882   5.747   0.172   7.966 -0.1588 -0.5079 -0.4913
 6416TIP3    H140883   5.782   0.104   8.022  0.2135  0.0666 -0.0125
 6416TIP3    H240884   5.652   0.156   7.965 -0.2184 -0.2844  0.6323
 6417TIP3   OH240885   6.654   0.132   0.814 -0.3864  0.0510 -0.3084
 6417TIP3    H140886   6.616   0.196   0.754 -1.3571 -1.1799 -1.0339
 6417TIP3    H240887   6.683   0.060   0.758 -0.3755 -0.6723  0.6073
 6418TIP3   OH240888   0.353   0.467   2.560  0.3768 -0.3272  0.1061
 6418TIP3    H140889   0.316   0.451   2.646 -0.6819  0.2951 -0.2131
 6418TIP3    H240890   0.422   0.401   2.550 -0.6913 -1.5657  0.7007
 6419TIP3   OH240891   3.878   0.134   0.666 -0.1790  0.7854  0.0881
 6419TIP3    H140892   3.896   0.072   0.596 -1.2736  1.0059 -0.4131
 6419TIP3    H240893   3.939   0.110   0.736  1.3011  0.9109 -1.1261
 6420TIP3   OH240894   2.612   0.979   1.948  0.3178  0.3777 -0.1542
 6420TIP3    H140895   2.549   1.039   1.910 -0.2456  1.2282  2.0070
 6420TIP3    H240896   2.559   0.912   1.992  0.8955 -2.1645 -2.9302
 6421TIP3   OH240897   3.023   2.978   2.223  0.2661 -0.0119  0.2460
 6421TIP3    H140898   3.097   2.959   2.280  0.1123  1.1834  0.8708
 6421TIP3    H240899   2.981   3.054   2.262 -0.3280  0.3431 -1.0193
 6422TIP3   OH240900   3.443   5.352   1.269 -0.5598 -0.1669  0.1695
 6422TIP3    H140901   3.383   5.426   1.274 -1.1315 -0.4352 -1.8559
 6422TIP3    H240902   3.531   5.392   1.270 -0.8159  0.4030  0.5526
 6423TIP3   OH240903   3.816   1.331   0.792  0.1990  0.1009  0.1398
 6423TIP3    H140904   3.792   1.246   0.756  0.0594  0.0308  0.3952
 6423TIP3    H240905   3.910   1.326   0.807  0.0774 -0.2630  0.8182
 6424TIP3   OH240906   3.670   1.483   7.680  0.0572  0.1094 -0.1781
 6424TIP3    H140907   3.645   1.397   7.647 -2.2697 -0.0624  1.6986
 6424TIP3    H240908   3.590   1.536   7.670  0.6993  1.3325  0.8569
 6425TIP3   OH240909   1.714   0.414   8.357 -0.3762 -0.1295 -0.2564
 6425TIP3    H140910   1.715   0.320   8.374 -0.1562  0.1537  1.4438
 6425TIP3    H240911   1.805   0.436   8.336  0.0730  0.0576  1.6892
 6426TIP3   OH240912   2.114   3.904   2.924 -0.0282 -0.0091  0.3525
 6426TIP3    H140913   2.089   3.962   2.852  0.8554 -0.8488 -0.6624
 6426TIP3    H240914   2.172   3.840   2.884  1.7066  0.3698  2.1178
 6427TIP3   OH240915   0.474   0.864   1.583 -0.2726  0.2856  0.1516
 6427TIP3    H140916   0.467   0.844   1.490 -1.1480 -0.2556  0.3305
 6427TIP3    H240917   0.568   0.871   1.598 -0.1357  0.8903 -0.8751
 6428TIP3   OH240918   3.936   1.529   1.602 -0.0834 -0.4408  0.1997
 6428TIP3    H140919   3.926   1.568   1.689  2.3718  2.3904 -0.6473
 6428TIP3    H240920   4.030   1.511   1.595 -0.0964  0.1595 -2.1379
 6429TIP3   OH240921   1.760   6.311   0.179  0.7713 -0.2878 -0.2584
 6429TIP3    H140922   1.767   6.344   0.268  1.9305 -1.1138 -0.0187
 6429TIP3    H240923   1.667   6.316   0.159  0.5333  0.2063  0.8779
 6430TIP3   OH240924   3.302   2.681   3.324  0.1342 -0.1733 -0.2905
 6430TIP3    H140925   3.234   2.670   3.257 -0.1854 -2.7859  0.3483
 6430TIP3    H240926   3.383   2.660   3.279 -0.0157 -1.3378 -0.0604
 6431TIP3   OH240927   5.008   4.434   8.201  0.2532 -0.6717  0.0673
 6431TIP3    H140928   5.033   4.346   8.170 -0.6189 -0.0285 -2.6918
 6431TIP3    H240929   4.916   4.426   8.225 -0.1087 -0.3125 -1.1494
 6432TIP3   OH240930   1.446   5.988   2.506  0.1051 -0.9499 -0.1165
 6432TIP3    H140931   1.428   5.897   2.526 -1.8940 -0.8831 -1.3484
 6432TIP3    H240932   1.423   5.998   2.413  3.3159  0.0943 -0.9313
 6433TIP3   OH240933   4.285   2.973   0.387  0.6769  0.4453 -0.4302
 6433TIP3    H140934   4.338   3.040   0.344 -3.0659  3.2696 -1.2131
 6433TIP3    H240935   4.266   2.909   0.319  1.3425  0.5455 -0.7142
 6434TIP3   OH240936   0.851   4.021   0.060 -0.1488  0.4293 -0.0824
 6434TIP3    H140937   0.765   3.983   0.075  0.0177 -0.2282 -0.7143
 6434TIP3    H240938   0.893   4.020   0.146  0.7467 -3.1276 -0.4278
 6435TIP3   OH240939   3.129   2.210   1.709  0.1201  0.1629  0.2997
 6435TIP3    H140940   3.174   2.219   1.793  0.6815 -1.2018  0.1622
 6435TIP3    H240941   3.115   2.301   1.680  1.2507  0.6364  1.1518
 6436TIP3   OH240942   4.072   1.927   1.093  0.0071  0.4519 -0.2210
 6436TIP3    H140943   4.073   1.995   1.026  1.3369  0.1642 -0.5172
 6436TIP3    H240944   4.064   1.845   1.045 -2.6473  0.3770  0.1763
 6437TIP3   OH240945   0.475   4.030   1.142 -0.4154 -0.2061 -0.0437
 6437TIP3    H140946   0.451   4.055   1.053  2.1445  0.8997 -0.5270
 6437TIP3    H240947   0.426   4.090   1.198  0.8557  1.7914 -0.9461
 6438TIP3   OH240948   1.831   0.550   7.860  0.4122 -0.0914  0.2442
 6438TIP3    H140949   1.796   0.573   7.773 -1.9464 -2.5080  0.4458
 6438TIP3    H240950   1.887   0.474   7.844  1.7972  0.8239  0.5930
 6439TIP3   OH240951   1.226   5.233   7.966 -0.3334 -0.5068 -0.1025
 6439TIP3    H140952   1.205   5.314   8.013 -2.2920 -1.1323  0.1695
 6439TIP3    H240953   1.143   5.188   7.956 -0.1989 -0.1805 -4.7612
 6440TIP3   OH240954   2.712   0.062   8.651 -0.6763  0.3732 -0.0146
 6440TIP3    H140955   2.675   0.046   8.565 -0.9985  0.1684  0.1597
 6440TIP3    H240956   2.743  -0.023   8.681  1.7141  0.8318 -0.9480
 6441TIP3   OH240957   5.117   6.203   7.920  0.7122 -0.1959 -0.4342
 6441TIP3    H140958   5.187   6.269   7.920 -0.5866  1.2261 -0.4583
 6441TIP3    H240959   5.095   6.192   8.013  0.7011 -0.3576 -0.4560
 6442TIP3   OH240960   6.613   6.209   7.466 -0.2858  0.0961 -0.1548
 6442TIP3    H140961   6.545   6.143   7.473  0.2100 -0.2670  1.9185
 6442TIP3    H240962   6.573   6.289   7.499 -0.3042  0.3810 -0.8492
 6443TIP3   OH240963   1.028   4.595   1.919 -0.0413  0.2221 -0.2261
 6443TIP3    H140964   1.073   4.617   1.838  0.9734  0.1934  0.3067
 6443TIP3    H240965   1.046   4.669   1.977  0.2695 -0.2981  0.3604
 6444TIP3   OH240966   5.129   0.288   1.196  0.1312  0.7880  0.3748
 6444TIP3    H140967   5.055   0.343   1.172  0.4538  0.1656 -2.2949
 6444TIP3    H240968   5.093   0.200   1.202  0.5293  0.5660 -0.3688
 6445TIP3   OH240969   5.828   0.095   0.148  0.3350  0.2794 -0.3249
 6445TIP3    H140970   5.737   0.075   0.126  0.8991  0.6714 -3.5710
 6445TIP3    H240971   5.850   0.035   0.219 -2.9027  1.4132  1.8582
 6446TIP3   OH240972   1.725   5.406   8.280 -0.1832 -0.2167  0.0826
 6446TIP3    H140973   1.717   5.502   8.274  0.2068 -0.1876  0.0247
 6446TIP3    H240974   1.816   5.388   8.258  0.5518 -0.3630  2.8184
 6447TIP3   OH240975   4.620   2.051   7.813 -0.2459 -0.6485  0.4865
 6447TIP3    H140976   4.665   2.032   7.730 -2.3934  0.1493 -0.9475
 6447TIP3    H240977   4.590   2.141   7.805  0.5410 -0.1275  2.6992
 6448TIP3   OH240978   3.993   2.482   1.363  0.2806 -0.4882  0.0372
 6448TIP3    H140979   4.086   2.475   1.386  0.2629 -1.6991 -0.1888
 6448TIP3    H240980   3.969   2.393   1.336  0.0106  0.5312 -3.5180
 6449TIP3   OH240981   5.840   6.416   8.153  0.2274 -0.1959  0.3918
 6449TIP3    H140982   5.842   6.331   8.110  0.2080 -0.2272  0.4531
 6449TIP3    H240983   5.930   6.449   8.145 -0.0853  0.4230 -0.9406
 6450TIP3   OH240984   6.536   6.477   7.921  0.0355 -0.0654 -0.1951
 6450TIP3    H140985   6.475   6.515   7.858  1.1745  1.5779 -0.3671
 6450TIP3    H240986   6.582   6.410   7.872  0.1698  0.4721 -0.8149
 6451TIP3   OH240987   4.919   6.472   7.900  0.2992 -0.2567 -0.8558
 6451TIP3    H140988   4.897   6.511   7.816  0.8665 -0.3021 -1.0302
 6451TIP3    H240989   5.010   6.497   7.916 -0.4759  1.7677  0.8917
 6452TIP3   OH240990   2.584   2.395   2.140  0.2791 -0.5533  0.4386
 6452TIP3    H140991   2.604   2.316   2.191  1.1769 -1.0663 -0.6512
 6452TIP3    H240992   2.500   2.376   2.099  1.2860 -1.7632 -1.2391
 6453TIP3   OH240993   5.341   0.829   0.252  0.5332  0.1064 -0.2018
 6453TIP3    H140994   5.413   0.805   0.310  0.4348  1.2862  0.4437
 6453TIP3    H240995   5.273   0.865   0.310  0.4601  1.3662 -1.0129
 6454TIP3   OH240996   2.737   6.713   8.446  0.2646 -0.0712 -0.6839
 6454TIP3    H140997   2.804   6.731   8.381  0.7670  1.2226  0.1546
 6454TIP3    H240998   2.664   6.769   8.421 -0.0637 -0.5877 -0.9044
 6455TIP3   OH240999   4.439   0.541   8.348  0.6599 -0.1805 -0.0470
 6455TIP3    H141000   4.412   0.579   8.432 -2.7497 -0.8091 -0.7167
 6455TIP3    H241001   4.414   0.606   8.283 -0.9449 -1.5456 -0.8571
 6456TIP3   OH241002   4.847   1.409   2.366  0.4160  0.7136 -0.0555
 6456TIP3    H141003   4.876   1.433   2.454  1.6584  1.9053 -0.7470
 6456TIP3    H241004   4.918   1.355   2.331 -1.0364 -1.6429  0.4022
 6457TIP3   OH241005   3.109   2.656   2.460 -0.1030  0.2118  0.3025
 6457TIP3    H141006   3.174   2.711   2.503  0.2796 -1.3771  1.8722
 6457TIP3    H241007   3.026   2.682   2.499 -0.1201  0.6499 -0.0174
 6458TIP3   OH241008   2.069   0.598   8.661  0.1295  0.3457 -0.1767
 6458TIP3    H141009   2.105   0.538   8.597 -0.3134 -1.3821  1.1182
 6458TIP3    H241010   1.974   0.588   8.653  0.0704 -0.4852  1.2230
 6459TIP3   OH241011   3.735   4.624   8.065 -0.4217  0.1079 -0.1058
 6459TIP3    H141012   3.705   4.629   7.974  1.2336  0.4636 -0.6737
 6459TIP3    H241013   3.830   4.624   8.058 -0.2025 -2.6282  1.4855
 6460TIP3   OH241014   5.131   2.637   1.687  0.3775 -0.0598  0.2278
 6460TIP3    H141015   5.141   2.603   1.776  1.4229  0.1325  0.1970
 6460TIP3    H241016   5.214   2.682   1.669  0.1946 -0.1328 -0.8620
 6461TIP3   OH241017   0.414   0.944   8.556  0.0975 -0.3649  0.2515
 6461TIP3    H141018   0.337   0.970   8.506  0.8459  1.0749 -0.2177
 6461TIP3    H241019   0.423   1.011   8.624  0.9416 -0.4886  0.2781
 6462TIP3   OH241020   2.577   0.676   8.549 -0.1010  0.1364 -0.2280
 6462TIP3    H141021   2.573   0.582   8.566  0.1256  0.0773 -0.4854
 6462TIP3    H241022   2.670   0.699   8.558 -0.2652  0.4855  0.5953
 6463TIP3   OH241023   5.516   6.002   7.652  0.2893 -0.0247 -0.3038
 6463TIP3    H141024   5.437   5.963   7.615  0.2570  1.5851 -2.0812
 6463TIP3    H241025   5.484   6.074   7.707  0.5000  1.1996 -1.7338
 6464TIP3   OH241026   3.069   1.699   0.450  0.0990  0.0609  0.0239
 6464TIP3    H141027   2.976   1.718   0.434  0.4286  1.7281 -0.1218
 6464TIP3    H241028   3.115   1.742   0.377  1.0264 -0.2669  0.4016
 6465TIP3   OH241029   0.407   0.336   1.486  0.5537 -0.1182  0.0763
 6465TIP3    H141030   0.378   0.374   1.403  1.5817  1.2195  0.2988
 6465TIP3    H241031   0.491   0.295   1.466 -0.1306 -1.5577  0.0401
 6466TIP3   OH241032   2.966   1.916   0.832  0.7395 -0.4900  0.5217
 6466TIP3    H141033   2.935   1.929   0.922  1.2844 -0.5432  0.7253
 6466TIP3    H241034   3.061   1.905   0.842  1.1984  2.1725 -0.3314
 6467TIP3   OH241035   4.161   0.633   8.665  0.4417  0.8398 -0.2272
 6467TIP3    H141036   4.086   0.598   8.616  0.5150  1.5944 -0.9125
 6467TIP3    H241037   4.121   0.684   8.735  0.3188  0.5315 -0.0742
 6468TIP3   OH241038   3.467   3.244   0.902  0.8146 -0.2288  0.1756
 6468TIP3    H141039   3.408   3.190   0.849  1.2118  1.0185 -1.6409
 6468TIP3    H241040   3.417   3.324   0.918  0.9097 -0.3737  1.2564
 6469TIP3   OH241041   4.651   5.377   0.476 -0.2977  0.8130 -0.1795
 6469TIP3    H141042   4.614   5.462   0.454 -2.3038  0.4763  1.5355
 6469TIP3    H241043   4.583   5.314   0.450  0.6561 -0.1639 -0.3543
 6470TIP3   OH241044   4.727   0.256   0.299 -0.0869  0.0769 -0.0123
 6470TIP3    H141045   4.770   0.341   0.291 -0.6036  0.2507 -1.1027
 6470TIP3    H241046   4.685   0.258   0.385  0.8220  0.4776  0.4355
 6471TIP3   OH241047   5.033   6.518   2.986  0.4382  0.1362  0.1780
 6471TIP3    H141048   5.049   6.526   2.892  0.9624 -0.4496  0.2153
 6471TIP3    H241049   5.040   6.424   3.004  1.4248  0.3558  0.9978
 6472TIP3   OH241050   2.963   4.322   2.491  0.3411 -0.2350  0.0722
 6472TIP3    H141051   2.950   4.407   2.532 -1.0285 -0.1430 -0.5050
 6472TIP3    H241052   2.949   4.338   2.398  0.0190 -1.0942 -0.0395
 6473TIP3   OH241053   3.419   1.894   2.034  0.0342  0.4637 -0.5984
 6473TIP3    H141054   3.379   1.890   2.121 -0.1448  0.2714 -0.6870
 6473TIP3    H241055   3.501   1.845   2.043  0.3245  0.9808 -0.3804
 6474TIP3   OH241056   5.637   6.800   2.324  0.1759 -0.6762 -0.2969
 6474TIP3    H141057   5.673   6.779   2.410  0.0053  0.3422  0.0372
 6474TIP3    H241058   5.715   6.810   2.268  0.3082 -0.8296 -0.1426
 6475TIP3   OH241059   4.221   0.203   1.216  0.1509  0.5282  0.1979
 6475TIP3    H141060   4.179   0.180   1.133 -0.0366 -1.0104  0.6982
 6475TIP3    H241061   4.315   0.204   1.197  0.2396 -1.5664  0.3277
 6476TIP3   OH241062   1.850   5.512   1.864  0.1843 -0.0978 -0.3714
 6476TIP3    H141063   1.786   5.442   1.848 -0.4469  0.5276 -0.6471
 6476TIP3    H241064   1.801   5.593   1.850  0.6808  0.4237  0.7619
 6477TIP3   OH241065   3.954   0.111   7.554 -0.1534 -0.6982 -0.3704
 6477TIP3    H141066   3.959   0.127   7.460 -0.4404 -0.0417 -0.2797
 6477TIP3    H241067   3.956   0.016   7.562 -0.8207 -0.7793 -1.0759
 6478TIP3   OH241068   4.219   6.507   8.426  0.1854 -0.3412 -0.3185
 6478TIP3    H141069   4.273   6.429   8.436  1.1675  0.5735  3.5244
 6478TIP3    H241070   4.131   6.478   8.450  0.8013 -0.1460  2.5337
 6479TIP3   OH241071   3.848   2.351   7.912  0.1634  0.4571  0.0253
 6479TIP3    H141072   3.864   2.257   7.910 -0.6653  0.2555  1.5508
 6479TIP3    H241073   3.901   2.386   7.840 -0.0054 -1.2246 -0.9538
 6480TIP3   OH241074   1.146   5.469   0.581 -0.4778 -0.4268  0.2487
 6480TIP3    H141075   1.074   5.463   0.643  0.9314 -0.6228  1.9467
 6480TIP3    H241076   1.204   5.397   0.605  0.7223  0.2644 -0.4679
 6481TIP3   OH241077   4.459   5.244   7.395 -0.0022  0.2097  0.5227
 6481TIP3    H141078   4.377   5.244   7.345 -0.0833 -0.4683  0.6404
 6481TIP3    H241079   4.498   5.330   7.377  0.0270 -0.0480 -0.8035
 6482TIP3   OH241080   3.044   6.542   0.121 -0.2294  0.2453  0.1879
 6482TIP3    H141081   3.122   6.487   0.116  1.9560  3.0858  0.7076
 6482TIP3    H241082   2.997   6.525   0.040  1.3086 -1.0054 -0.4922
 6483TIP3   OH241083   2.768   5.061   2.016 -0.2519  0.0220 -0.1717
 6483TIP3    H141084   2.840   5.095   2.070 -0.0234 -1.1845  0.3086
 6483TIP3    H241085   2.810   5.026   1.938 -0.5426  1.3295 -0.9487
 6484TIP3   OH241086   1.852   4.004   7.203 -0.1972 -0.6105  0.2691
 6484TIP3    H141087   1.930   4.040   7.161  1.0089 -1.6939  1.4983
 6484TIP3    H241088   1.869   3.910   7.207 -1.5061 -0.8492  0.7138
 6485TIP3   OH241089   0.329   1.241   7.552  0.1190  0.0093 -0.2988
 6485TIP3    H141090   0.382   1.250   7.473 -1.4897  2.7379 -1.1929
 6485TIP3    H241091   0.389   1.263   7.624  0.9362  0.0862 -0.9873
 6486TIP3   OH241092   5.720   6.064   1.117  0.2578 -0.1372 -0.2502
 6486TIP3    H141093   5.693   6.152   1.093 -1.1166  0.4377  2.9409
 6486TIP3    H241094   5.782   6.076   1.189 -0.4609 -1.7300  0.6997
 6487TIP3   OH241095   1.768   3.198   1.931 -0.8535  0.0631 -0.3253
 6487TIP3    H141096   1.689   3.216   1.880 -0.2882  0.8469 -0.9741
 6487TIP3    H241097   1.821   3.278   1.920  0.0501 -0.4761  0.0271
 6488TIP3   OH241098   3.863   6.526   1.570 -0.2717  0.3182  0.2293
 6488TIP3    H141099   3.804   6.575   1.513  0.2314  1.0659  0.3331
 6488TIP3    H241100   3.852   6.434   1.544  0.1831  0.6744 -1.2886
 6489TIP3   OH241101   3.471   2.185   2.508  0.2782 -0.4055 -0.0730
 6489TIP3    H141102   3.497   2.270   2.473 -0.7432  0.0092  0.1494
 6489TIP3    H241103   3.469   2.127   2.432  0.9436 -0.2365 -0.2288
 6490TIP3   OH241104   0.293   2.878   0.367  0.2146  0.4134  0.5492
 6490TIP3    H141105   0.199   2.880   0.353  0.4038  0.2230 -0.8527
 6490TIP3    H241106   0.323   2.798   0.324  0.9262  0.0360  1.6806
 6491TIP3   OH241107   2.179   0.886   0.902 -0.1252  0.5102  0.5847
 6491TIP3    H141108   2.101   0.918   0.857 -0.3771 -0.7303  0.0908
 6491TIP3    H241109   2.147   0.851   0.985 -0.0229  0.4753  0.6098
 6492TIP3   OH241110   6.630   3.630   8.343 -0.3488 -0.4036 -0.0803
 6492TIP3    H141111   6.576   3.666   8.413  1.1533 -0.0151  0.9192
 6492TIP3    H241112   6.624   3.535   8.354 -1.1740 -0.3856 -0.2755
 6493TIP3   OH241113   3.654   2.712   2.933 -0.0593  0.7548 -0.1097
 6493TIP3    H141114   3.675   2.789   2.986  0.5245  1.9894 -2.0108
 6493TIP3    H241115   3.592   2.745   2.867 -0.3200 -0.5721 -0.5611
 6494TIP3   OH241116   5.740   0.366   1.452 -0.7608  0.0018  0.3432
 6494TIP3    H141117   5.807   0.434   1.448 -1.6870  0.8927 -1.3006
 6494TIP3    H241118   5.752   0.317   1.370 -2.4022  0.4987 -0.2244
 6495TIP3   OH241119   0.869   1.947   8.397 -0.3488  0.1984  0.4610
 6495TIP3    H141120   0.929   2.019   8.415 -0.5880  0.1870  1.3460
 6495TIP3    H241121   0.826   1.971   8.315 -0.1341  0.8673  0.5435
 6496TIP3   OH241122   5.030   4.348   1.872 -0.0306  0.4340  0.2112
 6496TIP3    H141123   5.059   4.259   1.895  0.5413  0.5042 -0.2082
 6496TIP3    H241124   4.968   4.372   1.940  0.4745  0.0490  0.8132
 6497TIP3   OH241125   0.319   4.676   0.745 -0.4788 -0.2563 -0.3606
 6497TIP3    H141126   0.377   4.616   0.791 -1.4626  1.3694  3.3417
 6497TIP3    H241127   0.377   4.722   0.684  0.7371 -3.0956 -1.5300
 6498TIP3   OH241128   0.817   3.247   8.648  0.1300  0.2887 -0.0754
 6498TIP3    H141129   0.747   3.303   8.616  1.0383  0.5402 -1.7310
 6498TIP3    H241130   0.888   3.308   8.668  0.0977 -0.0160  1.0213
 6499TIP3   OH241131   2.327   6.141   7.501  0.0184  0.1673 -0.0720
 6499TIP3    H141132   2.273   6.178   7.430 -0.6420 -1.2500 -0.3462
 6499TIP3    H241133   2.320   6.046   7.489  1.6043 -0.0603  0.6420
 6500TIP3   OH241134   0.030   5.054   8.382  0.3852 -0.3807 -0.4643
 6500TIP3    H141135   0.076   5.088   8.458  0.1572 -1.7073  0.2977
 6500TIP3    H241136  -0.026   5.126   8.353  0.8076  0.2851  0.3501
 6501TIP3   OH241137   5.006   2.178   2.458 -0.9881  0.2241 -0.1120
 6501TIP3    H141138   5.050   2.172   2.542 -1.7603  0.1850  0.3001
 6501TIP3    H241139   5.057   2.242   2.408  1.2356 -1.8383 -0.7270
 6502TIP3   OH241140   4.994   5.991   2.232 -0.0775 -0.3815  0.6120
 6502TIP3    H141141   4.989   5.901   2.202  2.1811 -1.8686  4.1021
 6502TIP3    H241142   4.905   6.012   2.262 -0.7012 -1.2493 -0.5600
 6503TIP3   OH241143   3.698   3.421   2.024  0.8291 -0.6555  0.0875
 6503TIP3    H141144   3.790   3.428   2.048  0.9529 -0.8576 -0.3226
 6503TIP3    H241145   3.653   3.403   2.106  1.1807 -0.7812  0.2519
 6504TIP3   OH241146   1.536   5.266   1.482 -0.0308  0.5508  0.2762
 6504TIP3    H141147   1.552   5.221   1.399 -0.4864  1.0319 -0.0784
 6504TIP3    H241148   1.594   5.342   1.479 -0.0337  0.5579  0.4077
 6505TIP3   OH241149   6.809   5.957   8.460  0.1209 -0.1661 -0.3966
 6505TIP3    H141150   6.860   6.022   8.411  0.7569 -1.3107 -1.2890
 6505TIP3    H241151   6.810   5.879   8.405 -0.8083 -0.8841  0.5658
 6506TIP3   OH241152   6.400   5.606   7.947 -0.0690  0.4781 -0.3616
 6506TIP3    H141153   6.333   5.674   7.940  1.0417  1.5786 -0.6780
 6506TIP3    H241154   6.418   5.600   8.041 -0.5785  0.2022 -0.2801
 6507TIP3   OH241155   3.489   3.177   1.712 -0.0836  0.0100 -0.0307
 6507TIP3    H141156   3.435   3.132   1.777  0.4891  1.7329  1.7482
 6507TIP3    H241157   3.426   3.217   1.652 -0.6465 -0.9576 -0.0985
 6508TIP3   OH241158   1.376   2.666   2.785  0.0932 -0.0554  0.0164
 6508TIP3    H141159   1.435   2.738   2.762 -1.4755  1.4944  0.5799
 6508TIP3    H241160   1.430   2.587   2.777  1.3733  0.9371 -2.5767
 6509TIP3   OH241161   5.692   5.537   1.555  0.5757 -0.5294  0.1510
 6509TIP3    H141162   5.776   5.582   1.555  1.4260 -2.0616  0.0296
 6509TIP3    H241163   5.713   5.445   1.565 -1.2540 -0.7459  3.2265
 6510TIP3   OH241164   4.294   1.399   8.135 -0.6431  0.2086 -0.3211
 6510TIP3    H141165   4.292   1.446   8.052 -1.4106 -1.4291 -1.2723
 6510TIP3    H241166   4.287   1.468   8.202 -2.2851  1.4320 -1.6562
 6511TIP3   OH241167   0.073   1.128   2.634 -0.8462 -0.0812  0.0692
 6511TIP3    H141168   0.095   1.063   2.700 -0.1553  1.6471  1.6501
 6511TIP3    H241169  -0.007   1.170   2.667 -0.6357  0.6356 -0.2998
 6512TIP3   OH241170   1.264   6.729   0.446  0.3094  0.6842 -0.4594
 6512TIP3    H141171   1.254   6.742   0.540 -0.2705  0.9105 -0.5464
 6512TIP3    H241172   1.356   6.705   0.435  0.1045 -0.5735  0.2967
 6513TIP3   OH241173   6.767   5.575   1.895 -0.3073  0.6494  0.1635
 6513TIP3    H141174   6.724   5.588   1.980 -1.7259  0.3654 -0.4687
 6513TIP3    H241175   6.858   5.557   1.916 -0.4916  1.2740  1.5857
 6514TIP3   OH241176   4.063   3.883   8.632  0.8735 -0.4134 -0.1684
 6514TIP3    H141177   4.078   3.840   8.548  3.4530 -0.8781  0.4402
 6514TIP3    H241178   4.059   3.811   8.695 -0.7092 -0.0494  0.2033
 6515TIP3   OH241179   0.449   3.169   3.039 -0.2795  0.1186  0.1163
 6515TIP3    H141180   0.542   3.161   3.061 -0.2750 -0.0920  0.0270
 6515TIP3    H241181   0.420   3.248   3.084  0.7239  2.1772 -2.6028
 6516TIP3   OH241182   5.755   4.736   2.120 -0.4848  0.9776  0.4960
 6516TIP3    H141183   5.714   4.663   2.072  1.7908 -0.7025  0.9446
 6516TIP3    H241184   5.781   4.798   2.052 -0.2879  0.2082 -0.1449
 6517TIP3   OH241185   3.878   2.696   2.629 -0.5820  0.6459 -0.1753
 6517TIP3    H141186   3.906   2.665   2.715  1.5201  1.4564 -0.4930
 6517TIP3    H241187   3.888   2.620   2.571 -4.1067 -0.5623  0.5801
 6518TIP3   OH241188   5.380   3.113   1.542  0.1437 -0.3774 -0.7749
 6518TIP3    H141189   5.463   3.065   1.544  0.3557 -0.2382 -3.2997
 6518TIP3    H241190   5.403   3.199   1.507 -1.1143 -0.5897 -2.2420
 6519TIP3   OH241191   1.556   5.451   7.968  0.2401 -0.4329 -0.4310
 6519TIP3    H141192   1.530   5.528   7.916 -0.0335 -0.5131 -0.4129
 6519TIP3    H241193   1.566   5.484   8.057  0.1625 -0.4110 -0.4310
 6520TIP3   OH241194   0.570   5.906   0.645  0.1145  0.1529  0.3828
 6520TIP3    H141195   0.521   5.840   0.694  1.1871  0.1993  1.5430
 6520TIP3    H241196   0.630   5.944   0.708  1.2076  0.5505 -0.8510
 6521TIP3   OH241197   4.744   1.810   1.480 -0.4007 -0.4241 -0.0832
 6521TIP3    H141198   4.661   1.852   1.459  0.2266  1.2972  0.7141
 6521TIP3    H241199   4.808   1.852   1.423  0.3563  0.2302  1.1909
 6522TIP3   OH241200   3.319   6.333   7.993 -0.1053 -0.3082 -0.1641
 6522TIP3    H141201   3.307   6.359   8.084 -0.3856 -0.0985 -0.2614
 6522TIP3    H241202   3.376   6.400   7.956  0.3189 -0.5961 -0.0486
 6523TIP3   OH241203   0.387   6.210   1.423 -0.4916 -0.3199 -0.1635
 6523TIP3    H141204   0.464   6.197   1.479  0.0710  2.2256 -0.2009
 6523TIP3    H241205   0.320   6.152   1.460  1.0305 -1.6354  0.6778
 6524TIP3   OH241206   6.049   1.414   2.447  0.2976 -0.4495  0.4327
 6524TIP3    H141207   6.127   1.395   2.499  0.2576 -1.1401  0.2523
 6524TIP3    H241208   6.015   1.328   2.422  0.2331 -0.1342 -0.6090
 6525TIP3   OH241209   2.394   1.871   0.491  0.0192  0.0364 -0.6096
 6525TIP3    H141210   2.396   1.776   0.493  0.1580  0.0275 -1.0512
 6525TIP3    H241211   2.399   1.898   0.583  1.1029 -0.3563 -0.5480
 6526TIP3   OH241212   3.290   5.161   7.954 -0.0120 -0.3055 -0.2913
 6526TIP3    H141213   3.368   5.145   7.901  0.1863  0.2585 -0.1759
 6526TIP3    H241214   3.320   5.148   8.044 -0.1429 -0.4430 -0.2673
 6527TIP3   OH241215   4.585   4.795   0.652  0.6372 -0.1448  0.2118
 6527TIP3    H141216   4.641   4.739   0.706 -1.3639 -0.5086  2.0088
 6527TIP3    H241217   4.503   4.746   0.645 -0.0360  1.1066 -0.9980
 6528TIP3   OH241218   0.639   0.155   7.791  0.2266 -0.2310  0.3910
 6528TIP3    H141219   0.724   0.118   7.766 -0.1774 -1.6382  0.9909
 6528TIP3    H241220   0.579   0.080   7.791 -1.0366  0.7388 -0.0472
 6529TIP3   OH241221   1.751   6.603   7.496  0.2699 -0.7138  0.9123
 6529TIP3    H141222   1.701   6.547   7.436  2.2521 -0.5170 -1.0374
 6529TIP3    H241223   1.759   6.686   7.449  0.9878 -0.1899  1.9277
 6530TIP3   OH241224   2.731   5.703   0.355 -0.0781  0.0864 -0.3781
 6530TIP3    H141225   2.732   5.787   0.310  1.6645  0.0119 -0.5660
 6530TIP3    H241226   2.686   5.644   0.294  0.9233  0.3283 -1.4040
 6531TIP3   OH241227   3.925   0.909   7.969  0.8572 -0.7014  0.1483
 6531TIP3    H141228   3.849   0.903   7.912  1.3786 -2.0520 -0.4570
 6531TIP3    H241229   3.996   0.867   7.920  1.1845 -2.4770  1.9931
 6532TIP3   OH241230   5.260   6.590   1.303 -0.3706 -0.2564 -0.0633
 6532TIP3    H141231   5.167   6.569   1.299 -0.1831 -0.9926 -1.0977
 6532TIP3    H241232   5.269   6.646   1.380 -1.7863  0.4389 -0.3641
 6533TIP3   OH241233   4.058   6.281   8.531  0.2357 -0.4755  0.1946
 6533TIP3    H141234   4.110   6.215   8.577  0.6510 -0.3746 -0.1263
 6533TIP3    H241235   3.998   6.315   8.598 -1.3254 -2.5224 -0.0876
 6534TIP3   OH241236   1.889   1.226   0.599 -0.4668  0.4918 -0.0145
 6534TIP3    H141237   1.934   1.266   0.524 -0.6073  0.5195 -0.0849
 6534TIP3    H241238   1.807   1.194   0.563 -0.3666  0.1562  0.0469
 6535TIP3   OH241239   5.278   6.061   1.765 -0.2937  0.0047  0.0962
 6535TIP3    H141240   5.210   6.047   1.830  0.6529 -1.8066  0.7326
 6535TIP3    H241241   5.329   6.135   1.799  1.4641 -2.1905  2.5840
 6536TIP3   OH241242   3.312   6.857   7.653 -0.2469  0.4948 -0.2103
 6536TIP3    H141243   3.224   6.849   7.692 -0.8080 -1.4133 -1.7065
 6536TIP3    H241244   3.370   6.815   7.716 -0.1477  2.8363  1.3723
 6537TIP3   OH241245   0.695   0.021   7.408 -0.4190 -0.0408 -0.6801
 6537TIP3    H141246   0.653  -0.018   7.331 -0.3522  0.9406 -1.2377
 6537TIP3    H241247   0.652   0.106   7.418 -3.3945 -1.7447  2.9185
 6538TIP3   OH241248   6.660   3.215   7.578 -0.1709  0.0555 -0.5303
 6538TIP3    H141249   6.693   3.263   7.502 -0.3091 -0.6392 -1.0420
 6538TIP3    H241250   6.638   3.283   7.642  0.5213  0.6209 -0.8760
 6539TIP3   OH241251   5.477   6.555   0.458 -0.4857  0.3378 -0.1255
 6539TIP3    H141252   5.508   6.599   0.379  0.0928 -1.1860 -0.7992
 6539TIP3    H241253   5.548   6.495   0.482 -0.6687  0.7211  1.5410
 6540TIP3   OH241254   0.825   3.990   7.470  0.3408 -0.6396 -0.4552
 6540TIP3    H141255   0.782   3.940   7.539 -2.3850  0.3642 -1.3250
 6540TIP3    H241256   0.818   3.934   7.392 -0.4083 -0.0102 -0.8488
 6541TIP3   OH241257   5.441   1.193   8.369 -0.1712 -0.5227 -0.1827
 6541TIP3    H141258   5.361   1.224   8.413 -0.0566 -1.4163  0.7016
 6541TIP3    H241259   5.442   1.099   8.387 -0.2260 -0.9826 -2.3125
 6542TIP3   OH241260   0.377   1.154   8.221 -0.6793 -0.2896  0.2898
 6542TIP3    H141261   0.356   1.148   8.315  1.8445  0.0976  0.9546
 6542TIP3    H241262   0.414   1.242   8.211  2.0061 -1.3988 -0.3458
 6543TIP3   OH241263   5.854   6.822   2.137  0.0416  0.2318 -0.0127
 6543TIP3    H141264   5.887   6.910   2.118  1.9129 -0.3720  0.2660
 6543TIP3    H241265   5.843   6.782   2.050  1.6584 -0.0997 -0.0889
 6544TIP3   OH241266   4.269   0.333   2.191 -0.3238  0.1087  0.1503
 6544TIP3    H141267   4.332   0.328   2.119 -0.2334 -2.0430  0.2952
 6544TIP3    H241268   4.197   0.385   2.157 -0.2878 -0.8728 -1.5197
 6545TIP3   OH241269   6.651   5.623   1.446 -0.0524 -0.1516 -0.1975
 6545TIP3    H141270   6.690   5.677   1.514  2.3426 -2.6625  0.5618
 6545TIP3    H241271   6.664   5.533   1.476 -1.8785 -1.2630 -2.4495
 6546TIP3   OH241272   0.947   0.811   2.752  0.2959  0.3266 -0.1899
 6546TIP3    H141273   0.989   0.734   2.789  1.1035  0.8417 -0.0153
 6546TIP3    H241274   0.893   0.846   2.823 -0.5676 -0.4144 -0.4583
 6547TIP3   OH241275   6.143   2.520   7.329 -0.1356 -0.1449  0.1444
 6547TIP3    H141276   6.121   2.475   7.248 -1.8743  0.4252  0.2460
 6547TIP3    H241277   6.140   2.452   7.396 -1.4822 -0.1406  0.1150
 6548TIP3   OH241278   4.396   4.129   0.884  0.7551  0.1995 -0.6520
 6548TIP3    H141279   4.449   4.196   0.841 -1.6047  1.6438 -1.4535
 6548TIP3    H241280   4.332   4.103   0.819 -2.0482  1.4446  1.4143
 6549TIP3   OH241281   3.504   6.084   2.010  0.3039 -0.7415 -0.5789
 6549TIP3    H141282   3.569   6.125   2.067 -0.1828 -2.1038  1.0494
 6549TIP3    H241283   3.461   6.019   2.066 -0.0891 -2.2999 -2.5784
 6550TIP3   OH241284   5.729   5.820   1.753  0.1136 -0.2597 -0.0279
 6550TIP3    H141285   5.717   5.777   1.837  1.3797 -0.6329 -0.0274
 6550TIP3    H241286   5.642   5.854   1.731 -0.5957 -1.5988  0.6274
 6551TIP3   OH241287   6.291   5.210   1.875  0.4514 -0.0472  0.0712
 6551TIP3    H141288   6.215   5.208   1.933  1.3455  3.3399  1.6047
 6551TIP3    H241289   6.270   5.148   1.805 -2.4628 -1.2694  1.8637
 6552TIP3   OH241290   5.888   1.011   8.591 -0.5582 -0.3623 -0.0732
 6552TIP3    H141291   5.967   1.011   8.645 -1.9486 -1.8266  2.0724
 6552TIP3    H241292   5.866   1.104   8.581  0.3147 -0.0167  0.9708
 6553TIP3   OH241293   2.245   2.801   0.489 -0.3573 -0.7816  0.4500
 6553TIP3    H141294   2.161   2.787   0.533 -0.8954 -0.0311 -0.3218
 6553TIP3    H241295   2.254   2.897   0.483 -0.1295 -0.8621 -0.7479
 6554TIP3   OH241296   3.264   3.360   3.047 -0.4973 -0.5938  0.1320
 6554TIP3    H141297   3.192   3.325   3.099 -2.3255 -0.7221 -2.3535
 6554TIP3    H241298   3.222   3.407   2.975  1.9204  1.0358 -0.3444
 6555TIP3   OH241299   1.552   4.273   8.624 -0.3499 -0.2064  0.3804
 6555TIP3    H141300   1.570   4.233   8.539  1.4292  1.2489  0.0125
 6555TIP3    H241301   1.601   4.220   8.686 -0.9360 -0.7341  0.4091
 6556TIP3   OH241302   1.124   3.224   2.231  0.1978  0.1456 -0.6620
 6556TIP3    H141303   1.172   3.173   2.167 -0.1787  1.0394 -1.6839
 6556TIP3    H241304   1.192   3.259   2.289  0.6719  0.3242 -1.3089
 6557TIP3   OH241305   0.940   0.841   2.204  0.4016  0.0897 -0.6697
 6557TIP3    H141306   1.028   0.847   2.239  0.1513 -1.0234  0.1945
 6557TIP3    H241307   0.888   0.802   2.275 -0.5076 -0.4475 -1.5997
 6558TIP3   OH241308   3.974   3.867   7.777 -0.4320 -0.0696 -0.3052
 6558TIP3    H141309   4.048   3.855   7.837 -1.0582  0.1387  0.5212
 6558TIP3    H241310   3.899   3.831   7.824 -1.1251  1.0399 -0.5382
 6559TIP3   OH241311   1.057   3.781   7.219 -0.2451 -0.2859 -0.2819
 6559TIP3    H141312   1.021   3.726   7.288  0.5046  0.1730  0.4936
 6559TIP3    H241313   0.984   3.838   7.193 -0.2431  0.3074  0.9257
 6560TIP3   OH241314   4.814   0.064   8.542  0.2530  0.7616  0.1840
 6560TIP3    H141315   4.800   0.057   8.637  1.2361 -1.1671  0.2503
 6560TIP3    H241316   4.726   0.060   8.505 -0.0654 -0.0494  0.9755
 6561TIP3   OH241317   2.425   0.862   0.023  0.1786  0.2661  0.0278
 6561TIP3    H141318   2.369   0.805   0.076 -1.7909  2.2008  0.2041
 6561TIP3    H241319   2.455   0.806  -0.048 -3.6294 -0.5778 -1.1929
 6562TIP3   OH241320   3.877   5.029   0.094  0.1369 -0.5037  0.0364
 6562TIP3    H141321   3.870   4.968   0.168 -0.1273  0.8669  1.1850
 6562TIP3    H241322   3.796   5.016   0.045 -0.3888 -0.3826  0.8426
 6563TIP3   OH241323   1.149   3.841   6.467 -0.0691 -0.2533 -0.2035
 6563TIP3    H141324   1.088   3.799   6.407 -1.1494  1.0137 -0.0259
 6563TIP3    H241325   1.187   3.768   6.517  1.9489 -1.5299 -3.2859
 6564TIP3   OH241326   3.941   0.425   2.124  0.0292  0.1756  0.0241
 6564TIP3    H141327   3.952   0.400   2.216  0.6334 -0.0199 -0.0991
 6564TIP3    H241328   3.846   0.428   2.112 -0.0571 -0.3996  0.4933
 6565TIP3   OH241329   6.826   3.248   0.260  0.2370 -0.0836 -0.2024
 6565TIP3    H141330   6.879   3.252   0.180  0.2954 -0.2597 -0.1722
 6565TIP3    H241331   6.787   3.335   0.267  0.7389  0.1304 -0.0738
 6566TIP3   OH241332   0.617   2.765   7.327  0.5743 -0.0946  0.2797
 6566TIP3    H141333   0.571   2.717   7.258  0.7505  2.5586 -1.8703
 6566TIP3    H241334   0.706   2.730   7.326  0.2426 -0.9450  0.0472
 6567TIP3   OH241335   0.281   5.819   7.851  0.3577  0.2493  0.2478
 6567TIP3    H141336   0.255   5.752   7.914  1.4355 -0.4501 -0.0251
 6567TIP3    H241337   0.267   5.902   7.897 -1.4018 -0.1042  0.4372
 6568TIP3   OH241338   6.355   1.964   0.158  0.0933 -0.2091  0.0931
 6568TIP3    H141339   6.289   1.987   0.223 -1.8495  1.8339 -2.3942
 6568TIP3    H241340   6.437   1.998   0.194 -0.8909  0.8176  1.4673
 6569TIP3   OH241341   4.742   5.072   1.731  0.6140 -0.4208  0.3809
 6569TIP3    H141342   4.660   5.050   1.688  0.8687  0.3877 -0.5616
 6569TIP3    H241343   4.788   4.988   1.739  1.2856 -0.4362 -2.5459
 6570TIP3   OH241344   4.215   0.205   1.497  0.3670  0.5402 -0.6194
 6570TIP3    H141345   4.134   0.162   1.523  0.5358  0.5106 -0.1399
 6570TIP3    H241346   4.215   0.200   1.401 -0.2778  0.6891 -0.6325
 6571TIP3   OH241347   3.109   2.886   8.689  0.1541  0.1793 -0.5547
 6571TIP3    H141348   3.019   2.906   8.661  0.1616 -1.0133 -1.5044
 6571TIP3    H241349   3.164   2.941   8.633  0.0165  1.0922  0.1951
 6572TIP3   OH241350   0.212   5.059   7.461 -0.2543 -0.1427  0.2385
 6572TIP3    H141351   0.243   5.089   7.376  0.2858 -1.7569 -0.1694
 6572TIP3    H241352   0.184   4.968   7.446  0.8121 -0.8169  1.9665
 6573TIP3   OH241353   2.910   0.876   0.543 -0.5892 -0.4304 -0.0592
 6573TIP3    H141354   2.891   0.969   0.536  1.3317  0.2085  1.9086
 6573TIP3    H241355   2.982   0.861   0.481  0.3458 -0.1461  0.9261
 6574TIP3   OH241356   4.793   5.288   2.688 -0.3624 -0.3682  0.2565
 6574TIP3    H141357   4.880   5.295   2.728 -0.4202 -0.7768  0.4698
 6574TIP3    H241358   4.738   5.345   2.741  0.0344  0.9467 -0.6903
 6575TIP3   OH241359   2.700   4.016   0.279  0.5267 -0.0666 -0.3469
 6575TIP3    H141360   2.719   3.937   0.329  0.0326 -0.9065 -1.4610
 6575TIP3    H241361   2.775   4.073   0.296  0.8750 -0.7563  0.4944
 6576TIP3   OH241362   2.129   2.565   2.222 -0.2334  0.1527 -0.1981
 6576TIP3    H141363   2.151   2.494   2.282  1.4779  2.2496  1.8041
 6576TIP3    H241364   2.034   2.576   2.232 -0.4740 -1.5111 -0.2553
 6577TIP3   OH241365   2.626   6.743   0.305 -0.1288  0.2776  0.4183
 6577TIP3    H141366   2.651   6.683   0.375  1.9666  1.3341  0.6621
 6577TIP3    H241367   2.587   6.818   0.351 -1.6012 -0.3110  0.1949
 6578TIP3   OH241368   6.541   4.202   7.310  0.3262 -0.0124 -0.8756
 6578TIP3    H141369   6.539   4.129   7.249  1.3509 -1.8943  1.1888
 6578TIP3    H241370   6.632   4.205   7.341 -0.1016  0.9955  0.4003
 6579TIP3   OH241371   0.607   6.652   2.755 -0.6460 -0.0521  0.5192
 6579TIP3    H141372   0.599   6.731   2.809 -0.5555 -0.0325  0.5023
 6579TIP3    H241373   0.685   6.666   2.703 -0.8570  0.0250  0.2210
 6580TIP3   OH241374   6.533   3.330   1.912 -0.4292 -0.3091 -0.1716
 6580TIP3    H141375   6.625   3.305   1.899 -0.6303 -0.8342 -0.6264
 6580TIP3    H241376   6.496   3.259   1.965 -0.3763  0.3070  0.7031
 6581TIP3   OH241377   0.652   4.468   0.076 -0.2274  0.0384 -0.1428
 6581TIP3    H141378   0.742   4.437   0.086 -0.5491 -1.1272 -0.7024
 6581TIP3    H241379   0.654   4.558   0.108  0.6722 -0.6365  1.9151
 6582TIP3   OH241380   5.229   3.988   7.419  0.2641 -0.3196  0.3540
 6582TIP3    H141381   5.288   3.997   7.343 -2.7410 -1.2349 -2.3333
 6582TIP3    H241382   5.204   4.078   7.440 -0.2912 -0.1070 -1.0675
 6583TIP3   OH241383   6.507   2.091   7.407 -0.3477  0.2185 -0.4345
 6583TIP3    H141384   6.477   2.011   7.364 -0.0106 -0.9674  1.4627
 6583TIP3    H241385   6.434   2.117   7.463 -0.3876  1.1609 -0.9042
 6584TIP3   OH241386   4.298   4.864   2.465 -0.1773 -0.7413  0.0480
 6584TIP3    H141387   4.390   4.848   2.488 -0.5979  0.8392  3.4460
 6584TIP3    H241388   4.256   4.779   2.474  0.4786 -0.9561  1.4877
 6585TIP3   OH241389   2.977   5.707   0.756 -0.3831  0.0451  0.0406
 6585TIP3    H141390   2.890   5.681   0.727 -0.1501 -0.8950  0.1534
 6585TIP3    H241391   2.992   5.657   0.836  1.3491 -1.9952 -1.4348
 6586TIP3   OH241392   6.841   6.340   8.432 -0.3179 -0.6546  0.3610
 6586TIP3    H141393   6.867   6.261   8.386 -1.5341 -1.3112  0.7526
 6586TIP3    H241394   6.918   6.396   8.431  0.0277 -1.1350 -1.4260
 6587TIP3   OH241395   3.504   4.435   2.654  0.1657 -0.2652 -0.0013
 6587TIP3    H141396   3.484   4.387   2.574  1.9178 -0.3720 -0.4288
 6587TIP3    H241397   3.474   4.524   2.636 -0.6300 -0.5722 -0.2596
 6588TIP3   OH241398   2.440   4.056   1.265 -0.3102 -0.1186 -0.7930
 6588TIP3    H141399   2.408   4.066   1.355 -0.7589  1.5981 -1.0979
 6588TIP3    H241400   2.491   4.136   1.250  1.5683 -1.3851 -1.3647
 6589TIP3   OH241401   5.461   2.330   0.350  0.3875  0.3716  0.0024
 6589TIP3    H141402   5.389   2.350   0.410  1.2772 -0.7200  1.4991
 6589TIP3    H241403   5.523   2.401   0.362  0.3425  0.4112  0.0029
 6590TIP3   OH241404   2.215   6.584   2.092  0.6358  0.0194 -0.2845
 6590TIP3    H141405   2.268   6.529   2.151 -1.2502 -0.5190  0.9842
 6590TIP3    H241406   2.125   6.573   2.123  0.1502  4.2377  0.4054
 6591TIP3   OH241407   3.691   3.570   8.666  0.7489 -0.4364 -0.0612
 6591TIP3    H141408   3.730   3.628   8.731  2.2593 -0.8464 -0.5548
 6591TIP3    H241409   3.601   3.600   8.657  0.8886  0.4362  1.2669
 6592TIP3   OH241410   5.880   5.233   0.886  0.4298  0.2513  0.3656
 6592TIP3    H141411   5.844   5.222   0.974  1.0968  2.0134  0.8879
 6592TIP3    H241412   5.973   5.251   0.900  0.7753 -0.5110 -0.7771
 6593TIP3   OH241413   2.335   5.645   8.375  0.0481 -0.0465 -1.0988
 6593TIP3    H141414   2.351   5.555   8.348  0.2934 -1.2084  2.3888
 6593TIP3    H241415   2.247   5.643   8.413  0.9300  0.5112  1.1528
 6594TIP3   OH241416   1.342   0.678   1.288  0.1079 -0.5741  0.4040
 6594TIP3    H141417   1.274   0.648   1.228  1.4999 -1.4210 -0.8253
 6594TIP3    H241418   1.424   0.662   1.241  1.0994  2.4946  0.8882
 6595TIP3   OH241419   4.275   5.970   3.232  0.7291 -0.0562 -0.1010
 6595TIP3    H141420   4.277   5.943   3.140 -0.2491  0.1088 -0.1756
 6595TIP3    H241421   4.266   6.066   3.228 -1.2641 -0.2004  0.1465
 6596TIP3   OH241422   6.399   1.318   2.370  0.0432  0.5688 -0.5713
 6596TIP3    H141423   6.388   1.387   2.435  0.6090  0.2547 -0.1392
 6596TIP3    H241424   6.329   1.334   2.306  0.3723  1.7400 -0.6607
 6597TIP3   OH241425   2.727   1.495   0.557 -0.0383 -0.5229 -0.2836
 6597TIP3    H141426   2.802   1.492   0.617 -0.2577  1.8450  0.2325
 6597TIP3    H241427   2.652   1.514   0.614 -0.3709  1.0126 -1.1795
 6598TIP3   OH241428   6.201   3.696   8.548 -0.4231 -0.1438 -0.1947
 6598TIP3    H141429   6.188   3.790   8.556  0.0548 -0.0764 -0.2165
 6598TIP3    H241430   6.155   3.659   8.623  1.2182  0.2576  1.0678
 6599TIP3   OH241431   6.099   2.771   1.939  0.5159  0.3680 -0.6932
 6599TIP3    H141432   6.025   2.784   1.878  0.8522 -0.1848 -1.2237
 6599TIP3    H241433   6.177   2.780   1.884  0.8458  0.7682 -0.1659
 6600TIP3   OH241434   5.736   1.810   1.201  0.0919  0.2313 -0.4942
 6600TIP3    H141435   5.806   1.778   1.258 -0.3420 -0.0983 -0.1398
 6600TIP3    H241436   5.778   1.875   1.146  1.1979 -1.4509 -1.7471
 6601TIP3   OH241437   0.101   0.104   8.612  0.0747 -0.0504  0.6334
 6601TIP3    H141438   0.117   0.188   8.569  2.0369 -0.1202  1.1224
 6601TIP3    H241439   0.168   0.046   8.576  1.3805 -0.2895  3.2494
 6602TIP3   OH241440   2.653   3.896   8.310 -0.1048 -0.0945 -0.6551
 6602TIP3    H141441   2.670   3.829   8.376 -2.3041  0.0058  0.0800
 6602TIP3    H241442   2.722   3.882   8.244  1.0257 -1.3917  0.7180
 6603TIP3   OH241443   0.301   6.783   0.700 -0.5769 -0.0395 -0.7082
 6603TIP3    H141444   0.387   6.768   0.739 -0.7735  1.8500  0.6335
 6603TIP3    H241445   0.239   6.759   0.769 -0.9712  2.0117 -0.2819
 6604TIP3   OH241446   1.204   0.238   0.025  0.0750 -0.4282  0.4534
 6604TIP3    H141447   1.113   0.243   0.053  0.3167 -1.4133  1.4989
 6604TIP3    H241448   1.227   0.327   0.000 -1.5276 -0.3823 -1.0466
 6605TIP3   OH241449   4.099   0.725   7.413  0.2793 -0.3763 -1.2834
 6605TIP3    H141450   4.017   0.768   7.437  0.7709  0.4165 -1.0011
 6605TIP3    H241451   4.168   0.781   7.449  0.9365 -1.6497 -0.4767
 6606TIP3   OH241452   0.638   0.539   0.080  0.4879  0.3597 -0.0667
 6606TIP3    H141453   0.670   0.449   0.073  0.8610  0.4482  0.4205
 6606TIP3    H241454   0.546   0.530   0.106  0.1327  0.1034 -1.3577
 6607TIP3   OH241455   0.347   4.267   1.238  0.4177  0.4657 -0.3379
 6607TIP3    H141456   0.264   4.309   1.216 -0.0091 -0.3624 -0.3387
 6607TIP3    H241457   0.346   4.261   1.334 -0.2229 -0.9095 -0.4102
 6608TIP3   OH241458   6.236   5.286   2.216  0.0138  0.4570 -0.1446
 6608TIP3    H141459   6.217   5.199   2.182  2.1486 -0.0621 -0.1996
 6608TIP3    H241460   6.297   5.270   2.289  0.0984  1.8791  0.1271
 6609TIP3   OH241461   4.562   6.715   1.787 -0.2948  0.0828 -0.3120
 6609TIP3    H141462   4.557   6.730   1.693 -0.4199 -1.3469 -0.5540
 6609TIP3    H241463   4.526   6.795   1.826  1.6241  1.5577 -1.3920
 6610TIP3   OH241464   5.795   2.241   0.899 -0.0119 -0.2956  0.1029
 6610TIP3    H141465   5.850   2.164   0.909  1.3774  0.8982  2.0956
 6610TIP3    H241466   5.792   2.282   0.985 -1.4106  1.4482 -0.6802
 6611TIP3   OH241467   2.187   5.347   2.909  0.6367  0.7067 -0.2740
 6611TIP3    H141468   2.204   5.253   2.908  0.4586  0.6335  1.2952
 6611TIP3    H241469   2.249   5.383   2.846 -0.5410 -0.6221 -2.3104
 6612TIP3   OH241470   2.051   0.018   1.144  0.3178 -0.1899 -0.7226
 6612TIP3    H141471   2.135   0.064   1.155 -0.1865  0.9980 -1.5742
 6612TIP3    H241472   2.065  -0.067   1.185  0.8600  1.1927  2.3040
 6613TIP3   OH241473   0.604   6.476   1.561 -0.5804  0.0093  0.0130
 6613TIP3    H141474   0.690   6.517   1.551 -0.0151 -1.4224 -1.4018
 6613TIP3    H241475   0.622   6.383   1.574 -1.8888 -0.6831 -2.4539
 6614TIP3   OH241476   6.154   0.319   0.391  0.5519 -0.3877 -0.6284
 6614TIP3    H141477   6.203   0.247   0.431  0.3487 -0.6519 -0.8500
 6614TIP3    H241478   6.158   0.302   0.297 -1.7061 -1.6040 -0.5855
 6615TIP3   OH241479   3.096   0.348   8.585  0.2536 -1.1768  0.1290
 6615TIP3    H141480   3.024   0.333   8.524 -0.1269  1.6306 -0.2463
 6615TIP3    H241481   3.054   0.352   8.671 -0.4642  2.1932 -0.2480
 6616TIP3   OH241482   3.254   1.550   2.306 -0.3775  0.3127  0.1329
 6616TIP3    H141483   3.197   1.487   2.263  0.2163  0.3211 -0.6904
 6616TIP3    H241484   3.272   1.512   2.392 -0.4460 -0.3906 -0.1570
 6617TIP3   OH241485   2.198   2.696   7.492 -0.6174  0.3829 -0.2321
 6617TIP3    H141486   2.162   2.781   7.467 -0.3074  0.2859 -1.0365
 6617TIP3    H241487   2.144   2.633   7.445  1.3260  0.2751 -2.4554
 6618TIP3   OH241488   5.724   3.388   1.871 -0.5341  0.5726  0.2758
 6618TIP3    H141489   5.667   3.422   1.803 -0.5539 -1.9430 -1.0746
 6618TIP3    H241490   5.748   3.465   1.923 -2.4203  2.2036 -1.1213
 6619TIP3   OH241491   6.419   4.312   8.262 -0.0967 -0.0616  0.0611
 6619TIP3    H141492   6.492   4.302   8.201  0.2356  0.1923  0.4149
 6619TIP3    H241493   6.342   4.286   8.211  0.3208 -1.0746 -0.0867
 6620TIP3   OH241494   4.699   6.058   0.069  0.5754  0.4467  0.1405
 6620TIP3    H141495   4.767   6.011   0.022  0.8369  0.7528  0.2081
 6620TIP3    H241496   4.714   6.150   0.047  0.3692  0.5429  0.3928
 6621TIP3   OH241497   5.147   6.389   2.048 -0.2800  0.2168 -0.4483
 6621TIP3    H141498   5.177   6.339   2.124 -0.6902  0.6074 -0.0284
 6621TIP3    H241499   5.206   6.362   1.978  0.5358  0.3647  0.1679
 6622TIP3   OH241500   6.320   0.770   1.784  0.0147  0.2151 -0.5437
 6622TIP3    H141501   6.342   0.849   1.735  0.3677  0.7728  0.4902
 6622TIP3    H241502   6.226   0.776   1.798  0.2306  1.1344  0.6606
 6623TIP3   OH241503   2.414   6.266   8.324 -0.0434  0.1784  0.2832
 6623TIP3    H141504   2.384   6.324   8.394 -0.6052 -1.0420  1.0889
 6623TIP3    H241505   2.356   6.190   8.329  0.3686 -0.2532 -1.0505
 6624TIP3   OH241506   2.781   2.606   0.048 -0.1659  0.0321  0.0337
 6624TIP3    H141507   2.873   2.628   0.061 -0.0119 -0.3137 -0.4351
 6624TIP3    H241508   2.777   2.569  -0.041 -0.7085 -0.1841  0.1419
 6625TIP3   OH241509   3.379   2.299   0.732  0.1926 -0.2544 -0.1863
 6625TIP3    H141510   3.333   2.258   0.805 -0.3348  1.0506  0.2573
 6625TIP3    H241511   3.437   2.231   0.698 -0.5629 -1.3010  0.5681
 6626TIP3   OH241512   6.626   2.254   0.506  0.4112 -0.3211  0.0583
 6626TIP3    H141513   6.564   2.184   0.488 -0.4453  0.1796  0.9576
 6626TIP3    H241514   6.674   2.224   0.584  0.1549  0.0095  0.3470
 6627TIP3   OH241515   1.637   3.113   7.597 -0.2629 -0.6259  0.3273
 6627TIP3    H141516   1.719   3.063   7.597  0.0223 -0.1796  1.2088
 6627TIP3    H241517   1.584   3.072   7.529  0.6503 -0.9970 -0.1830
 6628TIP3   OH241518   3.324   4.298   2.882 -0.2089  0.6141 -0.2848
 6628TIP3    H141519   3.306   4.297   2.788 -2.9579  1.2515  0.1545
 6628TIP3    H241520   3.249   4.344   2.920  0.4787 -0.2472  2.2889
 6629TIP3   OH241521   5.166   1.894   0.852  0.5449  0.4994  0.3623
 6629TIP3    H141522   5.206   1.980   0.840  0.3119  0.2658 -2.8929
 6629TIP3    H241523   5.087   1.896   0.798  0.0748 -1.4933  0.8863
 6630TIP3   OH241524   2.563   2.739   0.442  0.3958  0.1481  0.6850
 6630TIP3    H141525   2.480   2.780   0.419 -0.3271 -1.2493  0.7240
 6630TIP3    H241526   2.620   2.759   0.367  0.1074  1.2819  0.7472
 6631TIP3   OH241527   1.830   4.675   0.949  0.3473  0.4434 -0.2134
 6631TIP3    H141528   1.764   4.743   0.952 -0.3623 -0.2480  0.1814
 6631TIP3    H241529   1.875   4.681   1.034  1.3145  1.3987 -0.7653
 6632TIP3   OH241530   3.541   0.761   1.914  0.2948 -0.4331  0.2648
 6632TIP3    H141531   3.479   0.743   1.844 -0.8063  1.1735  0.7827
 6632TIP3    H241532   3.518   0.848   1.945  2.4060 -0.0544  0.9200
 6633TIP3   OH241533   0.750   1.886   8.639 -0.1313  0.6452  0.1942
 6633TIP3    H141534   0.795   1.891   8.555  2.8627  0.6208  1.6646
 6633TIP3    H241535   0.733   1.793   8.652 -0.5413  0.6424 -0.3372
 6634TIP3   OH241536   1.810   0.728   0.568  0.3687 -0.5237 -0.1870
 6634TIP3    H141537   1.805   0.638   0.534  1.4388 -0.7979  0.3424
 6634TIP3    H241538   1.870   0.722   0.642  0.3468  0.6112 -0.0668
 6635TIP3   OH241539   1.916   1.301   7.231  0.1606 -0.6805  0.1276
 6635TIP3    H141540   1.896   1.209   7.216  0.4930 -0.8868  0.9138
 6635TIP3    H241541   1.830   1.344   7.230  0.0227 -0.9512 -0.4906
 6636TIP3   OH241542   0.760   0.750   0.257  0.0918 -1.0766  0.3245
 6636TIP3    H141543   0.716   0.678   0.212 -0.5668 -0.9648  0.7862
 6636TIP3    H241544   0.700   0.776   0.326  0.1420  0.1915 -0.0852
 6637TIP3   OH241545   2.897   6.531   8.576  0.1302 -0.2352  0.3647
 6637TIP3    H141546   2.866   6.441   8.579  0.0015 -0.1951  0.2365
 6637TIP3    H241547   2.825   6.580   8.536 -0.3446  0.1565  1.6600
 6638TIP3   OH241548   6.221   3.916   0.843  0.5246 -0.7135 -0.2062
 6638TIP3    H141549   6.166   3.992   0.825 -0.7841 -1.5250  0.2298
 6638TIP3    H241550   6.288   3.919   0.775 -1.5288 -1.0840 -2.3751
 6639TIP3   OH241551   1.193   1.644   1.641  0.0566 -0.7935  0.1207
 6639TIP3    H141552   1.229   1.729   1.666 -2.5663  0.4375  0.0876
 6639TIP3    H241553   1.264   1.582   1.657  2.1605  1.4088 -0.0993
 6640TIP3   OH241554   2.120   1.054   1.689  0.0240  0.5162  0.2609
 6640TIP3    H141555   2.208   1.088   1.672 -0.2760  1.2669  0.1790
 6640TIP3    H241556   2.078   1.121   1.743 -0.4727  0.1270  0.3672
 6641TIP3   OH241557   0.963   3.763   0.499  0.0242 -0.2223 -0.0946
 6641TIP3    H141558   0.968   3.691   0.561 -1.0907  0.3547  0.7065
 6641TIP3    H241559   1.009   3.835   0.542  0.1530 -0.1186 -0.4013
 6642TIP3   OH241560   1.549   4.127   2.088 -0.3523  0.2132  0.4553
 6642TIP3    H141561   1.589   4.155   2.170 -1.1530  1.3475  0.4762
 6642TIP3    H241562   1.476   4.187   2.074 -1.7351 -1.4388  0.1343
 6643TIP3   OH241563   4.525   0.199   1.409  0.4132 -0.5073 -0.8076
 6643TIP3    H141564   4.542   0.210   1.316  3.1539  2.7201 -0.1246
 6643TIP3    H241565   4.433   0.172   1.414  0.2705 -1.1809 -4.3828
 6644TIP3   OH241566   4.504   1.619   7.776  0.4433  0.3223  0.0521
 6644TIP3    H141567   4.504   1.526   7.754  1.4844  0.5727 -1.1329
 6644TIP3    H241568   4.437   1.628   7.843 -2.0272 -0.7275 -2.1248
 6645TIP3   OH241569   4.053   5.014   0.917 -0.5877 -0.0308 -0.4101
 6645TIP3    H141570   4.018   4.936   0.875 -1.5850 -1.2406  2.4197
 6645TIP3    H241571   4.146   5.014   0.895 -0.9900 -0.7216 -2.2730
 6646TIP3   OH241572   0.506   4.234   8.455  0.1130 -0.0028 -0.2782
 6646TIP3    H141573   0.562   4.240   8.377  0.1293 -0.6424 -0.3202
 6646TIP3    H241574   0.435   4.297   8.438  1.0634  1.1902 -0.0052
 6647TIP3   OH241575   1.250   0.655   0.596  0.1385  0.3948 -0.0418
 6647TIP3    H141576   1.177   0.599   0.567  2.3512 -3.7324  1.5444
 6647TIP3    H241577   1.221   0.692   0.680 -0.1220 -1.4315  0.7130
 6648TIP3   OH241578   1.118   4.482   6.629  0.1730  0.0614  0.6225
 6648TIP3    H141579   1.085   4.393   6.622 -1.5244  0.6694  0.3478
 6648TIP3    H241580   1.213   4.473   6.625  0.0354 -1.7180  0.5711
 6649TIP3   OH241581   6.005   5.032   7.009 -0.5883 -0.4518  0.5268
 6649TIP3    H141582   6.093   5.058   7.037 -0.3257 -1.6424  0.8674
 6649TIP3    H241583   5.946   5.070   7.075 -0.3986  0.8462 -0.0256
 6650TIP3   OH241584   2.288   1.311   8.138  0.6058  0.1657 -0.0690
 6650TIP3    H141585   2.285   1.231   8.087 -0.5127  0.3972 -0.4001
 6650TIP3    H241586   2.246   1.289   8.221  1.3792  0.0975  0.3125
 6651TIP3   OH241587   2.210   0.753   0.155 -0.5064  0.1742 -0.8372
 6651TIP3    H141588   2.154   0.698   0.101 -2.1543 -0.2629  1.2081
 6651TIP3    H241589   2.169   0.840   0.154  0.1034  0.4695 -1.1924
 6652TIP3   OH241590   4.793   2.979   7.987  0.4996  0.0175  0.1503
 6652TIP3    H141591   4.743   2.991   8.068  0.8832  0.0675  0.3801
 6652TIP3    H241592   4.883   2.998   8.011  0.5852  0.2417 -0.3424
 6653TIP3   OH241593   1.621   3.053   1.197  0.1094  0.1814 -0.3756
 6653TIP3    H141594   1.571   2.972   1.191 -0.7170  0.7307 -1.1168
 6653TIP3    H241595   1.711   3.028   1.177 -0.1126 -0.5728 -0.4422
 6654TIP3   OH241596   6.577   0.739   1.840  0.7674  0.0611  0.1777
 6654TIP3    H141597   6.600   0.654   1.879 -0.6545 -1.3999 -1.9332
 6654TIP3    H241598   6.482   0.736   1.831  0.7092  1.8303 -0.1509
 6655TIP3   OH241599   6.763   3.490   0.294 -0.3560  0.6689 -0.2540
 6655TIP3    H141600   6.787   3.514   0.205  1.2366  1.0807  0.2688
 6655TIP3    H241601   6.731   3.571   0.334 -4.9420 -0.2085 -1.5441
 6656TIP3   OH241602   2.558   4.364   8.042  0.1735  0.5131 -0.1496
 6656TIP3    H141603   2.496   4.291   8.034  1.6185 -0.7664 -0.1109
 6656TIP3    H241604   2.550   4.411   7.959 -0.7256  0.2821 -0.2075
 6657TIP3   OH241605   1.647   1.067   8.461  0.1859  0.0720  0.4786
 6657TIP3    H141606   1.588   1.039   8.391 -0.9545  0.5983  1.2157
 6657TIP3    H241607   1.618   1.155   8.483  0.4867 -0.1144  1.6611
 6658TIP3   OH241608   5.029   6.866   8.390  0.7414  0.4472  0.4808
 6658TIP3    H141609   5.039   6.773   8.411 -0.3084  0.4682  1.0923
 6658TIP3    H241610   4.969   6.900   8.456 -1.0229  0.9720 -1.3087
 6659TIP3   OH241611   5.153   5.332   1.048  0.0468 -0.5437  0.0150
 6659TIP3    H141612   5.191   5.419   1.045  0.1895 -0.5986  0.1976
 6659TIP3    H241613   5.059   5.346   1.042 -0.1257 -0.1890  2.6126
 6660TIP3   OH241614   5.653   4.669   1.253 -0.2331  0.2028  0.2803
 6660TIP3    H141615   5.557   4.671   1.254 -0.2713  0.0869 -0.9646
 6660TIP3    H241616   5.674   4.585   1.214  0.3802  0.2913  0.4143
 6661TIP3   OH241617   3.067   3.986   8.507 -0.4943 -0.0856  0.2634
 6661TIP3    H141618   3.025   4.069   8.486 -0.2291 -0.0692 -0.2136
 6661TIP3    H241619   3.102   3.954   8.424 -0.9297 -0.8674  0.3631
 6662TIP3   OH241620   0.816   2.454   7.790  0.1444  0.3384  0.0261
 6662TIP3    H141621   0.843   2.545   7.777 -0.8489  0.6345 -0.0497
 6662TIP3    H241622   0.872   2.404   7.730 -0.6912  1.1251 -1.4876
 6663TIP3   OH241623   0.776   3.561   0.263  0.5771 -0.0985  0.7453
 6663TIP3    H141624   0.741   3.610   0.189  0.2791 -1.4582 -0.0583
 6663TIP3    H241625   0.764   3.618   0.338  1.9912  1.8441 -0.4026
 6664TIP3   OH241626   4.938   1.957   7.444  0.7175  0.1259 -0.3227
 6664TIP3    H141627   4.972   1.871   7.471  0.2132  0.0598  0.1241
 6664TIP3    H241628   4.895   1.991   7.522 -0.4892  0.0786 -0.9449
 6665TIP3   OH241629   2.131   4.378   2.061 -0.1896 -0.7093  0.3943
 6665TIP3    H141630   2.146   4.346   1.972  0.7458 -1.2365  0.7281
 6665TIP3    H241631   2.218   4.377   2.102 -0.6267 -0.5808  1.3523
 6666TIP3   OH241632   6.522   0.803   2.219  0.7411 -0.1858 -0.3375
 6666TIP3    H141633   6.485   0.730   2.168  1.1668 -1.2467  0.8171
 6666TIP3    H241634   6.483   0.792   2.306  1.4392  0.4920  0.0656
 6667TIP3   OH241635   5.900   1.670   0.170 -0.3513  0.0619 -0.2362
 6667TIP3    H141636   5.887   1.764   0.175 -1.6352 -0.1614  1.0160
 6667TIP3    H241637   5.987   1.660   0.131  0.5597  1.7818  1.2368
 6668TIP3   OH241638   1.777   3.876   2.857  0.1249 -0.0297  0.7402
 6668TIP3    H141639   1.840   3.923   2.803  0.6603 -1.1306  0.3947
 6668TIP3    H241640   1.802   3.899   2.947 -0.5857  1.5615  0.5804
 6669TIP3   OH241641   1.894   6.410   2.453 -0.4202  0.3482 -0.4366
 6669TIP3    H141642   1.986   6.412   2.479 -0.4993  0.9230 -0.1983
 6669TIP3    H241643   1.846   6.390   2.534 -0.5086  0.0128 -0.5666
 6670TIP3   OH241644   2.678   4.761   1.752  0.2783  0.3444  0.5760
 6670TIP3    H141645   2.708   4.799   1.669  0.4766 -0.1837  0.3951
 6670TIP3    H241646   2.583   4.768   1.749  0.1003 -1.5786 -0.6943
 6671TIP3   OH241647   5.827   6.655   1.892 -0.0224  0.5400 -0.1119
 6671TIP3    H141648   5.862   6.567   1.904  0.1665  0.6593  0.2157
 6671TIP3    H241649   5.890   6.698   1.834 -0.1805  0.4224 -0.3753
 6672TIP3   OH241650   3.043   3.004   1.778 -0.4160  0.2135  0.0097
 6672TIP3    H141651   3.024   3.098   1.775 -3.2896 -0.2840 -1.1930
 6672TIP3    H241652   3.081   2.985   1.692  0.5622  0.3083  0.4081
 6673TIP3   OH241653   5.636   0.519   2.371  0.2349  0.0298  0.5155
 6673TIP3    H141654   5.582   0.464   2.314  0.7628 -0.0042  0.0402
 6673TIP3    H241655   5.573   0.563   2.429 -0.1801 -1.2535  1.0742
 6674TIP3   OH241656   5.179   5.609   1.622 -0.2320  0.2815  0.5568
 6674TIP3    H141657   5.262   5.562   1.627 -0.3163  0.0845  0.1580
 6674TIP3    H241658   5.117   5.543   1.589 -0.9604 -0.1182  2.5623
 6675TIP3   OH241659   6.465   3.125   2.042 -0.1677 -0.9194 -0.1284
 6675TIP3    H141660   6.544   3.073   2.050 -0.0782 -1.1173 -1.9620
 6675TIP3    H241661   6.394   3.064   2.061  0.0677 -0.8464  1.0863
 6676TIP3   OH241662   1.814   0.435   2.157  0.6332  0.0595 -0.3430
 6676TIP3    H141663   1.880   0.377   2.119  0.0121 -0.9080  0.0284
 6676TIP3    H241664   1.854   0.466   2.238 -0.3871 -2.7599  1.3658
 6677TIP3   OH241665   5.618   2.968   1.526  0.4281 -0.3722 -0.3935
 6677TIP3    H141666   5.661   3.012   1.599  0.4825  0.3312 -0.8431
 6677TIP3    H241667   5.644   2.876   1.534  0.4588 -0.2998  0.4486
 6678TIP3   OH241668   1.039   3.639   7.752 -0.1411  0.2621  0.5298
 6678TIP3    H141669   0.961   3.627   7.805  0.8562  0.6966  2.1438
 6678TIP3    H241670   1.058   3.733   7.757  0.1914  0.2545 -0.3038
 6679TIP3   OH241671   4.935   5.467   7.969  0.1784 -0.0564 -0.1932
 6679TIP3    H141672   4.926   5.385   7.921  1.4102  0.2477 -0.9742
 6679TIP3    H241673   5.027   5.491   7.959  0.2417  0.5342  1.4924
 6680TIP3   OH241674   0.090   5.952   3.065  0.0235 -0.0453  0.6515
 6680TIP3    H141675   0.154   5.949   2.993  0.1008  2.9848  0.4654
 6680TIP3    H241676   0.132   5.904   3.136  2.1055  0.9211  0.1784
 6681TIP3   OH241677   6.421   0.726   7.792  0.4596  0.2642 -0.1096
 6681TIP3    H141678   6.449   0.711   7.702  1.7250 -0.3387  0.3622
 6681TIP3    H241679   6.405   0.639   7.827  0.5517  0.4624  0.4341
 6682TIP3   OH241680   1.168   1.323   1.362 -0.5394 -0.1098  0.2013
 6682TIP3    H141681   1.244   1.352   1.311 -0.2191  0.0882  0.7867
 6682TIP3    H241682   1.196   1.330   1.453 -1.1531 -0.3446  0.4124
 6683TIP3   OH241683   6.654   2.494   1.058 -0.5202 -0.1630  0.8805
 6683TIP3    H141684   6.677   2.435   0.987  0.0306  0.4693  0.5293
 6683TIP3    H241685   6.708   2.572   1.044 -1.5100  0.5916  1.1062
 6684TIP3   OH241686   6.129   6.353   1.130  0.5813  0.6661  0.0050
 6684TIP3    H141687   6.183   6.285   1.171 -0.6195 -0.1402  0.2917
 6684TIP3    H241688   6.079   6.307   1.063 -3.0640  0.3832  2.6424
 6685TIP3   OH241689   6.273   0.425   8.471 -0.3310 -0.8908  0.2425
 6685TIP3    H141690   6.224   0.507   8.473  0.7878 -0.2077  0.9518
 6685TIP3    H241691   6.211   0.359   8.502 -0.9125 -0.1224  0.7555
 6686TIP3   OH241692   2.274   5.686   1.115 -0.6934  0.5844 -0.0873
 6686TIP3    H141693   2.240   5.610   1.068  0.8469  0.6019 -1.3233
 6686TIP3    H241694   2.290   5.654   1.204 -1.3403 -0.1399 -0.2148
 6687TIP3   OH241695   5.603   4.894   8.142 -0.0458 -0.3944 -0.1702
 6687TIP3    H141696   5.625   4.803   8.159 -1.6041 -1.4357 -3.0423
 6687TIP3    H241697   5.516   4.906   8.181 -0.4129 -0.5583 -0.9231
 6688TIP3   OH241698   6.310   3.522   7.639  0.0319  0.3923  0.5275
 6688TIP3    H141699   6.257   3.599   7.619 -1.3364 -0.8374 -0.7710
 6688TIP3    H241700   6.275   3.490   7.722  0.6417  1.1616  1.0996
 6689TIP3   OH241701   1.821   5.122   8.303 -0.3671 -0.4336  0.2840
 6689TIP3    H141702   1.761   5.196   8.297  1.7514  1.2879 -1.0193
 6689TIP3    H241703   1.864   5.132   8.388  0.7544  0.6037 -0.3633
 6690TIP3   OH241704   0.771   5.180   2.318 -0.4770  0.2787 -0.1328
 6690TIP3    H141705   0.707   5.109   2.316 -1.2495  0.9686 -2.1369
 6690TIP3    H241706   0.732   5.246   2.375  0.2365 -0.8069  1.7305
 6691TIP3   OH241707   1.744   4.010   3.136 -0.5650 -0.6031  0.2359
 6691TIP3    H141708   1.654   3.982   3.152 -1.0586  0.9732  0.4482
 6691TIP3    H241709   1.736   4.103   3.115  0.7681 -0.9711 -2.2911
 6692TIP3   OH241710   3.698   5.470   2.029 -0.2033  0.0287  0.5876
 6692TIP3    H141711   3.685   5.533   2.099  1.4164 -0.3585  1.2697
 6692TIP3    H241712   3.739   5.395   2.071  1.7493  0.1823 -0.9208
 6693TIP3   OH241713   1.710   4.665   2.208  0.2557 -0.2411  0.4120
 6693TIP3    H141714   1.796   4.623   2.201  0.5382  0.3826  0.0448
 6693TIP3    H241715   1.725   4.741   2.264  0.3371  0.8325 -0.9855
 6694TIP3   OH241716   0.150   1.630   2.192 -0.2217 -0.0090 -0.3313
 6694TIP3    H141717   0.223   1.586   2.149  0.2241  0.5990 -0.2123
 6694TIP3    H241718   0.071   1.591   2.153  0.1441 -1.1693  0.0266
 6695TIP3   OH241719   3.204   3.556   8.063  0.1959 -0.1765 -0.2797
 6695TIP3    H141720   3.136   3.540   8.128 -1.1523  1.9985 -1.0381
 6695TIP3    H241721   3.195   3.484   8.000 -2.1868  0.5974 -0.9330
 6696TIP3   OH241722   2.774   6.413   1.395 -0.0400 -0.5278 -0.3309
 6696TIP3    H141723   2.696   6.468   1.397 -1.1027 -1.9856  1.5017
 6696TIP3    H241724   2.771   6.369   1.310 -0.9734 -0.2232 -0.4629
 6697TIP3   OH241725   2.608   4.172   1.563  0.6528 -0.0504 -0.6151
 6697TIP3    H141726   2.638   4.258   1.536  2.5892 -0.6224 -0.4032
 6697TIP3    H241727   2.662   4.150   1.639  0.5625 -1.6507 -0.9813
 6698TIP3   OH241728   0.846   6.647   2.613  0.2957 -0.4002  0.5055
 6698TIP3    H141729   0.915   6.582   2.601  0.2985 -0.3366  0.1722
 6698TIP3    H241730   0.880   6.706   2.681  0.5844 -0.3460  0.3149
 6699TIP3   OH241731   0.771   4.530   8.026 -0.0028  0.1748  0.2527
 6699TIP3    H141732   0.739   4.599   7.967 -2.8400  0.7349  2.2608
 6699TIP3    H241733   0.796   4.459   7.967  0.1700  1.7876 -1.7467
 6700TIP3   OH241734   3.849   0.660   1.386 -0.7439 -0.2889 -0.5798
 6700TIP3    H141735   3.916   0.601   1.352 -0.3875 -0.1524 -0.1155
 6700TIP3    H241736   3.811   0.612   1.460  0.2888  0.5021  0.4881
 6701TIP3   OH241737   4.059   3.844   1.559  0.2037  0.3393 -0.2198
 6701TIP3    H141738   4.041   3.805   1.645  0.3216  0.8994  0.0678
 6701TIP3    H241739   4.003   3.921   1.556  0.8115  0.7859 -0.3001
 6702TIP3   OH241740   3.113   0.262   2.212  0.1607 -0.7422  0.1725
 6702TIP3    H141741   3.102   0.353   2.184 -0.7655  0.0806  2.8495
 6702TIP3    H241742   3.105   0.211   2.131 -0.8167  1.4473 -1.2253
 6703TIP3   OH241743   2.299   0.459   8.221  0.4393 -0.3913  0.3588
 6703TIP3    H141744   2.256   0.459   8.136 -0.5430 -1.1123  0.8337
 6703TIP3    H241745   2.300   0.551   8.248  0.1834 -0.2393 -0.1434
 6704TIP3   OH241746   3.204   4.316   8.122  0.1372 -0.3444 -0.2613
 6704TIP3    H141747   3.144   4.273   8.062  0.0092 -0.5195 -0.0107
 6704TIP3    H241748   3.150   4.380   8.169  0.6306  1.2724 -1.7623
 6705TIP3   OH241749   5.864   5.440   2.273 -0.1928  0.0498 -0.0382
 6705TIP3    H141750   5.948   5.456   2.231 -0.1458 -0.1416 -0.0146
 6705TIP3    H241751   5.818   5.524   2.267 -0.4674 -0.1587 -1.1082
 6706TIP3   OH241752   1.191   4.204   0.559 -0.3620 -0.2741 -0.1107
 6706TIP3    H141753   1.248   4.128   0.572 -0.9399 -0.5065  1.1670
 6706TIP3    H241754   1.169   4.233   0.647 -1.3444  0.4894 -0.5887
 6707TIP3   OH241755   4.130   5.666   2.472  0.0087 -0.4269  0.2526
 6707TIP3    H141756   4.077   5.703   2.402 -0.1765 -1.7355 -0.3374
 6707TIP3    H241757   4.208   5.722   2.475  0.4638 -0.8779 -1.6571
 6708TIP3   OH241758   5.045   6.285   8.494  0.3959  0.3943 -0.4659
 6708TIP3    H141759   5.105   6.273   8.421  1.5570  3.6567 -0.2100
 6708TIP3    H241760   5.045   6.201   8.539  1.8397 -0.8460 -2.6074
 6709TIP3   OH241761   3.732   3.684   2.339  0.1715  0.3476 -0.2566
 6709TIP3    H141762   3.811   3.723   2.303  0.6995 -0.2373  0.2412
 6709TIP3    H241763   3.701   3.747   2.404  1.5282 -0.4223  1.2057
 6710TIP3   OH241764   6.871   4.669   0.768 -0.0537 -0.0193 -0.3838
 6710TIP3    H141765   6.777   4.652   0.777  0.2292 -0.5466  3.6614
 6710TIP3    H241766   6.882   4.759   0.798  0.8042 -0.3248  0.2728
 6711TIP3   OH241767   2.000   5.408   8.215  0.5332  0.3991  0.0797
 6711TIP3    H141768   1.985   5.351   8.139  0.1087  0.8984 -0.2194
 6711TIP3    H241769   2.078   5.458   8.192 -0.2472  1.3810 -0.5549
 6712TIP3   OH241770   1.191   1.725   3.140 -0.5769 -0.5151 -0.7798
 6712TIP3    H141771   1.261   1.787   3.161 -0.9623 -0.4282  0.3378
 6712TIP3    H241772   1.111   1.775   3.148 -0.9636 -1.3167  1.0605
 6713TIP3   OH241773   4.101   3.216   2.582  0.1184  0.0907 -0.5450
 6713TIP3    H141774   4.111   3.259   2.667  1.1287  0.5699 -0.8868
 6713TIP3    H241775   4.020   3.166   2.590  0.1976  0.1225  0.7002
 6714TIP3   OH241776   0.562   3.287   0.671 -0.6159  0.1613  0.2261
 6714TIP3    H141777   0.511   3.301   0.751 -1.0742  0.8031 -0.1587
 6714TIP3    H241778   0.496   3.275   0.603 -0.2306 -1.5408  0.1121
 6715TIP3   OH241779   5.099   6.130   0.824  0.6220 -0.1181 -0.4712
 6715TIP3    H141780   5.015   6.177   0.824  1.0193  0.6120 -1.2579
 6715TIP3    H241781   5.136   6.147   0.738  0.7426 -1.9929 -0.8396
 6716TIP3   OH241782   6.824   3.009   8.606  0.4952  0.3889 -0.1234
 6716TIP3    H141783   6.859   3.001   8.517 -2.3079 -2.1911 -1.1892
 6716TIP3    H241784   6.751   3.070   8.598 -1.7619 -2.1604 -0.4763
 6717TIP3   OH241785   6.016   0.164   1.892 -0.2035 -0.9049 -0.0121
 6717TIP3    H141786   5.970   0.232   1.841  1.6186  0.5782  0.2293
 6717TIP3    H241787   5.985   0.177   1.981  0.3950 -0.1305  0.0925
 6718TIP3   OH241788   4.919   1.784   1.012 -0.8023  0.2410  0.6358
 6718TIP3    H141789   4.974   1.862   1.015  0.0733 -0.3161 -0.3347
 6718TIP3    H241790   4.938   1.744   0.927 -0.5808 -1.4834  1.4423
 6719TIP3   OH241791   0.984   5.394   1.341  0.3928 -0.3299 -0.3026
 6719TIP3    H141792   1.016   5.321   1.289  0.5710 -0.9319  0.6216
 6719TIP3    H241793   0.897   5.412   1.307  0.8878 -0.0436 -1.4632
 6720TIP3   OH241794   2.540   1.701   7.210  0.0042  0.3008 -0.0234
 6720TIP3    H141795   2.466   1.672   7.156 -1.1074  0.7142  1.2326
 6720TIP3    H241796   2.518   1.672   7.298  2.3439 -1.4263  0.1045
 6721TIP3   OH241797   1.484   3.635   2.698  0.2456  0.1004 -0.4976
 6721TIP3    H141798   1.527   3.549   2.698  0.4073  0.1670 -1.7515
 6721TIP3    H241799   1.391   3.615   2.708  0.4398 -0.0920  1.2825
 6722TIP3   OH241800   2.934   2.499   0.630 -0.4726 -0.6926 -0.2030
 6722TIP3    H141801   2.928   2.579   0.682  0.4494 -0.6239 -0.1703
 6722TIP3    H241802   3.024   2.469   0.643 -0.4114 -1.0254 -1.2490
 6723TIP3   OH241803   3.199   5.033   8.228 -0.3017  0.0977  0.2781
 6723TIP3    H141804   3.222   4.982   8.306  1.8147  0.1623 -0.2544
 6723TIP3    H241805   3.118   5.079   8.253 -0.0449 -0.3912  2.1958
 6724TIP3   OH241806   2.220   5.205   2.567  0.0328  0.2298 -0.7600
 6724TIP3    H141807   2.303   5.156   2.564 -1.2505 -2.2926  0.6904
 6724TIP3    H241808   2.174   5.181   2.487 -0.2716 -0.3861 -0.4131
 6725TIP3   OH241809   5.044   6.570   0.917 -0.1186 -0.3470 -0.0281
 6725TIP3    H141810   5.068   6.501   0.855 -1.4174 -0.9879  0.1374
 6725TIP3    H241811   4.952   6.590   0.896 -0.5120 -0.4062  1.4920
 6726TIP3   OH241812   4.582   6.225   0.827  0.0497 -0.2867  0.3187
 6726TIP3    H141813   4.522   6.164   0.871 -0.6789  0.1378 -0.0628
 6726TIP3    H241814   4.580   6.198   0.736 -0.8008  0.7040  0.0235
 6727TIP3   OH241815   3.827   5.004   7.835  0.3454  0.4260 -0.6638
 6727TIP3    H141816   3.889   4.945   7.792 -0.7568 -2.0857  0.9402
 6727TIP3    H241817   3.741   4.973   7.807 -0.5530 -2.3367  4.0745
 6728TIP3   OH241818   1.543   0.831   0.899 -0.1092 -0.5118  0.3311
 6728TIP3    H141819   1.635   0.819   0.923 -0.2907 -0.3181  1.1643
 6728TIP3    H241820   1.533   0.926   0.888 -0.0287 -0.5950 -0.5667
 6729TIP3   OH241821   6.441   0.679   3.076  0.3865  0.4368  0.1772
 6729TIP3    H141822   6.376   0.714   3.015  0.3354 -0.9208 -0.5890
 6729TIP3    H241823   6.406   0.593   3.102  3.1646 -1.8011 -2.6471
 6730TIP3   OH241824   2.658   1.123   8.514  0.3096 -0.1259 -0.2714
 6730TIP3    H141825   2.627   1.046   8.466 -0.0556  0.8635 -1.6668
 6730TIP3    H241826   2.582   1.182   8.517  1.0186  0.8326 -0.6086
 6731TIP3   OH241827   2.311   3.073   0.501  0.0865  0.2212  0.1634
 6731TIP3    H141828   2.393   3.112   0.531  0.4871 -0.8802  0.5590
 6731TIP3    H241829   2.329   3.045   0.411 -0.4599  1.6397 -0.4187
 6732TIP3   OH241830   2.309   6.025   7.006  0.7945  0.0685  0.2119
 6732TIP3    H141831   2.389   6.010   7.056  1.0676  3.3624  0.9887
 6732TIP3    H241832   2.334   6.009   6.915  1.4901 -1.6921  0.6642
 6733TIP3   OH241833   1.677   6.703   1.733  0.3133  0.4686  0.3126
 6733TIP3    H141834   1.600   6.662   1.695  0.4259 -0.2039  0.7949
 6733TIP3    H241835   1.692   6.781   1.679  0.1548 -0.1740 -0.6863
 6734TIP3   OH241836   4.855   1.611   0.164  0.3339 -0.4083 -0.0941
 6734TIP3    H141837   4.924   1.631   0.227 -0.8323 -0.1447  1.1696
 6734TIP3    H241838   4.889   1.641   0.080  0.6508  2.4075  0.9115
 6735TIP3   OH241839   6.709   1.726   8.129 -0.4205  0.6001  0.2473
 6735TIP3    H141840   6.620   1.742   8.097 -0.4115  0.4074  0.1236
 6735TIP3    H241841   6.697   1.685   8.214 -0.4517  0.5261  0.2074
 6736TIP3   OH241842   0.383   5.019   6.715  0.2277 -0.0026 -0.0187
 6736TIP3    H141843   0.416   5.107   6.735  0.6851 -0.5054  1.6322
 6736TIP3    H241844   0.341   5.028   6.630  0.9102  1.6453 -0.2230
 6737TIP3   OH241845   5.043   0.872   1.533  0.5581  0.0490  0.6473
 6737TIP3    H141846   4.965   0.906   1.577  0.8185  0.9253  0.4479
 6737TIP3    H241847   5.029   0.777   1.529 -1.1733  0.3141 -0.6925
 6738TIP3   OH241848   3.393   0.167   1.487 -0.3340  0.6249 -0.2851
 6738TIP3    H141849   3.462   0.127   1.540 -0.2118  1.0374 -0.1250
 6738TIP3    H241850   3.387   0.112   1.409 -0.0210  0.4218 -0.1671
 6739TIP3   OH241851   6.092   5.272   8.235 -0.0527 -0.0743  0.2473
 6739TIP3    H141852   6.001   5.263   8.262  0.1584 -0.9890  0.6726
 6739TIP3    H241853   6.106   5.367   8.228 -1.0537  0.0705  0.0868
 6740TIP3   OH241854   6.258   4.021   0.052  0.0654  0.6604  0.7868
 6740TIP3    H141855   6.194   4.029  -0.018  0.9496  0.6885 -0.0301
 6740TIP3    H241856   6.277   4.111   0.078  1.8737  0.8458 -0.9386
 6741TIP3   OH241857   2.433   3.858   2.161 -0.4600 -0.0509 -0.7728
 6741TIP3    H141858   2.521   3.852   2.125  0.3780 -0.7549  1.2689
 6741TIP3    H241859   2.435   3.804   2.239 -2.5274  0.4523 -0.3100
 6742TIP3   OH241860   5.082   4.133   3.298  0.0922  0.4410  0.1159
 6742TIP3    H141861   5.013   4.068   3.313 -0.9610  1.5423  0.1771
 6742TIP3    H241862   5.163   4.082   3.297 -0.7292 -0.9023 -0.1064
 6743TIP3   OH241863   2.720   3.156   0.757 -0.2814 -0.6034  0.3018
 6743TIP3    H141864   2.721   3.135   0.850  0.0270  2.5599  1.1421
 6743TIP3    H241865   2.812   3.161   0.731 -0.2528  1.2427  0.6181
 6744TIP3   OH241866   0.894   6.669   0.332 -0.1625 -0.1120  0.5453
 6744TIP3    H141867   0.936   6.613   0.397  0.2527 -0.9808 -0.4317
 6744TIP3    H241868   0.849   6.608   0.274  0.0320  0.5856 -0.3649
 6745TIP3   OH241869   5.680   1.671   8.654 -0.2423  0.2161 -0.4391
 6745TIP3    H141870   5.698   1.742   8.592 -0.5504 -0.4357 -1.3067
 6745TIP3    H241871   5.733   1.691   8.731 -1.4190  2.1616 -0.0731
 6746TIP3   OH241872   0.402   0.959   1.220 -0.3311  0.3316 -0.2832
 6746TIP3    H141873   0.330   0.991   1.274 -0.0273  0.7420 -0.1212
 6746TIP3    H241874   0.409   0.866   1.243 -0.0427  0.5569  0.5684
 6747TIP3   OH241875   1.318   2.420   0.797 -0.3417  0.0621  0.5228
 6747TIP3    H141876   1.259   2.364   0.746  1.8161 -1.1961 -0.7431
 6747TIP3    H241877   1.350   2.363   0.867  1.5969 -0.2787 -0.5658
 6748TIP3   OH241878   2.208   0.118   8.255  0.0824  0.4171  0.1912
 6748TIP3    H141879   2.222   0.180   8.183  0.8444  0.9114  0.7497
 6748TIP3    H241880   2.293   0.077   8.268  0.4797  1.7356  2.0790
 6749TIP3   OH241881   3.438   0.602   0.813 -0.3399 -0.3468  0.4912
 6749TIP3    H141882   3.525   0.596   0.852  0.0343  0.2301 -0.2234
 6749TIP3    H241883   3.406   0.689   0.837 -0.3822 -0.2469  0.0852
 6750TIP3   OH241884   2.329   6.506   0.527  0.2064  0.3268  0.0673
 6750TIP3    H141885   2.289   6.590   0.549  0.2521  0.5604 -0.7460
 6750TIP3    H241886   2.254   6.446   0.521 -0.3303  1.1803 -3.4810
 6751TIP3   OH241887   2.931   5.208   8.601  0.2888  0.8656  0.5584
 6751TIP3    H141888   3.008   5.230   8.653 -0.5421  0.2865  2.1141
 6751TIP3    H241889   2.869   5.279   8.619 -0.6110 -0.1768  1.7173
 6752TIP3   OH241890   0.751   5.881   0.858 -0.0928 -0.0792 -0.0595
 6752TIP3    H141891   0.746   5.958   0.915 -1.4045  0.2516 -0.5956
 6752TIP3    H241892   0.747   5.807   0.919  2.6594  0.1806  0.6002
 6753TIP3   OH241893   0.005   6.514   1.753 -0.6484  0.2425 -0.3523
 6753TIP3    H141894   0.064   6.454   1.800  0.6320  1.1704 -0.7319
 6753TIP3    H241895  -0.041   6.458   1.691 -0.4895 -0.5732  0.2481
 6754TIP3   OH241896   5.759   3.498   0.909  0.4378  0.2252 -0.3707
 6754TIP3    H141897   5.804   3.565   0.959  1.0167 -0.7039  0.3873
 6754TIP3    H241898   5.704   3.546   0.847 -0.8340  1.4331  1.6165
 6755TIP3   OH241899   5.483   0.344   8.104 -0.1147 -0.0084 -0.5740
 6755TIP3    H141900   5.478   0.250   8.121  0.7484  0.0271 -0.0615
 6755TIP3    H241901   5.533   0.379   8.177  0.0071  0.7788 -1.0196
 6756TIP3   OH241902   1.650   1.125   7.876  0.4208 -0.2796  0.4927
 6756TIP3    H141903   1.592   1.200   7.862 -1.5177 -1.3545  2.1650
 6756TIP3    H241904   1.627   1.064   7.806 -0.0815 -0.4843  0.8352
 6757TIP3   OH241905   1.709   4.938   0.264 -0.2911 -0.2209  0.2546
 6757TIP3    H141906   1.686   4.850   0.295  1.6154 -1.7456 -2.2619
 6757TIP3    H241907   1.669   4.944   0.178  2.4873 -0.1500 -1.1511
 6758TIP3   OH241908   3.673   2.225   0.259 -0.1336 -0.1540 -0.6638
 6758TIP3    H141909   3.732   2.293   0.292  1.0360 -0.7802 -1.3937
 6758TIP3    H241910   3.591   2.271   0.243  0.3168  0.8693 -0.1888
 6759TIP3   OH241911   2.708   5.814   1.412  0.4087 -0.1785  0.6770
 6759TIP3    H141912   2.779   5.777   1.466  0.3348 -0.9734  0.2540
 6759TIP3    H241913   2.631   5.763   1.437 -0.0677  0.8174  1.2754
 6760TIP3   OH241914   6.837   4.943   2.503  0.0165 -0.2564  0.2106
 6760TIP3    H141915   6.894   4.987   2.567  0.6111 -0.5571 -0.1096
 6760TIP3    H241916   6.762   4.915   2.554  0.4530 -0.4287  0.7701
 6761TIP3   OH241917   0.325   3.172   1.779  0.2423 -0.2732  0.7110
 6761TIP3    H141918   0.326   3.261   1.745  0.5498 -0.4983  0.0949
 6761TIP3    H241919   0.391   3.171   1.848 -2.0344  0.8051  3.0421
 6762TIP3   OH241920   3.976   2.737   0.048 -0.1496 -0.2264 -0.2499
 6762TIP3    H141921   4.058   2.712   0.005  0.1537 -0.5974  0.5197
 6762TIP3    H241922   3.993   2.824   0.084  0.2420 -0.6761  0.7055
 6763TIP3   OH241923   6.352   1.800   8.633  0.0365 -0.3553  0.5670
 6763TIP3    H141924   6.333   1.849   8.554  0.3184  0.2082  0.8403
 6763TIP3    H241925   6.327   1.859   8.704 -0.7381 -1.0639  0.8976
 6764TIP3   OH241926   5.421   3.411   0.824 -0.1386  0.3739 -0.1092
 6764TIP3    H141927   5.341   3.358   0.818  0.1600 -0.2043  0.9636
 6764TIP3    H241928   5.476   3.378   0.753 -1.5610  2.0633 -2.1274
 6765TIP3   OH241929   0.209   4.910   8.241 -0.1867 -0.2505  0.4223
 6765TIP3    H141930   0.218   4.936   8.150  2.2620  0.6165  0.8365
 6765TIP3    H241931   0.143   4.970   8.277  1.6863  2.0970  0.1273
 6766TIP3   OH241932   6.427   4.581   0.955  0.5817 -0.1180  0.3616
 6766TIP3    H141933   6.347   4.534   0.932  0.6121  0.6303 -1.4262
 6766TIP3    H241934   6.412   4.670   0.923  2.0736  0.0544  0.0809
 6767TIP3   OH241935   6.869   6.173   2.843 -0.5368  0.1280 -0.2696
 6767TIP3    H141936   6.944   6.210   2.888  1.7453 -2.8260 -1.3194
 6767TIP3    H241937   6.832   6.110   2.905  0.9430 -1.9510 -1.3696
 6768TIP3   OH241938   6.102   3.578   1.073  0.0029  0.3168  0.4199
 6768TIP3    H141939   6.149   3.655   1.103  2.6965 -0.9701 -0.1400
 6768TIP3    H241940   6.161   3.538   1.008  0.9882 -4.5820  3.7771
 6769TIP3   OH241941   2.935   0.655   1.510  0.2179  0.3145  0.1107
 6769TIP3    H141942   2.899   0.687   1.427  0.0075 -1.5658 -0.5757
 6769TIP3    H241943   2.859   0.646   1.568  0.1950  0.4804  0.1064
 6770TIP3   OH241944   4.596   6.755   3.298  0.5275  0.6006 -0.3239
 6770TIP3    H141945   4.517   6.708   3.325  1.1880  0.5692  1.6812
 6770TIP3    H241946   4.613   6.723   3.209 -1.1853 -0.0654 -0.4524
 6771TIP3   OH241947   6.241   0.283   0.974 -0.2937 -0.1136  0.0465
 6771TIP3    H141948   6.219   0.191   0.991  0.2521 -0.4125 -0.8385
 6771TIP3    H241949   6.156   0.326   0.969 -0.6969 -1.0445 -2.1067
 6772TIP3   OH241950   5.125   2.275   2.689 -0.2938  0.0758  0.2415
 6772TIP3    H141951   5.144   2.354   2.638  0.3078  0.8226  1.5613
 6772TIP3    H241952   5.089   2.308   2.772 -0.4292 -1.0513  0.6452
 6773TIP3   OH241953   6.463   3.223   1.653 -0.1799 -0.5409 -0.6497
 6773TIP3    H141954   6.553   3.192   1.641  0.3040 -0.1615  1.4345
 6773TIP3    H241955   6.468   3.278   1.732 -1.9548  0.7497 -1.3814
 6774TIP3   OH241956   5.626   0.334   0.897 -0.0295 -0.1732 -0.2454
 6774TIP3    H141957   5.593   0.382   0.821 -1.7068 -2.8142 -1.3293
 6774TIP3    H241958   5.666   0.255   0.860  0.9374 -0.5764  1.5389
 6775TIP3   OH241959   1.128   5.396   2.685 -0.1462 -0.5237  0.3492
 6775TIP3    H141960   1.155   5.304   2.689 -0.5941 -0.7796 -1.4641
 6775TIP3    H241961   1.033   5.393   2.671 -0.0871  0.1917 -0.2755
 6776TIP3   OH241962   6.308   1.483   1.056 -0.3218  0.0414  0.3360
 6776TIP3    H141963   6.382   1.447   1.105  0.2795 -0.7662 -1.1098
 6776TIP3    H241964   6.247   1.410   1.048  0.1992 -0.2618 -1.2533
 6777TIP3   OH241965   6.189   4.226   8.431  0.2300  0.1882 -0.2548
 6777TIP3    H141966   6.179   4.299   8.492  0.6782 -0.1676  0.2559
 6777TIP3    H241967   6.284   4.213   8.424  0.1648 -0.1221 -0.6048
 6778TIP3   OH241968   0.736   0.737   8.611 -0.1044 -0.4737 -0.2042
 6778TIP3    H141969   0.745   0.809   8.673 -0.9596 -0.4734 -0.0693
 6778TIP3    H241970   0.726   0.659   8.666 -0.6490 -0.4999 -0.3293
 6779TIP3   OH241971   5.909   0.415   0.311  0.5723 -0.2981 -0.0814
 6779TIP3    H141972   5.853   0.340   0.329  1.4142 -0.9319 -0.0576
 6779TIP3    H241973   5.996   0.389   0.342  0.9716  0.5160 -0.4697
 6780TIP3   OH241974   0.355   2.308   7.722 -0.3548 -0.0242 -0.7061
 6780TIP3    H141975   0.364   2.249   7.797 -0.2632 -1.0671 -1.5014
 6780TIP3    H241976   0.398   2.389   7.748  2.0643 -1.2683 -0.5812
 6781TIP3   OH241977   0.651   4.479   2.310  0.3643 -0.1494  0.0484
 6781TIP3    H141978   0.644   4.540   2.383 -1.0363 -1.2033  0.8367
 6781TIP3    H241979   0.618   4.396   2.344  1.1327 -1.0686 -1.3404
 6782TIP3   OH241980   2.330   5.422   8.033  0.3270 -0.3677 -0.0884
 6782TIP3    H141981   2.420   5.430   8.003  0.8987  0.1918  1.6651
 6782TIP3    H241982   2.337   5.392   8.124 -1.3003 -1.7741 -0.3768
 6783TIP3   OH241983   3.384   5.594   8.346  0.1457  0.1275  0.1556
 6783TIP3    H141984   3.457   5.578   8.405  1.1970  1.4268 -0.7352
 6783TIP3    H241985   3.315   5.631   8.403  1.0713  1.1868  0.6265
 6784TIP3   OH241986   0.184   2.240   2.887 -0.1050  0.2091 -0.1835
 6784TIP3    H141987   0.261   2.276   2.931 -1.1811  0.5109  1.5012
 6784TIP3    H241988   0.152   2.312   2.833 -0.2915  0.6873  0.5602
 6785TIP3   OH241989   6.158   1.679   1.986 -0.3266 -0.0848 -0.2580
 6785TIP3    H141990   6.067   1.708   1.980 -0.3410 -0.3719 -1.7150
 6785TIP3    H241991   6.164   1.636   2.072 -1.2169  1.0638  0.3995
 6786TIP3   OH241992   3.743   2.388   0.653  0.1634 -0.6464  0.0531
 6786TIP3    H141993   3.742   2.415   0.744 -2.5134 -1.4536  0.3748
 6786TIP3    H241994   3.832   2.406   0.622  1.1085 -0.2683  2.7665
 6787TIP3   OH241995   6.656   1.694   2.952  0.5988  0.0103  1.0700
 6787TIP3    H141996   6.637   1.729   2.865  2.2778  1.4858  1.2639
 6787TIP3    H241997   6.660   1.599   2.939  0.5300  0.1862 -0.3916
 6788TIP3   OH241998   2.481   0.071   7.517  0.4919  0.4949 -0.5947
 6788TIP3    H141999   2.469  -0.001   7.579 -0.5947  2.2322  1.3648
 6788TIP3    H242000   2.408   0.062   7.456  0.1015  0.1931 -0.0935
 6789TIP3   OH242001   6.230   1.257   7.461  0.6752 -0.2951  0.1925
 6789TIP3    H142002   6.182   1.329   7.422  1.9222 -0.1394 -1.1362
 6789TIP3    H242003   6.251   1.288   7.549 -0.5927  0.0938  0.3833
 6790TIP3   OH242004   2.358   6.760   8.311 -0.1978 -0.2266  0.0743
 6790TIP3    H142005   2.377   6.673   8.276 -2.8108 -0.6442 -0.5073
 6790TIP3    H242006   2.273   6.750   8.353 -1.4779  2.4600 -1.6501
 6791TIP3   OH242007   2.529   2.033   2.857  0.5292  0.3628 -0.4473
 6791TIP3    H142008   2.624   2.024   2.871  0.2639 -1.5182  0.5713
 6791TIP3    H242009   2.490   1.986   2.930 -1.2201  1.2451 -0.7628
 6792TIP3   OH242010   6.176   6.854   2.208 -0.2282 -0.4794  0.3734
 6792TIP3    H142011   6.111   6.807   2.156  1.6658 -1.3119 -1.3418
 6792TIP3    H242012   6.210   6.788   2.269 -0.5504 -0.1954  0.8692
 6793TIP3   OH242013   5.324   5.841   0.788 -0.4066 -0.4752  0.1479
 6793TIP3    H142014   5.410   5.801   0.795 -0.4774 -0.7404 -0.4470
 6793TIP3    H242015   5.292   5.815   0.702 -1.3521 -0.9127  0.6110
 6794TIP3   OH242016   5.032   1.703   7.498  0.3534  0.3949  0.3687
 6794TIP3    H142017   4.958   1.663   7.451  1.2682  0.7610 -1.4532
 6794TIP3    H242018   5.066   1.632   7.552 -0.3546 -0.2406  0.0079
 6795TIP3   OH242019   6.756   4.719   1.277 -0.3656  0.2075  0.0666
 6795TIP3    H142020   6.809   4.780   1.328 -0.5634  0.8227 -0.4501
 6795TIP3    H242021   6.738   4.647   1.337  0.7429  0.1584  0.3642
 6796TIP3   OH242022   3.399   5.399   3.076  0.1992  0.1822 -0.2384
 6796TIP3    H142023   3.370   5.477   3.124 -1.1190  0.1442 -0.9330
 6796TIP3    H242024   3.377   5.326   3.134  0.9697  0.2805  0.1923
 6797TIP3   OH242025   4.812   4.761   1.075 -0.1295  0.1600  0.1146
 6797TIP3    H142026   4.748   4.694   1.098 -0.4447  0.5773  0.4679
 6797TIP3    H242027   4.795   4.780   0.983 -0.0410 -0.2392  0.0142
 6798TIP3   OH242028   4.267   0.018   2.312 -0.4662  0.6640  0.5511
 6798TIP3    H142029   4.236   0.003   2.223 -0.5560  2.4120  0.2543
 6798TIP3    H242030   4.243   0.109   2.331  0.1526  0.5352  2.1089
 6799TIP3   OH242031   6.115   3.114   7.431 -0.2261 -0.3646  0.3313
 6799TIP3    H142032   6.140   3.179   7.365  1.1376 -1.8265 -0.6634
 6799TIP3    H242033   6.027   3.086   7.404 -1.2314  1.6321  1.2928
 6800TIP3   OH242034   5.601   4.208   1.572  0.2366 -0.3236  0.3217
 6800TIP3    H142035   5.613   4.299   1.599  0.4659 -0.7798  1.8429
 6800TIP3    H242036   5.523   4.209   1.517  0.8566  0.9516 -0.5889
 6801TIP3   OH242037   1.848   6.576   8.087 -0.0106 -0.6283 -0.3455
 6801TIP3    H142038   1.762   6.617   8.091 -0.0681 -0.7635 -0.1917
 6801TIP3    H242039   1.846   6.523   8.007  0.3580  0.3192 -1.0074
 6802TIP3   OH242040   1.017   0.782   7.756  0.0512  0.0252 -0.3342
 6802TIP3    H142041   1.016   0.692   7.791  1.9508  1.3974  3.9335
 6802TIP3    H242042   0.930   0.815   7.772  0.2374 -0.1226  1.0901
 6803TIP3   OH242043   6.052   1.802   7.354  0.1522  0.3320 -0.1071
 6803TIP3    H142044   6.057   1.856   7.275  0.0216  0.7973  0.1986
 6803TIP3    H242045   6.132   1.825   7.403  1.1878 -1.3000 -0.9432
 6804TIP3   OH242046   4.578   4.306   2.792  0.1929 -0.1595  0.5350
 6804TIP3    H142047   4.589   4.297   2.698  1.0011 -0.1361  0.6141
 6804TIP3    H242048   4.622   4.228   2.829  2.8734  1.4604  1.0155
 6805TIP3   OH242049   4.239   3.588   1.231 -0.3698  0.4823 -0.5335
 6805TIP3    H142050   4.316   3.534   1.215  0.4955  2.2075 -2.6294
 6805TIP3    H242051   4.254   3.627   1.317  0.0807 -0.7870 -0.0226
 6806TIP3   OH242052   2.952   2.558   2.753  0.5682 -0.4009  0.3372
 6806TIP3    H142053   2.931   2.591   2.666  0.1704 -0.4406  0.4190
 6806TIP3    H242054   2.906   2.615   2.814  0.2812 -0.7955  0.4959
 6807TIP3   OH242055   5.367   2.785   8.475  0.3196  0.0817 -0.2058
 6807TIP3    H142056   5.459   2.762   8.462  0.2812  0.7369 -1.7290
 6807TIP3    H242057   5.350   2.857   8.415 -1.2422 -0.1198 -0.0664
 6808TIP3   OH242058   2.789   0.562   8.275  0.2462  0.4280 -0.4933
 6808TIP3    H142059   2.882   0.549   8.254  0.5747  2.2777 -0.3929
 6808TIP3    H242060   2.787   0.573   8.370  0.0066  0.8448 -0.5426
 6809TIP3   OH242061   1.173   1.398   7.036  0.5243 -0.4405 -0.3260
 6809TIP3    H142062   1.169   1.494   7.033  2.6159 -0.1554  2.1989
 6809TIP3    H242063   1.082   1.370   7.043 -0.0808  1.4248 -0.2115
 6810TIP3   OH242064   1.264   3.222   8.206  0.0874 -0.1877 -0.2611
 6810TIP3    H142065   1.325   3.210   8.134  1.6217  0.5548  0.8663
 6810TIP3    H242066   1.253   3.136   8.245  1.0818 -0.1968  0.0215
 6811TIP3   OH242067   2.871   1.614   1.390 -0.2292  0.4949  0.3417
 6811TIP3    H142068   2.868   1.701   1.350  0.9621  0.8502  0.9857
 6811TIP3    H242069   2.948   1.572   1.352 -2.1795 -1.3273 -1.9473
 6812TIP3   OH242070   2.543   3.593   8.642 -0.1184 -0.1953  0.1182
 6812TIP3    H142071   2.568   3.518   8.588 -1.6895  0.1199 -1.1133
 6812TIP3    H242072   2.451   3.578   8.663  0.1189  0.3487  1.6502
 6813TIP3   OH242073   5.120   6.589   7.711  0.1304  0.2928 -0.0001
 6813TIP3    H142074   5.207   6.553   7.730  0.3068  1.9385  2.7499
 6813TIP3    H242075   5.134   6.650   7.639  0.9242 -0.6108 -0.6344
 6814TIP3   OH242076   4.912   0.539   7.476 -0.4715 -0.8674  0.1730
 6814TIP3    H142077   4.840   0.548   7.413 -0.6039  0.4529  0.4715
 6814TIP3    H242078   4.890   0.602   7.545  1.6366  0.5312 -0.3623
 6815TIP3   OH242079   1.173   4.782   7.842  0.1898  0.0092  0.0967
 6815TIP3    H142080   1.215   4.867   7.831  0.8491 -0.2457  0.6285
 6815TIP3    H242081   1.095   4.800   7.895 -0.2913  0.4492 -0.7330
 6816TIP3   OH242082   2.497   6.840   2.533 -0.4117 -0.5754  0.6409
 6816TIP3    H142083   2.550   6.885   2.467 -1.3061  2.2096  1.6821
 6816TIP3    H242084   2.416   6.818   2.487  0.2605 -1.7295 -0.0355
 6817TIP3   OH242085   0.773   6.006   2.362 -0.4277  0.1508  0.1502
 6817TIP3    H142086   0.764   5.988   2.268  0.0889 -3.6796  0.6726
 6817TIP3    H242087   0.689   6.041   2.388 -1.2286 -0.4756 -1.4583
 6818TIP3   OH242088   0.590   3.596   2.485  0.5747  0.1033  0.3816
 6818TIP3    H142089   0.666   3.636   2.443  0.1938  2.4561  1.7660
 6818TIP3    H242090   0.628   3.536   2.549  1.2274  0.3604  0.2493
 6819TIP3   OH242091   1.898   5.826   1.093 -0.1625  0.2310 -0.1480
 6819TIP3    H142092   1.963   5.769   1.134 -0.6504 -0.7826 -0.7237
 6819TIP3    H242093   1.947   5.903   1.065  0.9375 -0.7922 -1.1691
 6820TIP3   OH242094   4.810   5.166   7.621 -0.3098  0.1855 -0.2118
 6820TIP3    H142095   4.742   5.098   7.627 -0.3043  0.1687 -0.3447
 6820TIP3    H242096   4.762   5.247   7.608 -0.2672  0.0561 -1.2076
 6821TIP3   OH242097   0.570   3.451   7.882 -0.0963 -0.4791 -0.6201
 6821TIP3    H142098   0.514   3.377   7.858  0.5815 -0.4305 -2.4495
 6821TIP3    H242099   0.619   3.420   7.958  0.9713 -2.3506 -1.9990
 6822TIP3   OH242100   2.323   6.822   1.763  0.4070 -0.6615  0.1207
 6822TIP3    H142101   2.413   6.798   1.740 -0.0233 -1.0418 -1.2095
 6822TIP3    H242102   2.271   6.744   1.741 -0.2641 -0.4389  0.8588
 6823TIP3   OH242103   6.633   2.209   8.231 -0.3444  0.5616 -0.0371
 6823TIP3    H142104   6.538   2.207   8.230 -0.3919 -0.1575  2.0021
 6823TIP3    H242105   6.658   2.172   8.315  1.6361  4.0314  1.1490
 6824TIP3   OH242106   6.414   5.524   0.123  0.1003  0.5531  0.5231
 6824TIP3    H142107   6.324   5.529   0.156  0.7582  1.3349  2.3665
 6824TIP3    H242108   6.431   5.612   0.089  0.1859  0.4182  0.2153
 6825TIP3   OH242109   0.605   2.039   0.116 -0.6139  0.4136 -0.4238
 6825TIP3    H142110   0.678   1.996   0.071 -0.3884 -0.2452  0.5392
 6825TIP3    H242111   0.549   1.968   0.145 -0.9916  0.8487 -0.0690
 6826TIP3   OH242112   5.855   0.859   2.534  0.2976  0.4032 -0.3775
 6826TIP3    H142113   5.797   0.934   2.549 -2.3112 -2.0114  3.1076
 6826TIP3    H242114   5.936   0.882   2.579  0.2933  1.8305 -1.0380
 6827TIP3   OH242115   5.779   2.385   1.151 -0.0154 -0.0659  0.1237
 6827TIP3    H142116   5.708   2.331   1.189  0.2181 -0.3096  0.2208
 6827TIP3    H242117   5.837   2.402   1.225  0.3418 -0.3783 -0.0782
 6828TIP3   OH242118   3.783   4.369   2.115  0.1955 -0.5404  0.5292
 6828TIP3    H142119   3.690   4.352   2.100  0.0120  0.4535  0.4884
 6828TIP3    H242120   3.823   4.282   2.115 -0.5731 -0.9236 -0.5287
 6829TIP3   OH242121   2.181   6.813   7.762  0.5635  0.1392  0.7755
 6829TIP3    H142122   2.276   6.821   7.749  0.6702 -0.1242  1.3586
 6829TIP3    H242123   2.172   6.758   7.840 -0.0411  1.3899  1.6196
 6830TIP3   OH242124   1.678   2.955   0.201 -0.1190  0.1330  0.0855
 6830TIP3    H142125   1.619   3.002   0.142  0.9510  0.1113 -1.0240
 6830TIP3    H242126   1.746   2.919   0.145  1.5562  1.0274  1.4328
 6831TIP3   OH242127   5.328   6.785   1.469  0.0248 -0.0743 -0.1458
 6831TIP3    H142128   5.396   6.831   1.418 -0.5154 -1.3771 -2.1660
 6831TIP3    H242129   5.284   6.855   1.518  1.1487  1.1417 -0.7921
 6832TIP3   OH242130   2.244   2.354   8.674  0.1281 -0.1541 -0.1876
 6832TIP3    H142131   2.299   2.413   8.623 -0.2720  0.0909 -0.3401
 6832TIP3    H242132   2.298   2.330   8.749  0.7716 -0.6157 -0.7788
 6833TIP3   OH242133   6.528   2.066   1.555 -0.6834  0.1559 -0.0152
 6833TIP3    H142134   6.498   1.976   1.565 -0.4740 -0.0358 -0.9810
 6833TIP3    H242135   6.580   2.065   1.474 -0.1038  0.9950  0.3312
 6834TIP3   OH242136   4.462   4.511   2.449 -0.0632 -0.0523 -0.2289
 6834TIP3    H142137   4.448   4.514   2.354 -1.8706 -0.0698  0.0056
 6834TIP3    H242138   4.406   4.439   2.479 -1.7164  1.7409  1.1696
 6835TIP3   OH242139   1.312   5.378   7.337 -0.1343  0.0556 -0.1311
 6835TIP3    H142140   1.253   5.348   7.407 -0.2324  1.7328  0.5711
 6835TIP3    H242141   1.391   5.326   7.349  0.4029  1.2595  2.2102
 6836TIP3   OH242142   5.806   3.769   0.940  0.1188 -0.8690 -0.4288
 6836TIP3    H142143   5.877   3.824   0.972  0.8315 -1.7190 -0.4905
 6836TIP3    H242144   5.804   3.786   0.845 -1.1813  0.7302 -0.1533
 6837TIP3   OH242145   5.661   2.263   2.429 -0.2216 -0.2196 -0.6368
 6837TIP3    H142146   5.575   2.221   2.425 -0.6717  0.3662  1.7249
 6837TIP3    H242147   5.654   2.326   2.501  1.2853  1.9772 -2.2864
 6838TIP3   OH242148   2.329   2.504   1.787  0.2547  0.2043  0.6793
 6838TIP3    H142149   2.245   2.481   1.827  1.4718 -1.7185  2.2920
 6838TIP3    H242150   2.365   2.421   1.758  1.1901  1.1250 -0.9106
 6839TIP3   OH242151   5.020   6.385   7.568  0.3058 -0.1099  0.4625
 6839TIP3    H142152   4.975   6.428   7.496  2.7923  0.0409 -1.1218
 6839TIP3    H242153   5.039   6.455   7.631 -2.3147 -0.3265  1.6174
 6840TIP3   OH242154   5.184   3.579   1.680  0.2464  0.1737 -0.1428
 6840TIP3    H142155   5.248   3.649   1.692 -0.6208  1.1043 -0.7321
 6840TIP3    H242156   5.197   3.550   1.590 -0.4702  0.7212 -0.4381
 6841TIP3   OH242157   1.613   2.176   0.843 -0.5567 -0.6085 -0.2717
 6841TIP3    H142158   1.536   2.141   0.798 -0.5494  0.6502 -1.3424
 6841TIP3    H242159   1.577   2.225   0.917 -0.9507  1.1202 -1.5326
 6842TIP3   OH242160   3.860   0.870   7.471 -0.3009  0.0768  0.4707
 6842TIP3    H142161   3.791   0.807   7.493 -0.4595  0.2902  0.5956
 6842TIP3    H242162   3.814   0.943   7.429  0.0684 -0.5820 -1.1468
 6843TIP3   OH242163   0.379   0.300   8.033  0.1542 -0.1276  0.2465
 6843TIP3    H142164   0.357   0.249   8.111 -0.5142 -2.0972 -1.1391
 6843TIP3    H242165   0.473   0.315   8.039  0.3004 -1.2280  0.8902
 6844TIP3   OH242166   4.837   1.976   3.037  0.8688 -0.1321 -0.0619
 6844TIP3    H142167   4.919   1.934   3.063  1.0675 -0.7485 -1.5465
 6844TIP3    H242168   4.854   2.010   2.949  0.1644  1.5917  0.4187
 6845TIP3   OH242169   0.016   2.287   8.321 -0.0203 -0.6125  0.0300
 6845TIP3    H142170  -0.016   2.254   8.237 -1.1215 -0.2600  0.2862
 6845TIP3    H242171   0.094   2.338   8.299 -1.1130  0.7072 -0.9978
 6846TIP3   OH242172   2.021   3.957   3.221  0.2193  0.0039  0.2234
 6846TIP3    H142173   2.071   3.953   3.140  0.8860  1.5725  0.5225
 6846TIP3    H242174   1.929   3.952   3.192  0.3704  2.2640 -0.8217
 6847TIP3   OH242175   5.869   6.186   6.799  0.5598  0.5495 -0.1973
 6847TIP3    H142176   5.926   6.148   6.866 -0.0529  1.3652  0.8225
 6847TIP3    H242177   5.872   6.280   6.816 -0.3137  0.6812 -0.7440
 6848TIP3   OH242178   0.562   1.907   7.189  0.0001 -0.1300  0.3546
 6848TIP3    H142179   0.469   1.885   7.191 -0.2560  0.5519 -1.8022
 6848TIP3    H242180   0.564   2.002   7.176  0.9746 -0.2414 -0.4748
 6849TIP3   OH242181   0.457   0.572   8.186  0.1088 -0.2084 -0.3358
 6849TIP3    H142182   0.379   0.565   8.240  1.1150 -1.0101  1.0582
 6849TIP3    H242183   0.528   0.594   8.247  1.3676 -1.5664 -1.2404
 6850TIP3   OH242184   1.041   0.366   0.639 -0.0816  0.1423  0.1759
 6850TIP3    H142185   0.978   0.307   0.681 -0.1006  0.0965  0.0830
 6850TIP3    H242186   1.000   0.452   0.644  0.4091  0.3288  1.2578
 6851TIP3   OH242187   6.457   5.588   8.226  0.1265  0.2374  0.3508
 6851TIP3    H142188   6.521   5.560   8.291 -0.1243  0.2502  0.6026
 6851TIP3    H242189   6.416   5.666   8.263  1.5922  1.6313 -0.8318
 6852TIP3   OH242190   6.571   2.652   7.651 -0.3398 -0.3285 -0.6782
 6852TIP3    H142191   6.495   2.656   7.593  0.5714  0.6922 -1.8462
 6852TIP3    H242192   6.603   2.742   7.656  1.4323 -0.9006 -1.0877
 6853TIP3   OH242193   4.984   1.382   1.815  0.3658 -0.1875  0.0362
 6853TIP3    H142194   5.027   1.333   1.886  2.4759 -0.5085 -1.3847
 6853TIP3    H242195   4.984   1.472   1.846  2.1728 -0.1677  0.0866
 6854TIP3   OH242196   6.709   1.379   7.667  0.3853 -0.0470  0.2749
 6854TIP3    H142197   6.688   1.413   7.580 -0.4915  0.4276  0.6566
 6854TIP3    H242198   6.690   1.451   7.727  0.2570 -0.6010  0.9272
 6855TIP3   OH242199   5.975   0.328   2.880  0.2311  0.3903  0.0900
 6855TIP3    H142200   6.020   0.271   2.818  0.3957  0.3490  0.2478
 6855TIP3    H242201   5.885   0.334   2.847  0.7353  1.7559 -1.1328
 6856TIP3   OH242202   4.747   5.585   1.257 -0.3324 -0.0255 -0.0183
 6856TIP3    H142203   4.801   5.523   1.306  0.4447  0.6009 -0.0753
 6856TIP3    H242204   4.792   5.595   1.173 -0.6084  0.4098 -0.1148
 6857TIP3   OH242205   1.509   0.902   7.434 -0.4445 -0.2947 -0.2347
 6857TIP3    H142206   1.552   0.819   7.418  0.8884  0.2438  0.4420
 6857TIP3    H242207   1.421   0.891   7.397  0.5692 -1.0709 -2.6537
 6858TIP3   OH242208   3.372   0.192   0.242 -0.5256 -0.3746  0.3964
 6858TIP3    H142209   3.402   0.236   0.322 -0.8324  0.2238  0.1929
 6858TIP3    H242210   3.361   0.264   0.179 -2.2078 -0.5991  0.4070
 6859TIP3   OH242211   5.988   1.192   1.884  0.1765  0.2671 -0.0768
 6859TIP3    H142212   5.984   1.109   1.931  2.7556  0.0858 -0.0219
 6859TIP3    H242213   5.971   1.258   1.950  1.1616 -0.1139  0.5858
 6860TIP3   OH242214   4.599   0.075   7.970 -0.0809 -0.1716  0.1464
 6860TIP3    H142215   4.545   0.149   7.942  0.9612  0.5104 -0.1618
 6860TIP3    H242216   4.610   0.022   7.892  0.5286  0.2442 -0.0601
 6861TIP3   OH242217   4.494   1.130   0.581  0.0535  0.2033 -0.0596
 6861TIP3    H142218   4.516   1.060   0.521 -0.2663 -0.3920  0.5049
 6861TIP3    H242219   4.482   1.087   0.666  0.1889  0.9800  0.3715
 6862TIP3   OH242220   0.818   1.173   7.850  0.2982  0.1145  0.5030
 6862TIP3    H142221   0.750   1.190   7.916 -0.6359 -0.8984 -0.1748
 6862TIP3    H242222   0.780   1.107   7.793  1.1355  0.8912 -1.0022
 6863TIP3   OH242223   2.899   1.839   1.792 -0.1037 -0.0190  0.4527
 6863TIP3    H142224   2.973   1.869   1.845  0.1110 -0.1856  0.2533
 6863TIP3    H242225   2.861   1.767   1.842 -1.5023  1.4667  1.6272
 6864TIP3   OH242226   2.314   2.276   0.613 -0.3090 -0.0641  0.1237
 6864TIP3    H142227   2.243   2.326   0.655 -0.3766  0.0935 -0.1754
 6864TIP3    H242228   2.383   2.341   0.600 -1.6250  0.8380 -3.3621
 6865TIP3   OH242229   0.891   6.452   2.159 -0.2882 -0.3914  0.5340
 6865TIP3    H142230   0.915   6.537   2.196  0.3726 -0.0275 -0.6746
 6865TIP3    H242231   0.962   6.393   2.183  0.1358 -0.1579 -0.1402
 6866TIP3   OH242232   0.661   5.145   1.429 -0.6321  0.2238 -0.1875
 6866TIP3    H142233   0.669   5.239   1.444 -2.8069  0.2358  1.3569
 6866TIP3    H242234   0.695   5.105   1.510 -0.3551 -0.3116 -0.5625
 6867TIP3   OH242235   0.393   3.412   0.872  0.1038 -0.2471  0.0801
 6867TIP3    H142236   0.327   3.404   0.941 -0.3593  1.9830 -0.0499
 6867TIP3    H242237   0.342   3.423   0.791  0.6326  0.3157 -0.1828
 6868TIP3   OH242238   4.705   6.173   8.481  0.2194 -0.7310  0.1953
 6868TIP3    H142239   4.650   6.249   8.459  0.7038  0.1445  1.8331
 6868TIP3    H242240   4.651   6.097   8.459 -0.9988  0.0992  0.2095
 6869TIP3   OH242241   6.815   0.759   0.169 -0.0148  0.3127  0.0764
 6869TIP3    H142242   6.864   0.840   0.156  1.1710 -0.4501 -0.4056
 6869TIP3    H242243   6.750   0.758   0.099  1.1718 -0.0050 -1.0576
 6870TIP3   OH242244   6.327   2.944   0.981  0.4782 -0.3888  0.4905
 6870TIP3    H142245   6.296   3.008   0.917 -0.5911 -1.1270  0.2496
 6870TIP3    H242246   6.259   2.943   1.048  0.8458 -0.7509  0.8597
 6871TIP3   OH242247   4.669   3.567   1.614 -0.0273 -0.2357 -0.3206
 6871TIP3    H142248   4.684   3.627   1.541 -2.1367 -1.5640 -1.9795
 6871TIP3    H242249   4.747   3.512   1.616  1.6578  2.0535  0.8385
 6872TIP3   OH242250   0.815   4.283   2.689  0.2221  0.4754  0.0318
 6872TIP3    H142251   0.865   4.202   2.686  1.3554  1.1556 -0.1906
 6872TIP3    H242252   0.881   4.351   2.707 -0.0324  1.8150 -3.3560
 6873TIP3   OH242253   2.970   5.178   8.277  0.2080 -0.3118  0.1000
 6873TIP3    H142254   2.942   5.183   8.185  2.1051  2.3616 -0.4420
 6873TIP3    H242255   2.894   5.209   8.326 -0.7331 -1.4912 -0.5556
 6874TIP3   OH242256   1.168   6.045   0.223  0.8180  0.1491  0.3430
 6874TIP3    H142257   1.185   6.100   0.300  1.7824 -0.3705  0.5248
 6874TIP3    H242258   1.079   6.013   0.235 -0.2288  2.5739 -0.3512
 6875TIP3   OH242259   2.564   0.020   8.421  0.5898  0.2189  0.1383
 6875TIP3    H142260   2.497  -0.038   8.386  1.2086 -0.1083 -0.5575
 6875TIP3    H242261   2.531   0.108   8.405  0.4640  0.0631 -0.4814
 6876TIP3   OH242262   6.424   5.834   1.130 -0.7179 -0.2056  0.3874
 6876TIP3    H142263   6.513   5.807   1.107 -1.2256 -0.7717 -1.0935
 6876TIP3    H242264   6.396   5.771   1.196  0.2428  0.4633  1.4573
 6877TIP3   OH242265   5.729   2.598   6.774 -0.1583 -0.3124 -0.0999
 6877TIP3    H142266   5.822   2.619   6.785 -0.3145  0.1298  0.3751
 6877TIP3    H242267   5.729   2.520   6.718  0.4383  0.7339 -1.6372
 6878TIP3   OH242268   0.216   1.526   6.479  0.0556 -0.7151  0.3523
 6878TIP3    H142269   0.155   1.483   6.418 -0.3306  1.1219 -0.6369
 6878TIP3    H242270   0.300   1.525   6.434  0.3913 -1.7105  0.9715
 6879TIP3   OH242271   3.127   3.252   7.662 -0.3831 -0.5564 -0.3544
 6879TIP3    H142272   3.168   3.279   7.580 -0.1276  1.6258  0.4319
 6879TIP3    H242273   3.111   3.158   7.651  0.0952 -0.4198 -2.6835
 6880TIP3   OH242274   0.126   0.803   2.687 -0.1204  0.5808 -0.1980
 6880TIP3    H142275   0.176   0.802   2.605 -0.7121 -0.1694 -0.5560
 6880TIP3    H242276   0.123   0.712   2.714 -2.1317  0.4637 -0.6961
 6881TIP3   OH242277   5.738   2.527   7.389  0.2108  0.5261 -0.0878
 6881TIP3    H142278   5.669   2.580   7.349  0.2483  0.3739 -0.3523
 6881TIP3    H242279   5.817   2.550   7.340 -0.2828 -2.0088 -2.2811
 6882TIP3   OH242280   4.054   0.382   2.781  0.2910 -0.8056 -0.3348
 6882TIP3    H142281   4.057   0.294   2.744 -0.1125 -1.7721  1.8031
 6882TIP3    H242282   4.122   0.383   2.848 -0.2953  0.2193  0.2740
 6883TIP3   OH242283   6.882   1.543   8.457 -0.1496 -0.3594 -0.5280
 6883TIP3    H142284   6.895   1.637   8.458 -3.7367  0.2811 -0.4504
 6883TIP3    H242285   6.818   1.528   8.387  0.4486 -2.8048 -0.6751
 6884TIP3   OH242286   3.893   5.631   1.895 -0.2641  0.0701 -0.4327
 6884TIP3    H142287   3.830   5.567   1.928  1.1876 -0.6734  1.0217
 6884TIP3    H242288   3.840   5.708   1.874 -1.7015 -0.6535  0.3845
 6885TIP3   OH242289   4.185   1.251   0.206 -0.2648 -0.3467 -0.1939
 6885TIP3    H142290   4.248   1.242   0.277  1.1405  0.8221 -1.2434
 6885TIP3    H242291   4.127   1.322   0.233 -0.1074 -0.3100  0.0402
 6886TIP3   OH242292   2.368   3.258   2.437 -0.0690  0.0020 -0.7134
 6886TIP3    H142293   2.298   3.195   2.422 -0.6149  0.2602  0.6205
 6886TIP3    H242294   2.326   3.344   2.429 -0.6310  0.1892  2.7919
 6887TIP3   OH242295   0.063   2.027   8.161  0.3700  0.4594  0.2518
 6887TIP3    H142296   0.104   1.943   8.182 -1.3006 -0.6857 -0.7654
 6887TIP3    H242297   0.013   2.010   8.081 -0.3174  2.3342  0.2237
 6888TIP3   OH242298   3.563   3.248   2.515  0.0312 -0.1587  0.4203
 6888TIP3    H142299   3.590   3.312   2.449 -0.9790 -0.6463 -0.4873
 6888TIP3    H242300   3.535   3.302   2.590  0.5468  0.4099  0.2208
 6889TIP3   OH242301   2.834   6.803   1.458 -0.1577  0.1434 -0.2260
 6889TIP3    H142302   2.806   6.719   1.423  0.9192  0.7638 -2.8260
 6889TIP3    H242303   2.866   6.851   1.382  0.1434  2.5643  1.3146
 6890TIP3   OH242304   6.116   3.984   3.163 -0.0030 -0.0106 -0.0340
 6890TIP3    H142305   6.146   4.074   3.176 -0.1048 -0.1366  1.1681
 6890TIP3    H242306   6.176   3.931   3.215 -0.0044 -0.6392 -0.6556
 6891TIP3   OH242307   5.032   1.256   2.789  0.0976 -0.0139 -0.1987
 6891TIP3    H142308   5.022   1.205   2.869  0.4903 -0.2502 -0.2999
 6891TIP3    H242309   5.082   1.200   2.730  0.3679  0.4088 -0.3794
 6892TIP3   OH242310   5.956   4.462   7.908 -0.2181  0.3430  0.0979
 6892TIP3    H142311   5.936   4.369   7.905 -0.0008  0.3016 -0.1395
 6892TIP3    H242312   6.046   4.468   7.877 -0.8050  0.8119 -1.6165
 6893TIP3   OH242313   0.075   5.071   2.296 -0.2835 -0.3890 -0.1742
 6893TIP3    H142314   0.019   5.016   2.352 -0.4238  1.7569  1.9732
 6893TIP3    H242315   0.149   5.015   2.273 -2.6776 -3.0115 -2.2707
 6894TIP3   OH242316   2.389   2.924   7.380 -0.1655  0.6136 -0.2261
 6894TIP3    H142317   2.460   2.932   7.444 -0.0591 -1.7078  0.0397
 6894TIP3    H242318   2.430   2.947   7.297  0.1580  1.9195  0.2671
 6895TIP3   OH242319   6.091   1.900   7.069 -0.1989  0.1939 -0.3313
 6895TIP3    H142320   6.057   1.952   6.997  0.9824  1.6585  0.1005
 6895TIP3    H242321   6.032   1.825   7.076 -1.5560  1.1253 -1.4369
 6896TIP3   OH242322   1.740   4.658   0.055 -0.0174  0.6512 -0.2139
 6896TIP3    H142323   1.692   4.659   0.138 -1.4082 -0.1184 -0.9750
 6896TIP3    H242324   1.679   4.692  -0.009  1.2515  1.8108 -0.8525
 6897TIP3   OH242325   2.407   4.549   2.023 -0.0414  0.7313  0.0832
 6897TIP3    H142326   2.444   4.496   2.094 -1.1456 -0.1667  0.0231
 6897TIP3    H242327   2.352   4.614   2.068 -0.1065  0.6723  0.0898
 6898TIP3   OH242328   4.189   3.386   0.987 -0.2554  0.3858  0.3224
 6898TIP3    H142329   4.171   3.473   1.023  1.4510  0.3583  1.3806
 6898TIP3    H242330   4.251   3.347   1.050  1.2661 -0.4760 -1.6104
 6899TIP3   OH242331   4.897   6.223   2.062  0.5218  0.6422 -0.4908
 6899TIP3    H142332   4.832   6.259   2.122 -0.1014  1.0124 -1.3663
 6899TIP3    H242333   4.975   6.277   2.074 -0.0531  1.6117 -1.0082
 6900TIP3   OH242334   5.471   1.909   6.914  0.2061  0.3695  0.7201
 6900TIP3    H142335   5.449   1.841   6.849 -1.2040  0.9667  0.5346
 6900TIP3    H242336   5.544   1.957   6.874 -0.7476  0.8372 -0.5379
 6901TIP3   OH242337   4.160   1.090   7.137 -0.6614  0.5225  0.1777
 6901TIP3    H142338   4.202   1.169   7.173 -1.8006  1.6985 -0.9723
 6901TIP3    H242339   4.231   1.028   7.127  0.3112  1.4677  0.9269
 6902TIP3   OH242340   1.739   0.141   8.393  0.1594  0.1430  0.2322
 6902TIP3    H142341   1.686   0.126   8.472  0.3305 -1.3150  0.1127
 6902TIP3    H242342   1.696   0.088   8.326  2.9043 -2.9963  0.6648
 6903TIP3   OH242343   2.895   1.977   2.725  0.1909 -0.9304 -0.3974
 6903TIP3    H142344   2.882   1.967   2.819  1.4088  0.0178 -0.0965
 6903TIP3    H242345   2.848   1.904   2.686 -1.0822 -0.8304  0.8868
 6904TIP3   OH242346   0.029   2.951   0.338  0.0651  0.2949  0.0669
 6904TIP3    H142347   0.020   2.933   0.245 -0.3995  0.3726  0.0972
 6904TIP3    H242348   0.061   3.041   0.342  2.5197 -0.4914 -0.0897
 6905TIP3   OH242349   2.083   2.986   7.866  0.0924 -0.5017 -0.0383
 6905TIP3    H142350   2.022   3.047   7.909 -0.1019  0.5266 -1.7000
 6905TIP3    H242351   2.127   3.039   7.800 -0.0878 -2.1704 -1.5630
 6906TIP3   OH242352   2.745   2.954   2.337 -0.3805 -0.5301  0.6465
 6906TIP3    H142353   2.802   3.006   2.393  0.3333 -0.5296 -0.0477
 6906TIP3    H242354   2.778   2.971   2.248 -0.8066 -1.3407  0.3249
 6907TIP3   OH242355   2.027   0.832   1.787 -0.1166  0.3768  0.3306
 6907TIP3    H142356   2.067   0.901   1.735 -0.9165  1.5139  1.1811
 6907TIP3    H242357   1.971   0.878   1.849 -0.6219 -1.0380  0.9640
 6908TIP3   OH242358   1.490   0.117   0.099  0.4291 -0.0165  0.1867
 6908TIP3    H142359   1.408   0.128   0.148  0.8095  0.6374  0.6904
 6908TIP3    H242360   1.465   0.066   0.022 -0.1157 -1.4474  1.2563
 6909TIP3   OH242361   4.117   3.845   0.516 -0.0650 -0.1736  0.0263
 6909TIP3    H142362   4.053   3.775   0.504 -1.3617  1.1144 -0.9654
 6909TIP3    H242363   4.173   3.814   0.587  0.9778 -3.2838 -1.9495
 6910TIP3   OH242364   4.273   4.710   1.361 -0.2403  0.2918  0.5228
 6910TIP3    H142365   4.210   4.782   1.358  0.3475  0.7858 -0.3519
 6910TIP3    H242366   4.223   4.635   1.394 -1.1196  0.8373  0.4430
 6911TIP3   OH242367   3.533   5.074   1.252 -0.5273  0.2291  0.1439
 6911TIP3    H142368   3.611   5.064   1.197 -0.4295  0.3296  0.2613
 6911TIP3    H242369   3.520   5.169   1.257  0.5493  0.3323  1.7854
 6912TIP3   OH242370   1.133   0.605   7.374 -0.1321  0.6257 -0.0349
 6912TIP3    H142371   1.068   0.654   7.323 -0.9144  1.8830  2.0346
 6912TIP3    H242372   1.086   0.527   7.404  0.0860  0.2824 -0.5815
 6913TIP3   OH242373   2.160   3.285   2.135  0.2498 -0.1880 -0.2887
 6913TIP3    H142374   2.206   3.231   2.071  0.4306 -0.8646  0.4012
 6913TIP3    H242375   2.196   3.258   2.219 -0.3261  0.3554  0.1411
 6914TIP3   OH242376   1.873   2.548   2.651 -0.2618  0.3602  0.3993
 6914TIP3    H142377   1.907   2.592   2.729  1.1247  2.0621 -1.0474
 6914TIP3    H242378   1.788   2.588   2.636 -1.5420 -1.5269  2.1771
 6915TIP3   OH242379   5.462   3.415   8.177 -0.3319  0.2384  0.0504
 6915TIP3    H142380   5.510   3.439   8.257 -1.2748  0.7856  0.4816
 6915TIP3    H242381   5.465   3.494   8.123  0.3555 -0.1521 -0.4899
 6916TIP3   OH242382   1.290   2.886   0.137 -0.3118  0.2173 -0.1775
 6916TIP3    H142383   1.341   2.954   0.180  2.0337 -0.5561 -1.5400
 6916TIP3    H242384   1.260   2.926   0.056  1.8691 -0.4929 -1.4461
 6917TIP3   OH242385   1.179   2.989   2.825 -0.0964 -0.0519 -0.0289
 6917TIP3    H142386   1.087   3.009   2.810 -0.2160 -0.1741  0.5047
 6917TIP3    H242387   1.227   3.052   2.772 -0.4608 -2.3885 -3.4771
 6918TIP3   OH242388   1.073   6.315   8.018  0.7419  0.0359 -0.0954
 6918TIP3    H142389   1.148   6.324   7.959  1.1821  2.1962  0.6879
 6918TIP3    H242390   1.083   6.228   8.056  2.5574  0.0628 -0.4146
 6919TIP3   OH242391   5.375   4.836   2.294 -0.5313 -0.3994 -0.4143
 6919TIP3    H142392   5.456   4.883   2.273 -0.1581 -1.0399 -0.4114
 6919TIP3    H242393   5.308   4.905   2.295  0.7325  1.2390  4.7825
 6920TIP3   OH242394   2.035   0.035   2.750  0.0694 -0.3359 -0.2697
 6920TIP3    H142395   2.024   0.095   2.824 -2.7288 -0.4748 -0.4417
 6920TIP3    H242396   2.012   0.087   2.673  0.2064 -0.9212 -0.7188
 6921TIP3   OH242397   0.573   6.225   0.773 -0.0978 -0.0337 -0.1370
 6921TIP3    H142398   0.662   6.191   0.761 -0.0990  0.6254 -2.4009
 6921TIP3    H242399   0.585   6.319   0.782 -0.5247 -0.0316  0.4546
 6922TIP3   OH242400   1.948   4.564   0.175 -0.0511 -0.0934 -0.2221
 6922TIP3    H142401   1.910   4.551   0.262  1.2923  0.3886  0.4664
 6922TIP3    H242402   1.878   4.605   0.124 -0.2690  1.4074  1.1927
 6923TIP3   OH242403   6.351   6.790   7.344 -0.2443  0.0474 -0.1759
 6923TIP3    H142404   6.418   6.745   7.293  1.9621  1.7110  1.0981
 6923TIP3    H242405   6.277   6.798   7.284  0.4832 -2.2183 -1.5133
 6924TIP3   OH242406   0.132   5.676   1.175  0.7646 -0.2724  0.1121
 6924TIP3    H142407   0.171   5.597   1.212 -0.1097 -0.3374  0.9601
 6924TIP3    H242408   0.082   5.714   1.248  0.2803  0.4720 -0.5847
 6925TIP3   OH242409   3.637   2.859   2.653  0.0689  0.2852 -0.2633
 6925TIP3    H142410   3.642   2.877   2.559 -2.2931 -0.7360 -0.6469
 6925TIP3    H242411   3.725   2.830   2.676  0.6980  0.5123 -2.1491
 6926TIP3   OH242412   5.893   4.003   0.394  0.3835 -0.6909 -0.4465
 6926TIP3    H142413   5.982   4.003   0.357  0.0503 -1.4846 -1.2812
 6926TIP3    H242414   5.865   4.094   0.389  1.2926 -0.3635  0.1811
 6927TIP3   OH242415   4.837   4.733   2.088  0.4912  0.2926 -0.1462
 6927TIP3    H142416   4.845   4.828   2.075 -0.2018  0.4177  0.2984
 6927TIP3    H242417   4.808   4.724   2.179  0.4731 -0.3459 -0.2139
 6928TIP3   OH242418   3.852   1.543   8.188  0.2501  0.4115  0.1186
 6928TIP3    H142419   3.830   1.485   8.261  1.6751  0.6986  0.8042
 6928TIP3    H242420   3.876   1.485   8.116  0.5209  0.1406  0.4280
 6929TIP3   OH242421   0.211   4.980   1.141  0.0102 -0.0545  0.2446
 6929TIP3    H142422   0.289   4.999   1.193 -0.7933 -0.6719  1.7267
 6929TIP3    H242423   0.235   4.902   1.090  0.6566  0.2959 -0.0043
 6930TIP3   OH242424   2.104   4.644   0.561  0.3460 -0.3202  0.2882
 6930TIP3    H142425   2.158   4.668   0.486  0.0756 -0.0773  0.1711
 6930TIP3    H242426   2.061   4.563   0.534 -0.2014  0.0741 -0.0505
 6931TIP3   OH242427   6.572   6.826   0.987 -0.0287 -0.3087  0.6034
 6931TIP3    H142428   6.651   6.786   1.023  0.3475  0.6566  0.8722
 6931TIP3    H242429   6.603   6.891   0.925 -0.6075  0.2570  0.8964
 6932TIP3   OH242430   1.220   5.627   2.572  0.1469 -0.1051  0.1269
 6932TIP3    H142431   1.196   5.563   2.639  0.9286 -2.2499 -1.5260
 6932TIP3    H242432   1.137   5.652   2.532 -0.1624 -0.2118  0.7015
 6933TIP3   OH242433   2.719   6.164   2.456  0.2939 -0.4566  0.2122
 6933TIP3    H142434   2.738   6.225   2.384 -0.0937  2.4085  2.3779
 6933TIP3    H242435   2.802   6.157   2.503 -0.7957  2.8149  2.9982
 6934TIP3   OH242436   2.142   0.706   8.393  0.1660 -0.0077  0.0746
 6934TIP3    H142437   2.235   0.708   8.369 -0.1205 -1.2187 -1.2568
 6934TIP3    H242438   2.142   0.693   8.488  1.3735 -1.5931 -0.1058
 6935TIP3   OH242439   2.979   3.393   1.099  0.1600  0.0260  0.0520
 6935TIP3    H142440   3.019   3.342   1.029  0.3746 -1.5381  1.2678
 6935TIP3    H242441   2.968   3.481   1.061  2.5189 -0.0975 -1.1266
 6936TIP3   OH242442   5.893   5.751   3.170 -0.0160  0.2974 -0.6319
 6936TIP3    H142443   5.844   5.809   3.229 -0.7938 -0.8478 -0.1029
 6936TIP3    H242444   5.878   5.788   3.083 -1.0577  0.5276 -0.3754
 6937TIP3   OH242445   3.372   5.516   1.885  0.7154  0.1821 -0.0686
 6937TIP3    H142446   3.406   5.427   1.887  0.1182 -0.0522  1.4394
 6937TIP3    H242447   3.277   5.505   1.890  0.6900  0.8870  2.0799
 6938TIP3   OH242448   0.449   0.392   1.119  0.2665  0.0446  0.0808
 6938TIP3    H142449   0.357   0.416   1.107  0.7371  1.0838 -1.7227
 6938TIP3    H242450   0.446   0.301   1.148 -1.3134 -0.1602 -0.6120
 6939TIP3   OH242451   3.405   3.403   8.386  0.1967 -0.0944  0.0140
 6939TIP3    H142452   3.405   3.498   8.399  0.1803 -0.2555  1.4079
 6939TIP3    H242453   3.414   3.367   8.475  1.8192 -1.3870 -0.6241
 6940TIP3   OH242454   3.203   2.482   0.630  0.0554 -0.1287 -0.0565
 6940TIP3    H142455   3.278   2.531   0.664  0.8364 -0.7579 -0.8361
 6940TIP3    H242456   3.238   2.396   0.606 -1.2533 -1.0672  1.1697
 6941TIP3   OH242457   3.460   3.262   0.373  0.1984 -0.2441  0.2067
 6941TIP3    H142458   3.457   3.167   0.364 -1.2837 -0.1355 -0.5958
 6941TIP3    H242459   3.553   3.283   0.368  0.4387 -1.4925 -1.3554
 6942TIP3   OH242460   3.632   3.190   7.198 -0.1798 -0.9639 -0.5345
 6942TIP3    H142461   3.620   3.274   7.153  0.5057 -0.3552  0.3721
 6942TIP3    H242462   3.555   3.181   7.254 -0.2433 -0.9291 -0.6162
 6943TIP3   OH242463   1.803   6.146   1.378 -0.3421  0.5151  0.3282
 6943TIP3    H142464   1.753   6.156   1.459 -0.2615 -0.8931  0.5818
 6943TIP3    H242465   1.801   6.233   1.337 -1.0533  1.0447  1.4451
 6944TIP3   OH242466   4.287   5.912   0.303  0.0794 -0.3063 -0.7738
 6944TIP3    H142467   4.322   5.959   0.227  1.0768 -2.7517 -1.9198
 6944TIP3    H242468   4.193   5.931   0.302  0.4182  1.5963 -1.1570
 6945TIP3   OH242469   5.982   4.476   2.037 -0.3356 -0.4336 -0.1381
 6945TIP3    H142470   5.946   4.545   1.980  0.2739  0.1767  0.1975
 6945TIP3    H242471   6.076   4.492   2.036 -0.2293 -1.0341  0.2584
 6946TIP3   OH242472   3.218   0.771   2.297  0.9764 -0.0313  0.0489
 6946TIP3    H142473   3.132   0.813   2.298  0.7855 -0.4023 -0.5065
 6946TIP3    H242474   3.201   0.683   2.265  1.6102  0.0083 -0.4131
 6947TIP3   OH242475   2.958   5.622   1.020 -0.1343 -0.3519 -0.0631
 6947TIP3    H142476   2.974   5.638   1.113  3.1360  1.1725 -0.7143
 6947TIP3    H242477   2.880   5.673   0.999  0.6976  1.5979  1.3162
 6948TIP3   OH242478   2.485   2.212   8.429  0.1742  0.3290 -0.1971
 6948TIP3    H142479   2.527   2.197   8.514 -2.1782 -0.2253  0.9532
 6948TIP3    H242480   2.412   2.149   8.428 -1.8849  2.5710 -1.1374
 6949TIP3   OH242481   1.553   3.642   7.244 -0.4135  0.2087  0.2567
 6949TIP3    H142482   1.573   3.550   7.228  2.3048  1.0289 -1.9208
 6949TIP3    H242483   1.458   3.647   7.239 -0.5321 -2.0804 -2.3977
 6950TIP3   OH242484   4.082   5.123   1.917  0.5308 -0.1356 -0.0793
 6950TIP3    H142485   4.098   5.167   2.001  1.5062  2.3307 -1.4516
 6950TIP3    H242486   4.092   5.030   1.937  0.8948  0.3593  2.4927
 6951TIP3   OH242487   4.482   0.595   0.478  0.7153  0.5288  0.7127
 6951TIP3    H142488   4.456   0.686   0.492  0.1387  0.5828 -0.5248
 6951TIP3    H242489   4.436   0.569   0.398  1.5973 -0.5627  0.5267
 6952TIP3   OH242490   2.778   3.418   1.297 -0.1821  0.3489 -0.4369
 6952TIP3    H142491   2.812   3.501   1.331  3.0344 -1.0544  0.0715
 6952TIP3    H242492   2.837   3.396   1.225 -1.0705 -1.4325 -0.6634
 6953TIP3   OH242493   3.113   6.201   7.855 -0.5609  0.4924  0.2490
 6953TIP3    H142494   3.033   6.175   7.901 -0.6813 -0.3219 -0.4043
 6953TIP3    H242495   3.171   6.233   7.925 -0.6472 -0.9693  1.0344
 6954TIP3   OH242496   3.551   3.961   1.617  0.5161 -0.4162 -0.4553
 6954TIP3    H142497   3.536   4.055   1.609  0.3180 -0.3989  0.0913
 6954TIP3    H242498   3.646   3.952   1.621  0.5394 -0.2460 -0.5971
 6955TIP3   OH242499   3.480   0.794   8.373  0.2028 -0.3307  0.0438
 6955TIP3    H142500   3.563   0.763   8.408  0.9278  0.2631 -1.0887
 6955TIP3    H242501   3.470   0.882   8.407  0.3738 -0.1534 -0.3577
 6956TIP3   OH242502   5.589   1.995   1.883  0.4872  0.3286  0.0056
 6956TIP3    H142503   5.680   1.981   1.908  0.3664  1.3739  1.1546
 6956TIP3    H242504   5.591   2.072   1.826  0.4245 -0.2268 -0.7534
 6957TIP3   OH242505   4.202   5.718   0.560 -0.2092  0.5384  0.4442
 6957TIP3    H142506   4.219   5.709   0.466  0.0863  1.0340  0.4454
 6957TIP3    H242507   4.133   5.654   0.578  0.5115 -0.3614  0.1076
 6958TIP3   OH242508   1.344   3.644   0.614 -0.8909 -0.4961 -0.1832
 6958TIP3    H142509   1.285   3.583   0.571 -1.2874 -1.2078  1.3195
 6958TIP3    H242510   1.355   3.610   0.703 -1.1023  1.5833  0.7154
 6959TIP3   OH242511   3.762   1.570   0.660  0.2593  0.6025 -0.0638
 6959TIP3    H142512   3.756   1.573   0.564 -0.4123  0.3886 -0.0390
 6959TIP3    H242513   3.763   1.477   0.681 -0.3308  0.6381  0.1639
 6960TIP3   OH242514   6.440   1.024   7.976 -0.4252 -0.7119  0.0751
 6960TIP3    H142515   6.377   1.033   8.048  0.5289  1.4256  0.7320
 6960TIP3    H242516   6.415   1.091   7.913 -0.4166 -1.6564 -0.9545
 6961TIP3   OH242517   4.649   0.911   7.683 -0.9650 -0.0005  0.5079
 6961TIP3    H142518   4.666   0.929   7.590 -1.5128 -0.6833  0.2649
 6961TIP3    H242519   4.710   0.841   7.705 -0.6778  0.3146  0.7340
 6962TIP3   OH242520   0.282   4.653   8.192 -0.2445  0.2308  0.2234
 6962TIP3    H142521   0.357   4.621   8.242  0.5887  0.8297 -0.6074
 6962TIP3    H242522   0.240   4.716   8.251 -0.3204 -0.3643  0.8278
 6963TIP3   OH242523   6.151   0.710   2.267 -0.2171 -0.0957 -0.0658
 6963TIP3    H142524   6.127   0.627   2.309  0.7344 -0.3137  0.0844
 6963TIP3    H242525   6.091   0.717   2.193  0.1628 -1.3163 -0.5282
 6964TIP3   OH242526   4.891   5.595   1.601 -0.0839 -0.0571 -0.3647
 6964TIP3    H142527   4.875   5.627   1.690 -0.4657 -1.0175 -0.0791
 6964TIP3    H242528   4.857   5.506   1.601  0.7977 -0.4054 -1.1965
 6965TIP3   OH242529   3.824   5.211   0.319 -0.1917  0.1118 -0.2170
 6965TIP3    H142530   3.878   5.156   0.263  0.9198  1.6629 -0.7509
 6965TIP3    H242531   3.773   5.265   0.258 -0.8726  0.0554  0.2849
 6966TIP3   OH242532   6.867   4.209   1.798  0.6068  0.2804 -0.1883
 6966TIP3    H142533   6.849   4.115   1.799 -2.9501  0.7744  2.0156
 6966TIP3    H242534   6.823   4.241   1.719  2.6352  0.0968 -1.4726
 6967TIP3   OH242535   2.630   5.991   0.615 -0.1360  0.2175  0.2810
 6967TIP3    H142536   2.599   5.911   0.659  0.6072 -0.6969 -0.8017
 6967TIP3    H242537   2.552   6.027   0.574 -0.5508  0.2668  1.0819
 6968TIP3   OH242538   0.980   6.530   0.881  0.5801  0.2493  0.5714
 6968TIP3    H142539   1.008   6.446   0.845 -0.3281  0.0170  0.3770
 6968TIP3    H242540   0.969   6.513   0.975 -0.2048 -0.0256  0.4369
 6969TIP3   OH242541   3.900   6.702   2.769 -1.0707 -0.0669  0.2485
 6969TIP3    H142542   3.962   6.775   2.775  0.5251 -1.3491 -0.0410
 6969TIP3    H242543   3.900   6.664   2.857 -2.0190  0.3438  0.4403
 6970TIP3   OH242544   6.385   4.400   3.320  0.4635  0.0161 -0.3336
 6970TIP3    H142545   6.431   4.376   3.401  0.5235  0.1063 -0.3406
 6970TIP3    H242546   6.452   4.441   3.266  0.5082 -0.3732 -0.5756
 6971TIP3   OH242547   1.875   1.500   0.690  0.0973  0.6216 -0.1334
 6971TIP3    H142548   1.860   1.410   0.719 -0.2630  0.8875  0.5276
 6971TIP3    H242549   1.962   1.522   0.723  0.0599  0.6198 -0.0344
 6972TIP3   OH242550   0.287   0.483   7.343 -0.4786  0.3670 -0.5291
 6972TIP3    H142551   0.377   0.478   7.311  0.1746  0.6049  1.1426
 6972TIP3    H242552   0.233   0.464   7.266  1.0198 -1.6503 -1.1879
 6973TIP3   OH242553   4.472   3.725   2.040  0.1477 -0.0597 -0.5585
 6973TIP3    H142554   4.547   3.738   2.098  0.3903  0.3108 -0.9519
 6973TIP3    H242555   4.508   3.680   1.963  0.0821  0.6184 -0.9943
 6974TIP3   OH242556   5.656   2.240   0.161 -0.1059  0.3746  0.0515
 6974TIP3    H142557   5.577   2.292   0.174  1.2033  2.2052  1.1075
 6974TIP3    H242558   5.632   2.152   0.193 -2.0423  0.5624 -0.7832
 6975TIP3   OH242559   1.389   6.318   1.466 -0.1907 -0.2866 -0.0610
 6975TIP3    H142560   1.429   6.386   1.411  1.4297 -1.2365 -0.1131
 6975TIP3    H242561   1.295   6.336   1.460  0.0796  0.9514 -1.3911
 6976TIP3   OH242562   5.014   3.862   1.099  0.6763  0.7632  0.2980
 6976TIP3    H142563   5.018   3.848   1.194  2.2244 -0.1543  0.1337
 6976TIP3    H242564   5.105   3.858   1.070  0.3221  2.0024 -1.1191
 6977TIP3   OH242565   4.592   3.314   8.315 -0.2713 -0.6167 -0.3935
 6977TIP3    H142566   4.592   3.274   8.402 -0.6316 -1.4757 -0.7836
 6977TIP3    H242567   4.681   3.350   8.305  0.8409 -3.2647 -0.9014
 6978TIP3   OH242568   3.522   1.515   1.956 -0.0781  0.0847 -0.3572
 6978TIP3    H142569   3.525   1.569   2.036  3.4814 -0.2030 -0.1267
 6978TIP3    H242570   3.455   1.449   1.974 -2.0442  2.2748  0.7912
 6979TIP3   OH242571   3.364   6.320   1.968  0.1374 -0.3715 -0.0113
 6979TIP3    H142572   3.440   6.357   2.013 -0.0740 -0.9005  0.8065
 6979TIP3    H242573   3.391   6.231   1.945  0.1067 -0.2326 -0.5974
 6980TIP3   OH242574   1.365   3.603   8.443  0.2385  0.4841  0.6188
 6980TIP3    H142575   1.300   3.600   8.513  0.6625  1.4197  1.0783
 6980TIP3    H242576   1.447   3.625   8.487  0.8448 -0.5236  0.0313
 6981TIP3   OH242577   2.334   2.343   2.049 -0.4633 -0.0416 -0.2170
 6981TIP3    H142578   2.272   2.407   2.085 -0.2948 -0.7381  1.4175
 6981TIP3    H242579   2.279   2.279   2.004 -0.8535 -0.0902  0.3206
 6982TIP3   OH242580   0.530   4.587   6.760  0.2545  0.1576 -0.3852
 6982TIP3    H142581   0.493   4.511   6.716 -1.1854  1.2265 -1.1316
 6982TIP3    H242582   0.467   4.607   6.830  0.5693  0.7084 -0.2566
 6983TIP3   OH242583   4.368   0.516   1.154 -0.0673 -0.0004  0.5419
 6983TIP3    H142584   4.290   0.565   1.130 -1.5594 -2.0794  0.8638
 6983TIP3    H242585   4.377   0.528   1.248  1.6766  2.4385  0.1557
 6984TIP3   OH242586   1.183   4.313   0.311  0.4356 -0.4502  0.2911
 6984TIP3    H142587   1.266   4.291   0.269  0.6674 -1.4998  1.2367
 6984TIP3    H242588   1.197   4.295   0.404 -1.0853 -1.5244  0.3694
 6985TIP3   OH242589   6.459   3.731   2.238 -0.0263 -0.4257 -0.1886
 6985TIP3    H142590   6.543   3.688   2.252  0.4277  0.2849 -0.6793
 6985TIP3    H242591   6.405   3.702   2.312  0.0556 -2.3170 -0.8375
 6986TIP3   OH242592   0.953   4.821   2.079 -0.7502 -0.2620 -0.0222
 6986TIP3    H142593   0.920   4.731   2.089  0.8942 -0.7603  1.3777
 6986TIP3    H242594   0.959   4.854   2.168 -0.3387  0.8864 -0.4587
 6987TIP3   OH242595   2.766   4.518   1.211 -0.1785  0.2985 -0.1826
 6987TIP3    H142596   2.683   4.565   1.209  0.1268  0.9489  1.2321
 6987TIP3    H242597   2.811   4.544   1.131 -1.0734  0.4181 -0.6539
 6988TIP3   OH242598   5.345   1.742   7.921  0.4047  0.1623 -0.0617
 6988TIP3    H142599   5.285   1.816   7.933  0.9918  0.6736 -0.1717
 6988TIP3    H242600   5.429   1.784   7.900  0.4306 -0.5822 -1.4892
 6989TIP3   OH242601   2.852   6.632   1.800  0.1374  0.2374  0.2089
 6989TIP3    H142602   2.884   6.714   1.838 -0.1908 -0.5794  2.3992
 6989TIP3    H242603   2.757   6.634   1.817  0.3356 -1.2459  1.6840
 6990TIP3   OH242604   2.892   2.318   2.845  0.0774  0.1667  0.0565
 6990TIP3    H142605   2.902   2.392   2.784 -0.7165  1.7016  1.6960
 6990TIP3    H242606   2.950   2.339   2.918 -0.9762 -0.2636  1.0508
 6991TIP3   OH242607   3.616   2.890   2.127 -0.0122 -0.2224  0.4296
 6991TIP3    H142608   3.554   2.840   2.180  0.0654  0.3701  1.0835
 6991TIP3    H242609   3.674   2.823   2.090 -1.0193 -0.7783 -0.1857
 6992TIP3   OH242610   3.166   0.531   7.328  0.1810  0.1818  0.2847
 6992TIP3    H142611   3.083   0.504   7.369 -1.1916  1.0537 -1.7638
 6992TIP3    H242612   3.206   0.450   7.298  0.8197 -0.3937  2.5192
 6993TIP3   OH242613   5.762   1.104   7.851  0.0646 -0.0094  0.0247
 6993TIP3    H142614   5.711   1.184   7.839  1.2064  0.4483 -2.3647
 6993TIP3    H242615   5.725   1.064   7.930 -2.3887  1.4487 -0.2652
 6994TIP3   OH242616   5.080   6.037   1.959  0.0187  0.3678  0.1862
 6994TIP3    H142617   5.072   5.954   2.007  1.7732  0.4338  0.6673
 6994TIP3    H242618   5.024   6.098   2.008  0.2818 -0.0454  1.0285
 6995TIP3   OH242619   0.718   4.588   0.735 -0.2645  0.7184  0.0216
 6995TIP3    H142620   0.777   4.579   0.810 -1.1705  0.1569  0.6855
 6995TIP3    H242621   0.763   4.543   0.663 -0.2179 -0.3593  0.7074
 6996TIP3   OH242622   5.314   2.608   7.463  0.4254 -0.0102  0.0020
 6996TIP3    H142623   5.233   2.658   7.458  1.0612  0.9739 -0.9611
 6996TIP3    H242624   5.373   2.653   7.402  2.0152 -0.0984  1.4095
 6997TIP3   OH242625   6.116   0.888   1.271 -0.0199  0.1505 -0.6760
 6997TIP3    H142626   6.147   0.894   1.181  0.9977  0.2245 -0.3337
 6997TIP3    H242627   6.043   0.825   1.267 -0.5969  0.8468 -1.6831
 6998TIP3   OH242628   1.885   1.885   0.958 -0.3474  0.5535 -0.2624
 6998TIP3    H142629   1.943   1.885   0.882 -0.6856 -1.3067 -0.5631
 6998TIP3    H242630   1.937   1.925   1.028  1.5790 -1.5512 -0.3683
 6999TIP3   OH242631   0.364   6.259   0.465  0.4090 -0.7895  0.5219
 6999TIP3    H142632   0.423   6.327   0.433 -0.3367 -0.6606 -0.6282
 6999TIP3    H242633   0.369   6.265   0.560 -0.0901  1.2901  0.4598
 7000TIP3   OH242634   2.147   4.015   1.412 -0.2260 -0.2600 -0.4562
 7000TIP3    H142635   2.212   4.048   1.473 -1.5620 -0.6305  1.2597
 7000TIP3    H242636   2.116   4.093   1.365  1.5940 -0.1222 -1.5342
 7001TIP3   OH242637   0.829   4.901   0.628 -0.5665 -0.5411  0.0833
 7001TIP3    H142638   0.833   4.993   0.602 -1.3259 -0.1899  1.1459
 7001TIP3    H242639   0.856   4.853   0.550  0.8160  0.6153 -0.1790
 7002TIP3   OH242640   5.572   5.757   7.423  0.7198  0.5206  0.0546
 7002TIP3    H142641   5.532   5.828   7.373 -0.0170  1.0430  1.3199
 7002TIP3    H242642   5.665   5.762   7.402  0.8455  2.5041  0.8249
 7003TIP3   OH242643   4.509   5.166   8.292  0.0691 -0.0226  0.4792
 7003TIP3    H142644   4.538   5.084   8.251  1.8034  0.4859  0.5954
 7003TIP3    H242645   4.442   5.139   8.354 -0.4801 -1.1604 -0.5634
 7004TIP3   OH242646   0.919   4.743   0.416  0.6730 -0.2211  0.1078
 7004TIP3    H142647   0.906   4.649   0.432 -1.2837 -0.3334 -1.7558
 7004TIP3    H242648   1.003   4.748   0.370  0.9294 -1.0156  0.4746
 7005TIP3   OH242649   4.556   2.305   2.996 -0.9383 -0.4813  0.0871
 7005TIP3    H142650   4.536   2.309   3.090 -1.0018 -1.0776  0.1030
 7005TIP3    H242651   4.556   2.396   2.968  0.6665 -0.1723  0.9852
 7006TIP3   OH242652   4.102   0.711   0.581 -0.1423  0.8986  0.2300
 7006TIP3    H142653   4.042   0.771   0.536 -0.7276  0.8339  0.9071
 7006TIP3    H242654   4.048   0.669   0.648 -0.2149 -1.5719 -1.2110
 7007TIP3   OH242655   6.713   2.151   1.364  0.3373  0.2209  0.8847
 7007TIP3    H142656   6.794   2.157   1.415  1.5896  1.2228 -1.0906
 7007TIP3    H242657   6.741   2.164   1.273 -1.6577 -2.4519 -0.2328
 7008TIP3   OH242658   0.823   5.555   2.837 -0.5748  0.1975  0.6022
 7008TIP3    H142659   0.842   5.649   2.836 -1.4484  0.3874 -0.9976
 7008TIP3    H242660   0.751   5.546   2.900 -0.0983  0.5176  1.1950
 7009TIP3   OH242661   4.128   1.642   8.145 -0.2550 -0.1479 -0.5948
 7009TIP3    H142662   4.046   1.623   8.191 -0.3801 -0.8213 -1.0859
 7009TIP3    H242663   4.187   1.674   8.214 -0.8581  0.1412 -0.2047
 7010TIP3   OH242664   3.739   1.409   8.544  0.0424  0.1851 -0.3765
 7010TIP3    H142665   3.653   1.399   8.505  0.3259  0.6575 -1.1522
 7010TIP3    H242666   3.800   1.403   8.470  0.6853 -0.3119  0.1790
 7011TIP3   OH242667   3.438   3.390   2.718  0.4350 -0.4052 -0.5112
 7011TIP3    H142668   3.370   3.324   2.708  0.9238 -0.8258 -1.2671
 7011TIP3    H242669   3.391   3.472   2.732 -0.1713 -0.9765  0.8967
 7012TIP3   OH242670   3.727   0.270   8.553  0.5619 -0.2137  0.1913
 7012TIP3    H142671   3.759   0.248   8.466 -3.0575 -0.4901 -1.2356
 7012TIP3    H242672   3.690   0.358   8.544 -0.5480 -0.5408  1.2050
 7013TIP3   OH242673   2.538   4.694   8.111  0.2122 -0.0477 -0.6174
 7013TIP3    H142674   2.594   4.766   8.141  0.5227 -1.5522  2.9088
 7013TIP3    H242675   2.451   4.733   8.102  0.5944  1.0278  0.1147
 7014TIP3   OH242676   2.341   5.813   0.023  0.2775  0.1938  0.4266
 7014TIP3    H142677   2.267   5.805   0.082 -0.7016 -1.5994 -0.9564
 7014TIP3    H242678   2.306   5.858  -0.054  0.7260 -0.2802 -0.0648
 7015TIP3   OH242679   0.938   4.219   1.813 -1.1393  0.1677  0.0876
 7015TIP3    H142680   0.991   4.167   1.752 -1.7919 -0.8193  0.3395
 7015TIP3    H242681   0.847   4.198   1.790 -1.4010 -0.1829  1.3433
 7016TIP3   OH242682   0.366   1.066   1.763 -0.4684  0.0844 -0.5047
 7016TIP3    H142683   0.389   1.020   1.682 -2.6967 -1.1550 -0.5135
 7016TIP3    H242684   0.379   1.001   1.832  0.8288  0.9478  0.1093
 7017TIP3   OH242685   3.573   4.295   0.686  0.2644 -0.6632  0.0354
 7017TIP3    H142686   3.591   4.298   0.780 -0.7984 -1.5513  0.2873
 7017TIP3    H242687   3.613   4.214   0.656 -0.3534 -0.9405 -0.0533
 7018TIP3   OH242688   6.199   1.437   0.571  0.3293 -0.1744 -0.0720
 7018TIP3    H142689   6.143   1.451   0.495  1.6768 -0.2379 -1.1110
 7018TIP3    H242690   6.155   1.484   0.642 -1.2011 -0.5058 -0.7536
 7019TIP3   OH242691   2.983   0.522   2.735  0.6483 -0.0361 -0.0930
 7019TIP3    H142692   2.953   0.462   2.667 -0.3679  0.9300 -0.5184
 7019TIP3    H242693   2.903   0.559   2.773  1.2430  1.0554  0.1540
 7020TIP3   OH242694   0.144   5.945   1.468  0.1479  0.9186 -0.6279
 7020TIP3    H142695   0.216   5.886   1.491  0.2490  1.2248 -0.1466
 7020TIP3    H242696   0.088   5.893   1.411 -0.2187  0.0715  0.4784
 7021TIP3   OH242697   5.382   6.567   7.277 -0.1212  0.1385 -0.1092
 7021TIP3    H142698   5.306   6.537   7.326  1.3121 -0.9866  1.5641
 7021TIP3    H242699   5.384   6.662   7.290 -1.0490  0.1367  0.0833
 7022TIP3   OH242700   4.571   6.322   7.814  0.2192  0.3218  0.4929
 7022TIP3    H142701   4.612   6.325   7.727  0.8163  0.5498  0.7764
 7022TIP3    H242702   4.620   6.386   7.865 -1.7201  2.0569  0.3190
 7023TIP3   OH242703   0.634   3.921   2.023 -0.2368  0.1529 -0.4412
 7023TIP3    H142704   0.616   3.953   1.935  1.3033  1.9968 -0.1417
 7023TIP3    H242705   0.578   3.975   2.080  0.4207  0.5083 -0.1290
 7024TIP3   OH242706   6.151   1.243   7.066 -0.0127 -0.3659  0.2252
 7024TIP3    H142707   6.244   1.231   7.044 -0.0486 -0.4065  0.0946
 7024TIP3    H242708   6.126   1.322   7.018  0.9289  1.8983  3.1525
 7025TIP3   OH242709   6.059   1.197   0.121 -0.0831  0.2237  0.3480
 7025TIP3    H142710   6.019   1.230   0.201  1.5578  1.3393  0.7622
 7025TIP3    H242711   6.023   1.252   0.052  1.7027  2.2232  0.8907
 7026TIP3   OH242712   1.773   4.343   3.095  0.1837 -0.7773  0.0519
 7026TIP3    H142713   1.706   4.327   3.162 -0.9075  2.5352 -0.0865
 7026TIP3    H242714   1.855   4.346   3.144 -0.2162 -1.2317  0.7760
 7027TIP3   OH242715   4.009   1.469   2.164  0.1842  0.1419  0.0202
 7027TIP3    H142716   4.047   1.477   2.252 -0.2168  0.9355  0.1330
 7027TIP3    H242717   3.925   1.516   2.171 -0.3749 -0.7687 -0.4762
 7028TIP3   OH242718   5.731   6.684   1.502 -1.0110 -0.0722  0.1553
 7028TIP3    H142719   5.807   6.632   1.528 -0.4001  0.8295  0.1798
 7028TIP3    H242720   5.739   6.765   1.551 -1.7510  0.2137 -0.1875
 7029TIP3   OH242721   2.053   4.181   7.830  0.4686 -0.2539 -0.2564
 7029TIP3    H142722   2.108   4.254   7.802 -1.2255  1.3683  0.5060
 7029TIP3    H242723   2.051   4.188   7.926 -0.4023 -0.7718 -0.2261
 7030TIP3   OH242724   4.195   5.469   7.364  0.1440  0.0471 -0.0503
 7030TIP3    H142725   4.153   5.506   7.441  0.4286  0.5244 -0.1136
 7030TIP3    H242726   4.124   5.430   7.313  0.0130 -0.6544  0.6608
 7031TIP3   OH242727   5.604   6.417   8.521 -0.3364 -0.5024 -0.1146
 7031TIP3    H142728   5.597   6.417   8.426 -1.8712  0.1612 -0.0281
 7031TIP3    H242729   5.668   6.348   8.541  0.9062  0.1582 -1.6610
 7032TIP3   OH242730   0.503   3.016   0.480  0.0741 -0.2525 -0.1294
 7032TIP3    H142731   0.443   2.969   0.423  0.6307 -1.1481  0.0045
 7032TIP3    H242732   0.447   3.070   0.536 -0.6525 -1.6688  0.5439
 7033TIP3   OH242733   1.962   3.465   6.850 -0.0517 -0.0656  0.9808
 7033TIP3    H142734   1.922   3.544   6.887 -0.0715 -0.1270  1.0901
 7033TIP3    H242735   2.037   3.448   6.906  1.3247  1.2032 -0.3887
 7034TIP3   OH242736   3.309   5.158   7.462  0.0463  0.2760 -0.2665
 7034TIP3    H142737   3.390   5.149   7.512  0.9466  1.3911 -1.4456
 7034TIP3    H242738   3.333   5.212   7.387 -1.6568  0.1040 -0.9882
 7035TIP3   OH242739   1.553   2.803   1.230  0.3536  0.6865  0.2601
 7035TIP3    H142740   1.526   2.712   1.244 -1.4841  1.5311  3.0520
 7035TIP3    H242741   1.645   2.804   1.253  0.4713 -0.5016 -0.0535
 7036TIP3   OH242742   2.834   4.954   0.075  0.1371  0.0316 -0.1303
 7036TIP3    H142743   2.879   5.025   0.121 -0.6213  0.2349  0.3270
 7036TIP3    H242744   2.744   4.987   0.063 -0.1159 -0.6912 -0.2578
 7037TIP3   OH242745   3.399   3.459   2.255  0.5343 -0.2890 -0.4045
 7037TIP3    H142746   3.419   3.517   2.181  0.6862 -0.2060 -0.2987
 7037TIP3    H242747   3.350   3.513   2.316 -0.7980 -0.7295 -1.0579
 7038TIP3   OH242748   3.980   2.749   7.917 -0.0431  0.1281 -0.1687
 7038TIP3    H142749   3.944   2.838   7.926 -1.5088 -0.5003  0.5809
 7038TIP3    H242750   3.992   2.737   7.823  2.1252  1.8220 -0.1916
 7039TIP3   OH242751   2.072   3.479   1.716 -0.1490 -0.0452 -0.0679
 7039TIP3    H142752   2.081   3.510   1.626  0.1079 -1.9150 -0.7273
 7039TIP3    H242753   2.151   3.427   1.732 -0.3426 -0.0124  1.1324
 7040TIP3   OH242754   0.656   6.653   0.626 -0.9068  0.2729 -0.0158
 7040TIP3    H142755   0.597   6.691   0.561 -0.3233  0.3155 -0.5210
 7040TIP3    H242756   0.734   6.708   0.624  0.2755 -1.3463 -1.3216
 7041TIP3   OH242757   2.105   4.674   7.754  0.1929 -0.1628  0.9899
 7041TIP3    H142758   2.173   4.607   7.746  0.5911  0.3106  0.2281
 7041TIP3    H242759   2.142   4.739   7.813 -0.2754 -0.6936  1.8930
 7042TIP3   OH242760   1.756   5.847   0.666  0.2232  0.1941  0.1424
 7042TIP3    H142761   1.686   5.841   0.731 -0.3699  0.9284 -0.4050
 7042TIP3    H242762   1.802   5.763   0.672  0.6716  0.5138  2.0408
 7043TIP3   OH242763   3.033   5.840   7.804 -0.1165  0.6298 -0.0893
 7043TIP3    H142764   3.037   5.874   7.714  0.4517  0.1662 -0.2490
 7043TIP3    H242765   3.025   5.746   7.793 -0.6096  0.6222  0.3503
 7044TIP3   OH242766   6.603   6.309   0.948 -0.0877 -0.2819  0.3789
 7044TIP3    H142767   6.589   6.342   1.036 -1.4550 -0.2637  0.1783
 7044TIP3    H242768   6.698   6.307   0.938  0.0733  0.9976  1.3563
 7045TIP3   OH242769   4.138   2.465   8.589 -0.3227  0.0215 -0.3114
 7045TIP3    H142770   4.180   2.527   8.649 -2.4263  0.6097  0.6445
 7045TIP3    H242771   4.110   2.519   8.515  2.3756 -0.7227 -2.0194
 7046TIP3   OH242772   1.522   3.550   7.786  0.0895  0.3855 -0.1956
 7046TIP3    H142773   1.534   3.630   7.734 -0.1774  1.8247  1.8528
 7046TIP3    H242774   1.581   3.560   7.860  0.2362 -1.4737 -0.0189
 7047TIP3   OH242775   4.455   5.835   1.987 -0.0702  0.1077 -0.3340
 7047TIP3    H142776   4.456   5.797   1.899  1.8149 -0.5415 -0.0860
 7047TIP3    H242777   4.505   5.916   1.978 -1.3568  0.9514 -0.1838
 7048TIP3   OH242778   4.990   4.839   2.351 -0.3234 -0.2156 -0.0435
 7048TIP3    H142779   4.940   4.876   2.423  0.4248  0.6812  0.0284
 7048TIP3    H242780   5.049   4.776   2.393  0.8600  1.0735  0.2871
 7049TIP3   OH242781   5.353   3.208   0.149  0.6142 -0.4238 -0.0930
 7049TIP3    H142782   5.374   3.143   0.082 -0.4917  0.1942 -1.0715
 7049TIP3    H242783   5.433   3.259   0.159  0.9073 -0.7626 -0.6649
 7050TIP3   OH242784   5.793   6.111   0.382  0.5925 -0.7221  0.0892
 7050TIP3    H142785   5.778   6.065   0.465 -3.2457 -0.6677 -0.4013
 7050TIP3    H242786   5.745   6.059   0.317 -1.4225  2.2743 -1.0175
 7051TIP3   OH242787   6.695   6.533   1.166  0.0770 -0.0102 -0.3633
 7051TIP3    H142788   6.636   6.491   1.228  0.4574 -1.3780 -0.8835
 7051TIP3    H242789   6.774   6.551   1.217  0.2496 -0.7832 -0.3436
 7052TIP3   OH242790   6.283   0.504   6.863  0.0445 -0.7801  0.1214
 7052TIP3    H142791   6.209   0.552   6.826  0.7906  0.2444 -0.1010
 7052TIP3    H242792   6.260   0.490   6.955 -0.7906 -1.2382 -0.1511
 7053TIP3   OH242793   2.392   0.850   2.094  0.0832 -0.4076  0.1091
 7053TIP3    H142794   2.365   0.860   2.186  0.5801  0.5646  0.1556
 7053TIP3    H242795   2.397   0.755   2.082  1.3309 -0.5660  1.4963
 7054TIP3   OH242796   0.859   3.729   2.731 -0.6065 -0.4557 -0.1874
 7054TIP3    H142797   0.851   3.798   2.666  0.3219 -0.3810 -0.2416
 7054TIP3    H242798   0.822   3.652   2.688 -1.9773  0.0709  0.0091
 7055TIP3   OH242799   6.838   6.855   1.369  0.1180  0.2574  0.5450
 7055TIP3    H142800   6.825   6.862   1.274  2.1169  1.1277  0.2852
 7055TIP3    H242801   6.838   6.946   1.400 -0.9014 -0.0372  1.4657
 7056TIP3   OH242802   1.190   4.660   1.698  0.4040 -0.6250  0.4790
 7056TIP3    H142803   1.187   4.667   1.602 -0.9885  2.0890  0.6167
 7056TIP3    H242804   1.240   4.737   1.726  1.6240 -1.8889  1.9460
 7057TIP3   OH242805   3.505   6.075   8.377  0.0827 -0.0468 -0.1447
 7057TIP3    H142806   3.577   6.072   8.314  0.1133  2.0233 -0.2952
 7057TIP3    H242807   3.429   6.105   8.325 -0.6659 -1.2763  0.2023
 7058TIP3   OH242808   5.688   4.116   7.453 -0.3478 -0.5928  0.5058
 7058TIP3    H142809   5.686   4.202   7.494  0.7929  0.0677 -0.7423
 7058TIP3    H242810   5.605   4.108   7.407 -0.6003 -0.3068  0.9154
 7059TIP3   OH242811   0.037   6.757   8.011 -0.1575  0.7497 -0.2117
 7059TIP3    H142812   0.027   6.670   8.051  0.6397  0.4971 -0.5323
 7059TIP3    H242813   0.094   6.742   7.935  0.7298  1.6804  0.2365
 7060TIP3   OH242814   2.552   2.133   2.589  0.5291 -0.2130 -0.5668
 7060TIP3    H142815   2.527   2.044   2.567 -0.1485 -0.3981  0.7910
 7060TIP3    H242816   2.556   2.133   2.685  3.1315  0.5404 -0.6142
 7061TIP3   OH242817   1.683   1.618   2.202 -0.5726  0.1543  0.7342
 7061TIP3    H142818   1.728   1.593   2.283  0.2667 -1.0291 -0.0640
 7061TIP3    H242819   1.650   1.706   2.219 -1.8387 -0.6780  2.9232
 7062TIP3   OH242820   5.501   5.481   0.913  0.4777  0.0419 -0.1137
 7062TIP3    H142821   5.553   5.481   0.994 -0.4109 -0.1612  0.4813
 7062TIP3    H242822   5.419   5.525   0.937  1.0298  1.9159 -1.4945
 7063TIP3   OH242823   1.959   0.315   7.787 -0.0168 -0.1469 -0.1717
 7063TIP3    H142824   1.993   0.255   7.853  0.4132 -0.1562 -0.3998
 7063TIP3    H242825   1.942   0.260   7.710 -0.5098 -0.1356 -0.0696
 7064TIP3   OH242826   1.319   1.306   8.405  0.7207 -0.4235  0.0559
 7064TIP3    H142827   1.245   1.339   8.355 -0.8399 -1.7532  1.3711
 7064TIP3    H242828   1.379   1.271   8.339  0.4543  1.1630 -1.0609
 7065TIP3   OH242829   2.185   2.092   0.447 -0.4925 -0.5532 -0.2437
 7065TIP3    H142830   2.240   2.016   0.430  1.1201  0.8174 -1.5560
 7065TIP3    H242831   2.245   2.159   0.479 -1.1517  1.2980 -2.6102
 7066TIP3   OH242832   0.040   1.840   0.397  0.6241  0.0387 -0.1525
 7066TIP3    H142833   0.032   1.779   0.469 -0.6194 -0.4810 -0.6994
 7066TIP3    H242834   0.125   1.822   0.358  0.5670 -0.8526  0.1346
 7067TIP3   OH242835   3.175   0.998   7.353 -0.9323 -0.3153  0.0045
 7067TIP3    H142836   3.082   1.016   7.346 -1.2046 -1.1953  1.0151
 7067TIP3    H242837   3.204   0.983   7.263 -1.6105  0.6053 -0.3891
 7068TIP3   OH242838   3.539   4.288   2.038 -0.6922 -0.3684  0.4720
 7068TIP3    H142839   3.514   4.196   2.046 -0.9011 -0.3062  0.5320
 7068TIP3    H242840   3.461   4.332   2.005 -0.4411 -0.2956 -0.0480
 7069TIP3   OH242841   0.190   2.329   6.562  0.1980 -0.1313 -0.1920
 7069TIP3    H142842   0.270   2.382   6.563 -0.8223  1.5568 -1.9969
 7069TIP3    H242843   0.211   2.256   6.504  0.8451 -0.4542  0.4279
 7070TIP3   OH242844   5.570   3.628   1.425  0.4624 -0.1175  0.4329
 7070TIP3    H142845   5.579   3.722   1.442 -0.7477  0.0838  0.1100
 7070TIP3    H242846   5.590   3.619   1.332  0.3820 -0.1465  0.4183
 7071TIP3   OH242847   0.999   4.672   6.926 -0.2896 -0.2398 -0.1540
 7071TIP3    H142848   1.010   4.724   7.005 -2.0578  0.7951 -0.5353
 7071TIP3    H242849   0.904   4.673   6.909  0.1450  1.2059 -3.3438
 7072TIP3   OH242850   0.717   4.489   8.478 -0.1849 -0.3050 -0.4496
 7072TIP3    H142851   0.714   4.425   8.550 -1.8858  0.9045  0.6313
 7072TIP3    H242852   0.765   4.564   8.514 -2.5823  1.0403  0.1465
 7073TIP3   OH242853   1.196   2.783   0.480 -0.0159 -0.3357 -0.0528
 7073TIP3    H142854   1.168   2.738   0.559 -1.6494 -0.4710 -0.6697
 7073TIP3    H242855   1.260   2.847   0.510  0.4085 -1.3098  1.1777
 7074TIP3   OH242856   6.380   6.783   1.181 -0.6520 -0.4914 -0.4716
 7074TIP3    H142857   6.441   6.785   1.107 -2.2661 -1.4189 -1.9326
 7074TIP3    H242858   6.360   6.690   1.193 -1.1543 -0.2676  0.5038
 7075TIP3   OH242859   6.433   4.447   7.348  0.2198  0.2742  0.6089
 7075TIP3    H142860   6.524   4.451   7.377  0.9270 -0.4374 -1.3210
 7075TIP3    H242861   6.420   4.355   7.325 -0.8999  0.4293  0.5922
 7076TIP3   OH242862   4.139   5.570   3.247  0.2421  0.3679 -0.5999
 7076TIP3    H142863   4.190   5.593   3.324  2.0931  2.0549 -2.2099
 7076TIP3    H242864   4.161   5.478   3.231 -0.8899 -0.2973  1.3281
 7077TIP3   OH242865   2.685   2.632   8.152 -0.4839 -0.6896  0.0928
 7077TIP3    H142866   2.645   2.678   8.078  1.5243  0.4244 -0.3774
 7077TIP3    H242867   2.612   2.585   8.193 -2.5701  2.2831  0.1493
 7078TIP3   OH242868   4.428   6.687   2.268 -0.3559  0.8986 -0.1735
 7078TIP3    H142869   4.356   6.738   2.307 -1.1833 -1.8586  2.2942
 7078TIP3    H242870   4.504   6.709   2.321 -0.7681 -0.4379  1.0591
 7079TIP3   OH242871   6.624   2.226   7.962  0.6126 -0.6013 -0.1870
 7079TIP3    H142872   6.626   2.205   8.056 -1.6597  1.0381  0.3060
 7079TIP3    H242873   6.668   2.311   7.956  1.1879 -0.9278 -0.7087
 7080TIP3   OH242874   6.078   5.783   0.738  0.1806 -0.3694 -0.3086
 7080TIP3    H142875   6.160   5.832   0.726  0.0398  0.0571  0.4046
 7080TIP3    H242876   6.017   5.847   0.774  0.1510 -1.1942  1.1661
 7081TIP3   OH242877   0.963   5.786   0.703  0.1561  0.0857 -0.0050
 7081TIP3    H142878   0.971   5.693   0.725 -1.6797 -0.2481 -0.6015
 7081TIP3    H242879   0.891   5.818   0.756  0.1705  0.9489 -0.4821
 7082TIP3   OH242880   0.181   6.440   2.487  0.2331 -0.8557 -0.2205
 7082TIP3    H142881   0.111   6.505   2.496 -0.5246 -1.1892 -2.9867
 7082TIP3    H242882   0.256   6.480   2.532 -1.5484 -0.3516  2.5596
 7083TIP3   OH242883   5.709   4.213   2.366 -0.1121  0.3459  0.3086
 7083TIP3    H142884   5.661   4.211   2.449 -1.8004  0.6136 -0.6109
 7083TIP3    H242885   5.753   4.128   2.361 -2.6370 -1.0375  0.0337
 7084TIP3   OH242886   6.685   5.291   1.059 -0.2344 -0.6815  0.2974
 7084TIP3    H142887   6.616   5.257   1.116 -1.0224 -1.9139 -1.3144
 7084TIP3    H242888   6.758   5.231   1.072 -0.4513 -1.0257 -0.0517
 7085TIP3   OH242889   4.613   6.436   0.120 -0.3680 -0.1952 -0.0436
 7085TIP3    H142890   4.636   6.496   0.191 -0.6975  0.1285 -0.2083
 7085TIP3    H242891   4.696   6.417   0.077 -0.6049  2.6531 -1.9820
 7086TIP3   OH242892   5.841   1.745   7.089 -0.3294  0.1088 -0.3001
 7086TIP3    H142893   5.784   1.705   7.023 -1.7891  0.7464  0.5159
 7086TIP3    H242894   5.808   1.711   7.172  0.5280  0.4597  0.1875
 7087TIP3   OH242895   4.230   3.594   1.544 -0.2765  0.3036 -0.1457
 7087TIP3    H142896   4.197   3.683   1.557  0.8458  0.8679 -0.9823
 7087TIP3    H242897   4.197   3.544   1.619  0.7769  1.9135  1.4554
 7088TIP3   OH242898   2.177   0.421   0.549 -0.0922 -0.1702 -0.1828
 7088TIP3    H142899   2.191   0.451   0.459 -0.7681 -1.2444 -0.6776
 7088TIP3    H242900   2.212   0.331   0.549 -0.9741 -0.5225  0.3504
 7089TIP3   OH242901   2.425   2.385   0.963  0.8506  0.1403  0.1959
 7089TIP3    H142902   2.470   2.314   1.008  0.9498  0.1031  0.0392
 7089TIP3    H242903   2.494   2.448   0.943  1.2428 -0.8918 -1.9783
 7090TIP3   OH242904   4.219   0.468   2.429  0.4425 -0.1834  0.1392
 7090TIP3    H142905   4.249   0.422   2.508 -1.0839 -1.6528 -0.0882
 7090TIP3    H242906   4.251   0.415   2.357  1.1149  0.7091 -0.2420
 7091TIP3   OH242907   3.587   2.173   0.597  0.5390  0.0744  0.0861
 7091TIP3    H142908   3.640   2.250   0.615  0.4329  0.5533 -1.5155
 7091TIP3    H242909   3.650   2.104   0.580  0.6663  0.4600 -1.0694
 7092TIP3   OH242910   2.542   0.015   2.963  0.0949  0.5246 -0.4298
 7092TIP3    H142911   2.478   0.061   3.017 -0.0882  0.6176 -0.7250
 7092TIP3    H242912   2.602  -0.025   3.026  0.5131  1.5267 -0.1674
 7093TIP3   OH242913   1.118   4.348   8.572  0.2455 -0.1198 -0.1577
 7093TIP3    H142914   1.175   4.282   8.532  0.8371  0.5235 -0.4005
 7093TIP3    H242915   1.169   4.383   8.644 -0.1368 -0.0506  0.0790
 7094TIP3   OH242916   6.731   0.088   2.310  0.4542  0.2955 -0.2276
 7094TIP3    H142917   6.676   0.166   2.309 -1.8154 -1.2182 -1.6283
 7094TIP3    H242918   6.803   0.111   2.369 -0.4627  3.1726 -0.0575
 7095TIP3   OH242919   4.911   0.475   0.290 -0.1251  0.1484 -0.5861
 7095TIP3    H142920   4.948   0.492   0.377  1.5549 -2.1609 -0.7456
 7095TIP3    H242921   4.987   0.455   0.235 -1.2765  0.0007 -2.1982
 7096TIP3   OH242922   0.021   0.366   7.497  0.4199 -0.0125 -0.4749
 7096TIP3    H142923  -0.020   0.453   7.501 -0.8675 -0.6199  2.3615
 7096TIP3    H242924  -0.025   0.322   7.426 -1.7562  0.4179  0.5561
 7097TIP3   OH242925   0.203   1.819   6.439  0.0362 -0.4349  0.4440
 7097TIP3    H142926   0.253   1.820   6.520 -0.0434 -0.7733  0.4994
 7097TIP3    H242927   0.170   1.730   6.432  1.9402 -1.0674 -1.1464
 7098TIP3   OH242928   3.083   1.646   8.190 -0.0999 -0.2202  0.5707
 7098TIP3    H142929   3.077   1.739   8.167  0.1225 -0.1649  0.7344
 7098TIP3    H242930   3.146   1.643   8.261 -0.9162 -0.3741  1.3088
 7099TIP3   OH242931   2.454   6.030   8.135  0.2016 -0.7068  0.8576
 7099TIP3    H142932   2.449   6.052   8.228 -0.9620  1.3720  0.3589
 7099TIP3    H242933   2.533   6.074   8.104 -1.2162  1.5581  0.2179
 7100TIP3   OH242934   5.586   4.896   0.855 -0.0432 -0.0641  0.1022
 7100TIP3    H142935   5.583   4.984   0.891 -1.9233 -0.0858  0.0651
 7100TIP3    H242936   5.614   4.908   0.764 -2.0357  0.7250 -0.4615
 7101TIP3   OH242937   4.161   2.342   2.224  0.0766 -0.0241 -0.5146
 7101TIP3    H142938   4.149   2.316   2.316 -3.8711 -2.0956 -1.3923
 7101TIP3    H242939   4.118   2.427   2.218  2.5521  1.3706 -0.0944
 7102TIP3   OH242940   2.720   1.561   1.634  0.6232 -0.1553 -0.2869
 7102TIP3    H142941   2.644   1.616   1.620  0.7837  0.5979  1.4878
 7102TIP3    H242942   2.778   1.578   1.560  0.4119  1.6472 -0.0666
 7103TIP3   OH242943   6.266   1.425   7.722 -0.6315 -0.2504 -0.8310
 7103TIP3    H142944   6.264   1.491   7.791 -2.2977  1.2739 -2.2150
 7103TIP3    H242945   6.268   1.341   7.768 -2.1277  0.6862  1.0795
 7104TIP3   OH242946   0.156   0.521   8.301  0.5195  0.0502  0.0495
 7104TIP3    H142947   0.141   0.456   8.232  0.8647 -0.6605  0.6206
 7104TIP3    H242948   0.098   0.594   8.279  0.1212 -0.4526 -0.6079
 7105TIP3   OH242949   2.347   5.176   0.623 -0.3931  0.0698  0.1599
 7105TIP3    H142950   2.352   5.271   0.610  1.2664  0.2038  1.4832
 7105TIP3    H242951   2.392   5.161   0.706  1.2790 -2.0879 -1.0464
 7106TIP3   OH242952   4.033   2.624   0.352 -0.1885  0.0569  0.0573
 7106TIP3    H142953   4.081   2.645   0.272 -1.6325 -1.1105 -1.1719
 7106TIP3    H242954   4.077   2.548   0.388 -1.0131 -0.9780 -1.0371
 7107TIP3   OH242955   0.488   5.876   1.018  0.4441  0.1797 -0.3171
 7107TIP3    H142956   0.485   5.796   1.070  0.1584 -0.0856 -0.7351
 7107TIP3    H242957   0.424   5.862   0.948 -0.2527  1.1377  0.1061
 7108TIP3   OH242958   1.564   6.261   1.837  0.0342 -0.0114 -0.0081
 7108TIP3    H142959   1.490   6.217   1.877  1.1522 -0.9765  1.1092
 7108TIP3    H242960   1.547   6.354   1.851 -1.8427 -0.1014 -1.4528
 7109TIP3   OH242961   1.107   0.925   1.981 -0.1454 -0.4613 -0.3651
 7109TIP3    H142962   1.109   0.837   1.943  1.8653 -2.3069  3.4761
 7109TIP3    H242963   1.034   0.923   2.042  0.5712  0.1177  0.5367
 7110TIP3   OH242964   3.025   4.068   2.719 -0.1110  0.3732  0.2902
 7110TIP3    H142965   2.997   4.036   2.634  0.7797  1.6040 -0.5016
 7110TIP3    H242966   3.025   3.991   2.775 -0.2266 -0.5570 -0.9586
 7111TIP3   OH242967   6.398   4.219   7.877  0.4935 -0.5455 -0.2914
 7111TIP3    H142968   6.331   4.163   7.838  1.7062 -1.7324 -0.7920
 7111TIP3    H242969   6.436   4.266   7.803  1.5825 -1.4453 -0.3393
 7112TIP3   OH242970   0.448   1.666   8.418  0.5923  1.0746  0.0351
 7112TIP3    H142971   0.432   1.748   8.465  0.8435  1.4074 -0.4482
 7112TIP3    H242972   0.420   1.598   8.478 -1.6842  1.5848 -0.3836
 7113TIP3   OH242973   1.611   5.328   1.890  0.5706 -0.3259  0.4115
 7113TIP3    H142974   1.604   5.289   1.977 -2.2479 -0.9294  0.0149
 7113TIP3    H242975   1.528   5.373   1.878  1.1773  0.3248 -1.7234
 7114TIP3   OH242976   2.667   6.864   8.038 -0.2275 -0.3983  0.6414
 7114TIP3    H142977   2.737   6.893   8.097  0.9708 -2.0290  0.1077
 7114TIP3    H242978   2.689   6.773   8.019 -0.2515  0.1865 -2.7642
 7115TIP3   OH242979   0.388   2.118   0.680 -0.1719  0.2016  0.6611
 7115TIP3    H142980   0.300   2.105   0.717  0.5751 -0.8067  2.1625
 7115TIP3    H242981   0.443   2.056   0.726  0.6162 -2.4291 -3.2769
 7116TIP3   OH242982   1.306   3.381   0.207 -0.1335 -0.1749 -0.2334
 7116TIP3    H142983   1.250   3.311   0.240  2.0252 -0.7544  2.6345
 7116TIP3    H242984   1.263   3.462   0.237 -0.0267 -0.5473  0.9635
 7117TIP3   OH242985   3.821   6.531   8.392  0.5016 -0.6093  0.1157
 7117TIP3    H142986   3.792   6.621   8.378  0.2559 -0.8326 -0.9224
 7117TIP3    H242987   3.766   6.499   8.463 -0.5650 -0.4472 -0.6092
 7118TIP3   OH242988   3.409   2.412   1.036  0.4858  0.5444 -0.2372
 7118TIP3    H142989   3.356   2.491   1.023  2.1844  1.6427 -0.7753
 7118TIP3    H242990   3.345   2.341   1.039 -1.0209  1.8091 -0.8085
 7119TIP3   OH242991   1.253   1.809   8.426 -0.2399  0.5639  0.1419
 7119TIP3    H142992   1.197   1.737   8.454  0.3902 -0.1318 -0.3327
 7119TIP3    H242993   1.245   1.875   8.495 -1.8242  0.5923 -0.0398
 7120TIP3   OH242994   3.231   3.288   0.533 -0.0103 -0.1424  0.5394
 7120TIP3    H142995   3.319   3.282   0.496  0.5686 -2.7024  2.1110
 7120TIP3    H242996   3.242   3.340   0.612 -0.4577  1.7031 -0.5509
 7121TIP3   OH242997   0.433   2.623   2.191  0.5899  0.0931 -0.0892
 7121TIP3    H142998   0.407   2.680   2.263 -2.8431  1.6845 -2.3431
 7121TIP3    H242999   0.399   2.666   2.113  0.5833 -3.5115 -2.2984
 7122TIP3   OH243000   5.818   1.807   8.441 -0.6118  0.1677 -0.2660
 7122TIP3    H143001   5.737   1.851   8.413 -1.0737 -0.4229  0.1013
 7122TIP3    H243002   5.829   1.736   8.377  0.5173  1.2011 -1.2840
 7123TIP3   OH243003   1.149   0.150   8.298  0.2962 -0.4403  0.1260
 7123TIP3    H143004   1.164   0.218   8.364  1.7861  2.3316 -2.8198
 7123TIP3    H243005   1.058   0.123   8.313  0.3546  0.5050  2.8340
 7124TIP3   OH243006   6.608   4.441   1.975 -0.2048  0.1843  0.4374
 7124TIP3    H143007   6.642   4.364   2.020  0.6814 -1.2936 -2.5121
 7124TIP3    H243008   6.559   4.406   1.900 -1.1066  2.4692 -0.1423
 7125TIP3   OH243009   2.173   1.889   0.154 -0.0621 -0.4558  0.0650
 7125TIP3    H143010   2.249   1.895   0.096 -0.6014 -1.4435 -0.7738
 7125TIP3    H243011   2.122   1.968   0.135  1.0317  0.5528  1.0981
 7126TIP3   OH243012   2.808   1.923   1.365  0.1980  0.6586 -0.0808
 7126TIP3    H143013   2.864   1.946   1.439  0.5834 -1.0247  0.1914
 7126TIP3    H243014   2.719   1.933   1.398  0.3004  2.5011 -0.2490
 7127TIP3   OH243015   3.111   3.461   2.856 -0.5424 -0.0438 -0.3444
 7127TIP3    H143016   3.017   3.473   2.845 -0.5388 -0.8959 -1.6138
 7127TIP3    H243017   3.148   3.481   2.770  0.3438 -0.5730 -0.1018
 7128TIP3   OH243018   3.917   5.139   2.562 -0.1480 -0.3240  0.1404
 7128TIP3    H143019   3.900   5.217   2.509 -1.6339 -0.0726  0.9332
 7128TIP3    H243020   3.834   5.093   2.565 -0.0795 -0.4264  2.0620
 7129TIP3   OH243021   3.934   5.242   0.809  0.8937 -0.0061  0.0633
 7129TIP3    H143022   3.980   5.237   0.725 -0.1414  2.2707 -0.7036
 7129TIP3    H243023   3.936   5.152   0.842  0.7641 -1.1314 -2.7077
 7130TIP3   OH243024   0.727   1.228   0.325  0.3635  0.0334  0.1841
 7130TIP3    H143025   0.749   1.169   0.398  3.4059  1.4592  0.5738
 7130TIP3    H243026   0.720   1.170   0.249  0.4717 -1.1172  1.0244
 7131TIP3   OH243027   5.105   5.782   2.110  0.5114 -0.0897  1.3531
 7131TIP3    H143028   5.121   5.712   2.047  0.6752  0.4729  0.7600
 7131TIP3    H243029   5.142   5.749   2.192  1.5600 -0.2568  0.8285
 7132TIP3   OH243030   3.012   1.386   2.242  0.4111  0.3752 -0.2741
 7132TIP3    H143031   2.947   1.449   2.274  1.2901 -0.1475  2.8981
 7132TIP3    H243032   3.006   1.312   2.302  0.5721 -1.9249 -2.9066
 7133TIP3   OH243033   0.088   3.822   7.786 -0.8519 -0.2685 -0.0913
 7133TIP3    H143034   0.027   3.762   7.828 -0.8998 -0.2919 -0.1964
 7133TIP3    H243035   0.044   3.850   7.706 -2.2714  2.4051  1.4702
 7134TIP3   OH243036   5.653   1.587   7.773 -0.4439  0.5488  0.2323
 7134TIP3    H143037   5.703   1.661   7.807  0.4803  0.5112 -0.9356
 7134TIP3    H243038   5.612   1.621   7.693 -1.8357  0.4074  0.8763
 7135TIP3   OH243039   1.315   3.214   7.940 -0.5092  0.1696 -0.1005
 7135TIP3    H143040   1.290   3.303   7.918 -0.1399  0.2368 -0.2569
 7135TIP3    H243041   1.395   3.198   7.890 -1.1042 -0.5841 -0.8480
 7136TIP3   OH243042   2.263   4.547   0.272 -0.0362  0.1018 -0.5610
 7136TIP3    H143043   2.308   4.530   0.189 -2.2372  1.9565 -2.2540
 7136TIP3    H243044   2.227   4.462   0.298  1.1421 -0.6159 -1.1679
 7137TIP3   OH243045   4.535   2.713   0.792  0.5368  0.0545  0.4942
 7137TIP3    H143046   4.493   2.761   0.720  0.8910  0.9960  0.8948
 7137TIP3    H243047   4.617   2.680   0.755  0.6517  0.4177  0.4259
 7138TIP3   OH243048   0.912   4.313   2.990 -0.2635  0.1086 -0.0296
 7138TIP3    H143049   0.978   4.249   2.962 -1.0928 -0.8773  0.2027
 7138TIP3    H243050   0.903   4.372   2.916 -0.1799 -0.6240 -0.6422
 7139TIP3   OH243051   2.835   2.960   2.022 -0.2256 -0.0756  0.1127
 7139TIP3    H143052   2.846   3.020   1.948 -0.3259  0.8242  0.8017
 7139TIP3    H243053   2.905   2.983   2.082 -0.6696 -0.1930  0.6844
 7140TIP3   OH243054   3.813   3.482   7.921  0.3054 -0.1360  0.0993
 7140TIP3    H143055   3.883   3.424   7.892 -0.4423 -1.1784  0.3155
 7140TIP3    H243056   3.812   3.472   8.016  0.5573  0.6936  0.1930
 7141TIP3   OH243057   0.121   2.731   8.396 -0.6420  0.3410 -0.5957
 7141TIP3    H143058   0.140   2.753   8.487 -0.5207  1.0326 -0.7774
 7141TIP3    H243059   0.168   2.650   8.380  0.9026  1.2113 -0.5875
 7142TIP3   OH243060   4.861   0.721   7.683  0.0317  0.6284 -0.1773
 7142TIP3    H143061   4.905   0.686   7.761 -1.2672  0.6643  0.6045
 7142TIP3    H243062   4.924   0.783   7.647  0.6855  0.5869  0.8208
 7143TIP3   OH243063   2.554   2.816   0.800  0.3704  0.0484  0.6167
 7143TIP3    H143064   2.474   2.778   0.764 -0.0485 -0.3561  1.9007
 7143TIP3    H243065   2.607   2.839   0.724 -0.0323 -1.7002 -0.2352
 7144TIP3   OH243066   0.260   4.570   0.493  0.4979 -0.1239 -0.0017
 7144TIP3    H143067   0.256   4.616   0.577 -2.1746 -3.0568  1.6880
 7144TIP3    H243068   0.315   4.493   0.511  0.4679 -0.4265 -1.1544
 7145TIP3   OH243069   2.670   2.168   2.266  0.0090  0.2527 -0.3406
 7145TIP3    H143070   2.629   2.107   2.206 -0.2992 -1.7522  1.7705
 7145TIP3    H243071   2.754   2.128   2.288 -0.3515  0.3348  1.3528
 7146TIP3   OH243072   0.797   5.516   7.457  0.0150 -0.1276  0.8212
 7146TIP3    H143073   0.871   5.575   7.472  0.0795 -0.5122  2.2381
 7146TIP3    H243074   0.836   5.438   7.417  0.9194 -1.3888  3.8090
 7147LIG     O143075   2.859   2.617   7.298  0.6690  0.1334  0.2096
 7147LIG     O243076   2.920   2.499   7.556  0.2685  0.2538 -0.0618
 7147LIG     O343077   2.814   2.349   7.151 -0.3744 -0.5841  0.6267
 7147LIG     O443078   2.718   2.508   7.668  1.0675 -0.1860  0.2083
 7147LIG     O543079   2.644   2.281   7.468  0.4049  0.3386  0.2529
 7147LIG     O643080   2.927   2.215   7.680 -0.1699  0.4900  0.3458
 7147LIG     O743081   2.571   2.258   7.756 -0.7943  0.2361 -0.1231
 7147LIG     O843082   2.961   2.386   7.909  0.2281  0.3235 -0.6024
 7147LIG     O943083   2.898   2.600   7.868  0.4026 -0.1988  0.4535
 7147LIG      N43084   3.314   2.814   7.205 -0.1573  0.4424  0.3389
 7147LIG     C143085   3.067   2.714   7.326 -0.6964 -0.0258 -0.2337
 7147LIG     C243086   3.194   2.731   7.415  0.3692 -0.0130 -0.6569
 7147LIG     C343087   2.929   2.697   7.397 -0.5556 -0.8116  0.3906
 7147LIG     C443088   3.316   2.711   7.315  0.1099  0.4178 -1.0686
 7147LIG     C543089   3.071   2.814   7.201 -0.0095 -0.6364 -0.5134
 7147LIG     C643090   3.083   2.586   7.252 -0.4161  0.4605 -0.4460
 7147LIG     C743091   3.328   2.572   7.253  0.3984  0.5913 -0.5642
 7147LIG     C843092   3.201   2.810   7.114  0.4499 -0.2714  0.4209
 7147LIG     C943093   2.943   2.640   7.541  0.0870 -0.0441 -0.4155
 7147LIG    C1043094   3.195   2.514   7.220 -0.2568 -0.4353 -0.4024
 7147LIG    C1143095   3.195   2.644   7.544 -0.0869 -0.1967  0.0957
 7147LIG    C1243096   2.954   2.530   7.239  0.4539 -0.1609  1.0617
 7147LIG    C1343097   3.081   2.604   7.594  0.1904 -0.5667  0.1343
 7147LIG    C1443098   3.434   2.839   7.132 -0.0656 -0.0756 -0.3440
 7147LIG    C1543099   3.182   2.382   7.181 -0.7019  0.4418  0.6016
 7147LIG    C1643100   2.939   2.409   7.180 -0.2296  0.1485  0.2581
 7147LIG    C1743101   3.057   2.327   7.154  0.9057 -0.4330 -0.1780
 7147LIG    C1843102   2.789   2.457   7.557  0.0110 -0.1993  0.0066
 7147LIG    C1943103   2.773   2.309   7.524 -0.4032 -0.1832  0.3683
 7147LIG    C2043104   2.788   2.224   7.645 -0.0084 -0.4301 -0.1325
 7147LIG    C2143105   2.717   2.288   7.770 -0.2677  0.9420 -0.2928
 7147LIG    C2243106   2.744   2.433   7.784  0.0037 -0.1582 -1.5690
 7147LIG    C2343107   2.876   2.483   7.851  0.1310  0.9795  0.4596
 7147LIG     H143108   3.201   2.834   7.454  0.5541 -1.4710  3.7539
 7147LIG     H243109   2.876   2.794   7.402  0.3083 -0.3445  0.6094
 7147LIG     H343110   3.404   2.727   7.380 -0.2236 -3.4752  0.6256
 7147LIG     H443111   3.068   2.914   7.249 -1.4494 -1.6645  1.7506
 7147LIG     H543112   2.980   2.806   7.138 -0.6980 -0.2896  0.4047
 7147LIG     H643113   3.381   2.495   7.313 -1.8834 -0.7520 -0.1421
 7147LIG     H743114   3.382   2.585   7.156  1.2126  0.2375 -0.1681
 7147LIG     H843115   3.210   2.716   7.056 -1.2620 -0.9161  1.1196
 7147LIG     H943116   3.204   2.896   7.043 -0.8736 -0.2856  0.3211
 7147LIG    H1043117   2.882   2.692   7.618  1.2554 -0.9630  1.1905
 7147LIG    H1143118   3.285   2.596   7.587  0.0945  1.3398  1.5113
 7147LIG    H1243119   3.086   2.547   7.688 -1.0861  0.1081  0.6463
 7147LIG    H1343120   3.410   2.852   7.024  0.2880  0.7356 -0.3339
 7147LIG    H1443121   3.514   2.763   7.138  0.4135  0.5218  1.8394
 7147LIG    H1543122   3.476   2.940   7.149  0.7721 -0.1412 -1.8764
 7147LIG    H1643123   3.264   2.321   7.145  0.3237  0.0292  3.3768
 7147LIG    H1743124   3.044   2.225   7.119  2.8711 -1.3804  1.5625
 7147LIG    H1843125   2.746   2.501   7.464 -3.6402 -0.9345  1.2013
 7147LIG    H1943126   2.849   2.274   7.450 -0.1430 -1.9203  1.4001
 7147LIG    H2043127   2.759   2.120   7.622 -1.6380 -0.2645  0.9767
 7147LIG    H2143128   2.822   2.253   7.158  0.8917 -0.5556 -0.1609
 7147LIG    H2243129   2.756   2.226   7.854  1.5644 -0.5946 -2.1584
 7147LIG    H2343130   2.677   2.469   7.864  1.0844 -1.6895  0.0962
 7147LIG    H2443131   2.645   2.329   7.385  1.1117 -0.0717  0.0153
 7147LIG    H2543132   2.975   2.147   7.632 -0.2961  0.3727  0.3831
 7147LIG    H2643133   2.563   2.170   7.719 -1.1053 -0.0901  0.6821
 7147LIG    H2743134   3.023   2.435   7.965 -0.7462  1.3060 -0.3362
   6.88679   6.88679   8.68976
